;
;   File g5.5dp_cooh_pamam.itp  was generated
;   By user: sairam (1000)
;   On host: sairam
;   At date: Tue. February  2 11:28:57 2025
;
;   This is a standalone topology file
;
;   Created by:
;   ParmEd:       amb2gro_top_gro.py, VERSION 3.4.1
;   Executable:   amb2gro_top_gro.py
;   Library dir:  /usr/local/gromacs/share/gromacs/top
;   Command line:
;     ./amb2gro_top_gro.py -p g5.5dp_cooh_pamam.prmtop -c g5.5dp_cooh_pamam.inpcrd -t g5.5dp_cooh_pamam.itp -g g5.5dp_cooh_pamam.gro -b g5.5dp_cooh_pamam.pdb
;

;[ defaults ]
;; nbfunc        comb-rule       gen-pairs       fudgeLJ fudgeQQ
;1               2               yes             0.5          0.83333333  
;
;[ atomtypes ]
;; name    at.num    mass    charge ptype  sigma      epsilon
;n4             7  14.010000  0.00000000  A     0.32499985        0.71128
;c3             6  12.010000  0.00000000  A     0.33996695      0.4577296
;c              6  12.010000  0.00000000  A     0.33996695       0.359824
;o              8  16.000000  0.00000000  A     0.29599219        0.87864
;hx             1   1.008000  0.00000000  A     0.19599772      0.0656888
;hc             1   1.008000  0.00000000  A     0.26495328      0.0656888
;hn             1   1.008000  0.00000000  A     0.10690785      0.0656888
;n              7  14.010000  0.00000000  A     0.32499985        0.71128
;h1             1   1.008000  0.00000000  A      0.2471353      0.0656888
;oh             8  16.000000  0.00000000  A     0.30664734      0.8803136
;ho             1   1.008000  0.00000000  A              0              0


[ moleculetype ]
; Name            nrexcl
g5.5dp_cooh_pamam          3

[ atoms ]
;   nr       type  resnr residue  atom   cgnr    charge       mass  typeB    chargeB      massB
; residue    1 aaa rtp aaa q 2.0
    1         n4      1    aaa     N1      1 -0.01815100  14.010000   ; qtot -0.018151
    2         c3      1    aaa     C1      2 0.01243000  12.010000   ; qtot -0.005721
    3         c3      1    aaa     C2      3 0.01243000  12.010000   ; qtot 0.006709
    4         n4      1    aaa     N2      4 -0.01815100  14.010000   ; qtot -0.011442
    5         c3      1    aaa     C3      5 -0.01431700  12.010000   ; qtot -0.025759
    6         c3      1    aaa     C4      6 -0.01431700  12.010000   ; qtot -0.040076
    7         c3      1    aaa     C5      7 -0.01431700  12.010000   ; qtot -0.054393
    8         c3      1    aaa     C6      8 -0.01431700  12.010000   ; qtot -0.068710
    9         c3      1    aaa     C7      9 -0.26758200  12.010000   ; qtot -0.336292
   10          c      1    aaa     C8     10 0.71337400  12.010000   ; qtot 0.377082
   11         c3      1    aaa     C9     11 -0.26758200  12.010000   ; qtot 0.109500
   12          c      1    aaa    C10     12 0.71337400  12.010000   ; qtot 0.822874
   13         c3      1    aaa    C11     13 -0.26758200  12.010000   ; qtot 0.555292
   14          c      1    aaa    C12     14 0.71337400  12.010000   ; qtot 1.268666
   15         c3      1    aaa    C13     15 -0.26758200  12.010000   ; qtot 1.001084
   16          c      1    aaa    C14     16 0.71337400  12.010000   ; qtot 1.714458
   17          o      1    aaa     O1     17 -0.55531800  16.000000   ; qtot 1.159140
   18          o      1    aaa     O2     18 -0.55531800  16.000000   ; qtot 0.603822
   19          o      1    aaa     O3     19 -0.55531800  16.000000   ; qtot 0.048504
   20          o      1    aaa     O4     20 -0.55531800  16.000000   ; qtot -0.506814
   21         hx      1    aaa     H1     21 0.08276100   1.008000   ; qtot -0.424053
   22         hx      1    aaa     H2     22 0.08276100   1.008000   ; qtot -0.341292
   23         hx      1    aaa     H3     23 0.08276100   1.008000   ; qtot -0.258531
   24         hx      1    aaa     H4     24 0.08276100   1.008000   ; qtot -0.175770
   25         hx      1    aaa     H5     25 0.10467000   1.008000   ; qtot -0.071100
   26         hx      1    aaa     H6     26 0.10467000   1.008000   ; qtot 0.033570
   27         hx      1    aaa     H7     27 0.10467000   1.008000   ; qtot 0.138240
   28         hx      1    aaa     H8     28 0.10467000   1.008000   ; qtot 0.242910
   29         hx      1    aaa     H9     29 0.10467000   1.008000   ; qtot 0.347580
   30         hx      1    aaa    H10     30 0.10467000   1.008000   ; qtot 0.452250
   31         hx      1    aaa    H11     31 0.10467000   1.008000   ; qtot 0.556920
   32         hx      1    aaa    H12     32 0.10467000   1.008000   ; qtot 0.661590
   33         hc      1    aaa    H13     33 0.11830200   1.008000   ; qtot 0.779892
   34         hc      1    aaa    H14     34 0.11830200   1.008000   ; qtot 0.898194
   35         hc      1    aaa    H15     35 0.11830200   1.008000   ; qtot 1.016496
   36         hc      1    aaa    H16     36 0.11830200   1.008000   ; qtot 1.134798
   37         hc      1    aaa    H17     37 0.11830200   1.008000   ; qtot 1.253100
   38         hc      1    aaa    H18     38 0.11830200   1.008000   ; qtot 1.371402
   39         hc      1    aaa    H19     39 0.11830200   1.008000   ; qtot 1.489704
   40         hc      1    aaa    H20     40 0.11830200   1.008000   ; qtot 1.608006
   41         hn      1    aaa    H37     41 0.19599700   1.008000   ; qtot 1.804003
   42         hn      1    aaa    H38     42 0.19599700   1.008000   ; qtot 2.000000
; residue    2 bbb rtp bbb q 1.0
   43         n4      2    bbb     N1     43 -0.02747900  14.010000   ; qtot 1.972521
   44         c3      2    bbb     C1     44 -0.05097600  12.010000   ; qtot 1.921545
   45         c3      2    bbb     C2     45 -0.05097600  12.010000   ; qtot 1.870569
   46         c3      2    bbb     C3     46 -0.18457900  12.010000   ; qtot 1.685990
   47          c      2    bbb     C4     47 0.67254400  12.010000   ; qtot 2.358534
   48         c3      2    bbb     C5     48 -0.18457900  12.010000   ; qtot 2.173955
   49          c      2    bbb     C6     49 0.67254400  12.010000   ; qtot 2.846499
   50         c3      2    bbb     C7     50 -0.02083000  12.010000   ; qtot 2.825669
   51         c3      2    bbb     C8     51 -0.03328100  12.010000   ; qtot 2.792388
   52          n      2    bbb     N2     52 -0.33303000  14.010000   ; qtot 2.459358
   53          o      2    bbb     O1     53 -0.52917200  16.000000   ; qtot 1.930186
   54          o      2    bbb     O2     54 -0.52917200  16.000000   ; qtot 1.401014
   55         hx      2    bbb     H1     55 0.11563300   1.008000   ; qtot 1.516647
   56         hx      2    bbb     H2     56 0.11563300   1.008000   ; qtot 1.632280
   57         hx      2    bbb     H3     57 0.11563300   1.008000   ; qtot 1.747913
   58         hx      2    bbb     H4     58 0.11563300   1.008000   ; qtot 1.863546
   59         hc      2    bbb     H5     59 0.08347900   1.008000   ; qtot 1.947025
   60         hc      2    bbb     H6     60 0.08347900   1.008000   ; qtot 2.030504
   61         hc      2    bbb     H7     61 0.08347900   1.008000   ; qtot 2.113983
   62         hc      2    bbb     H8     62 0.08347900   1.008000   ; qtot 2.197462
   63         hx      2    bbb     H9     63 0.07988000   1.008000   ; qtot 2.277342
   64         hx      2    bbb    H10     64 0.07988000   1.008000   ; qtot 2.357222
   65         h1      2    bbb    H11     65 0.10618100   1.008000   ; qtot 2.463403
   66         h1      2    bbb    H12     66 0.10618100   1.008000   ; qtot 2.569584
   67         hn      2    bbb    H13     67 0.25916100   1.008000   ; qtot 2.828745
   68         hn      2    bbb    H25     68 0.17125500   1.008000   ; qtot 3.000000
; residue    3 bbb rtp bbb q 1.0
   69         n4      3    bbb     N1     69 -0.02747900  14.010000   ; qtot 2.972521
   70         c3      3    bbb     C1     70 -0.05097600  12.010000   ; qtot 2.921545
   71         c3      3    bbb     C2     71 -0.05097600  12.010000   ; qtot 2.870569
   72         c3      3    bbb     C3     72 -0.18457900  12.010000   ; qtot 2.685990
   73          c      3    bbb     C4     73 0.67254400  12.010000   ; qtot 3.358534
   74         c3      3    bbb     C5     74 -0.18457900  12.010000   ; qtot 3.173955
   75          c      3    bbb     C6     75 0.67254400  12.010000   ; qtot 3.846499
   76         c3      3    bbb     C7     76 -0.02083000  12.010000   ; qtot 3.825669
   77         c3      3    bbb     C8     77 -0.03328100  12.010000   ; qtot 3.792388
   78          n      3    bbb     N2     78 -0.33303000  14.010000   ; qtot 3.459358
   79          o      3    bbb     O1     79 -0.52917200  16.000000   ; qtot 2.930186
   80          o      3    bbb     O2     80 -0.52917200  16.000000   ; qtot 2.401014
   81         hx      3    bbb     H1     81 0.11563300   1.008000   ; qtot 2.516647
   82         hx      3    bbb     H2     82 0.11563300   1.008000   ; qtot 2.632280
   83         hx      3    bbb     H3     83 0.11563300   1.008000   ; qtot 2.747913
   84         hx      3    bbb     H4     84 0.11563300   1.008000   ; qtot 2.863546
   85         hc      3    bbb     H5     85 0.08347900   1.008000   ; qtot 2.947025
   86         hc      3    bbb     H6     86 0.08347900   1.008000   ; qtot 3.030504
   87         hc      3    bbb     H7     87 0.08347900   1.008000   ; qtot 3.113983
   88         hc      3    bbb     H8     88 0.08347900   1.008000   ; qtot 3.197462
   89         hx      3    bbb     H9     89 0.07988000   1.008000   ; qtot 3.277342
   90         hx      3    bbb    H10     90 0.07988000   1.008000   ; qtot 3.357222
   91         h1      3    bbb    H11     91 0.10618100   1.008000   ; qtot 3.463403
   92         h1      3    bbb    H12     92 0.10618100   1.008000   ; qtot 3.569584
   93         hn      3    bbb    H13     93 0.25916100   1.008000   ; qtot 3.828745
   94         hn      3    bbb    H25     94 0.17125500   1.008000   ; qtot 4.000000
; residue    4 bbb rtp bbb q 1.0
   95         n4      4    bbb     N1     95 -0.02747900  14.010000   ; qtot 3.972521
   96         c3      4    bbb     C1     96 -0.05097600  12.010000   ; qtot 3.921545
   97         c3      4    bbb     C2     97 -0.05097600  12.010000   ; qtot 3.870569
   98         c3      4    bbb     C3     98 -0.18457900  12.010000   ; qtot 3.685990
   99          c      4    bbb     C4     99 0.67254400  12.010000   ; qtot 4.358534
  100         c3      4    bbb     C5    100 -0.18457900  12.010000   ; qtot 4.173955
  101          c      4    bbb     C6    101 0.67254400  12.010000   ; qtot 4.846499
  102         c3      4    bbb     C7    102 -0.02083000  12.010000   ; qtot 4.825669
  103         c3      4    bbb     C8    103 -0.03328100  12.010000   ; qtot 4.792388
  104          n      4    bbb     N2    104 -0.33303000  14.010000   ; qtot 4.459358
  105          o      4    bbb     O1    105 -0.52917200  16.000000   ; qtot 3.930186
  106          o      4    bbb     O2    106 -0.52917200  16.000000   ; qtot 3.401014
  107         hx      4    bbb     H1    107 0.11563300   1.008000   ; qtot 3.516647
  108         hx      4    bbb     H2    108 0.11563300   1.008000   ; qtot 3.632280
  109         hx      4    bbb     H3    109 0.11563300   1.008000   ; qtot 3.747913
  110         hx      4    bbb     H4    110 0.11563300   1.008000   ; qtot 3.863546
  111         hc      4    bbb     H5    111 0.08347900   1.008000   ; qtot 3.947025
  112         hc      4    bbb     H6    112 0.08347900   1.008000   ; qtot 4.030504
  113         hc      4    bbb     H7    113 0.08347900   1.008000   ; qtot 4.113983
  114         hc      4    bbb     H8    114 0.08347900   1.008000   ; qtot 4.197462
  115         hx      4    bbb     H9    115 0.07988000   1.008000   ; qtot 4.277342
  116         hx      4    bbb    H10    116 0.07988000   1.008000   ; qtot 4.357222
  117         h1      4    bbb    H11    117 0.10618100   1.008000   ; qtot 4.463403
  118         h1      4    bbb    H12    118 0.10618100   1.008000   ; qtot 4.569584
  119         hn      4    bbb    H13    119 0.25916100   1.008000   ; qtot 4.828745
  120         hn      4    bbb    H25    120 0.17125500   1.008000   ; qtot 5.000000
; residue    5 bbb rtp bbb q 1.0
  121         n4      5    bbb     N1    121 -0.02747900  14.010000   ; qtot 4.972521
  122         c3      5    bbb     C1    122 -0.05097600  12.010000   ; qtot 4.921545
  123         c3      5    bbb     C2    123 -0.05097600  12.010000   ; qtot 4.870569
  124         c3      5    bbb     C3    124 -0.18457900  12.010000   ; qtot 4.685990
  125          c      5    bbb     C4    125 0.67254400  12.010000   ; qtot 5.358534
  126         c3      5    bbb     C5    126 -0.18457900  12.010000   ; qtot 5.173955
  127          c      5    bbb     C6    127 0.67254400  12.010000   ; qtot 5.846499
  128         c3      5    bbb     C7    128 -0.02083000  12.010000   ; qtot 5.825669
  129         c3      5    bbb     C8    129 -0.03328100  12.010000   ; qtot 5.792388
  130          n      5    bbb     N2    130 -0.33303000  14.010000   ; qtot 5.459358
  131          o      5    bbb     O1    131 -0.52917200  16.000000   ; qtot 4.930186
  132          o      5    bbb     O2    132 -0.52917200  16.000000   ; qtot 4.401014
  133         hx      5    bbb     H1    133 0.11563300   1.008000   ; qtot 4.516647
  134         hx      5    bbb     H2    134 0.11563300   1.008000   ; qtot 4.632280
  135         hx      5    bbb     H3    135 0.11563300   1.008000   ; qtot 4.747913
  136         hx      5    bbb     H4    136 0.11563300   1.008000   ; qtot 4.863546
  137         hc      5    bbb     H5    137 0.08347900   1.008000   ; qtot 4.947025
  138         hc      5    bbb     H6    138 0.08347900   1.008000   ; qtot 5.030504
  139         hc      5    bbb     H7    139 0.08347900   1.008000   ; qtot 5.113983
  140         hc      5    bbb     H8    140 0.08347900   1.008000   ; qtot 5.197462
  141         hx      5    bbb     H9    141 0.07988000   1.008000   ; qtot 5.277342
  142         hx      5    bbb    H10    142 0.07988000   1.008000   ; qtot 5.357222
  143         h1      5    bbb    H11    143 0.10618100   1.008000   ; qtot 5.463403
  144         h1      5    bbb    H12    144 0.10618100   1.008000   ; qtot 5.569584
  145         hn      5    bbb    H13    145 0.25916100   1.008000   ; qtot 5.828745
  146         hn      5    bbb    H25    146 0.17125500   1.008000   ; qtot 6.000000
; residue    6 bbb rtp bbb q 1.0
  147         n4      6    bbb     N1    147 -0.02747900  14.010000   ; qtot 5.972521
  148         c3      6    bbb     C1    148 -0.05097600  12.010000   ; qtot 5.921545
  149         c3      6    bbb     C2    149 -0.05097600  12.010000   ; qtot 5.870569
  150         c3      6    bbb     C3    150 -0.18457900  12.010000   ; qtot 5.685990
  151          c      6    bbb     C4    151 0.67254400  12.010000   ; qtot 6.358534
  152         c3      6    bbb     C5    152 -0.18457900  12.010000   ; qtot 6.173955
  153          c      6    bbb     C6    153 0.67254400  12.010000   ; qtot 6.846499
  154         c3      6    bbb     C7    154 -0.02083000  12.010000   ; qtot 6.825669
  155         c3      6    bbb     C8    155 -0.03328100  12.010000   ; qtot 6.792388
  156          n      6    bbb     N2    156 -0.33303000  14.010000   ; qtot 6.459358
  157          o      6    bbb     O1    157 -0.52917200  16.000000   ; qtot 5.930186
  158          o      6    bbb     O2    158 -0.52917200  16.000000   ; qtot 5.401014
  159         hx      6    bbb     H1    159 0.11563300   1.008000   ; qtot 5.516647
  160         hx      6    bbb     H2    160 0.11563300   1.008000   ; qtot 5.632280
  161         hx      6    bbb     H3    161 0.11563300   1.008000   ; qtot 5.747913
  162         hx      6    bbb     H4    162 0.11563300   1.008000   ; qtot 5.863546
  163         hc      6    bbb     H5    163 0.08347900   1.008000   ; qtot 5.947025
  164         hc      6    bbb     H6    164 0.08347900   1.008000   ; qtot 6.030504
  165         hc      6    bbb     H7    165 0.08347900   1.008000   ; qtot 6.113983
  166         hc      6    bbb     H8    166 0.08347900   1.008000   ; qtot 6.197462
  167         hx      6    bbb     H9    167 0.07988000   1.008000   ; qtot 6.277342
  168         hx      6    bbb    H10    168 0.07988000   1.008000   ; qtot 6.357222
  169         h1      6    bbb    H11    169 0.10618100   1.008000   ; qtot 6.463403
  170         h1      6    bbb    H12    170 0.10618100   1.008000   ; qtot 6.569584
  171         hn      6    bbb    H13    171 0.25916100   1.008000   ; qtot 6.828745
  172         hn      6    bbb    H25    172 0.17125500   1.008000   ; qtot 7.000000
; residue    7 bbb rtp bbb q 1.0
  173         n4      7    bbb     N1    173 -0.02747900  14.010000   ; qtot 6.972521
  174         c3      7    bbb     C1    174 -0.05097600  12.010000   ; qtot 6.921545
  175         c3      7    bbb     C2    175 -0.05097600  12.010000   ; qtot 6.870569
  176         c3      7    bbb     C3    176 -0.18457900  12.010000   ; qtot 6.685990
  177          c      7    bbb     C4    177 0.67254400  12.010000   ; qtot 7.358534
  178         c3      7    bbb     C5    178 -0.18457900  12.010000   ; qtot 7.173955
  179          c      7    bbb     C6    179 0.67254400  12.010000   ; qtot 7.846499
  180         c3      7    bbb     C7    180 -0.02083000  12.010000   ; qtot 7.825669
  181         c3      7    bbb     C8    181 -0.03328100  12.010000   ; qtot 7.792388
  182          n      7    bbb     N2    182 -0.33303000  14.010000   ; qtot 7.459358
  183          o      7    bbb     O1    183 -0.52917200  16.000000   ; qtot 6.930186
  184          o      7    bbb     O2    184 -0.52917200  16.000000   ; qtot 6.401014
  185         hx      7    bbb     H1    185 0.11563300   1.008000   ; qtot 6.516647
  186         hx      7    bbb     H2    186 0.11563300   1.008000   ; qtot 6.632280
  187         hx      7    bbb     H3    187 0.11563300   1.008000   ; qtot 6.747913
  188         hx      7    bbb     H4    188 0.11563300   1.008000   ; qtot 6.863546
  189         hc      7    bbb     H5    189 0.08347900   1.008000   ; qtot 6.947025
  190         hc      7    bbb     H6    190 0.08347900   1.008000   ; qtot 7.030504
  191         hc      7    bbb     H7    191 0.08347900   1.008000   ; qtot 7.113983
  192         hc      7    bbb     H8    192 0.08347900   1.008000   ; qtot 7.197462
  193         hx      7    bbb     H9    193 0.07988000   1.008000   ; qtot 7.277342
  194         hx      7    bbb    H10    194 0.07988000   1.008000   ; qtot 7.357222
  195         h1      7    bbb    H11    195 0.10618100   1.008000   ; qtot 7.463403
  196         h1      7    bbb    H12    196 0.10618100   1.008000   ; qtot 7.569584
  197         hn      7    bbb    H13    197 0.25916100   1.008000   ; qtot 7.828745
  198         hn      7    bbb    H25    198 0.17125500   1.008000   ; qtot 8.000000
; residue    8 bbb rtp bbb q 1.0
  199         n4      8    bbb     N1    199 -0.02747900  14.010000   ; qtot 7.972521
  200         c3      8    bbb     C1    200 -0.05097600  12.010000   ; qtot 7.921545
  201         c3      8    bbb     C2    201 -0.05097600  12.010000   ; qtot 7.870569
  202         c3      8    bbb     C3    202 -0.18457900  12.010000   ; qtot 7.685990
  203          c      8    bbb     C4    203 0.67254400  12.010000   ; qtot 8.358534
  204         c3      8    bbb     C5    204 -0.18457900  12.010000   ; qtot 8.173955
  205          c      8    bbb     C6    205 0.67254400  12.010000   ; qtot 8.846499
  206         c3      8    bbb     C7    206 -0.02083000  12.010000   ; qtot 8.825669
  207         c3      8    bbb     C8    207 -0.03328100  12.010000   ; qtot 8.792388
  208          n      8    bbb     N2    208 -0.33303000  14.010000   ; qtot 8.459358
  209          o      8    bbb     O1    209 -0.52917200  16.000000   ; qtot 7.930186
  210          o      8    bbb     O2    210 -0.52917200  16.000000   ; qtot 7.401014
  211         hx      8    bbb     H1    211 0.11563300   1.008000   ; qtot 7.516647
  212         hx      8    bbb     H2    212 0.11563300   1.008000   ; qtot 7.632280
  213         hx      8    bbb     H3    213 0.11563300   1.008000   ; qtot 7.747913
  214         hx      8    bbb     H4    214 0.11563300   1.008000   ; qtot 7.863546
  215         hc      8    bbb     H5    215 0.08347900   1.008000   ; qtot 7.947025
  216         hc      8    bbb     H6    216 0.08347900   1.008000   ; qtot 8.030504
  217         hc      8    bbb     H7    217 0.08347900   1.008000   ; qtot 8.113983
  218         hc      8    bbb     H8    218 0.08347900   1.008000   ; qtot 8.197462
  219         hx      8    bbb     H9    219 0.07988000   1.008000   ; qtot 8.277342
  220         hx      8    bbb    H10    220 0.07988000   1.008000   ; qtot 8.357222
  221         h1      8    bbb    H11    221 0.10618100   1.008000   ; qtot 8.463403
  222         h1      8    bbb    H12    222 0.10618100   1.008000   ; qtot 8.569584
  223         hn      8    bbb    H13    223 0.25916100   1.008000   ; qtot 8.828745
  224         hn      8    bbb    H25    224 0.17125500   1.008000   ; qtot 9.000000
; residue    9 bbb rtp bbb q 1.0
  225         n4      9    bbb     N1    225 -0.02747900  14.010000   ; qtot 8.972521
  226         c3      9    bbb     C1    226 -0.05097600  12.010000   ; qtot 8.921545
  227         c3      9    bbb     C2    227 -0.05097600  12.010000   ; qtot 8.870569
  228         c3      9    bbb     C3    228 -0.18457900  12.010000   ; qtot 8.685990
  229          c      9    bbb     C4    229 0.67254400  12.010000   ; qtot 9.358534
  230         c3      9    bbb     C5    230 -0.18457900  12.010000   ; qtot 9.173955
  231          c      9    bbb     C6    231 0.67254400  12.010000   ; qtot 9.846499
  232         c3      9    bbb     C7    232 -0.02083000  12.010000   ; qtot 9.825669
  233         c3      9    bbb     C8    233 -0.03328100  12.010000   ; qtot 9.792388
  234          n      9    bbb     N2    234 -0.33303000  14.010000   ; qtot 9.459358
  235          o      9    bbb     O1    235 -0.52917200  16.000000   ; qtot 8.930186
  236          o      9    bbb     O2    236 -0.52917200  16.000000   ; qtot 8.401014
  237         hx      9    bbb     H1    237 0.11563300   1.008000   ; qtot 8.516647
  238         hx      9    bbb     H2    238 0.11563300   1.008000   ; qtot 8.632280
  239         hx      9    bbb     H3    239 0.11563300   1.008000   ; qtot 8.747913
  240         hx      9    bbb     H4    240 0.11563300   1.008000   ; qtot 8.863546
  241         hc      9    bbb     H5    241 0.08347900   1.008000   ; qtot 8.947025
  242         hc      9    bbb     H6    242 0.08347900   1.008000   ; qtot 9.030504
  243         hc      9    bbb     H7    243 0.08347900   1.008000   ; qtot 9.113983
  244         hc      9    bbb     H8    244 0.08347900   1.008000   ; qtot 9.197462
  245         hx      9    bbb     H9    245 0.07988000   1.008000   ; qtot 9.277342
  246         hx      9    bbb    H10    246 0.07988000   1.008000   ; qtot 9.357222
  247         h1      9    bbb    H11    247 0.10618100   1.008000   ; qtot 9.463403
  248         h1      9    bbb    H12    248 0.10618100   1.008000   ; qtot 9.569584
  249         hn      9    bbb    H13    249 0.25916100   1.008000   ; qtot 9.828745
  250         hn      9    bbb    H25    250 0.17125500   1.008000   ; qtot 10.000000
; residue   10 bbb rtp bbb q 1.0
  251         n4     10    bbb     N1    251 -0.02747900  14.010000   ; qtot 9.972521
  252         c3     10    bbb     C1    252 -0.05097600  12.010000   ; qtot 9.921545
  253         c3     10    bbb     C2    253 -0.05097600  12.010000   ; qtot 9.870569
  254         c3     10    bbb     C3    254 -0.18457900  12.010000   ; qtot 9.685990
  255          c     10    bbb     C4    255 0.67254400  12.010000   ; qtot 10.358534
  256         c3     10    bbb     C5    256 -0.18457900  12.010000   ; qtot 10.173955
  257          c     10    bbb     C6    257 0.67254400  12.010000   ; qtot 10.846499
  258         c3     10    bbb     C7    258 -0.02083000  12.010000   ; qtot 10.825669
  259         c3     10    bbb     C8    259 -0.03328100  12.010000   ; qtot 10.792388
  260          n     10    bbb     N2    260 -0.33303000  14.010000   ; qtot 10.459358
  261          o     10    bbb     O1    261 -0.52917200  16.000000   ; qtot 9.930186
  262          o     10    bbb     O2    262 -0.52917200  16.000000   ; qtot 9.401014
  263         hx     10    bbb     H1    263 0.11563300   1.008000   ; qtot 9.516647
  264         hx     10    bbb     H2    264 0.11563300   1.008000   ; qtot 9.632280
  265         hx     10    bbb     H3    265 0.11563300   1.008000   ; qtot 9.747913
  266         hx     10    bbb     H4    266 0.11563300   1.008000   ; qtot 9.863546
  267         hc     10    bbb     H5    267 0.08347900   1.008000   ; qtot 9.947025
  268         hc     10    bbb     H6    268 0.08347900   1.008000   ; qtot 10.030504
  269         hc     10    bbb     H7    269 0.08347900   1.008000   ; qtot 10.113983
  270         hc     10    bbb     H8    270 0.08347900   1.008000   ; qtot 10.197462
  271         hx     10    bbb     H9    271 0.07988000   1.008000   ; qtot 10.277342
  272         hx     10    bbb    H10    272 0.07988000   1.008000   ; qtot 10.357222
  273         h1     10    bbb    H11    273 0.10618100   1.008000   ; qtot 10.463403
  274         h1     10    bbb    H12    274 0.10618100   1.008000   ; qtot 10.569584
  275         hn     10    bbb    H13    275 0.25916100   1.008000   ; qtot 10.828745
  276         hn     10    bbb    H25    276 0.17125500   1.008000   ; qtot 11.000000
; residue   11 bbb rtp bbb q 1.0
  277         n4     11    bbb     N1    277 -0.02747900  14.010000   ; qtot 10.972521
  278         c3     11    bbb     C1    278 -0.05097600  12.010000   ; qtot 10.921545
  279         c3     11    bbb     C2    279 -0.05097600  12.010000   ; qtot 10.870569
  280         c3     11    bbb     C3    280 -0.18457900  12.010000   ; qtot 10.685990
  281          c     11    bbb     C4    281 0.67254400  12.010000   ; qtot 11.358534
  282         c3     11    bbb     C5    282 -0.18457900  12.010000   ; qtot 11.173955
  283          c     11    bbb     C6    283 0.67254400  12.010000   ; qtot 11.846499
  284         c3     11    bbb     C7    284 -0.02083000  12.010000   ; qtot 11.825669
  285         c3     11    bbb     C8    285 -0.03328100  12.010000   ; qtot 11.792388
  286          n     11    bbb     N2    286 -0.33303000  14.010000   ; qtot 11.459358
  287          o     11    bbb     O1    287 -0.52917200  16.000000   ; qtot 10.930186
  288          o     11    bbb     O2    288 -0.52917200  16.000000   ; qtot 10.401014
  289         hx     11    bbb     H1    289 0.11563300   1.008000   ; qtot 10.516647
  290         hx     11    bbb     H2    290 0.11563300   1.008000   ; qtot 10.632280
  291         hx     11    bbb     H3    291 0.11563300   1.008000   ; qtot 10.747913
  292         hx     11    bbb     H4    292 0.11563300   1.008000   ; qtot 10.863546
  293         hc     11    bbb     H5    293 0.08347900   1.008000   ; qtot 10.947025
  294         hc     11    bbb     H6    294 0.08347900   1.008000   ; qtot 11.030504
  295         hc     11    bbb     H7    295 0.08347900   1.008000   ; qtot 11.113983
  296         hc     11    bbb     H8    296 0.08347900   1.008000   ; qtot 11.197462
  297         hx     11    bbb     H9    297 0.07988000   1.008000   ; qtot 11.277342
  298         hx     11    bbb    H10    298 0.07988000   1.008000   ; qtot 11.357222
  299         h1     11    bbb    H11    299 0.10618100   1.008000   ; qtot 11.463403
  300         h1     11    bbb    H12    300 0.10618100   1.008000   ; qtot 11.569584
  301         hn     11    bbb    H13    301 0.25916100   1.008000   ; qtot 11.828745
  302         hn     11    bbb    H25    302 0.17125500   1.008000   ; qtot 12.000000
; residue   12 bbb rtp bbb q 1.0
  303         n4     12    bbb     N1    303 -0.02747900  14.010000   ; qtot 11.972521
  304         c3     12    bbb     C1    304 -0.05097600  12.010000   ; qtot 11.921545
  305         c3     12    bbb     C2    305 -0.05097600  12.010000   ; qtot 11.870569
  306         c3     12    bbb     C3    306 -0.18457900  12.010000   ; qtot 11.685990
  307          c     12    bbb     C4    307 0.67254400  12.010000   ; qtot 12.358534
  308         c3     12    bbb     C5    308 -0.18457900  12.010000   ; qtot 12.173955
  309          c     12    bbb     C6    309 0.67254400  12.010000   ; qtot 12.846499
  310         c3     12    bbb     C7    310 -0.02083000  12.010000   ; qtot 12.825669
  311         c3     12    bbb     C8    311 -0.03328100  12.010000   ; qtot 12.792388
  312          n     12    bbb     N2    312 -0.33303000  14.010000   ; qtot 12.459358
  313          o     12    bbb     O1    313 -0.52917200  16.000000   ; qtot 11.930186
  314          o     12    bbb     O2    314 -0.52917200  16.000000   ; qtot 11.401014
  315         hx     12    bbb     H1    315 0.11563300   1.008000   ; qtot 11.516647
  316         hx     12    bbb     H2    316 0.11563300   1.008000   ; qtot 11.632280
  317         hx     12    bbb     H3    317 0.11563300   1.008000   ; qtot 11.747913
  318         hx     12    bbb     H4    318 0.11563300   1.008000   ; qtot 11.863546
  319         hc     12    bbb     H5    319 0.08347900   1.008000   ; qtot 11.947025
  320         hc     12    bbb     H6    320 0.08347900   1.008000   ; qtot 12.030504
  321         hc     12    bbb     H7    321 0.08347900   1.008000   ; qtot 12.113983
  322         hc     12    bbb     H8    322 0.08347900   1.008000   ; qtot 12.197462
  323         hx     12    bbb     H9    323 0.07988000   1.008000   ; qtot 12.277342
  324         hx     12    bbb    H10    324 0.07988000   1.008000   ; qtot 12.357222
  325         h1     12    bbb    H11    325 0.10618100   1.008000   ; qtot 12.463403
  326         h1     12    bbb    H12    326 0.10618100   1.008000   ; qtot 12.569584
  327         hn     12    bbb    H13    327 0.25916100   1.008000   ; qtot 12.828745
  328         hn     12    bbb    H25    328 0.17125500   1.008000   ; qtot 13.000000
; residue   13 bbb rtp bbb q 1.0
  329         n4     13    bbb     N1    329 -0.02747900  14.010000   ; qtot 12.972521
  330         c3     13    bbb     C1    330 -0.05097600  12.010000   ; qtot 12.921545
  331         c3     13    bbb     C2    331 -0.05097600  12.010000   ; qtot 12.870569
  332         c3     13    bbb     C3    332 -0.18457900  12.010000   ; qtot 12.685990
  333          c     13    bbb     C4    333 0.67254400  12.010000   ; qtot 13.358534
  334         c3     13    bbb     C5    334 -0.18457900  12.010000   ; qtot 13.173955
  335          c     13    bbb     C6    335 0.67254400  12.010000   ; qtot 13.846499
  336         c3     13    bbb     C7    336 -0.02083000  12.010000   ; qtot 13.825669
  337         c3     13    bbb     C8    337 -0.03328100  12.010000   ; qtot 13.792388
  338          n     13    bbb     N2    338 -0.33303000  14.010000   ; qtot 13.459358
  339          o     13    bbb     O1    339 -0.52917200  16.000000   ; qtot 12.930186
  340          o     13    bbb     O2    340 -0.52917200  16.000000   ; qtot 12.401014
  341         hx     13    bbb     H1    341 0.11563300   1.008000   ; qtot 12.516647
  342         hx     13    bbb     H2    342 0.11563300   1.008000   ; qtot 12.632280
  343         hx     13    bbb     H3    343 0.11563300   1.008000   ; qtot 12.747913
  344         hx     13    bbb     H4    344 0.11563300   1.008000   ; qtot 12.863546
  345         hc     13    bbb     H5    345 0.08347900   1.008000   ; qtot 12.947025
  346         hc     13    bbb     H6    346 0.08347900   1.008000   ; qtot 13.030504
  347         hc     13    bbb     H7    347 0.08347900   1.008000   ; qtot 13.113983
  348         hc     13    bbb     H8    348 0.08347900   1.008000   ; qtot 13.197462
  349         hx     13    bbb     H9    349 0.07988000   1.008000   ; qtot 13.277342
  350         hx     13    bbb    H10    350 0.07988000   1.008000   ; qtot 13.357222
  351         h1     13    bbb    H11    351 0.10618100   1.008000   ; qtot 13.463403
  352         h1     13    bbb    H12    352 0.10618100   1.008000   ; qtot 13.569584
  353         hn     13    bbb    H13    353 0.25916100   1.008000   ; qtot 13.828745
  354         hn     13    bbb    H25    354 0.17125500   1.008000   ; qtot 14.000000
; residue   14 bbb rtp bbb q 1.0
  355         n4     14    bbb     N1    355 -0.02747900  14.010000   ; qtot 13.972521
  356         c3     14    bbb     C1    356 -0.05097600  12.010000   ; qtot 13.921545
  357         c3     14    bbb     C2    357 -0.05097600  12.010000   ; qtot 13.870569
  358         c3     14    bbb     C3    358 -0.18457900  12.010000   ; qtot 13.685990
  359          c     14    bbb     C4    359 0.67254400  12.010000   ; qtot 14.358534
  360         c3     14    bbb     C5    360 -0.18457900  12.010000   ; qtot 14.173955
  361          c     14    bbb     C6    361 0.67254400  12.010000   ; qtot 14.846499
  362         c3     14    bbb     C7    362 -0.02083000  12.010000   ; qtot 14.825669
  363         c3     14    bbb     C8    363 -0.03328100  12.010000   ; qtot 14.792388
  364          n     14    bbb     N2    364 -0.33303000  14.010000   ; qtot 14.459358
  365          o     14    bbb     O1    365 -0.52917200  16.000000   ; qtot 13.930186
  366          o     14    bbb     O2    366 -0.52917200  16.000000   ; qtot 13.401014
  367         hx     14    bbb     H1    367 0.11563300   1.008000   ; qtot 13.516647
  368         hx     14    bbb     H2    368 0.11563300   1.008000   ; qtot 13.632280
  369         hx     14    bbb     H3    369 0.11563300   1.008000   ; qtot 13.747913
  370         hx     14    bbb     H4    370 0.11563300   1.008000   ; qtot 13.863546
  371         hc     14    bbb     H5    371 0.08347900   1.008000   ; qtot 13.947025
  372         hc     14    bbb     H6    372 0.08347900   1.008000   ; qtot 14.030504
  373         hc     14    bbb     H7    373 0.08347900   1.008000   ; qtot 14.113983
  374         hc     14    bbb     H8    374 0.08347900   1.008000   ; qtot 14.197462
  375         hx     14    bbb     H9    375 0.07988000   1.008000   ; qtot 14.277342
  376         hx     14    bbb    H10    376 0.07988000   1.008000   ; qtot 14.357222
  377         h1     14    bbb    H11    377 0.10618100   1.008000   ; qtot 14.463403
  378         h1     14    bbb    H12    378 0.10618100   1.008000   ; qtot 14.569584
  379         hn     14    bbb    H13    379 0.25916100   1.008000   ; qtot 14.828745
  380         hn     14    bbb    H25    380 0.17125500   1.008000   ; qtot 15.000000
; residue   15 bbb rtp bbb q 1.0
  381         n4     15    bbb     N1    381 -0.02747900  14.010000   ; qtot 14.972521
  382         c3     15    bbb     C1    382 -0.05097600  12.010000   ; qtot 14.921545
  383         c3     15    bbb     C2    383 -0.05097600  12.010000   ; qtot 14.870569
  384         c3     15    bbb     C3    384 -0.18457900  12.010000   ; qtot 14.685990
  385          c     15    bbb     C4    385 0.67254400  12.010000   ; qtot 15.358534
  386         c3     15    bbb     C5    386 -0.18457900  12.010000   ; qtot 15.173955
  387          c     15    bbb     C6    387 0.67254400  12.010000   ; qtot 15.846499
  388         c3     15    bbb     C7    388 -0.02083000  12.010000   ; qtot 15.825669
  389         c3     15    bbb     C8    389 -0.03328100  12.010000   ; qtot 15.792388
  390          n     15    bbb     N2    390 -0.33303000  14.010000   ; qtot 15.459358
  391          o     15    bbb     O1    391 -0.52917200  16.000000   ; qtot 14.930186
  392          o     15    bbb     O2    392 -0.52917200  16.000000   ; qtot 14.401014
  393         hx     15    bbb     H1    393 0.11563300   1.008000   ; qtot 14.516647
  394         hx     15    bbb     H2    394 0.11563300   1.008000   ; qtot 14.632280
  395         hx     15    bbb     H3    395 0.11563300   1.008000   ; qtot 14.747913
  396         hx     15    bbb     H4    396 0.11563300   1.008000   ; qtot 14.863546
  397         hc     15    bbb     H5    397 0.08347900   1.008000   ; qtot 14.947025
  398         hc     15    bbb     H6    398 0.08347900   1.008000   ; qtot 15.030504
  399         hc     15    bbb     H7    399 0.08347900   1.008000   ; qtot 15.113983
  400         hc     15    bbb     H8    400 0.08347900   1.008000   ; qtot 15.197462
  401         hx     15    bbb     H9    401 0.07988000   1.008000   ; qtot 15.277342
  402         hx     15    bbb    H10    402 0.07988000   1.008000   ; qtot 15.357222
  403         h1     15    bbb    H11    403 0.10618100   1.008000   ; qtot 15.463403
  404         h1     15    bbb    H12    404 0.10618100   1.008000   ; qtot 15.569584
  405         hn     15    bbb    H13    405 0.25916100   1.008000   ; qtot 15.828745
  406         hn     15    bbb    H25    406 0.17125500   1.008000   ; qtot 16.000000
; residue   16 bbb rtp bbb q 1.0
  407         n4     16    bbb     N1    407 -0.02747900  14.010000   ; qtot 15.972521
  408         c3     16    bbb     C1    408 -0.05097600  12.010000   ; qtot 15.921545
  409         c3     16    bbb     C2    409 -0.05097600  12.010000   ; qtot 15.870569
  410         c3     16    bbb     C3    410 -0.18457900  12.010000   ; qtot 15.685990
  411          c     16    bbb     C4    411 0.67254400  12.010000   ; qtot 16.358534
  412         c3     16    bbb     C5    412 -0.18457900  12.010000   ; qtot 16.173955
  413          c     16    bbb     C6    413 0.67254400  12.010000   ; qtot 16.846499
  414         c3     16    bbb     C7    414 -0.02083000  12.010000   ; qtot 16.825669
  415         c3     16    bbb     C8    415 -0.03328100  12.010000   ; qtot 16.792388
  416          n     16    bbb     N2    416 -0.33303000  14.010000   ; qtot 16.459358
  417          o     16    bbb     O1    417 -0.52917200  16.000000   ; qtot 15.930186
  418          o     16    bbb     O2    418 -0.52917200  16.000000   ; qtot 15.401014
  419         hx     16    bbb     H1    419 0.11563300   1.008000   ; qtot 15.516647
  420         hx     16    bbb     H2    420 0.11563300   1.008000   ; qtot 15.632280
  421         hx     16    bbb     H3    421 0.11563300   1.008000   ; qtot 15.747913
  422         hx     16    bbb     H4    422 0.11563300   1.008000   ; qtot 15.863546
  423         hc     16    bbb     H5    423 0.08347900   1.008000   ; qtot 15.947025
  424         hc     16    bbb     H6    424 0.08347900   1.008000   ; qtot 16.030504
  425         hc     16    bbb     H7    425 0.08347900   1.008000   ; qtot 16.113983
  426         hc     16    bbb     H8    426 0.08347900   1.008000   ; qtot 16.197462
  427         hx     16    bbb     H9    427 0.07988000   1.008000   ; qtot 16.277342
  428         hx     16    bbb    H10    428 0.07988000   1.008000   ; qtot 16.357222
  429         h1     16    bbb    H11    429 0.10618100   1.008000   ; qtot 16.463403
  430         h1     16    bbb    H12    430 0.10618100   1.008000   ; qtot 16.569584
  431         hn     16    bbb    H13    431 0.25916100   1.008000   ; qtot 16.828745
  432         hn     16    bbb    H25    432 0.17125500   1.008000   ; qtot 17.000000
; residue   17 bbb rtp bbb q 1.0
  433         n4     17    bbb     N1    433 -0.02747900  14.010000   ; qtot 16.972521
  434         c3     17    bbb     C1    434 -0.05097600  12.010000   ; qtot 16.921545
  435         c3     17    bbb     C2    435 -0.05097600  12.010000   ; qtot 16.870569
  436         c3     17    bbb     C3    436 -0.18457900  12.010000   ; qtot 16.685990
  437          c     17    bbb     C4    437 0.67254400  12.010000   ; qtot 17.358534
  438         c3     17    bbb     C5    438 -0.18457900  12.010000   ; qtot 17.173955
  439          c     17    bbb     C6    439 0.67254400  12.010000   ; qtot 17.846499
  440         c3     17    bbb     C7    440 -0.02083000  12.010000   ; qtot 17.825669
  441         c3     17    bbb     C8    441 -0.03328100  12.010000   ; qtot 17.792388
  442          n     17    bbb     N2    442 -0.33303000  14.010000   ; qtot 17.459358
  443          o     17    bbb     O1    443 -0.52917200  16.000000   ; qtot 16.930186
  444          o     17    bbb     O2    444 -0.52917200  16.000000   ; qtot 16.401014
  445         hx     17    bbb     H1    445 0.11563300   1.008000   ; qtot 16.516647
  446         hx     17    bbb     H2    446 0.11563300   1.008000   ; qtot 16.632280
  447         hx     17    bbb     H3    447 0.11563300   1.008000   ; qtot 16.747913
  448         hx     17    bbb     H4    448 0.11563300   1.008000   ; qtot 16.863546
  449         hc     17    bbb     H5    449 0.08347900   1.008000   ; qtot 16.947025
  450         hc     17    bbb     H6    450 0.08347900   1.008000   ; qtot 17.030504
  451         hc     17    bbb     H7    451 0.08347900   1.008000   ; qtot 17.113983
  452         hc     17    bbb     H8    452 0.08347900   1.008000   ; qtot 17.197462
  453         hx     17    bbb     H9    453 0.07988000   1.008000   ; qtot 17.277342
  454         hx     17    bbb    H10    454 0.07988000   1.008000   ; qtot 17.357222
  455         h1     17    bbb    H11    455 0.10618100   1.008000   ; qtot 17.463403
  456         h1     17    bbb    H12    456 0.10618100   1.008000   ; qtot 17.569584
  457         hn     17    bbb    H13    457 0.25916100   1.008000   ; qtot 17.828745
  458         hn     17    bbb    H25    458 0.17125500   1.008000   ; qtot 18.000000
; residue   18 bbb rtp bbb q 1.0
  459         n4     18    bbb     N1    459 -0.02747900  14.010000   ; qtot 17.972521
  460         c3     18    bbb     C1    460 -0.05097600  12.010000   ; qtot 17.921545
  461         c3     18    bbb     C2    461 -0.05097600  12.010000   ; qtot 17.870569
  462         c3     18    bbb     C3    462 -0.18457900  12.010000   ; qtot 17.685990
  463          c     18    bbb     C4    463 0.67254400  12.010000   ; qtot 18.358534
  464         c3     18    bbb     C5    464 -0.18457900  12.010000   ; qtot 18.173955
  465          c     18    bbb     C6    465 0.67254400  12.010000   ; qtot 18.846499
  466         c3     18    bbb     C7    466 -0.02083000  12.010000   ; qtot 18.825669
  467         c3     18    bbb     C8    467 -0.03328100  12.010000   ; qtot 18.792388
  468          n     18    bbb     N2    468 -0.33303000  14.010000   ; qtot 18.459358
  469          o     18    bbb     O1    469 -0.52917200  16.000000   ; qtot 17.930186
  470          o     18    bbb     O2    470 -0.52917200  16.000000   ; qtot 17.401014
  471         hx     18    bbb     H1    471 0.11563300   1.008000   ; qtot 17.516647
  472         hx     18    bbb     H2    472 0.11563300   1.008000   ; qtot 17.632280
  473         hx     18    bbb     H3    473 0.11563300   1.008000   ; qtot 17.747913
  474         hx     18    bbb     H4    474 0.11563300   1.008000   ; qtot 17.863546
  475         hc     18    bbb     H5    475 0.08347900   1.008000   ; qtot 17.947025
  476         hc     18    bbb     H6    476 0.08347900   1.008000   ; qtot 18.030504
  477         hc     18    bbb     H7    477 0.08347900   1.008000   ; qtot 18.113983
  478         hc     18    bbb     H8    478 0.08347900   1.008000   ; qtot 18.197462
  479         hx     18    bbb     H9    479 0.07988000   1.008000   ; qtot 18.277342
  480         hx     18    bbb    H10    480 0.07988000   1.008000   ; qtot 18.357222
  481         h1     18    bbb    H11    481 0.10618100   1.008000   ; qtot 18.463403
  482         h1     18    bbb    H12    482 0.10618100   1.008000   ; qtot 18.569584
  483         hn     18    bbb    H13    483 0.25916100   1.008000   ; qtot 18.828745
  484         hn     18    bbb    H25    484 0.17125500   1.008000   ; qtot 19.000000
; residue   19 bbb rtp bbb q 1.0
  485         n4     19    bbb     N1    485 -0.02747900  14.010000   ; qtot 18.972521
  486         c3     19    bbb     C1    486 -0.05097600  12.010000   ; qtot 18.921545
  487         c3     19    bbb     C2    487 -0.05097600  12.010000   ; qtot 18.870569
  488         c3     19    bbb     C3    488 -0.18457900  12.010000   ; qtot 18.685990
  489          c     19    bbb     C4    489 0.67254400  12.010000   ; qtot 19.358534
  490         c3     19    bbb     C5    490 -0.18457900  12.010000   ; qtot 19.173955
  491          c     19    bbb     C6    491 0.67254400  12.010000   ; qtot 19.846499
  492         c3     19    bbb     C7    492 -0.02083000  12.010000   ; qtot 19.825669
  493         c3     19    bbb     C8    493 -0.03328100  12.010000   ; qtot 19.792388
  494          n     19    bbb     N2    494 -0.33303000  14.010000   ; qtot 19.459358
  495          o     19    bbb     O1    495 -0.52917200  16.000000   ; qtot 18.930186
  496          o     19    bbb     O2    496 -0.52917200  16.000000   ; qtot 18.401014
  497         hx     19    bbb     H1    497 0.11563300   1.008000   ; qtot 18.516647
  498         hx     19    bbb     H2    498 0.11563300   1.008000   ; qtot 18.632280
  499         hx     19    bbb     H3    499 0.11563300   1.008000   ; qtot 18.747913
  500         hx     19    bbb     H4    500 0.11563300   1.008000   ; qtot 18.863546
  501         hc     19    bbb     H5    501 0.08347900   1.008000   ; qtot 18.947025
  502         hc     19    bbb     H6    502 0.08347900   1.008000   ; qtot 19.030504
  503         hc     19    bbb     H7    503 0.08347900   1.008000   ; qtot 19.113983
  504         hc     19    bbb     H8    504 0.08347900   1.008000   ; qtot 19.197462
  505         hx     19    bbb     H9    505 0.07988000   1.008000   ; qtot 19.277342
  506         hx     19    bbb    H10    506 0.07988000   1.008000   ; qtot 19.357222
  507         h1     19    bbb    H11    507 0.10618100   1.008000   ; qtot 19.463403
  508         h1     19    bbb    H12    508 0.10618100   1.008000   ; qtot 19.569584
  509         hn     19    bbb    H13    509 0.25916100   1.008000   ; qtot 19.828745
  510         hn     19    bbb    H25    510 0.17125500   1.008000   ; qtot 20.000000
; residue   20 bbb rtp bbb q 1.0
  511         n4     20    bbb     N1    511 -0.02747900  14.010000   ; qtot 19.972521
  512         c3     20    bbb     C1    512 -0.05097600  12.010000   ; qtot 19.921545
  513         c3     20    bbb     C2    513 -0.05097600  12.010000   ; qtot 19.870569
  514         c3     20    bbb     C3    514 -0.18457900  12.010000   ; qtot 19.685990
  515          c     20    bbb     C4    515 0.67254400  12.010000   ; qtot 20.358534
  516         c3     20    bbb     C5    516 -0.18457900  12.010000   ; qtot 20.173955
  517          c     20    bbb     C6    517 0.67254400  12.010000   ; qtot 20.846499
  518         c3     20    bbb     C7    518 -0.02083000  12.010000   ; qtot 20.825669
  519         c3     20    bbb     C8    519 -0.03328100  12.010000   ; qtot 20.792388
  520          n     20    bbb     N2    520 -0.33303000  14.010000   ; qtot 20.459358
  521          o     20    bbb     O1    521 -0.52917200  16.000000   ; qtot 19.930186
  522          o     20    bbb     O2    522 -0.52917200  16.000000   ; qtot 19.401014
  523         hx     20    bbb     H1    523 0.11563300   1.008000   ; qtot 19.516647
  524         hx     20    bbb     H2    524 0.11563300   1.008000   ; qtot 19.632280
  525         hx     20    bbb     H3    525 0.11563300   1.008000   ; qtot 19.747913
  526         hx     20    bbb     H4    526 0.11563300   1.008000   ; qtot 19.863546
  527         hc     20    bbb     H5    527 0.08347900   1.008000   ; qtot 19.947025
  528         hc     20    bbb     H6    528 0.08347900   1.008000   ; qtot 20.030504
  529         hc     20    bbb     H7    529 0.08347900   1.008000   ; qtot 20.113983
  530         hc     20    bbb     H8    530 0.08347900   1.008000   ; qtot 20.197462
  531         hx     20    bbb     H9    531 0.07988000   1.008000   ; qtot 20.277342
  532         hx     20    bbb    H10    532 0.07988000   1.008000   ; qtot 20.357222
  533         h1     20    bbb    H11    533 0.10618100   1.008000   ; qtot 20.463403
  534         h1     20    bbb    H12    534 0.10618100   1.008000   ; qtot 20.569584
  535         hn     20    bbb    H13    535 0.25916100   1.008000   ; qtot 20.828745
  536         hn     20    bbb    H25    536 0.17125500   1.008000   ; qtot 21.000000
; residue   21 bbb rtp bbb q 1.0
  537         n4     21    bbb     N1    537 -0.02747900  14.010000   ; qtot 20.972521
  538         c3     21    bbb     C1    538 -0.05097600  12.010000   ; qtot 20.921545
  539         c3     21    bbb     C2    539 -0.05097600  12.010000   ; qtot 20.870569
  540         c3     21    bbb     C3    540 -0.18457900  12.010000   ; qtot 20.685990
  541          c     21    bbb     C4    541 0.67254400  12.010000   ; qtot 21.358534
  542         c3     21    bbb     C5    542 -0.18457900  12.010000   ; qtot 21.173955
  543          c     21    bbb     C6    543 0.67254400  12.010000   ; qtot 21.846499
  544         c3     21    bbb     C7    544 -0.02083000  12.010000   ; qtot 21.825669
  545         c3     21    bbb     C8    545 -0.03328100  12.010000   ; qtot 21.792388
  546          n     21    bbb     N2    546 -0.33303000  14.010000   ; qtot 21.459358
  547          o     21    bbb     O1    547 -0.52917200  16.000000   ; qtot 20.930186
  548          o     21    bbb     O2    548 -0.52917200  16.000000   ; qtot 20.401014
  549         hx     21    bbb     H1    549 0.11563300   1.008000   ; qtot 20.516647
  550         hx     21    bbb     H2    550 0.11563300   1.008000   ; qtot 20.632280
  551         hx     21    bbb     H3    551 0.11563300   1.008000   ; qtot 20.747913
  552         hx     21    bbb     H4    552 0.11563300   1.008000   ; qtot 20.863546
  553         hc     21    bbb     H5    553 0.08347900   1.008000   ; qtot 20.947025
  554         hc     21    bbb     H6    554 0.08347900   1.008000   ; qtot 21.030504
  555         hc     21    bbb     H7    555 0.08347900   1.008000   ; qtot 21.113983
  556         hc     21    bbb     H8    556 0.08347900   1.008000   ; qtot 21.197462
  557         hx     21    bbb     H9    557 0.07988000   1.008000   ; qtot 21.277342
  558         hx     21    bbb    H10    558 0.07988000   1.008000   ; qtot 21.357222
  559         h1     21    bbb    H11    559 0.10618100   1.008000   ; qtot 21.463403
  560         h1     21    bbb    H12    560 0.10618100   1.008000   ; qtot 21.569584
  561         hn     21    bbb    H13    561 0.25916100   1.008000   ; qtot 21.828745
  562         hn     21    bbb    H25    562 0.17125500   1.008000   ; qtot 22.000000
; residue   22 bbb rtp bbb q 1.0
  563         n4     22    bbb     N1    563 -0.02747900  14.010000   ; qtot 21.972521
  564         c3     22    bbb     C1    564 -0.05097600  12.010000   ; qtot 21.921545
  565         c3     22    bbb     C2    565 -0.05097600  12.010000   ; qtot 21.870569
  566         c3     22    bbb     C3    566 -0.18457900  12.010000   ; qtot 21.685990
  567          c     22    bbb     C4    567 0.67254400  12.010000   ; qtot 22.358534
  568         c3     22    bbb     C5    568 -0.18457900  12.010000   ; qtot 22.173955
  569          c     22    bbb     C6    569 0.67254400  12.010000   ; qtot 22.846499
  570         c3     22    bbb     C7    570 -0.02083000  12.010000   ; qtot 22.825669
  571         c3     22    bbb     C8    571 -0.03328100  12.010000   ; qtot 22.792388
  572          n     22    bbb     N2    572 -0.33303000  14.010000   ; qtot 22.459358
  573          o     22    bbb     O1    573 -0.52917200  16.000000   ; qtot 21.930186
  574          o     22    bbb     O2    574 -0.52917200  16.000000   ; qtot 21.401014
  575         hx     22    bbb     H1    575 0.11563300   1.008000   ; qtot 21.516647
  576         hx     22    bbb     H2    576 0.11563300   1.008000   ; qtot 21.632280
  577         hx     22    bbb     H3    577 0.11563300   1.008000   ; qtot 21.747913
  578         hx     22    bbb     H4    578 0.11563300   1.008000   ; qtot 21.863546
  579         hc     22    bbb     H5    579 0.08347900   1.008000   ; qtot 21.947025
  580         hc     22    bbb     H6    580 0.08347900   1.008000   ; qtot 22.030504
  581         hc     22    bbb     H7    581 0.08347900   1.008000   ; qtot 22.113983
  582         hc     22    bbb     H8    582 0.08347900   1.008000   ; qtot 22.197462
  583         hx     22    bbb     H9    583 0.07988000   1.008000   ; qtot 22.277342
  584         hx     22    bbb    H10    584 0.07988000   1.008000   ; qtot 22.357222
  585         h1     22    bbb    H11    585 0.10618100   1.008000   ; qtot 22.463403
  586         h1     22    bbb    H12    586 0.10618100   1.008000   ; qtot 22.569584
  587         hn     22    bbb    H13    587 0.25916100   1.008000   ; qtot 22.828745
  588         hn     22    bbb    H25    588 0.17125500   1.008000   ; qtot 23.000000
; residue   23 bbb rtp bbb q 1.0
  589         n4     23    bbb     N1    589 -0.02747900  14.010000   ; qtot 22.972521
  590         c3     23    bbb     C1    590 -0.05097600  12.010000   ; qtot 22.921545
  591         c3     23    bbb     C2    591 -0.05097600  12.010000   ; qtot 22.870569
  592         c3     23    bbb     C3    592 -0.18457900  12.010000   ; qtot 22.685990
  593          c     23    bbb     C4    593 0.67254400  12.010000   ; qtot 23.358534
  594         c3     23    bbb     C5    594 -0.18457900  12.010000   ; qtot 23.173955
  595          c     23    bbb     C6    595 0.67254400  12.010000   ; qtot 23.846499
  596         c3     23    bbb     C7    596 -0.02083000  12.010000   ; qtot 23.825669
  597         c3     23    bbb     C8    597 -0.03328100  12.010000   ; qtot 23.792388
  598          n     23    bbb     N2    598 -0.33303000  14.010000   ; qtot 23.459358
  599          o     23    bbb     O1    599 -0.52917200  16.000000   ; qtot 22.930186
  600          o     23    bbb     O2    600 -0.52917200  16.000000   ; qtot 22.401014
  601         hx     23    bbb     H1    601 0.11563300   1.008000   ; qtot 22.516647
  602         hx     23    bbb     H2    602 0.11563300   1.008000   ; qtot 22.632280
  603         hx     23    bbb     H3    603 0.11563300   1.008000   ; qtot 22.747913
  604         hx     23    bbb     H4    604 0.11563300   1.008000   ; qtot 22.863546
  605         hc     23    bbb     H5    605 0.08347900   1.008000   ; qtot 22.947025
  606         hc     23    bbb     H6    606 0.08347900   1.008000   ; qtot 23.030504
  607         hc     23    bbb     H7    607 0.08347900   1.008000   ; qtot 23.113983
  608         hc     23    bbb     H8    608 0.08347900   1.008000   ; qtot 23.197462
  609         hx     23    bbb     H9    609 0.07988000   1.008000   ; qtot 23.277342
  610         hx     23    bbb    H10    610 0.07988000   1.008000   ; qtot 23.357222
  611         h1     23    bbb    H11    611 0.10618100   1.008000   ; qtot 23.463403
  612         h1     23    bbb    H12    612 0.10618100   1.008000   ; qtot 23.569584
  613         hn     23    bbb    H13    613 0.25916100   1.008000   ; qtot 23.828745
  614         hn     23    bbb    H25    614 0.17125500   1.008000   ; qtot 24.000000
; residue   24 bbb rtp bbb q 1.0
  615         n4     24    bbb     N1    615 -0.02747900  14.010000   ; qtot 23.972521
  616         c3     24    bbb     C1    616 -0.05097600  12.010000   ; qtot 23.921545
  617         c3     24    bbb     C2    617 -0.05097600  12.010000   ; qtot 23.870569
  618         c3     24    bbb     C3    618 -0.18457900  12.010000   ; qtot 23.685990
  619          c     24    bbb     C4    619 0.67254400  12.010000   ; qtot 24.358534
  620         c3     24    bbb     C5    620 -0.18457900  12.010000   ; qtot 24.173955
  621          c     24    bbb     C6    621 0.67254400  12.010000   ; qtot 24.846499
  622         c3     24    bbb     C7    622 -0.02083000  12.010000   ; qtot 24.825669
  623         c3     24    bbb     C8    623 -0.03328100  12.010000   ; qtot 24.792388
  624          n     24    bbb     N2    624 -0.33303000  14.010000   ; qtot 24.459358
  625          o     24    bbb     O1    625 -0.52917200  16.000000   ; qtot 23.930186
  626          o     24    bbb     O2    626 -0.52917200  16.000000   ; qtot 23.401014
  627         hx     24    bbb     H1    627 0.11563300   1.008000   ; qtot 23.516647
  628         hx     24    bbb     H2    628 0.11563300   1.008000   ; qtot 23.632280
  629         hx     24    bbb     H3    629 0.11563300   1.008000   ; qtot 23.747913
  630         hx     24    bbb     H4    630 0.11563300   1.008000   ; qtot 23.863546
  631         hc     24    bbb     H5    631 0.08347900   1.008000   ; qtot 23.947025
  632         hc     24    bbb     H6    632 0.08347900   1.008000   ; qtot 24.030504
  633         hc     24    bbb     H7    633 0.08347900   1.008000   ; qtot 24.113983
  634         hc     24    bbb     H8    634 0.08347900   1.008000   ; qtot 24.197462
  635         hx     24    bbb     H9    635 0.07988000   1.008000   ; qtot 24.277342
  636         hx     24    bbb    H10    636 0.07988000   1.008000   ; qtot 24.357222
  637         h1     24    bbb    H11    637 0.10618100   1.008000   ; qtot 24.463403
  638         h1     24    bbb    H12    638 0.10618100   1.008000   ; qtot 24.569584
  639         hn     24    bbb    H13    639 0.25916100   1.008000   ; qtot 24.828745
  640         hn     24    bbb    H25    640 0.17125500   1.008000   ; qtot 25.000000
; residue   25 bbb rtp bbb q 1.0
  641         n4     25    bbb     N1    641 -0.02747900  14.010000   ; qtot 24.972521
  642         c3     25    bbb     C1    642 -0.05097600  12.010000   ; qtot 24.921545
  643         c3     25    bbb     C2    643 -0.05097600  12.010000   ; qtot 24.870569
  644         c3     25    bbb     C3    644 -0.18457900  12.010000   ; qtot 24.685990
  645          c     25    bbb     C4    645 0.67254400  12.010000   ; qtot 25.358534
  646         c3     25    bbb     C5    646 -0.18457900  12.010000   ; qtot 25.173955
  647          c     25    bbb     C6    647 0.67254400  12.010000   ; qtot 25.846499
  648         c3     25    bbb     C7    648 -0.02083000  12.010000   ; qtot 25.825669
  649         c3     25    bbb     C8    649 -0.03328100  12.010000   ; qtot 25.792388
  650          n     25    bbb     N2    650 -0.33303000  14.010000   ; qtot 25.459358
  651          o     25    bbb     O1    651 -0.52917200  16.000000   ; qtot 24.930186
  652          o     25    bbb     O2    652 -0.52917200  16.000000   ; qtot 24.401014
  653         hx     25    bbb     H1    653 0.11563300   1.008000   ; qtot 24.516647
  654         hx     25    bbb     H2    654 0.11563300   1.008000   ; qtot 24.632280
  655         hx     25    bbb     H3    655 0.11563300   1.008000   ; qtot 24.747913
  656         hx     25    bbb     H4    656 0.11563300   1.008000   ; qtot 24.863546
  657         hc     25    bbb     H5    657 0.08347900   1.008000   ; qtot 24.947025
  658         hc     25    bbb     H6    658 0.08347900   1.008000   ; qtot 25.030504
  659         hc     25    bbb     H7    659 0.08347900   1.008000   ; qtot 25.113983
  660         hc     25    bbb     H8    660 0.08347900   1.008000   ; qtot 25.197462
  661         hx     25    bbb     H9    661 0.07988000   1.008000   ; qtot 25.277342
  662         hx     25    bbb    H10    662 0.07988000   1.008000   ; qtot 25.357222
  663         h1     25    bbb    H11    663 0.10618100   1.008000   ; qtot 25.463403
  664         h1     25    bbb    H12    664 0.10618100   1.008000   ; qtot 25.569584
  665         hn     25    bbb    H13    665 0.25916100   1.008000   ; qtot 25.828745
  666         hn     25    bbb    H25    666 0.17125500   1.008000   ; qtot 26.000000
; residue   26 bbb rtp bbb q 1.0
  667         n4     26    bbb     N1    667 -0.02747900  14.010000   ; qtot 25.972521
  668         c3     26    bbb     C1    668 -0.05097600  12.010000   ; qtot 25.921545
  669         c3     26    bbb     C2    669 -0.05097600  12.010000   ; qtot 25.870569
  670         c3     26    bbb     C3    670 -0.18457900  12.010000   ; qtot 25.685990
  671          c     26    bbb     C4    671 0.67254400  12.010000   ; qtot 26.358534
  672         c3     26    bbb     C5    672 -0.18457900  12.010000   ; qtot 26.173955
  673          c     26    bbb     C6    673 0.67254400  12.010000   ; qtot 26.846499
  674         c3     26    bbb     C7    674 -0.02083000  12.010000   ; qtot 26.825669
  675         c3     26    bbb     C8    675 -0.03328100  12.010000   ; qtot 26.792388
  676          n     26    bbb     N2    676 -0.33303000  14.010000   ; qtot 26.459358
  677          o     26    bbb     O1    677 -0.52917200  16.000000   ; qtot 25.930186
  678          o     26    bbb     O2    678 -0.52917200  16.000000   ; qtot 25.401014
  679         hx     26    bbb     H1    679 0.11563300   1.008000   ; qtot 25.516647
  680         hx     26    bbb     H2    680 0.11563300   1.008000   ; qtot 25.632280
  681         hx     26    bbb     H3    681 0.11563300   1.008000   ; qtot 25.747913
  682         hx     26    bbb     H4    682 0.11563300   1.008000   ; qtot 25.863546
  683         hc     26    bbb     H5    683 0.08347900   1.008000   ; qtot 25.947025
  684         hc     26    bbb     H6    684 0.08347900   1.008000   ; qtot 26.030504
  685         hc     26    bbb     H7    685 0.08347900   1.008000   ; qtot 26.113983
  686         hc     26    bbb     H8    686 0.08347900   1.008000   ; qtot 26.197462
  687         hx     26    bbb     H9    687 0.07988000   1.008000   ; qtot 26.277342
  688         hx     26    bbb    H10    688 0.07988000   1.008000   ; qtot 26.357222
  689         h1     26    bbb    H11    689 0.10618100   1.008000   ; qtot 26.463403
  690         h1     26    bbb    H12    690 0.10618100   1.008000   ; qtot 26.569584
  691         hn     26    bbb    H13    691 0.25916100   1.008000   ; qtot 26.828745
  692         hn     26    bbb    H25    692 0.17125500   1.008000   ; qtot 27.000000
; residue   27 bbb rtp bbb q 1.0
  693         n4     27    bbb     N1    693 -0.02747900  14.010000   ; qtot 26.972521
  694         c3     27    bbb     C1    694 -0.05097600  12.010000   ; qtot 26.921545
  695         c3     27    bbb     C2    695 -0.05097600  12.010000   ; qtot 26.870569
  696         c3     27    bbb     C3    696 -0.18457900  12.010000   ; qtot 26.685990
  697          c     27    bbb     C4    697 0.67254400  12.010000   ; qtot 27.358534
  698         c3     27    bbb     C5    698 -0.18457900  12.010000   ; qtot 27.173955
  699          c     27    bbb     C6    699 0.67254400  12.010000   ; qtot 27.846499
  700         c3     27    bbb     C7    700 -0.02083000  12.010000   ; qtot 27.825669
  701         c3     27    bbb     C8    701 -0.03328100  12.010000   ; qtot 27.792388
  702          n     27    bbb     N2    702 -0.33303000  14.010000   ; qtot 27.459358
  703          o     27    bbb     O1    703 -0.52917200  16.000000   ; qtot 26.930186
  704          o     27    bbb     O2    704 -0.52917200  16.000000   ; qtot 26.401014
  705         hx     27    bbb     H1    705 0.11563300   1.008000   ; qtot 26.516647
  706         hx     27    bbb     H2    706 0.11563300   1.008000   ; qtot 26.632280
  707         hx     27    bbb     H3    707 0.11563300   1.008000   ; qtot 26.747913
  708         hx     27    bbb     H4    708 0.11563300   1.008000   ; qtot 26.863546
  709         hc     27    bbb     H5    709 0.08347900   1.008000   ; qtot 26.947025
  710         hc     27    bbb     H6    710 0.08347900   1.008000   ; qtot 27.030504
  711         hc     27    bbb     H7    711 0.08347900   1.008000   ; qtot 27.113983
  712         hc     27    bbb     H8    712 0.08347900   1.008000   ; qtot 27.197462
  713         hx     27    bbb     H9    713 0.07988000   1.008000   ; qtot 27.277342
  714         hx     27    bbb    H10    714 0.07988000   1.008000   ; qtot 27.357222
  715         h1     27    bbb    H11    715 0.10618100   1.008000   ; qtot 27.463403
  716         h1     27    bbb    H12    716 0.10618100   1.008000   ; qtot 27.569584
  717         hn     27    bbb    H13    717 0.25916100   1.008000   ; qtot 27.828745
  718         hn     27    bbb    H25    718 0.17125500   1.008000   ; qtot 28.000000
; residue   28 bbb rtp bbb q 1.0
  719         n4     28    bbb     N1    719 -0.02747900  14.010000   ; qtot 27.972521
  720         c3     28    bbb     C1    720 -0.05097600  12.010000   ; qtot 27.921545
  721         c3     28    bbb     C2    721 -0.05097600  12.010000   ; qtot 27.870569
  722         c3     28    bbb     C3    722 -0.18457900  12.010000   ; qtot 27.685990
  723          c     28    bbb     C4    723 0.67254400  12.010000   ; qtot 28.358534
  724         c3     28    bbb     C5    724 -0.18457900  12.010000   ; qtot 28.173955
  725          c     28    bbb     C6    725 0.67254400  12.010000   ; qtot 28.846499
  726         c3     28    bbb     C7    726 -0.02083000  12.010000   ; qtot 28.825669
  727         c3     28    bbb     C8    727 -0.03328100  12.010000   ; qtot 28.792388
  728          n     28    bbb     N2    728 -0.33303000  14.010000   ; qtot 28.459358
  729          o     28    bbb     O1    729 -0.52917200  16.000000   ; qtot 27.930186
  730          o     28    bbb     O2    730 -0.52917200  16.000000   ; qtot 27.401014
  731         hx     28    bbb     H1    731 0.11563300   1.008000   ; qtot 27.516647
  732         hx     28    bbb     H2    732 0.11563300   1.008000   ; qtot 27.632280
  733         hx     28    bbb     H3    733 0.11563300   1.008000   ; qtot 27.747913
  734         hx     28    bbb     H4    734 0.11563300   1.008000   ; qtot 27.863546
  735         hc     28    bbb     H5    735 0.08347900   1.008000   ; qtot 27.947025
  736         hc     28    bbb     H6    736 0.08347900   1.008000   ; qtot 28.030504
  737         hc     28    bbb     H7    737 0.08347900   1.008000   ; qtot 28.113983
  738         hc     28    bbb     H8    738 0.08347900   1.008000   ; qtot 28.197462
  739         hx     28    bbb     H9    739 0.07988000   1.008000   ; qtot 28.277342
  740         hx     28    bbb    H10    740 0.07988000   1.008000   ; qtot 28.357222
  741         h1     28    bbb    H11    741 0.10618100   1.008000   ; qtot 28.463403
  742         h1     28    bbb    H12    742 0.10618100   1.008000   ; qtot 28.569584
  743         hn     28    bbb    H13    743 0.25916100   1.008000   ; qtot 28.828745
  744         hn     28    bbb    H25    744 0.17125500   1.008000   ; qtot 29.000000
; residue   29 bbb rtp bbb q 1.0
  745         n4     29    bbb     N1    745 -0.02747900  14.010000   ; qtot 28.972521
  746         c3     29    bbb     C1    746 -0.05097600  12.010000   ; qtot 28.921545
  747         c3     29    bbb     C2    747 -0.05097600  12.010000   ; qtot 28.870569
  748         c3     29    bbb     C3    748 -0.18457900  12.010000   ; qtot 28.685990
  749          c     29    bbb     C4    749 0.67254400  12.010000   ; qtot 29.358534
  750         c3     29    bbb     C5    750 -0.18457900  12.010000   ; qtot 29.173955
  751          c     29    bbb     C6    751 0.67254400  12.010000   ; qtot 29.846499
  752         c3     29    bbb     C7    752 -0.02083000  12.010000   ; qtot 29.825669
  753         c3     29    bbb     C8    753 -0.03328100  12.010000   ; qtot 29.792388
  754          n     29    bbb     N2    754 -0.33303000  14.010000   ; qtot 29.459358
  755          o     29    bbb     O1    755 -0.52917200  16.000000   ; qtot 28.930186
  756          o     29    bbb     O2    756 -0.52917200  16.000000   ; qtot 28.401014
  757         hx     29    bbb     H1    757 0.11563300   1.008000   ; qtot 28.516647
  758         hx     29    bbb     H2    758 0.11563300   1.008000   ; qtot 28.632280
  759         hx     29    bbb     H3    759 0.11563300   1.008000   ; qtot 28.747913
  760         hx     29    bbb     H4    760 0.11563300   1.008000   ; qtot 28.863546
  761         hc     29    bbb     H5    761 0.08347900   1.008000   ; qtot 28.947025
  762         hc     29    bbb     H6    762 0.08347900   1.008000   ; qtot 29.030504
  763         hc     29    bbb     H7    763 0.08347900   1.008000   ; qtot 29.113983
  764         hc     29    bbb     H8    764 0.08347900   1.008000   ; qtot 29.197462
  765         hx     29    bbb     H9    765 0.07988000   1.008000   ; qtot 29.277342
  766         hx     29    bbb    H10    766 0.07988000   1.008000   ; qtot 29.357222
  767         h1     29    bbb    H11    767 0.10618100   1.008000   ; qtot 29.463403
  768         h1     29    bbb    H12    768 0.10618100   1.008000   ; qtot 29.569584
  769         hn     29    bbb    H13    769 0.25916100   1.008000   ; qtot 29.828745
  770         hn     29    bbb    H25    770 0.17125500   1.008000   ; qtot 30.000000
; residue   30 bbb rtp bbb q 1.0
  771         n4     30    bbb     N1    771 -0.02747900  14.010000   ; qtot 29.972521
  772         c3     30    bbb     C1    772 -0.05097600  12.010000   ; qtot 29.921545
  773         c3     30    bbb     C2    773 -0.05097600  12.010000   ; qtot 29.870569
  774         c3     30    bbb     C3    774 -0.18457900  12.010000   ; qtot 29.685990
  775          c     30    bbb     C4    775 0.67254400  12.010000   ; qtot 30.358534
  776         c3     30    bbb     C5    776 -0.18457900  12.010000   ; qtot 30.173955
  777          c     30    bbb     C6    777 0.67254400  12.010000   ; qtot 30.846499
  778         c3     30    bbb     C7    778 -0.02083000  12.010000   ; qtot 30.825669
  779         c3     30    bbb     C8    779 -0.03328100  12.010000   ; qtot 30.792388
  780          n     30    bbb     N2    780 -0.33303000  14.010000   ; qtot 30.459358
  781          o     30    bbb     O1    781 -0.52917200  16.000000   ; qtot 29.930186
  782          o     30    bbb     O2    782 -0.52917200  16.000000   ; qtot 29.401014
  783         hx     30    bbb     H1    783 0.11563300   1.008000   ; qtot 29.516647
  784         hx     30    bbb     H2    784 0.11563300   1.008000   ; qtot 29.632280
  785         hx     30    bbb     H3    785 0.11563300   1.008000   ; qtot 29.747913
  786         hx     30    bbb     H4    786 0.11563300   1.008000   ; qtot 29.863546
  787         hc     30    bbb     H5    787 0.08347900   1.008000   ; qtot 29.947025
  788         hc     30    bbb     H6    788 0.08347900   1.008000   ; qtot 30.030504
  789         hc     30    bbb     H7    789 0.08347900   1.008000   ; qtot 30.113983
  790         hc     30    bbb     H8    790 0.08347900   1.008000   ; qtot 30.197462
  791         hx     30    bbb     H9    791 0.07988000   1.008000   ; qtot 30.277342
  792         hx     30    bbb    H10    792 0.07988000   1.008000   ; qtot 30.357222
  793         h1     30    bbb    H11    793 0.10618100   1.008000   ; qtot 30.463403
  794         h1     30    bbb    H12    794 0.10618100   1.008000   ; qtot 30.569584
  795         hn     30    bbb    H13    795 0.25916100   1.008000   ; qtot 30.828745
  796         hn     30    bbb    H25    796 0.17125500   1.008000   ; qtot 31.000000
; residue   31 bbb rtp bbb q 1.0
  797         n4     31    bbb     N1    797 -0.02747900  14.010000   ; qtot 30.972521
  798         c3     31    bbb     C1    798 -0.05097600  12.010000   ; qtot 30.921545
  799         c3     31    bbb     C2    799 -0.05097600  12.010000   ; qtot 30.870569
  800         c3     31    bbb     C3    800 -0.18457900  12.010000   ; qtot 30.685990
  801          c     31    bbb     C4    801 0.67254400  12.010000   ; qtot 31.358534
  802         c3     31    bbb     C5    802 -0.18457900  12.010000   ; qtot 31.173955
  803          c     31    bbb     C6    803 0.67254400  12.010000   ; qtot 31.846499
  804         c3     31    bbb     C7    804 -0.02083000  12.010000   ; qtot 31.825669
  805         c3     31    bbb     C8    805 -0.03328100  12.010000   ; qtot 31.792388
  806          n     31    bbb     N2    806 -0.33303000  14.010000   ; qtot 31.459358
  807          o     31    bbb     O1    807 -0.52917200  16.000000   ; qtot 30.930186
  808          o     31    bbb     O2    808 -0.52917200  16.000000   ; qtot 30.401014
  809         hx     31    bbb     H1    809 0.11563300   1.008000   ; qtot 30.516647
  810         hx     31    bbb     H2    810 0.11563300   1.008000   ; qtot 30.632280
  811         hx     31    bbb     H3    811 0.11563300   1.008000   ; qtot 30.747913
  812         hx     31    bbb     H4    812 0.11563300   1.008000   ; qtot 30.863546
  813         hc     31    bbb     H5    813 0.08347900   1.008000   ; qtot 30.947025
  814         hc     31    bbb     H6    814 0.08347900   1.008000   ; qtot 31.030504
  815         hc     31    bbb     H7    815 0.08347900   1.008000   ; qtot 31.113983
  816         hc     31    bbb     H8    816 0.08347900   1.008000   ; qtot 31.197462
  817         hx     31    bbb     H9    817 0.07988000   1.008000   ; qtot 31.277342
  818         hx     31    bbb    H10    818 0.07988000   1.008000   ; qtot 31.357222
  819         h1     31    bbb    H11    819 0.10618100   1.008000   ; qtot 31.463403
  820         h1     31    bbb    H12    820 0.10618100   1.008000   ; qtot 31.569584
  821         hn     31    bbb    H13    821 0.25916100   1.008000   ; qtot 31.828745
  822         hn     31    bbb    H25    822 0.17125500   1.008000   ; qtot 32.000000
; residue   32 bbb rtp bbb q 1.0
  823         n4     32    bbb     N1    823 -0.02747900  14.010000   ; qtot 31.972521
  824         c3     32    bbb     C1    824 -0.05097600  12.010000   ; qtot 31.921545
  825         c3     32    bbb     C2    825 -0.05097600  12.010000   ; qtot 31.870569
  826         c3     32    bbb     C3    826 -0.18457900  12.010000   ; qtot 31.685990
  827          c     32    bbb     C4    827 0.67254400  12.010000   ; qtot 32.358534
  828         c3     32    bbb     C5    828 -0.18457900  12.010000   ; qtot 32.173955
  829          c     32    bbb     C6    829 0.67254400  12.010000   ; qtot 32.846499
  830         c3     32    bbb     C7    830 -0.02083000  12.010000   ; qtot 32.825669
  831         c3     32    bbb     C8    831 -0.03328100  12.010000   ; qtot 32.792388
  832          n     32    bbb     N2    832 -0.33303000  14.010000   ; qtot 32.459358
  833          o     32    bbb     O1    833 -0.52917200  16.000000   ; qtot 31.930186
  834          o     32    bbb     O2    834 -0.52917200  16.000000   ; qtot 31.401014
  835         hx     32    bbb     H1    835 0.11563300   1.008000   ; qtot 31.516647
  836         hx     32    bbb     H2    836 0.11563300   1.008000   ; qtot 31.632280
  837         hx     32    bbb     H3    837 0.11563300   1.008000   ; qtot 31.747913
  838         hx     32    bbb     H4    838 0.11563300   1.008000   ; qtot 31.863546
  839         hc     32    bbb     H5    839 0.08347900   1.008000   ; qtot 31.947025
  840         hc     32    bbb     H6    840 0.08347900   1.008000   ; qtot 32.030504
  841         hc     32    bbb     H7    841 0.08347900   1.008000   ; qtot 32.113983
  842         hc     32    bbb     H8    842 0.08347900   1.008000   ; qtot 32.197462
  843         hx     32    bbb     H9    843 0.07988000   1.008000   ; qtot 32.277342
  844         hx     32    bbb    H10    844 0.07988000   1.008000   ; qtot 32.357222
  845         h1     32    bbb    H11    845 0.10618100   1.008000   ; qtot 32.463403
  846         h1     32    bbb    H12    846 0.10618100   1.008000   ; qtot 32.569584
  847         hn     32    bbb    H13    847 0.25916100   1.008000   ; qtot 32.828745
  848         hn     32    bbb    H25    848 0.17125500   1.008000   ; qtot 33.000000
; residue   33 bbb rtp bbb q 1.0
  849         n4     33    bbb     N1    849 -0.02747900  14.010000   ; qtot 32.972521
  850         c3     33    bbb     C1    850 -0.05097600  12.010000   ; qtot 32.921545
  851         c3     33    bbb     C2    851 -0.05097600  12.010000   ; qtot 32.870569
  852         c3     33    bbb     C3    852 -0.18457900  12.010000   ; qtot 32.685990
  853          c     33    bbb     C4    853 0.67254400  12.010000   ; qtot 33.358534
  854         c3     33    bbb     C5    854 -0.18457900  12.010000   ; qtot 33.173955
  855          c     33    bbb     C6    855 0.67254400  12.010000   ; qtot 33.846499
  856         c3     33    bbb     C7    856 -0.02083000  12.010000   ; qtot 33.825669
  857         c3     33    bbb     C8    857 -0.03328100  12.010000   ; qtot 33.792388
  858          n     33    bbb     N2    858 -0.33303000  14.010000   ; qtot 33.459358
  859          o     33    bbb     O1    859 -0.52917200  16.000000   ; qtot 32.930186
  860          o     33    bbb     O2    860 -0.52917200  16.000000   ; qtot 32.401014
  861         hx     33    bbb     H1    861 0.11563300   1.008000   ; qtot 32.516647
  862         hx     33    bbb     H2    862 0.11563300   1.008000   ; qtot 32.632280
  863         hx     33    bbb     H3    863 0.11563300   1.008000   ; qtot 32.747913
  864         hx     33    bbb     H4    864 0.11563300   1.008000   ; qtot 32.863546
  865         hc     33    bbb     H5    865 0.08347900   1.008000   ; qtot 32.947025
  866         hc     33    bbb     H6    866 0.08347900   1.008000   ; qtot 33.030504
  867         hc     33    bbb     H7    867 0.08347900   1.008000   ; qtot 33.113983
  868         hc     33    bbb     H8    868 0.08347900   1.008000   ; qtot 33.197462
  869         hx     33    bbb     H9    869 0.07988000   1.008000   ; qtot 33.277342
  870         hx     33    bbb    H10    870 0.07988000   1.008000   ; qtot 33.357222
  871         h1     33    bbb    H11    871 0.10618100   1.008000   ; qtot 33.463403
  872         h1     33    bbb    H12    872 0.10618100   1.008000   ; qtot 33.569584
  873         hn     33    bbb    H13    873 0.25916100   1.008000   ; qtot 33.828745
  874         hn     33    bbb    H25    874 0.17125500   1.008000   ; qtot 34.000000
; residue   34 bbb rtp bbb q 1.0
  875         n4     34    bbb     N1    875 -0.02747900  14.010000   ; qtot 33.972521
  876         c3     34    bbb     C1    876 -0.05097600  12.010000   ; qtot 33.921545
  877         c3     34    bbb     C2    877 -0.05097600  12.010000   ; qtot 33.870569
  878         c3     34    bbb     C3    878 -0.18457900  12.010000   ; qtot 33.685990
  879          c     34    bbb     C4    879 0.67254400  12.010000   ; qtot 34.358534
  880         c3     34    bbb     C5    880 -0.18457900  12.010000   ; qtot 34.173955
  881          c     34    bbb     C6    881 0.67254400  12.010000   ; qtot 34.846499
  882         c3     34    bbb     C7    882 -0.02083000  12.010000   ; qtot 34.825669
  883         c3     34    bbb     C8    883 -0.03328100  12.010000   ; qtot 34.792388
  884          n     34    bbb     N2    884 -0.33303000  14.010000   ; qtot 34.459358
  885          o     34    bbb     O1    885 -0.52917200  16.000000   ; qtot 33.930186
  886          o     34    bbb     O2    886 -0.52917200  16.000000   ; qtot 33.401014
  887         hx     34    bbb     H1    887 0.11563300   1.008000   ; qtot 33.516647
  888         hx     34    bbb     H2    888 0.11563300   1.008000   ; qtot 33.632280
  889         hx     34    bbb     H3    889 0.11563300   1.008000   ; qtot 33.747913
  890         hx     34    bbb     H4    890 0.11563300   1.008000   ; qtot 33.863546
  891         hc     34    bbb     H5    891 0.08347900   1.008000   ; qtot 33.947025
  892         hc     34    bbb     H6    892 0.08347900   1.008000   ; qtot 34.030504
  893         hc     34    bbb     H7    893 0.08347900   1.008000   ; qtot 34.113983
  894         hc     34    bbb     H8    894 0.08347900   1.008000   ; qtot 34.197462
  895         hx     34    bbb     H9    895 0.07988000   1.008000   ; qtot 34.277342
  896         hx     34    bbb    H10    896 0.07988000   1.008000   ; qtot 34.357222
  897         h1     34    bbb    H11    897 0.10618100   1.008000   ; qtot 34.463403
  898         h1     34    bbb    H12    898 0.10618100   1.008000   ; qtot 34.569584
  899         hn     34    bbb    H13    899 0.25916100   1.008000   ; qtot 34.828745
  900         hn     34    bbb    H25    900 0.17125500   1.008000   ; qtot 35.000000
; residue   35 bbb rtp bbb q 1.0
  901         n4     35    bbb     N1    901 -0.02747900  14.010000   ; qtot 34.972521
  902         c3     35    bbb     C1    902 -0.05097600  12.010000   ; qtot 34.921545
  903         c3     35    bbb     C2    903 -0.05097600  12.010000   ; qtot 34.870569
  904         c3     35    bbb     C3    904 -0.18457900  12.010000   ; qtot 34.685990
  905          c     35    bbb     C4    905 0.67254400  12.010000   ; qtot 35.358534
  906         c3     35    bbb     C5    906 -0.18457900  12.010000   ; qtot 35.173955
  907          c     35    bbb     C6    907 0.67254400  12.010000   ; qtot 35.846499
  908         c3     35    bbb     C7    908 -0.02083000  12.010000   ; qtot 35.825669
  909         c3     35    bbb     C8    909 -0.03328100  12.010000   ; qtot 35.792388
  910          n     35    bbb     N2    910 -0.33303000  14.010000   ; qtot 35.459358
  911          o     35    bbb     O1    911 -0.52917200  16.000000   ; qtot 34.930186
  912          o     35    bbb     O2    912 -0.52917200  16.000000   ; qtot 34.401014
  913         hx     35    bbb     H1    913 0.11563300   1.008000   ; qtot 34.516647
  914         hx     35    bbb     H2    914 0.11563300   1.008000   ; qtot 34.632280
  915         hx     35    bbb     H3    915 0.11563300   1.008000   ; qtot 34.747913
  916         hx     35    bbb     H4    916 0.11563300   1.008000   ; qtot 34.863546
  917         hc     35    bbb     H5    917 0.08347900   1.008000   ; qtot 34.947025
  918         hc     35    bbb     H6    918 0.08347900   1.008000   ; qtot 35.030504
  919         hc     35    bbb     H7    919 0.08347900   1.008000   ; qtot 35.113983
  920         hc     35    bbb     H8    920 0.08347900   1.008000   ; qtot 35.197462
  921         hx     35    bbb     H9    921 0.07988000   1.008000   ; qtot 35.277342
  922         hx     35    bbb    H10    922 0.07988000   1.008000   ; qtot 35.357222
  923         h1     35    bbb    H11    923 0.10618100   1.008000   ; qtot 35.463403
  924         h1     35    bbb    H12    924 0.10618100   1.008000   ; qtot 35.569584
  925         hn     35    bbb    H13    925 0.25916100   1.008000   ; qtot 35.828745
  926         hn     35    bbb    H25    926 0.17125500   1.008000   ; qtot 36.000000
; residue   36 bbb rtp bbb q 1.0
  927         n4     36    bbb     N1    927 -0.02747900  14.010000   ; qtot 35.972521
  928         c3     36    bbb     C1    928 -0.05097600  12.010000   ; qtot 35.921545
  929         c3     36    bbb     C2    929 -0.05097600  12.010000   ; qtot 35.870569
  930         c3     36    bbb     C3    930 -0.18457900  12.010000   ; qtot 35.685990
  931          c     36    bbb     C4    931 0.67254400  12.010000   ; qtot 36.358534
  932         c3     36    bbb     C5    932 -0.18457900  12.010000   ; qtot 36.173955
  933          c     36    bbb     C6    933 0.67254400  12.010000   ; qtot 36.846499
  934         c3     36    bbb     C7    934 -0.02083000  12.010000   ; qtot 36.825669
  935         c3     36    bbb     C8    935 -0.03328100  12.010000   ; qtot 36.792388
  936          n     36    bbb     N2    936 -0.33303000  14.010000   ; qtot 36.459358
  937          o     36    bbb     O1    937 -0.52917200  16.000000   ; qtot 35.930186
  938          o     36    bbb     O2    938 -0.52917200  16.000000   ; qtot 35.401014
  939         hx     36    bbb     H1    939 0.11563300   1.008000   ; qtot 35.516647
  940         hx     36    bbb     H2    940 0.11563300   1.008000   ; qtot 35.632280
  941         hx     36    bbb     H3    941 0.11563300   1.008000   ; qtot 35.747913
  942         hx     36    bbb     H4    942 0.11563300   1.008000   ; qtot 35.863546
  943         hc     36    bbb     H5    943 0.08347900   1.008000   ; qtot 35.947025
  944         hc     36    bbb     H6    944 0.08347900   1.008000   ; qtot 36.030504
  945         hc     36    bbb     H7    945 0.08347900   1.008000   ; qtot 36.113983
  946         hc     36    bbb     H8    946 0.08347900   1.008000   ; qtot 36.197462
  947         hx     36    bbb     H9    947 0.07988000   1.008000   ; qtot 36.277342
  948         hx     36    bbb    H10    948 0.07988000   1.008000   ; qtot 36.357222
  949         h1     36    bbb    H11    949 0.10618100   1.008000   ; qtot 36.463403
  950         h1     36    bbb    H12    950 0.10618100   1.008000   ; qtot 36.569584
  951         hn     36    bbb    H13    951 0.25916100   1.008000   ; qtot 36.828745
  952         hn     36    bbb    H25    952 0.17125500   1.008000   ; qtot 37.000000
; residue   37 bbb rtp bbb q 1.0
  953         n4     37    bbb     N1    953 -0.02747900  14.010000   ; qtot 36.972521
  954         c3     37    bbb     C1    954 -0.05097600  12.010000   ; qtot 36.921545
  955         c3     37    bbb     C2    955 -0.05097600  12.010000   ; qtot 36.870569
  956         c3     37    bbb     C3    956 -0.18457900  12.010000   ; qtot 36.685990
  957          c     37    bbb     C4    957 0.67254400  12.010000   ; qtot 37.358534
  958         c3     37    bbb     C5    958 -0.18457900  12.010000   ; qtot 37.173955
  959          c     37    bbb     C6    959 0.67254400  12.010000   ; qtot 37.846499
  960         c3     37    bbb     C7    960 -0.02083000  12.010000   ; qtot 37.825669
  961         c3     37    bbb     C8    961 -0.03328100  12.010000   ; qtot 37.792388
  962          n     37    bbb     N2    962 -0.33303000  14.010000   ; qtot 37.459358
  963          o     37    bbb     O1    963 -0.52917200  16.000000   ; qtot 36.930186
  964          o     37    bbb     O2    964 -0.52917200  16.000000   ; qtot 36.401014
  965         hx     37    bbb     H1    965 0.11563300   1.008000   ; qtot 36.516647
  966         hx     37    bbb     H2    966 0.11563300   1.008000   ; qtot 36.632280
  967         hx     37    bbb     H3    967 0.11563300   1.008000   ; qtot 36.747913
  968         hx     37    bbb     H4    968 0.11563300   1.008000   ; qtot 36.863546
  969         hc     37    bbb     H5    969 0.08347900   1.008000   ; qtot 36.947025
  970         hc     37    bbb     H6    970 0.08347900   1.008000   ; qtot 37.030504
  971         hc     37    bbb     H7    971 0.08347900   1.008000   ; qtot 37.113983
  972         hc     37    bbb     H8    972 0.08347900   1.008000   ; qtot 37.197462
  973         hx     37    bbb     H9    973 0.07988000   1.008000   ; qtot 37.277342
  974         hx     37    bbb    H10    974 0.07988000   1.008000   ; qtot 37.357222
  975         h1     37    bbb    H11    975 0.10618100   1.008000   ; qtot 37.463403
  976         h1     37    bbb    H12    976 0.10618100   1.008000   ; qtot 37.569584
  977         hn     37    bbb    H13    977 0.25916100   1.008000   ; qtot 37.828745
  978         hn     37    bbb    H25    978 0.17125500   1.008000   ; qtot 38.000000
; residue   38 bbb rtp bbb q 1.0
  979         n4     38    bbb     N1    979 -0.02747900  14.010000   ; qtot 37.972521
  980         c3     38    bbb     C1    980 -0.05097600  12.010000   ; qtot 37.921545
  981         c3     38    bbb     C2    981 -0.05097600  12.010000   ; qtot 37.870569
  982         c3     38    bbb     C3    982 -0.18457900  12.010000   ; qtot 37.685990
  983          c     38    bbb     C4    983 0.67254400  12.010000   ; qtot 38.358534
  984         c3     38    bbb     C5    984 -0.18457900  12.010000   ; qtot 38.173955
  985          c     38    bbb     C6    985 0.67254400  12.010000   ; qtot 38.846499
  986         c3     38    bbb     C7    986 -0.02083000  12.010000   ; qtot 38.825669
  987         c3     38    bbb     C8    987 -0.03328100  12.010000   ; qtot 38.792388
  988          n     38    bbb     N2    988 -0.33303000  14.010000   ; qtot 38.459358
  989          o     38    bbb     O1    989 -0.52917200  16.000000   ; qtot 37.930186
  990          o     38    bbb     O2    990 -0.52917200  16.000000   ; qtot 37.401014
  991         hx     38    bbb     H1    991 0.11563300   1.008000   ; qtot 37.516647
  992         hx     38    bbb     H2    992 0.11563300   1.008000   ; qtot 37.632280
  993         hx     38    bbb     H3    993 0.11563300   1.008000   ; qtot 37.747913
  994         hx     38    bbb     H4    994 0.11563300   1.008000   ; qtot 37.863546
  995         hc     38    bbb     H5    995 0.08347900   1.008000   ; qtot 37.947025
  996         hc     38    bbb     H6    996 0.08347900   1.008000   ; qtot 38.030504
  997         hc     38    bbb     H7    997 0.08347900   1.008000   ; qtot 38.113983
  998         hc     38    bbb     H8    998 0.08347900   1.008000   ; qtot 38.197462
  999         hx     38    bbb     H9    999 0.07988000   1.008000   ; qtot 38.277342
 1000         hx     38    bbb    H10   1000 0.07988000   1.008000   ; qtot 38.357222
 1001         h1     38    bbb    H11   1001 0.10618100   1.008000   ; qtot 38.463403
 1002         h1     38    bbb    H12   1002 0.10618100   1.008000   ; qtot 38.569584
 1003         hn     38    bbb    H13   1003 0.25916100   1.008000   ; qtot 38.828745
 1004         hn     38    bbb    H25   1004 0.17125500   1.008000   ; qtot 39.000000
; residue   39 bbb rtp bbb q 1.0
 1005         n4     39    bbb     N1   1005 -0.02747900  14.010000   ; qtot 38.972521
 1006         c3     39    bbb     C1   1006 -0.05097600  12.010000   ; qtot 38.921545
 1007         c3     39    bbb     C2   1007 -0.05097600  12.010000   ; qtot 38.870569
 1008         c3     39    bbb     C3   1008 -0.18457900  12.010000   ; qtot 38.685990
 1009          c     39    bbb     C4   1009 0.67254400  12.010000   ; qtot 39.358534
 1010         c3     39    bbb     C5   1010 -0.18457900  12.010000   ; qtot 39.173955
 1011          c     39    bbb     C6   1011 0.67254400  12.010000   ; qtot 39.846499
 1012         c3     39    bbb     C7   1012 -0.02083000  12.010000   ; qtot 39.825669
 1013         c3     39    bbb     C8   1013 -0.03328100  12.010000   ; qtot 39.792388
 1014          n     39    bbb     N2   1014 -0.33303000  14.010000   ; qtot 39.459358
 1015          o     39    bbb     O1   1015 -0.52917200  16.000000   ; qtot 38.930186
 1016          o     39    bbb     O2   1016 -0.52917200  16.000000   ; qtot 38.401014
 1017         hx     39    bbb     H1   1017 0.11563300   1.008000   ; qtot 38.516647
 1018         hx     39    bbb     H2   1018 0.11563300   1.008000   ; qtot 38.632280
 1019         hx     39    bbb     H3   1019 0.11563300   1.008000   ; qtot 38.747913
 1020         hx     39    bbb     H4   1020 0.11563300   1.008000   ; qtot 38.863546
 1021         hc     39    bbb     H5   1021 0.08347900   1.008000   ; qtot 38.947025
 1022         hc     39    bbb     H6   1022 0.08347900   1.008000   ; qtot 39.030504
 1023         hc     39    bbb     H7   1023 0.08347900   1.008000   ; qtot 39.113983
 1024         hc     39    bbb     H8   1024 0.08347900   1.008000   ; qtot 39.197462
 1025         hx     39    bbb     H9   1025 0.07988000   1.008000   ; qtot 39.277342
 1026         hx     39    bbb    H10   1026 0.07988000   1.008000   ; qtot 39.357222
 1027         h1     39    bbb    H11   1027 0.10618100   1.008000   ; qtot 39.463403
 1028         h1     39    bbb    H12   1028 0.10618100   1.008000   ; qtot 39.569584
 1029         hn     39    bbb    H13   1029 0.25916100   1.008000   ; qtot 39.828745
 1030         hn     39    bbb    H25   1030 0.17125500   1.008000   ; qtot 40.000000
; residue   40 bbb rtp bbb q 1.0
 1031         n4     40    bbb     N1   1031 -0.02747900  14.010000   ; qtot 39.972521
 1032         c3     40    bbb     C1   1032 -0.05097600  12.010000   ; qtot 39.921545
 1033         c3     40    bbb     C2   1033 -0.05097600  12.010000   ; qtot 39.870569
 1034         c3     40    bbb     C3   1034 -0.18457900  12.010000   ; qtot 39.685990
 1035          c     40    bbb     C4   1035 0.67254400  12.010000   ; qtot 40.358534
 1036         c3     40    bbb     C5   1036 -0.18457900  12.010000   ; qtot 40.173955
 1037          c     40    bbb     C6   1037 0.67254400  12.010000   ; qtot 40.846499
 1038         c3     40    bbb     C7   1038 -0.02083000  12.010000   ; qtot 40.825669
 1039         c3     40    bbb     C8   1039 -0.03328100  12.010000   ; qtot 40.792388
 1040          n     40    bbb     N2   1040 -0.33303000  14.010000   ; qtot 40.459358
 1041          o     40    bbb     O1   1041 -0.52917200  16.000000   ; qtot 39.930186
 1042          o     40    bbb     O2   1042 -0.52917200  16.000000   ; qtot 39.401014
 1043         hx     40    bbb     H1   1043 0.11563300   1.008000   ; qtot 39.516647
 1044         hx     40    bbb     H2   1044 0.11563300   1.008000   ; qtot 39.632280
 1045         hx     40    bbb     H3   1045 0.11563300   1.008000   ; qtot 39.747913
 1046         hx     40    bbb     H4   1046 0.11563300   1.008000   ; qtot 39.863546
 1047         hc     40    bbb     H5   1047 0.08347900   1.008000   ; qtot 39.947025
 1048         hc     40    bbb     H6   1048 0.08347900   1.008000   ; qtot 40.030504
 1049         hc     40    bbb     H7   1049 0.08347900   1.008000   ; qtot 40.113983
 1050         hc     40    bbb     H8   1050 0.08347900   1.008000   ; qtot 40.197462
 1051         hx     40    bbb     H9   1051 0.07988000   1.008000   ; qtot 40.277342
 1052         hx     40    bbb    H10   1052 0.07988000   1.008000   ; qtot 40.357222
 1053         h1     40    bbb    H11   1053 0.10618100   1.008000   ; qtot 40.463403
 1054         h1     40    bbb    H12   1054 0.10618100   1.008000   ; qtot 40.569584
 1055         hn     40    bbb    H13   1055 0.25916100   1.008000   ; qtot 40.828745
 1056         hn     40    bbb    H25   1056 0.17125500   1.008000   ; qtot 41.000000
; residue   41 bbb rtp bbb q 1.0
 1057         n4     41    bbb     N1   1057 -0.02747900  14.010000   ; qtot 40.972521
 1058         c3     41    bbb     C1   1058 -0.05097600  12.010000   ; qtot 40.921545
 1059         c3     41    bbb     C2   1059 -0.05097600  12.010000   ; qtot 40.870569
 1060         c3     41    bbb     C3   1060 -0.18457900  12.010000   ; qtot 40.685990
 1061          c     41    bbb     C4   1061 0.67254400  12.010000   ; qtot 41.358534
 1062         c3     41    bbb     C5   1062 -0.18457900  12.010000   ; qtot 41.173955
 1063          c     41    bbb     C6   1063 0.67254400  12.010000   ; qtot 41.846499
 1064         c3     41    bbb     C7   1064 -0.02083000  12.010000   ; qtot 41.825669
 1065         c3     41    bbb     C8   1065 -0.03328100  12.010000   ; qtot 41.792388
 1066          n     41    bbb     N2   1066 -0.33303000  14.010000   ; qtot 41.459358
 1067          o     41    bbb     O1   1067 -0.52917200  16.000000   ; qtot 40.930186
 1068          o     41    bbb     O2   1068 -0.52917200  16.000000   ; qtot 40.401014
 1069         hx     41    bbb     H1   1069 0.11563300   1.008000   ; qtot 40.516647
 1070         hx     41    bbb     H2   1070 0.11563300   1.008000   ; qtot 40.632280
 1071         hx     41    bbb     H3   1071 0.11563300   1.008000   ; qtot 40.747913
 1072         hx     41    bbb     H4   1072 0.11563300   1.008000   ; qtot 40.863546
 1073         hc     41    bbb     H5   1073 0.08347900   1.008000   ; qtot 40.947025
 1074         hc     41    bbb     H6   1074 0.08347900   1.008000   ; qtot 41.030504
 1075         hc     41    bbb     H7   1075 0.08347900   1.008000   ; qtot 41.113983
 1076         hc     41    bbb     H8   1076 0.08347900   1.008000   ; qtot 41.197462
 1077         hx     41    bbb     H9   1077 0.07988000   1.008000   ; qtot 41.277342
 1078         hx     41    bbb    H10   1078 0.07988000   1.008000   ; qtot 41.357222
 1079         h1     41    bbb    H11   1079 0.10618100   1.008000   ; qtot 41.463403
 1080         h1     41    bbb    H12   1080 0.10618100   1.008000   ; qtot 41.569584
 1081         hn     41    bbb    H13   1081 0.25916100   1.008000   ; qtot 41.828745
 1082         hn     41    bbb    H25   1082 0.17125500   1.008000   ; qtot 42.000000
; residue   42 bbb rtp bbb q 1.0
 1083         n4     42    bbb     N1   1083 -0.02747900  14.010000   ; qtot 41.972521
 1084         c3     42    bbb     C1   1084 -0.05097600  12.010000   ; qtot 41.921545
 1085         c3     42    bbb     C2   1085 -0.05097600  12.010000   ; qtot 41.870569
 1086         c3     42    bbb     C3   1086 -0.18457900  12.010000   ; qtot 41.685990
 1087          c     42    bbb     C4   1087 0.67254400  12.010000   ; qtot 42.358534
 1088         c3     42    bbb     C5   1088 -0.18457900  12.010000   ; qtot 42.173955
 1089          c     42    bbb     C6   1089 0.67254400  12.010000   ; qtot 42.846499
 1090         c3     42    bbb     C7   1090 -0.02083000  12.010000   ; qtot 42.825669
 1091         c3     42    bbb     C8   1091 -0.03328100  12.010000   ; qtot 42.792388
 1092          n     42    bbb     N2   1092 -0.33303000  14.010000   ; qtot 42.459358
 1093          o     42    bbb     O1   1093 -0.52917200  16.000000   ; qtot 41.930186
 1094          o     42    bbb     O2   1094 -0.52917200  16.000000   ; qtot 41.401014
 1095         hx     42    bbb     H1   1095 0.11563300   1.008000   ; qtot 41.516647
 1096         hx     42    bbb     H2   1096 0.11563300   1.008000   ; qtot 41.632280
 1097         hx     42    bbb     H3   1097 0.11563300   1.008000   ; qtot 41.747913
 1098         hx     42    bbb     H4   1098 0.11563300   1.008000   ; qtot 41.863546
 1099         hc     42    bbb     H5   1099 0.08347900   1.008000   ; qtot 41.947025
 1100         hc     42    bbb     H6   1100 0.08347900   1.008000   ; qtot 42.030504
 1101         hc     42    bbb     H7   1101 0.08347900   1.008000   ; qtot 42.113983
 1102         hc     42    bbb     H8   1102 0.08347900   1.008000   ; qtot 42.197462
 1103         hx     42    bbb     H9   1103 0.07988000   1.008000   ; qtot 42.277342
 1104         hx     42    bbb    H10   1104 0.07988000   1.008000   ; qtot 42.357222
 1105         h1     42    bbb    H11   1105 0.10618100   1.008000   ; qtot 42.463403
 1106         h1     42    bbb    H12   1106 0.10618100   1.008000   ; qtot 42.569584
 1107         hn     42    bbb    H13   1107 0.25916100   1.008000   ; qtot 42.828745
 1108         hn     42    bbb    H25   1108 0.17125500   1.008000   ; qtot 43.000000
; residue   43 bbb rtp bbb q 1.0
 1109         n4     43    bbb     N1   1109 -0.02747900  14.010000   ; qtot 42.972521
 1110         c3     43    bbb     C1   1110 -0.05097600  12.010000   ; qtot 42.921545
 1111         c3     43    bbb     C2   1111 -0.05097600  12.010000   ; qtot 42.870569
 1112         c3     43    bbb     C3   1112 -0.18457900  12.010000   ; qtot 42.685990
 1113          c     43    bbb     C4   1113 0.67254400  12.010000   ; qtot 43.358534
 1114         c3     43    bbb     C5   1114 -0.18457900  12.010000   ; qtot 43.173955
 1115          c     43    bbb     C6   1115 0.67254400  12.010000   ; qtot 43.846499
 1116         c3     43    bbb     C7   1116 -0.02083000  12.010000   ; qtot 43.825669
 1117         c3     43    bbb     C8   1117 -0.03328100  12.010000   ; qtot 43.792388
 1118          n     43    bbb     N2   1118 -0.33303000  14.010000   ; qtot 43.459358
 1119          o     43    bbb     O1   1119 -0.52917200  16.000000   ; qtot 42.930186
 1120          o     43    bbb     O2   1120 -0.52917200  16.000000   ; qtot 42.401014
 1121         hx     43    bbb     H1   1121 0.11563300   1.008000   ; qtot 42.516647
 1122         hx     43    bbb     H2   1122 0.11563300   1.008000   ; qtot 42.632280
 1123         hx     43    bbb     H3   1123 0.11563300   1.008000   ; qtot 42.747913
 1124         hx     43    bbb     H4   1124 0.11563300   1.008000   ; qtot 42.863546
 1125         hc     43    bbb     H5   1125 0.08347900   1.008000   ; qtot 42.947025
 1126         hc     43    bbb     H6   1126 0.08347900   1.008000   ; qtot 43.030504
 1127         hc     43    bbb     H7   1127 0.08347900   1.008000   ; qtot 43.113983
 1128         hc     43    bbb     H8   1128 0.08347900   1.008000   ; qtot 43.197462
 1129         hx     43    bbb     H9   1129 0.07988000   1.008000   ; qtot 43.277342
 1130         hx     43    bbb    H10   1130 0.07988000   1.008000   ; qtot 43.357222
 1131         h1     43    bbb    H11   1131 0.10618100   1.008000   ; qtot 43.463403
 1132         h1     43    bbb    H12   1132 0.10618100   1.008000   ; qtot 43.569584
 1133         hn     43    bbb    H13   1133 0.25916100   1.008000   ; qtot 43.828745
 1134         hn     43    bbb    H25   1134 0.17125500   1.008000   ; qtot 44.000000
; residue   44 bbb rtp bbb q 1.0
 1135         n4     44    bbb     N1   1135 -0.02747900  14.010000   ; qtot 43.972521
 1136         c3     44    bbb     C1   1136 -0.05097600  12.010000   ; qtot 43.921545
 1137         c3     44    bbb     C2   1137 -0.05097600  12.010000   ; qtot 43.870569
 1138         c3     44    bbb     C3   1138 -0.18457900  12.010000   ; qtot 43.685990
 1139          c     44    bbb     C4   1139 0.67254400  12.010000   ; qtot 44.358534
 1140         c3     44    bbb     C5   1140 -0.18457900  12.010000   ; qtot 44.173955
 1141          c     44    bbb     C6   1141 0.67254400  12.010000   ; qtot 44.846499
 1142         c3     44    bbb     C7   1142 -0.02083000  12.010000   ; qtot 44.825669
 1143         c3     44    bbb     C8   1143 -0.03328100  12.010000   ; qtot 44.792388
 1144          n     44    bbb     N2   1144 -0.33303000  14.010000   ; qtot 44.459358
 1145          o     44    bbb     O1   1145 -0.52917200  16.000000   ; qtot 43.930186
 1146          o     44    bbb     O2   1146 -0.52917200  16.000000   ; qtot 43.401014
 1147         hx     44    bbb     H1   1147 0.11563300   1.008000   ; qtot 43.516647
 1148         hx     44    bbb     H2   1148 0.11563300   1.008000   ; qtot 43.632280
 1149         hx     44    bbb     H3   1149 0.11563300   1.008000   ; qtot 43.747913
 1150         hx     44    bbb     H4   1150 0.11563300   1.008000   ; qtot 43.863546
 1151         hc     44    bbb     H5   1151 0.08347900   1.008000   ; qtot 43.947025
 1152         hc     44    bbb     H6   1152 0.08347900   1.008000   ; qtot 44.030504
 1153         hc     44    bbb     H7   1153 0.08347900   1.008000   ; qtot 44.113983
 1154         hc     44    bbb     H8   1154 0.08347900   1.008000   ; qtot 44.197462
 1155         hx     44    bbb     H9   1155 0.07988000   1.008000   ; qtot 44.277342
 1156         hx     44    bbb    H10   1156 0.07988000   1.008000   ; qtot 44.357222
 1157         h1     44    bbb    H11   1157 0.10618100   1.008000   ; qtot 44.463403
 1158         h1     44    bbb    H12   1158 0.10618100   1.008000   ; qtot 44.569584
 1159         hn     44    bbb    H13   1159 0.25916100   1.008000   ; qtot 44.828745
 1160         hn     44    bbb    H25   1160 0.17125500   1.008000   ; qtot 45.000000
; residue   45 bbb rtp bbb q 1.0
 1161         n4     45    bbb     N1   1161 -0.02747900  14.010000   ; qtot 44.972521
 1162         c3     45    bbb     C1   1162 -0.05097600  12.010000   ; qtot 44.921545
 1163         c3     45    bbb     C2   1163 -0.05097600  12.010000   ; qtot 44.870569
 1164         c3     45    bbb     C3   1164 -0.18457900  12.010000   ; qtot 44.685990
 1165          c     45    bbb     C4   1165 0.67254400  12.010000   ; qtot 45.358534
 1166         c3     45    bbb     C5   1166 -0.18457900  12.010000   ; qtot 45.173955
 1167          c     45    bbb     C6   1167 0.67254400  12.010000   ; qtot 45.846499
 1168         c3     45    bbb     C7   1168 -0.02083000  12.010000   ; qtot 45.825669
 1169         c3     45    bbb     C8   1169 -0.03328100  12.010000   ; qtot 45.792388
 1170          n     45    bbb     N2   1170 -0.33303000  14.010000   ; qtot 45.459358
 1171          o     45    bbb     O1   1171 -0.52917200  16.000000   ; qtot 44.930186
 1172          o     45    bbb     O2   1172 -0.52917200  16.000000   ; qtot 44.401014
 1173         hx     45    bbb     H1   1173 0.11563300   1.008000   ; qtot 44.516647
 1174         hx     45    bbb     H2   1174 0.11563300   1.008000   ; qtot 44.632280
 1175         hx     45    bbb     H3   1175 0.11563300   1.008000   ; qtot 44.747913
 1176         hx     45    bbb     H4   1176 0.11563300   1.008000   ; qtot 44.863546
 1177         hc     45    bbb     H5   1177 0.08347900   1.008000   ; qtot 44.947025
 1178         hc     45    bbb     H6   1178 0.08347900   1.008000   ; qtot 45.030504
 1179         hc     45    bbb     H7   1179 0.08347900   1.008000   ; qtot 45.113983
 1180         hc     45    bbb     H8   1180 0.08347900   1.008000   ; qtot 45.197462
 1181         hx     45    bbb     H9   1181 0.07988000   1.008000   ; qtot 45.277342
 1182         hx     45    bbb    H10   1182 0.07988000   1.008000   ; qtot 45.357222
 1183         h1     45    bbb    H11   1183 0.10618100   1.008000   ; qtot 45.463403
 1184         h1     45    bbb    H12   1184 0.10618100   1.008000   ; qtot 45.569584
 1185         hn     45    bbb    H13   1185 0.25916100   1.008000   ; qtot 45.828745
 1186         hn     45    bbb    H25   1186 0.17125500   1.008000   ; qtot 46.000000
; residue   46 bbb rtp bbb q 1.0
 1187         n4     46    bbb     N1   1187 -0.02747900  14.010000   ; qtot 45.972521
 1188         c3     46    bbb     C1   1188 -0.05097600  12.010000   ; qtot 45.921545
 1189         c3     46    bbb     C2   1189 -0.05097600  12.010000   ; qtot 45.870569
 1190         c3     46    bbb     C3   1190 -0.18457900  12.010000   ; qtot 45.685990
 1191          c     46    bbb     C4   1191 0.67254400  12.010000   ; qtot 46.358534
 1192         c3     46    bbb     C5   1192 -0.18457900  12.010000   ; qtot 46.173955
 1193          c     46    bbb     C6   1193 0.67254400  12.010000   ; qtot 46.846499
 1194         c3     46    bbb     C7   1194 -0.02083000  12.010000   ; qtot 46.825669
 1195         c3     46    bbb     C8   1195 -0.03328100  12.010000   ; qtot 46.792388
 1196          n     46    bbb     N2   1196 -0.33303000  14.010000   ; qtot 46.459358
 1197          o     46    bbb     O1   1197 -0.52917200  16.000000   ; qtot 45.930186
 1198          o     46    bbb     O2   1198 -0.52917200  16.000000   ; qtot 45.401014
 1199         hx     46    bbb     H1   1199 0.11563300   1.008000   ; qtot 45.516647
 1200         hx     46    bbb     H2   1200 0.11563300   1.008000   ; qtot 45.632280
 1201         hx     46    bbb     H3   1201 0.11563300   1.008000   ; qtot 45.747913
 1202         hx     46    bbb     H4   1202 0.11563300   1.008000   ; qtot 45.863546
 1203         hc     46    bbb     H5   1203 0.08347900   1.008000   ; qtot 45.947025
 1204         hc     46    bbb     H6   1204 0.08347900   1.008000   ; qtot 46.030504
 1205         hc     46    bbb     H7   1205 0.08347900   1.008000   ; qtot 46.113983
 1206         hc     46    bbb     H8   1206 0.08347900   1.008000   ; qtot 46.197462
 1207         hx     46    bbb     H9   1207 0.07988000   1.008000   ; qtot 46.277342
 1208         hx     46    bbb    H10   1208 0.07988000   1.008000   ; qtot 46.357222
 1209         h1     46    bbb    H11   1209 0.10618100   1.008000   ; qtot 46.463403
 1210         h1     46    bbb    H12   1210 0.10618100   1.008000   ; qtot 46.569584
 1211         hn     46    bbb    H13   1211 0.25916100   1.008000   ; qtot 46.828745
 1212         hn     46    bbb    H25   1212 0.17125500   1.008000   ; qtot 47.000000
; residue   47 bbb rtp bbb q 1.0
 1213         n4     47    bbb     N1   1213 -0.02747900  14.010000   ; qtot 46.972521
 1214         c3     47    bbb     C1   1214 -0.05097600  12.010000   ; qtot 46.921545
 1215         c3     47    bbb     C2   1215 -0.05097600  12.010000   ; qtot 46.870569
 1216         c3     47    bbb     C3   1216 -0.18457900  12.010000   ; qtot 46.685990
 1217          c     47    bbb     C4   1217 0.67254400  12.010000   ; qtot 47.358534
 1218         c3     47    bbb     C5   1218 -0.18457900  12.010000   ; qtot 47.173955
 1219          c     47    bbb     C6   1219 0.67254400  12.010000   ; qtot 47.846499
 1220         c3     47    bbb     C7   1220 -0.02083000  12.010000   ; qtot 47.825669
 1221         c3     47    bbb     C8   1221 -0.03328100  12.010000   ; qtot 47.792388
 1222          n     47    bbb     N2   1222 -0.33303000  14.010000   ; qtot 47.459358
 1223          o     47    bbb     O1   1223 -0.52917200  16.000000   ; qtot 46.930186
 1224          o     47    bbb     O2   1224 -0.52917200  16.000000   ; qtot 46.401014
 1225         hx     47    bbb     H1   1225 0.11563300   1.008000   ; qtot 46.516647
 1226         hx     47    bbb     H2   1226 0.11563300   1.008000   ; qtot 46.632280
 1227         hx     47    bbb     H3   1227 0.11563300   1.008000   ; qtot 46.747913
 1228         hx     47    bbb     H4   1228 0.11563300   1.008000   ; qtot 46.863546
 1229         hc     47    bbb     H5   1229 0.08347900   1.008000   ; qtot 46.947025
 1230         hc     47    bbb     H6   1230 0.08347900   1.008000   ; qtot 47.030504
 1231         hc     47    bbb     H7   1231 0.08347900   1.008000   ; qtot 47.113983
 1232         hc     47    bbb     H8   1232 0.08347900   1.008000   ; qtot 47.197462
 1233         hx     47    bbb     H9   1233 0.07988000   1.008000   ; qtot 47.277342
 1234         hx     47    bbb    H10   1234 0.07988000   1.008000   ; qtot 47.357222
 1235         h1     47    bbb    H11   1235 0.10618100   1.008000   ; qtot 47.463403
 1236         h1     47    bbb    H12   1236 0.10618100   1.008000   ; qtot 47.569584
 1237         hn     47    bbb    H13   1237 0.25916100   1.008000   ; qtot 47.828745
 1238         hn     47    bbb    H25   1238 0.17125500   1.008000   ; qtot 48.000000
; residue   48 bbb rtp bbb q 1.0
 1239         n4     48    bbb     N1   1239 -0.02747900  14.010000   ; qtot 47.972521
 1240         c3     48    bbb     C1   1240 -0.05097600  12.010000   ; qtot 47.921545
 1241         c3     48    bbb     C2   1241 -0.05097600  12.010000   ; qtot 47.870569
 1242         c3     48    bbb     C3   1242 -0.18457900  12.010000   ; qtot 47.685990
 1243          c     48    bbb     C4   1243 0.67254400  12.010000   ; qtot 48.358534
 1244         c3     48    bbb     C5   1244 -0.18457900  12.010000   ; qtot 48.173955
 1245          c     48    bbb     C6   1245 0.67254400  12.010000   ; qtot 48.846499
 1246         c3     48    bbb     C7   1246 -0.02083000  12.010000   ; qtot 48.825669
 1247         c3     48    bbb     C8   1247 -0.03328100  12.010000   ; qtot 48.792388
 1248          n     48    bbb     N2   1248 -0.33303000  14.010000   ; qtot 48.459358
 1249          o     48    bbb     O1   1249 -0.52917200  16.000000   ; qtot 47.930186
 1250          o     48    bbb     O2   1250 -0.52917200  16.000000   ; qtot 47.401014
 1251         hx     48    bbb     H1   1251 0.11563300   1.008000   ; qtot 47.516647
 1252         hx     48    bbb     H2   1252 0.11563300   1.008000   ; qtot 47.632280
 1253         hx     48    bbb     H3   1253 0.11563300   1.008000   ; qtot 47.747913
 1254         hx     48    bbb     H4   1254 0.11563300   1.008000   ; qtot 47.863546
 1255         hc     48    bbb     H5   1255 0.08347900   1.008000   ; qtot 47.947025
 1256         hc     48    bbb     H6   1256 0.08347900   1.008000   ; qtot 48.030504
 1257         hc     48    bbb     H7   1257 0.08347900   1.008000   ; qtot 48.113983
 1258         hc     48    bbb     H8   1258 0.08347900   1.008000   ; qtot 48.197462
 1259         hx     48    bbb     H9   1259 0.07988000   1.008000   ; qtot 48.277342
 1260         hx     48    bbb    H10   1260 0.07988000   1.008000   ; qtot 48.357222
 1261         h1     48    bbb    H11   1261 0.10618100   1.008000   ; qtot 48.463403
 1262         h1     48    bbb    H12   1262 0.10618100   1.008000   ; qtot 48.569584
 1263         hn     48    bbb    H13   1263 0.25916100   1.008000   ; qtot 48.828745
 1264         hn     48    bbb    H25   1264 0.17125500   1.008000   ; qtot 49.000000
; residue   49 bbb rtp bbb q 1.0
 1265         n4     49    bbb     N1   1265 -0.02747900  14.010000   ; qtot 48.972521
 1266         c3     49    bbb     C1   1266 -0.05097600  12.010000   ; qtot 48.921545
 1267         c3     49    bbb     C2   1267 -0.05097600  12.010000   ; qtot 48.870569
 1268         c3     49    bbb     C3   1268 -0.18457900  12.010000   ; qtot 48.685990
 1269          c     49    bbb     C4   1269 0.67254400  12.010000   ; qtot 49.358534
 1270         c3     49    bbb     C5   1270 -0.18457900  12.010000   ; qtot 49.173955
 1271          c     49    bbb     C6   1271 0.67254400  12.010000   ; qtot 49.846499
 1272         c3     49    bbb     C7   1272 -0.02083000  12.010000   ; qtot 49.825669
 1273         c3     49    bbb     C8   1273 -0.03328100  12.010000   ; qtot 49.792388
 1274          n     49    bbb     N2   1274 -0.33303000  14.010000   ; qtot 49.459358
 1275          o     49    bbb     O1   1275 -0.52917200  16.000000   ; qtot 48.930186
 1276          o     49    bbb     O2   1276 -0.52917200  16.000000   ; qtot 48.401014
 1277         hx     49    bbb     H1   1277 0.11563300   1.008000   ; qtot 48.516647
 1278         hx     49    bbb     H2   1278 0.11563300   1.008000   ; qtot 48.632280
 1279         hx     49    bbb     H3   1279 0.11563300   1.008000   ; qtot 48.747913
 1280         hx     49    bbb     H4   1280 0.11563300   1.008000   ; qtot 48.863546
 1281         hc     49    bbb     H5   1281 0.08347900   1.008000   ; qtot 48.947025
 1282         hc     49    bbb     H6   1282 0.08347900   1.008000   ; qtot 49.030504
 1283         hc     49    bbb     H7   1283 0.08347900   1.008000   ; qtot 49.113983
 1284         hc     49    bbb     H8   1284 0.08347900   1.008000   ; qtot 49.197462
 1285         hx     49    bbb     H9   1285 0.07988000   1.008000   ; qtot 49.277342
 1286         hx     49    bbb    H10   1286 0.07988000   1.008000   ; qtot 49.357222
 1287         h1     49    bbb    H11   1287 0.10618100   1.008000   ; qtot 49.463403
 1288         h1     49    bbb    H12   1288 0.10618100   1.008000   ; qtot 49.569584
 1289         hn     49    bbb    H13   1289 0.25916100   1.008000   ; qtot 49.828745
 1290         hn     49    bbb    H25   1290 0.17125500   1.008000   ; qtot 50.000000
; residue   50 bbb rtp bbb q 1.0
 1291         n4     50    bbb     N1   1291 -0.02747900  14.010000   ; qtot 49.972521
 1292         c3     50    bbb     C1   1292 -0.05097600  12.010000   ; qtot 49.921545
 1293         c3     50    bbb     C2   1293 -0.05097600  12.010000   ; qtot 49.870569
 1294         c3     50    bbb     C3   1294 -0.18457900  12.010000   ; qtot 49.685990
 1295          c     50    bbb     C4   1295 0.67254400  12.010000   ; qtot 50.358534
 1296         c3     50    bbb     C5   1296 -0.18457900  12.010000   ; qtot 50.173955
 1297          c     50    bbb     C6   1297 0.67254400  12.010000   ; qtot 50.846499
 1298         c3     50    bbb     C7   1298 -0.02083000  12.010000   ; qtot 50.825669
 1299         c3     50    bbb     C8   1299 -0.03328100  12.010000   ; qtot 50.792388
 1300          n     50    bbb     N2   1300 -0.33303000  14.010000   ; qtot 50.459358
 1301          o     50    bbb     O1   1301 -0.52917200  16.000000   ; qtot 49.930186
 1302          o     50    bbb     O2   1302 -0.52917200  16.000000   ; qtot 49.401014
 1303         hx     50    bbb     H1   1303 0.11563300   1.008000   ; qtot 49.516647
 1304         hx     50    bbb     H2   1304 0.11563300   1.008000   ; qtot 49.632280
 1305         hx     50    bbb     H3   1305 0.11563300   1.008000   ; qtot 49.747913
 1306         hx     50    bbb     H4   1306 0.11563300   1.008000   ; qtot 49.863546
 1307         hc     50    bbb     H5   1307 0.08347900   1.008000   ; qtot 49.947025
 1308         hc     50    bbb     H6   1308 0.08347900   1.008000   ; qtot 50.030504
 1309         hc     50    bbb     H7   1309 0.08347900   1.008000   ; qtot 50.113983
 1310         hc     50    bbb     H8   1310 0.08347900   1.008000   ; qtot 50.197462
 1311         hx     50    bbb     H9   1311 0.07988000   1.008000   ; qtot 50.277342
 1312         hx     50    bbb    H10   1312 0.07988000   1.008000   ; qtot 50.357222
 1313         h1     50    bbb    H11   1313 0.10618100   1.008000   ; qtot 50.463403
 1314         h1     50    bbb    H12   1314 0.10618100   1.008000   ; qtot 50.569584
 1315         hn     50    bbb    H13   1315 0.25916100   1.008000   ; qtot 50.828745
 1316         hn     50    bbb    H25   1316 0.17125500   1.008000   ; qtot 51.000000
; residue   51 bbb rtp bbb q 1.0
 1317         n4     51    bbb     N1   1317 -0.02747900  14.010000   ; qtot 50.972521
 1318         c3     51    bbb     C1   1318 -0.05097600  12.010000   ; qtot 50.921545
 1319         c3     51    bbb     C2   1319 -0.05097600  12.010000   ; qtot 50.870569
 1320         c3     51    bbb     C3   1320 -0.18457900  12.010000   ; qtot 50.685990
 1321          c     51    bbb     C4   1321 0.67254400  12.010000   ; qtot 51.358534
 1322         c3     51    bbb     C5   1322 -0.18457900  12.010000   ; qtot 51.173955
 1323          c     51    bbb     C6   1323 0.67254400  12.010000   ; qtot 51.846499
 1324         c3     51    bbb     C7   1324 -0.02083000  12.010000   ; qtot 51.825669
 1325         c3     51    bbb     C8   1325 -0.03328100  12.010000   ; qtot 51.792388
 1326          n     51    bbb     N2   1326 -0.33303000  14.010000   ; qtot 51.459358
 1327          o     51    bbb     O1   1327 -0.52917200  16.000000   ; qtot 50.930186
 1328          o     51    bbb     O2   1328 -0.52917200  16.000000   ; qtot 50.401014
 1329         hx     51    bbb     H1   1329 0.11563300   1.008000   ; qtot 50.516647
 1330         hx     51    bbb     H2   1330 0.11563300   1.008000   ; qtot 50.632280
 1331         hx     51    bbb     H3   1331 0.11563300   1.008000   ; qtot 50.747913
 1332         hx     51    bbb     H4   1332 0.11563300   1.008000   ; qtot 50.863546
 1333         hc     51    bbb     H5   1333 0.08347900   1.008000   ; qtot 50.947025
 1334         hc     51    bbb     H6   1334 0.08347900   1.008000   ; qtot 51.030504
 1335         hc     51    bbb     H7   1335 0.08347900   1.008000   ; qtot 51.113983
 1336         hc     51    bbb     H8   1336 0.08347900   1.008000   ; qtot 51.197462
 1337         hx     51    bbb     H9   1337 0.07988000   1.008000   ; qtot 51.277342
 1338         hx     51    bbb    H10   1338 0.07988000   1.008000   ; qtot 51.357222
 1339         h1     51    bbb    H11   1339 0.10618100   1.008000   ; qtot 51.463403
 1340         h1     51    bbb    H12   1340 0.10618100   1.008000   ; qtot 51.569584
 1341         hn     51    bbb    H13   1341 0.25916100   1.008000   ; qtot 51.828745
 1342         hn     51    bbb    H25   1342 0.17125500   1.008000   ; qtot 52.000000
; residue   52 bbb rtp bbb q 1.0
 1343         n4     52    bbb     N1   1343 -0.02747900  14.010000   ; qtot 51.972521
 1344         c3     52    bbb     C1   1344 -0.05097600  12.010000   ; qtot 51.921545
 1345         c3     52    bbb     C2   1345 -0.05097600  12.010000   ; qtot 51.870569
 1346         c3     52    bbb     C3   1346 -0.18457900  12.010000   ; qtot 51.685990
 1347          c     52    bbb     C4   1347 0.67254400  12.010000   ; qtot 52.358534
 1348         c3     52    bbb     C5   1348 -0.18457900  12.010000   ; qtot 52.173955
 1349          c     52    bbb     C6   1349 0.67254400  12.010000   ; qtot 52.846499
 1350         c3     52    bbb     C7   1350 -0.02083000  12.010000   ; qtot 52.825669
 1351         c3     52    bbb     C8   1351 -0.03328100  12.010000   ; qtot 52.792388
 1352          n     52    bbb     N2   1352 -0.33303000  14.010000   ; qtot 52.459358
 1353          o     52    bbb     O1   1353 -0.52917200  16.000000   ; qtot 51.930186
 1354          o     52    bbb     O2   1354 -0.52917200  16.000000   ; qtot 51.401014
 1355         hx     52    bbb     H1   1355 0.11563300   1.008000   ; qtot 51.516647
 1356         hx     52    bbb     H2   1356 0.11563300   1.008000   ; qtot 51.632280
 1357         hx     52    bbb     H3   1357 0.11563300   1.008000   ; qtot 51.747913
 1358         hx     52    bbb     H4   1358 0.11563300   1.008000   ; qtot 51.863546
 1359         hc     52    bbb     H5   1359 0.08347900   1.008000   ; qtot 51.947025
 1360         hc     52    bbb     H6   1360 0.08347900   1.008000   ; qtot 52.030504
 1361         hc     52    bbb     H7   1361 0.08347900   1.008000   ; qtot 52.113983
 1362         hc     52    bbb     H8   1362 0.08347900   1.008000   ; qtot 52.197462
 1363         hx     52    bbb     H9   1363 0.07988000   1.008000   ; qtot 52.277342
 1364         hx     52    bbb    H10   1364 0.07988000   1.008000   ; qtot 52.357222
 1365         h1     52    bbb    H11   1365 0.10618100   1.008000   ; qtot 52.463403
 1366         h1     52    bbb    H12   1366 0.10618100   1.008000   ; qtot 52.569584
 1367         hn     52    bbb    H13   1367 0.25916100   1.008000   ; qtot 52.828745
 1368         hn     52    bbb    H25   1368 0.17125500   1.008000   ; qtot 53.000000
; residue   53 bbb rtp bbb q 1.0
 1369         n4     53    bbb     N1   1369 -0.02747900  14.010000   ; qtot 52.972521
 1370         c3     53    bbb     C1   1370 -0.05097600  12.010000   ; qtot 52.921545
 1371         c3     53    bbb     C2   1371 -0.05097600  12.010000   ; qtot 52.870569
 1372         c3     53    bbb     C3   1372 -0.18457900  12.010000   ; qtot 52.685990
 1373          c     53    bbb     C4   1373 0.67254400  12.010000   ; qtot 53.358534
 1374         c3     53    bbb     C5   1374 -0.18457900  12.010000   ; qtot 53.173955
 1375          c     53    bbb     C6   1375 0.67254400  12.010000   ; qtot 53.846499
 1376         c3     53    bbb     C7   1376 -0.02083000  12.010000   ; qtot 53.825669
 1377         c3     53    bbb     C8   1377 -0.03328100  12.010000   ; qtot 53.792388
 1378          n     53    bbb     N2   1378 -0.33303000  14.010000   ; qtot 53.459358
 1379          o     53    bbb     O1   1379 -0.52917200  16.000000   ; qtot 52.930186
 1380          o     53    bbb     O2   1380 -0.52917200  16.000000   ; qtot 52.401014
 1381         hx     53    bbb     H1   1381 0.11563300   1.008000   ; qtot 52.516647
 1382         hx     53    bbb     H2   1382 0.11563300   1.008000   ; qtot 52.632280
 1383         hx     53    bbb     H3   1383 0.11563300   1.008000   ; qtot 52.747913
 1384         hx     53    bbb     H4   1384 0.11563300   1.008000   ; qtot 52.863546
 1385         hc     53    bbb     H5   1385 0.08347900   1.008000   ; qtot 52.947025
 1386         hc     53    bbb     H6   1386 0.08347900   1.008000   ; qtot 53.030504
 1387         hc     53    bbb     H7   1387 0.08347900   1.008000   ; qtot 53.113983
 1388         hc     53    bbb     H8   1388 0.08347900   1.008000   ; qtot 53.197462
 1389         hx     53    bbb     H9   1389 0.07988000   1.008000   ; qtot 53.277342
 1390         hx     53    bbb    H10   1390 0.07988000   1.008000   ; qtot 53.357222
 1391         h1     53    bbb    H11   1391 0.10618100   1.008000   ; qtot 53.463403
 1392         h1     53    bbb    H12   1392 0.10618100   1.008000   ; qtot 53.569584
 1393         hn     53    bbb    H13   1393 0.25916100   1.008000   ; qtot 53.828745
 1394         hn     53    bbb    H25   1394 0.17125500   1.008000   ; qtot 54.000000
; residue   54 bbb rtp bbb q 1.0
 1395         n4     54    bbb     N1   1395 -0.02747900  14.010000   ; qtot 53.972521
 1396         c3     54    bbb     C1   1396 -0.05097600  12.010000   ; qtot 53.921545
 1397         c3     54    bbb     C2   1397 -0.05097600  12.010000   ; qtot 53.870569
 1398         c3     54    bbb     C3   1398 -0.18457900  12.010000   ; qtot 53.685990
 1399          c     54    bbb     C4   1399 0.67254400  12.010000   ; qtot 54.358534
 1400         c3     54    bbb     C5   1400 -0.18457900  12.010000   ; qtot 54.173955
 1401          c     54    bbb     C6   1401 0.67254400  12.010000   ; qtot 54.846499
 1402         c3     54    bbb     C7   1402 -0.02083000  12.010000   ; qtot 54.825669
 1403         c3     54    bbb     C8   1403 -0.03328100  12.010000   ; qtot 54.792388
 1404          n     54    bbb     N2   1404 -0.33303000  14.010000   ; qtot 54.459358
 1405          o     54    bbb     O1   1405 -0.52917200  16.000000   ; qtot 53.930186
 1406          o     54    bbb     O2   1406 -0.52917200  16.000000   ; qtot 53.401014
 1407         hx     54    bbb     H1   1407 0.11563300   1.008000   ; qtot 53.516647
 1408         hx     54    bbb     H2   1408 0.11563300   1.008000   ; qtot 53.632280
 1409         hx     54    bbb     H3   1409 0.11563300   1.008000   ; qtot 53.747913
 1410         hx     54    bbb     H4   1410 0.11563300   1.008000   ; qtot 53.863546
 1411         hc     54    bbb     H5   1411 0.08347900   1.008000   ; qtot 53.947025
 1412         hc     54    bbb     H6   1412 0.08347900   1.008000   ; qtot 54.030504
 1413         hc     54    bbb     H7   1413 0.08347900   1.008000   ; qtot 54.113983
 1414         hc     54    bbb     H8   1414 0.08347900   1.008000   ; qtot 54.197462
 1415         hx     54    bbb     H9   1415 0.07988000   1.008000   ; qtot 54.277342
 1416         hx     54    bbb    H10   1416 0.07988000   1.008000   ; qtot 54.357222
 1417         h1     54    bbb    H11   1417 0.10618100   1.008000   ; qtot 54.463403
 1418         h1     54    bbb    H12   1418 0.10618100   1.008000   ; qtot 54.569584
 1419         hn     54    bbb    H13   1419 0.25916100   1.008000   ; qtot 54.828745
 1420         hn     54    bbb    H25   1420 0.17125500   1.008000   ; qtot 55.000000
; residue   55 bbb rtp bbb q 1.0
 1421         n4     55    bbb     N1   1421 -0.02747900  14.010000   ; qtot 54.972521
 1422         c3     55    bbb     C1   1422 -0.05097600  12.010000   ; qtot 54.921545
 1423         c3     55    bbb     C2   1423 -0.05097600  12.010000   ; qtot 54.870569
 1424         c3     55    bbb     C3   1424 -0.18457900  12.010000   ; qtot 54.685990
 1425          c     55    bbb     C4   1425 0.67254400  12.010000   ; qtot 55.358534
 1426         c3     55    bbb     C5   1426 -0.18457900  12.010000   ; qtot 55.173955
 1427          c     55    bbb     C6   1427 0.67254400  12.010000   ; qtot 55.846499
 1428         c3     55    bbb     C7   1428 -0.02083000  12.010000   ; qtot 55.825669
 1429         c3     55    bbb     C8   1429 -0.03328100  12.010000   ; qtot 55.792388
 1430          n     55    bbb     N2   1430 -0.33303000  14.010000   ; qtot 55.459358
 1431          o     55    bbb     O1   1431 -0.52917200  16.000000   ; qtot 54.930186
 1432          o     55    bbb     O2   1432 -0.52917200  16.000000   ; qtot 54.401014
 1433         hx     55    bbb     H1   1433 0.11563300   1.008000   ; qtot 54.516647
 1434         hx     55    bbb     H2   1434 0.11563300   1.008000   ; qtot 54.632280
 1435         hx     55    bbb     H3   1435 0.11563300   1.008000   ; qtot 54.747913
 1436         hx     55    bbb     H4   1436 0.11563300   1.008000   ; qtot 54.863546
 1437         hc     55    bbb     H5   1437 0.08347900   1.008000   ; qtot 54.947025
 1438         hc     55    bbb     H6   1438 0.08347900   1.008000   ; qtot 55.030504
 1439         hc     55    bbb     H7   1439 0.08347900   1.008000   ; qtot 55.113983
 1440         hc     55    bbb     H8   1440 0.08347900   1.008000   ; qtot 55.197462
 1441         hx     55    bbb     H9   1441 0.07988000   1.008000   ; qtot 55.277342
 1442         hx     55    bbb    H10   1442 0.07988000   1.008000   ; qtot 55.357222
 1443         h1     55    bbb    H11   1443 0.10618100   1.008000   ; qtot 55.463403
 1444         h1     55    bbb    H12   1444 0.10618100   1.008000   ; qtot 55.569584
 1445         hn     55    bbb    H13   1445 0.25916100   1.008000   ; qtot 55.828745
 1446         hn     55    bbb    H25   1446 0.17125500   1.008000   ; qtot 56.000000
; residue   56 bbb rtp bbb q 1.0
 1447         n4     56    bbb     N1   1447 -0.02747900  14.010000   ; qtot 55.972521
 1448         c3     56    bbb     C1   1448 -0.05097600  12.010000   ; qtot 55.921545
 1449         c3     56    bbb     C2   1449 -0.05097600  12.010000   ; qtot 55.870569
 1450         c3     56    bbb     C3   1450 -0.18457900  12.010000   ; qtot 55.685990
 1451          c     56    bbb     C4   1451 0.67254400  12.010000   ; qtot 56.358534
 1452         c3     56    bbb     C5   1452 -0.18457900  12.010000   ; qtot 56.173955
 1453          c     56    bbb     C6   1453 0.67254400  12.010000   ; qtot 56.846499
 1454         c3     56    bbb     C7   1454 -0.02083000  12.010000   ; qtot 56.825669
 1455         c3     56    bbb     C8   1455 -0.03328100  12.010000   ; qtot 56.792388
 1456          n     56    bbb     N2   1456 -0.33303000  14.010000   ; qtot 56.459358
 1457          o     56    bbb     O1   1457 -0.52917200  16.000000   ; qtot 55.930186
 1458          o     56    bbb     O2   1458 -0.52917200  16.000000   ; qtot 55.401014
 1459         hx     56    bbb     H1   1459 0.11563300   1.008000   ; qtot 55.516647
 1460         hx     56    bbb     H2   1460 0.11563300   1.008000   ; qtot 55.632280
 1461         hx     56    bbb     H3   1461 0.11563300   1.008000   ; qtot 55.747913
 1462         hx     56    bbb     H4   1462 0.11563300   1.008000   ; qtot 55.863546
 1463         hc     56    bbb     H5   1463 0.08347900   1.008000   ; qtot 55.947025
 1464         hc     56    bbb     H6   1464 0.08347900   1.008000   ; qtot 56.030504
 1465         hc     56    bbb     H7   1465 0.08347900   1.008000   ; qtot 56.113983
 1466         hc     56    bbb     H8   1466 0.08347900   1.008000   ; qtot 56.197462
 1467         hx     56    bbb     H9   1467 0.07988000   1.008000   ; qtot 56.277342
 1468         hx     56    bbb    H10   1468 0.07988000   1.008000   ; qtot 56.357222
 1469         h1     56    bbb    H11   1469 0.10618100   1.008000   ; qtot 56.463403
 1470         h1     56    bbb    H12   1470 0.10618100   1.008000   ; qtot 56.569584
 1471         hn     56    bbb    H13   1471 0.25916100   1.008000   ; qtot 56.828745
 1472         hn     56    bbb    H25   1472 0.17125500   1.008000   ; qtot 57.000000
; residue   57 bbb rtp bbb q 1.0
 1473         n4     57    bbb     N1   1473 -0.02747900  14.010000   ; qtot 56.972521
 1474         c3     57    bbb     C1   1474 -0.05097600  12.010000   ; qtot 56.921545
 1475         c3     57    bbb     C2   1475 -0.05097600  12.010000   ; qtot 56.870569
 1476         c3     57    bbb     C3   1476 -0.18457900  12.010000   ; qtot 56.685990
 1477          c     57    bbb     C4   1477 0.67254400  12.010000   ; qtot 57.358534
 1478         c3     57    bbb     C5   1478 -0.18457900  12.010000   ; qtot 57.173955
 1479          c     57    bbb     C6   1479 0.67254400  12.010000   ; qtot 57.846499
 1480         c3     57    bbb     C7   1480 -0.02083000  12.010000   ; qtot 57.825669
 1481         c3     57    bbb     C8   1481 -0.03328100  12.010000   ; qtot 57.792388
 1482          n     57    bbb     N2   1482 -0.33303000  14.010000   ; qtot 57.459358
 1483          o     57    bbb     O1   1483 -0.52917200  16.000000   ; qtot 56.930186
 1484          o     57    bbb     O2   1484 -0.52917200  16.000000   ; qtot 56.401014
 1485         hx     57    bbb     H1   1485 0.11563300   1.008000   ; qtot 56.516647
 1486         hx     57    bbb     H2   1486 0.11563300   1.008000   ; qtot 56.632280
 1487         hx     57    bbb     H3   1487 0.11563300   1.008000   ; qtot 56.747913
 1488         hx     57    bbb     H4   1488 0.11563300   1.008000   ; qtot 56.863546
 1489         hc     57    bbb     H5   1489 0.08347900   1.008000   ; qtot 56.947025
 1490         hc     57    bbb     H6   1490 0.08347900   1.008000   ; qtot 57.030504
 1491         hc     57    bbb     H7   1491 0.08347900   1.008000   ; qtot 57.113983
 1492         hc     57    bbb     H8   1492 0.08347900   1.008000   ; qtot 57.197462
 1493         hx     57    bbb     H9   1493 0.07988000   1.008000   ; qtot 57.277342
 1494         hx     57    bbb    H10   1494 0.07988000   1.008000   ; qtot 57.357222
 1495         h1     57    bbb    H11   1495 0.10618100   1.008000   ; qtot 57.463403
 1496         h1     57    bbb    H12   1496 0.10618100   1.008000   ; qtot 57.569584
 1497         hn     57    bbb    H13   1497 0.25916100   1.008000   ; qtot 57.828745
 1498         hn     57    bbb    H25   1498 0.17125500   1.008000   ; qtot 58.000000
; residue   58 bbb rtp bbb q 1.0
 1499         n4     58    bbb     N1   1499 -0.02747900  14.010000   ; qtot 57.972521
 1500         c3     58    bbb     C1   1500 -0.05097600  12.010000   ; qtot 57.921545
 1501         c3     58    bbb     C2   1501 -0.05097600  12.010000   ; qtot 57.870569
 1502         c3     58    bbb     C3   1502 -0.18457900  12.010000   ; qtot 57.685990
 1503          c     58    bbb     C4   1503 0.67254400  12.010000   ; qtot 58.358534
 1504         c3     58    bbb     C5   1504 -0.18457900  12.010000   ; qtot 58.173955
 1505          c     58    bbb     C6   1505 0.67254400  12.010000   ; qtot 58.846499
 1506         c3     58    bbb     C7   1506 -0.02083000  12.010000   ; qtot 58.825669
 1507         c3     58    bbb     C8   1507 -0.03328100  12.010000   ; qtot 58.792388
 1508          n     58    bbb     N2   1508 -0.33303000  14.010000   ; qtot 58.459358
 1509          o     58    bbb     O1   1509 -0.52917200  16.000000   ; qtot 57.930186
 1510          o     58    bbb     O2   1510 -0.52917200  16.000000   ; qtot 57.401014
 1511         hx     58    bbb     H1   1511 0.11563300   1.008000   ; qtot 57.516647
 1512         hx     58    bbb     H2   1512 0.11563300   1.008000   ; qtot 57.632280
 1513         hx     58    bbb     H3   1513 0.11563300   1.008000   ; qtot 57.747913
 1514         hx     58    bbb     H4   1514 0.11563300   1.008000   ; qtot 57.863546
 1515         hc     58    bbb     H5   1515 0.08347900   1.008000   ; qtot 57.947025
 1516         hc     58    bbb     H6   1516 0.08347900   1.008000   ; qtot 58.030504
 1517         hc     58    bbb     H7   1517 0.08347900   1.008000   ; qtot 58.113983
 1518         hc     58    bbb     H8   1518 0.08347900   1.008000   ; qtot 58.197462
 1519         hx     58    bbb     H9   1519 0.07988000   1.008000   ; qtot 58.277342
 1520         hx     58    bbb    H10   1520 0.07988000   1.008000   ; qtot 58.357222
 1521         h1     58    bbb    H11   1521 0.10618100   1.008000   ; qtot 58.463403
 1522         h1     58    bbb    H12   1522 0.10618100   1.008000   ; qtot 58.569584
 1523         hn     58    bbb    H13   1523 0.25916100   1.008000   ; qtot 58.828745
 1524         hn     58    bbb    H25   1524 0.17125500   1.008000   ; qtot 59.000000
; residue   59 bbb rtp bbb q 1.0
 1525         n4     59    bbb     N1   1525 -0.02747900  14.010000   ; qtot 58.972521
 1526         c3     59    bbb     C1   1526 -0.05097600  12.010000   ; qtot 58.921545
 1527         c3     59    bbb     C2   1527 -0.05097600  12.010000   ; qtot 58.870569
 1528         c3     59    bbb     C3   1528 -0.18457900  12.010000   ; qtot 58.685990
 1529          c     59    bbb     C4   1529 0.67254400  12.010000   ; qtot 59.358534
 1530         c3     59    bbb     C5   1530 -0.18457900  12.010000   ; qtot 59.173955
 1531          c     59    bbb     C6   1531 0.67254400  12.010000   ; qtot 59.846499
 1532         c3     59    bbb     C7   1532 -0.02083000  12.010000   ; qtot 59.825669
 1533         c3     59    bbb     C8   1533 -0.03328100  12.010000   ; qtot 59.792388
 1534          n     59    bbb     N2   1534 -0.33303000  14.010000   ; qtot 59.459358
 1535          o     59    bbb     O1   1535 -0.52917200  16.000000   ; qtot 58.930186
 1536          o     59    bbb     O2   1536 -0.52917200  16.000000   ; qtot 58.401014
 1537         hx     59    bbb     H1   1537 0.11563300   1.008000   ; qtot 58.516647
 1538         hx     59    bbb     H2   1538 0.11563300   1.008000   ; qtot 58.632280
 1539         hx     59    bbb     H3   1539 0.11563300   1.008000   ; qtot 58.747913
 1540         hx     59    bbb     H4   1540 0.11563300   1.008000   ; qtot 58.863546
 1541         hc     59    bbb     H5   1541 0.08347900   1.008000   ; qtot 58.947025
 1542         hc     59    bbb     H6   1542 0.08347900   1.008000   ; qtot 59.030504
 1543         hc     59    bbb     H7   1543 0.08347900   1.008000   ; qtot 59.113983
 1544         hc     59    bbb     H8   1544 0.08347900   1.008000   ; qtot 59.197462
 1545         hx     59    bbb     H9   1545 0.07988000   1.008000   ; qtot 59.277342
 1546         hx     59    bbb    H10   1546 0.07988000   1.008000   ; qtot 59.357222
 1547         h1     59    bbb    H11   1547 0.10618100   1.008000   ; qtot 59.463403
 1548         h1     59    bbb    H12   1548 0.10618100   1.008000   ; qtot 59.569584
 1549         hn     59    bbb    H13   1549 0.25916100   1.008000   ; qtot 59.828745
 1550         hn     59    bbb    H25   1550 0.17125500   1.008000   ; qtot 60.000000
; residue   60 bbb rtp bbb q 1.0
 1551         n4     60    bbb     N1   1551 -0.02747900  14.010000   ; qtot 59.972521
 1552         c3     60    bbb     C1   1552 -0.05097600  12.010000   ; qtot 59.921545
 1553         c3     60    bbb     C2   1553 -0.05097600  12.010000   ; qtot 59.870569
 1554         c3     60    bbb     C3   1554 -0.18457900  12.010000   ; qtot 59.685990
 1555          c     60    bbb     C4   1555 0.67254400  12.010000   ; qtot 60.358534
 1556         c3     60    bbb     C5   1556 -0.18457900  12.010000   ; qtot 60.173955
 1557          c     60    bbb     C6   1557 0.67254400  12.010000   ; qtot 60.846499
 1558         c3     60    bbb     C7   1558 -0.02083000  12.010000   ; qtot 60.825669
 1559         c3     60    bbb     C8   1559 -0.03328100  12.010000   ; qtot 60.792388
 1560          n     60    bbb     N2   1560 -0.33303000  14.010000   ; qtot 60.459358
 1561          o     60    bbb     O1   1561 -0.52917200  16.000000   ; qtot 59.930186
 1562          o     60    bbb     O2   1562 -0.52917200  16.000000   ; qtot 59.401014
 1563         hx     60    bbb     H1   1563 0.11563300   1.008000   ; qtot 59.516647
 1564         hx     60    bbb     H2   1564 0.11563300   1.008000   ; qtot 59.632280
 1565         hx     60    bbb     H3   1565 0.11563300   1.008000   ; qtot 59.747913
 1566         hx     60    bbb     H4   1566 0.11563300   1.008000   ; qtot 59.863546
 1567         hc     60    bbb     H5   1567 0.08347900   1.008000   ; qtot 59.947025
 1568         hc     60    bbb     H6   1568 0.08347900   1.008000   ; qtot 60.030504
 1569         hc     60    bbb     H7   1569 0.08347900   1.008000   ; qtot 60.113983
 1570         hc     60    bbb     H8   1570 0.08347900   1.008000   ; qtot 60.197462
 1571         hx     60    bbb     H9   1571 0.07988000   1.008000   ; qtot 60.277342
 1572         hx     60    bbb    H10   1572 0.07988000   1.008000   ; qtot 60.357222
 1573         h1     60    bbb    H11   1573 0.10618100   1.008000   ; qtot 60.463403
 1574         h1     60    bbb    H12   1574 0.10618100   1.008000   ; qtot 60.569584
 1575         hn     60    bbb    H13   1575 0.25916100   1.008000   ; qtot 60.828745
 1576         hn     60    bbb    H25   1576 0.17125500   1.008000   ; qtot 61.000000
; residue   61 bbb rtp bbb q 1.0
 1577         n4     61    bbb     N1   1577 -0.02747900  14.010000   ; qtot 60.972521
 1578         c3     61    bbb     C1   1578 -0.05097600  12.010000   ; qtot 60.921545
 1579         c3     61    bbb     C2   1579 -0.05097600  12.010000   ; qtot 60.870569
 1580         c3     61    bbb     C3   1580 -0.18457900  12.010000   ; qtot 60.685990
 1581          c     61    bbb     C4   1581 0.67254400  12.010000   ; qtot 61.358534
 1582         c3     61    bbb     C5   1582 -0.18457900  12.010000   ; qtot 61.173955
 1583          c     61    bbb     C6   1583 0.67254400  12.010000   ; qtot 61.846499
 1584         c3     61    bbb     C7   1584 -0.02083000  12.010000   ; qtot 61.825669
 1585         c3     61    bbb     C8   1585 -0.03328100  12.010000   ; qtot 61.792388
 1586          n     61    bbb     N2   1586 -0.33303000  14.010000   ; qtot 61.459358
 1587          o     61    bbb     O1   1587 -0.52917200  16.000000   ; qtot 60.930186
 1588          o     61    bbb     O2   1588 -0.52917200  16.000000   ; qtot 60.401014
 1589         hx     61    bbb     H1   1589 0.11563300   1.008000   ; qtot 60.516647
 1590         hx     61    bbb     H2   1590 0.11563300   1.008000   ; qtot 60.632280
 1591         hx     61    bbb     H3   1591 0.11563300   1.008000   ; qtot 60.747913
 1592         hx     61    bbb     H4   1592 0.11563300   1.008000   ; qtot 60.863546
 1593         hc     61    bbb     H5   1593 0.08347900   1.008000   ; qtot 60.947025
 1594         hc     61    bbb     H6   1594 0.08347900   1.008000   ; qtot 61.030504
 1595         hc     61    bbb     H7   1595 0.08347900   1.008000   ; qtot 61.113983
 1596         hc     61    bbb     H8   1596 0.08347900   1.008000   ; qtot 61.197462
 1597         hx     61    bbb     H9   1597 0.07988000   1.008000   ; qtot 61.277342
 1598         hx     61    bbb    H10   1598 0.07988000   1.008000   ; qtot 61.357222
 1599         h1     61    bbb    H11   1599 0.10618100   1.008000   ; qtot 61.463403
 1600         h1     61    bbb    H12   1600 0.10618100   1.008000   ; qtot 61.569584
 1601         hn     61    bbb    H13   1601 0.25916100   1.008000   ; qtot 61.828745
 1602         hn     61    bbb    H25   1602 0.17125500   1.008000   ; qtot 62.000000
; residue   62 bbb rtp bbb q 1.0
 1603         n4     62    bbb     N1   1603 -0.02747900  14.010000   ; qtot 61.972521
 1604         c3     62    bbb     C1   1604 -0.05097600  12.010000   ; qtot 61.921545
 1605         c3     62    bbb     C2   1605 -0.05097600  12.010000   ; qtot 61.870569
 1606         c3     62    bbb     C3   1606 -0.18457900  12.010000   ; qtot 61.685990
 1607          c     62    bbb     C4   1607 0.67254400  12.010000   ; qtot 62.358534
 1608         c3     62    bbb     C5   1608 -0.18457900  12.010000   ; qtot 62.173955
 1609          c     62    bbb     C6   1609 0.67254400  12.010000   ; qtot 62.846499
 1610         c3     62    bbb     C7   1610 -0.02083000  12.010000   ; qtot 62.825669
 1611         c3     62    bbb     C8   1611 -0.03328100  12.010000   ; qtot 62.792388
 1612          n     62    bbb     N2   1612 -0.33303000  14.010000   ; qtot 62.459358
 1613          o     62    bbb     O1   1613 -0.52917200  16.000000   ; qtot 61.930186
 1614          o     62    bbb     O2   1614 -0.52917200  16.000000   ; qtot 61.401014
 1615         hx     62    bbb     H1   1615 0.11563300   1.008000   ; qtot 61.516647
 1616         hx     62    bbb     H2   1616 0.11563300   1.008000   ; qtot 61.632280
 1617         hx     62    bbb     H3   1617 0.11563300   1.008000   ; qtot 61.747913
 1618         hx     62    bbb     H4   1618 0.11563300   1.008000   ; qtot 61.863546
 1619         hc     62    bbb     H5   1619 0.08347900   1.008000   ; qtot 61.947025
 1620         hc     62    bbb     H6   1620 0.08347900   1.008000   ; qtot 62.030504
 1621         hc     62    bbb     H7   1621 0.08347900   1.008000   ; qtot 62.113983
 1622         hc     62    bbb     H8   1622 0.08347900   1.008000   ; qtot 62.197462
 1623         hx     62    bbb     H9   1623 0.07988000   1.008000   ; qtot 62.277342
 1624         hx     62    bbb    H10   1624 0.07988000   1.008000   ; qtot 62.357222
 1625         h1     62    bbb    H11   1625 0.10618100   1.008000   ; qtot 62.463403
 1626         h1     62    bbb    H12   1626 0.10618100   1.008000   ; qtot 62.569584
 1627         hn     62    bbb    H13   1627 0.25916100   1.008000   ; qtot 62.828745
 1628         hn     62    bbb    H25   1628 0.17125500   1.008000   ; qtot 63.000000
; residue   63 bbb rtp bbb q 1.0
 1629         n4     63    bbb     N1   1629 -0.02747900  14.010000   ; qtot 62.972521
 1630         c3     63    bbb     C1   1630 -0.05097600  12.010000   ; qtot 62.921545
 1631         c3     63    bbb     C2   1631 -0.05097600  12.010000   ; qtot 62.870569
 1632         c3     63    bbb     C3   1632 -0.18457900  12.010000   ; qtot 62.685990
 1633          c     63    bbb     C4   1633 0.67254400  12.010000   ; qtot 63.358534
 1634         c3     63    bbb     C5   1634 -0.18457900  12.010000   ; qtot 63.173955
 1635          c     63    bbb     C6   1635 0.67254400  12.010000   ; qtot 63.846499
 1636         c3     63    bbb     C7   1636 -0.02083000  12.010000   ; qtot 63.825669
 1637         c3     63    bbb     C8   1637 -0.03328100  12.010000   ; qtot 63.792388
 1638          n     63    bbb     N2   1638 -0.33303000  14.010000   ; qtot 63.459358
 1639          o     63    bbb     O1   1639 -0.52917200  16.000000   ; qtot 62.930186
 1640          o     63    bbb     O2   1640 -0.52917200  16.000000   ; qtot 62.401014
 1641         hx     63    bbb     H1   1641 0.11563300   1.008000   ; qtot 62.516647
 1642         hx     63    bbb     H2   1642 0.11563300   1.008000   ; qtot 62.632280
 1643         hx     63    bbb     H3   1643 0.11563300   1.008000   ; qtot 62.747913
 1644         hx     63    bbb     H4   1644 0.11563300   1.008000   ; qtot 62.863546
 1645         hc     63    bbb     H5   1645 0.08347900   1.008000   ; qtot 62.947025
 1646         hc     63    bbb     H6   1646 0.08347900   1.008000   ; qtot 63.030504
 1647         hc     63    bbb     H7   1647 0.08347900   1.008000   ; qtot 63.113983
 1648         hc     63    bbb     H8   1648 0.08347900   1.008000   ; qtot 63.197462
 1649         hx     63    bbb     H9   1649 0.07988000   1.008000   ; qtot 63.277342
 1650         hx     63    bbb    H10   1650 0.07988000   1.008000   ; qtot 63.357222
 1651         h1     63    bbb    H11   1651 0.10618100   1.008000   ; qtot 63.463403
 1652         h1     63    bbb    H12   1652 0.10618100   1.008000   ; qtot 63.569584
 1653         hn     63    bbb    H13   1653 0.25916100   1.008000   ; qtot 63.828745
 1654         hn     63    bbb    H25   1654 0.17125500   1.008000   ; qtot 64.000000
; residue   64 bbb rtp bbb q 1.0
 1655         n4     64    bbb     N1   1655 -0.02747900  14.010000   ; qtot 63.972521
 1656         c3     64    bbb     C1   1656 -0.05097600  12.010000   ; qtot 63.921545
 1657         c3     64    bbb     C2   1657 -0.05097600  12.010000   ; qtot 63.870569
 1658         c3     64    bbb     C3   1658 -0.18457900  12.010000   ; qtot 63.685990
 1659          c     64    bbb     C4   1659 0.67254400  12.010000   ; qtot 64.358534
 1660         c3     64    bbb     C5   1660 -0.18457900  12.010000   ; qtot 64.173955
 1661          c     64    bbb     C6   1661 0.67254400  12.010000   ; qtot 64.846499
 1662         c3     64    bbb     C7   1662 -0.02083000  12.010000   ; qtot 64.825669
 1663         c3     64    bbb     C8   1663 -0.03328100  12.010000   ; qtot 64.792388
 1664          n     64    bbb     N2   1664 -0.33303000  14.010000   ; qtot 64.459358
 1665          o     64    bbb     O1   1665 -0.52917200  16.000000   ; qtot 63.930186
 1666          o     64    bbb     O2   1666 -0.52917200  16.000000   ; qtot 63.401014
 1667         hx     64    bbb     H1   1667 0.11563300   1.008000   ; qtot 63.516647
 1668         hx     64    bbb     H2   1668 0.11563300   1.008000   ; qtot 63.632280
 1669         hx     64    bbb     H3   1669 0.11563300   1.008000   ; qtot 63.747913
 1670         hx     64    bbb     H4   1670 0.11563300   1.008000   ; qtot 63.863546
 1671         hc     64    bbb     H5   1671 0.08347900   1.008000   ; qtot 63.947025
 1672         hc     64    bbb     H6   1672 0.08347900   1.008000   ; qtot 64.030504
 1673         hc     64    bbb     H7   1673 0.08347900   1.008000   ; qtot 64.113983
 1674         hc     64    bbb     H8   1674 0.08347900   1.008000   ; qtot 64.197462
 1675         hx     64    bbb     H9   1675 0.07988000   1.008000   ; qtot 64.277342
 1676         hx     64    bbb    H10   1676 0.07988000   1.008000   ; qtot 64.357222
 1677         h1     64    bbb    H11   1677 0.10618100   1.008000   ; qtot 64.463403
 1678         h1     64    bbb    H12   1678 0.10618100   1.008000   ; qtot 64.569584
 1679         hn     64    bbb    H13   1679 0.25916100   1.008000   ; qtot 64.828745
 1680         hn     64    bbb    H25   1680 0.17125500   1.008000   ; qtot 65.000000
; residue   65 bbb rtp bbb q 1.0
 1681         n4     65    bbb     N1   1681 -0.02747900  14.010000   ; qtot 64.972521
 1682         c3     65    bbb     C1   1682 -0.05097600  12.010000   ; qtot 64.921545
 1683         c3     65    bbb     C2   1683 -0.05097600  12.010000   ; qtot 64.870569
 1684         c3     65    bbb     C3   1684 -0.18457900  12.010000   ; qtot 64.685990
 1685          c     65    bbb     C4   1685 0.67254400  12.010000   ; qtot 65.358534
 1686         c3     65    bbb     C5   1686 -0.18457900  12.010000   ; qtot 65.173955
 1687          c     65    bbb     C6   1687 0.67254400  12.010000   ; qtot 65.846499
 1688         c3     65    bbb     C7   1688 -0.02083000  12.010000   ; qtot 65.825669
 1689         c3     65    bbb     C8   1689 -0.03328100  12.010000   ; qtot 65.792388
 1690          n     65    bbb     N2   1690 -0.33303000  14.010000   ; qtot 65.459358
 1691          o     65    bbb     O1   1691 -0.52917200  16.000000   ; qtot 64.930186
 1692          o     65    bbb     O2   1692 -0.52917200  16.000000   ; qtot 64.401014
 1693         hx     65    bbb     H1   1693 0.11563300   1.008000   ; qtot 64.516647
 1694         hx     65    bbb     H2   1694 0.11563300   1.008000   ; qtot 64.632280
 1695         hx     65    bbb     H3   1695 0.11563300   1.008000   ; qtot 64.747913
 1696         hx     65    bbb     H4   1696 0.11563300   1.008000   ; qtot 64.863546
 1697         hc     65    bbb     H5   1697 0.08347900   1.008000   ; qtot 64.947025
 1698         hc     65    bbb     H6   1698 0.08347900   1.008000   ; qtot 65.030504
 1699         hc     65    bbb     H7   1699 0.08347900   1.008000   ; qtot 65.113983
 1700         hc     65    bbb     H8   1700 0.08347900   1.008000   ; qtot 65.197462
 1701         hx     65    bbb     H9   1701 0.07988000   1.008000   ; qtot 65.277342
 1702         hx     65    bbb    H10   1702 0.07988000   1.008000   ; qtot 65.357222
 1703         h1     65    bbb    H11   1703 0.10618100   1.008000   ; qtot 65.463403
 1704         h1     65    bbb    H12   1704 0.10618100   1.008000   ; qtot 65.569584
 1705         hn     65    bbb    H13   1705 0.25916100   1.008000   ; qtot 65.828745
 1706         hn     65    bbb    H25   1706 0.17125500   1.008000   ; qtot 66.000000
; residue   66 bbb rtp bbb q 1.0
 1707         n4     66    bbb     N1   1707 -0.02747900  14.010000   ; qtot 65.972521
 1708         c3     66    bbb     C1   1708 -0.05097600  12.010000   ; qtot 65.921545
 1709         c3     66    bbb     C2   1709 -0.05097600  12.010000   ; qtot 65.870569
 1710         c3     66    bbb     C3   1710 -0.18457900  12.010000   ; qtot 65.685990
 1711          c     66    bbb     C4   1711 0.67254400  12.010000   ; qtot 66.358534
 1712         c3     66    bbb     C5   1712 -0.18457900  12.010000   ; qtot 66.173955
 1713          c     66    bbb     C6   1713 0.67254400  12.010000   ; qtot 66.846499
 1714         c3     66    bbb     C7   1714 -0.02083000  12.010000   ; qtot 66.825669
 1715         c3     66    bbb     C8   1715 -0.03328100  12.010000   ; qtot 66.792388
 1716          n     66    bbb     N2   1716 -0.33303000  14.010000   ; qtot 66.459358
 1717          o     66    bbb     O1   1717 -0.52917200  16.000000   ; qtot 65.930186
 1718          o     66    bbb     O2   1718 -0.52917200  16.000000   ; qtot 65.401014
 1719         hx     66    bbb     H1   1719 0.11563300   1.008000   ; qtot 65.516647
 1720         hx     66    bbb     H2   1720 0.11563300   1.008000   ; qtot 65.632280
 1721         hx     66    bbb     H3   1721 0.11563300   1.008000   ; qtot 65.747913
 1722         hx     66    bbb     H4   1722 0.11563300   1.008000   ; qtot 65.863546
 1723         hc     66    bbb     H5   1723 0.08347900   1.008000   ; qtot 65.947025
 1724         hc     66    bbb     H6   1724 0.08347900   1.008000   ; qtot 66.030504
 1725         hc     66    bbb     H7   1725 0.08347900   1.008000   ; qtot 66.113983
 1726         hc     66    bbb     H8   1726 0.08347900   1.008000   ; qtot 66.197462
 1727         hx     66    bbb     H9   1727 0.07988000   1.008000   ; qtot 66.277342
 1728         hx     66    bbb    H10   1728 0.07988000   1.008000   ; qtot 66.357222
 1729         h1     66    bbb    H11   1729 0.10618100   1.008000   ; qtot 66.463403
 1730         h1     66    bbb    H12   1730 0.10618100   1.008000   ; qtot 66.569584
 1731         hn     66    bbb    H13   1731 0.25916100   1.008000   ; qtot 66.828745
 1732         hn     66    bbb    H25   1732 0.17125500   1.008000   ; qtot 67.000000
; residue   67 bbb rtp bbb q 1.0
 1733         n4     67    bbb     N1   1733 -0.02747900  14.010000   ; qtot 66.972521
 1734         c3     67    bbb     C1   1734 -0.05097600  12.010000   ; qtot 66.921545
 1735         c3     67    bbb     C2   1735 -0.05097600  12.010000   ; qtot 66.870569
 1736         c3     67    bbb     C3   1736 -0.18457900  12.010000   ; qtot 66.685990
 1737          c     67    bbb     C4   1737 0.67254400  12.010000   ; qtot 67.358534
 1738         c3     67    bbb     C5   1738 -0.18457900  12.010000   ; qtot 67.173955
 1739          c     67    bbb     C6   1739 0.67254400  12.010000   ; qtot 67.846499
 1740         c3     67    bbb     C7   1740 -0.02083000  12.010000   ; qtot 67.825669
 1741         c3     67    bbb     C8   1741 -0.03328100  12.010000   ; qtot 67.792388
 1742          n     67    bbb     N2   1742 -0.33303000  14.010000   ; qtot 67.459358
 1743          o     67    bbb     O1   1743 -0.52917200  16.000000   ; qtot 66.930186
 1744          o     67    bbb     O2   1744 -0.52917200  16.000000   ; qtot 66.401014
 1745         hx     67    bbb     H1   1745 0.11563300   1.008000   ; qtot 66.516647
 1746         hx     67    bbb     H2   1746 0.11563300   1.008000   ; qtot 66.632280
 1747         hx     67    bbb     H3   1747 0.11563300   1.008000   ; qtot 66.747913
 1748         hx     67    bbb     H4   1748 0.11563300   1.008000   ; qtot 66.863546
 1749         hc     67    bbb     H5   1749 0.08347900   1.008000   ; qtot 66.947025
 1750         hc     67    bbb     H6   1750 0.08347900   1.008000   ; qtot 67.030504
 1751         hc     67    bbb     H7   1751 0.08347900   1.008000   ; qtot 67.113983
 1752         hc     67    bbb     H8   1752 0.08347900   1.008000   ; qtot 67.197462
 1753         hx     67    bbb     H9   1753 0.07988000   1.008000   ; qtot 67.277342
 1754         hx     67    bbb    H10   1754 0.07988000   1.008000   ; qtot 67.357222
 1755         h1     67    bbb    H11   1755 0.10618100   1.008000   ; qtot 67.463403
 1756         h1     67    bbb    H12   1756 0.10618100   1.008000   ; qtot 67.569584
 1757         hn     67    bbb    H13   1757 0.25916100   1.008000   ; qtot 67.828745
 1758         hn     67    bbb    H25   1758 0.17125500   1.008000   ; qtot 68.000000
; residue   68 bbb rtp bbb q 1.0
 1759         n4     68    bbb     N1   1759 -0.02747900  14.010000   ; qtot 67.972521
 1760         c3     68    bbb     C1   1760 -0.05097600  12.010000   ; qtot 67.921545
 1761         c3     68    bbb     C2   1761 -0.05097600  12.010000   ; qtot 67.870569
 1762         c3     68    bbb     C3   1762 -0.18457900  12.010000   ; qtot 67.685990
 1763          c     68    bbb     C4   1763 0.67254400  12.010000   ; qtot 68.358534
 1764         c3     68    bbb     C5   1764 -0.18457900  12.010000   ; qtot 68.173955
 1765          c     68    bbb     C6   1765 0.67254400  12.010000   ; qtot 68.846499
 1766         c3     68    bbb     C7   1766 -0.02083000  12.010000   ; qtot 68.825669
 1767         c3     68    bbb     C8   1767 -0.03328100  12.010000   ; qtot 68.792388
 1768          n     68    bbb     N2   1768 -0.33303000  14.010000   ; qtot 68.459358
 1769          o     68    bbb     O1   1769 -0.52917200  16.000000   ; qtot 67.930186
 1770          o     68    bbb     O2   1770 -0.52917200  16.000000   ; qtot 67.401014
 1771         hx     68    bbb     H1   1771 0.11563300   1.008000   ; qtot 67.516647
 1772         hx     68    bbb     H2   1772 0.11563300   1.008000   ; qtot 67.632280
 1773         hx     68    bbb     H3   1773 0.11563300   1.008000   ; qtot 67.747913
 1774         hx     68    bbb     H4   1774 0.11563300   1.008000   ; qtot 67.863546
 1775         hc     68    bbb     H5   1775 0.08347900   1.008000   ; qtot 67.947025
 1776         hc     68    bbb     H6   1776 0.08347900   1.008000   ; qtot 68.030504
 1777         hc     68    bbb     H7   1777 0.08347900   1.008000   ; qtot 68.113983
 1778         hc     68    bbb     H8   1778 0.08347900   1.008000   ; qtot 68.197462
 1779         hx     68    bbb     H9   1779 0.07988000   1.008000   ; qtot 68.277342
 1780         hx     68    bbb    H10   1780 0.07988000   1.008000   ; qtot 68.357222
 1781         h1     68    bbb    H11   1781 0.10618100   1.008000   ; qtot 68.463403
 1782         h1     68    bbb    H12   1782 0.10618100   1.008000   ; qtot 68.569584
 1783         hn     68    bbb    H13   1783 0.25916100   1.008000   ; qtot 68.828745
 1784         hn     68    bbb    H25   1784 0.17125500   1.008000   ; qtot 69.000000
; residue   69 bbb rtp bbb q 1.0
 1785         n4     69    bbb     N1   1785 -0.02747900  14.010000   ; qtot 68.972521
 1786         c3     69    bbb     C1   1786 -0.05097600  12.010000   ; qtot 68.921545
 1787         c3     69    bbb     C2   1787 -0.05097600  12.010000   ; qtot 68.870569
 1788         c3     69    bbb     C3   1788 -0.18457900  12.010000   ; qtot 68.685990
 1789          c     69    bbb     C4   1789 0.67254400  12.010000   ; qtot 69.358534
 1790         c3     69    bbb     C5   1790 -0.18457900  12.010000   ; qtot 69.173955
 1791          c     69    bbb     C6   1791 0.67254400  12.010000   ; qtot 69.846499
 1792         c3     69    bbb     C7   1792 -0.02083000  12.010000   ; qtot 69.825669
 1793         c3     69    bbb     C8   1793 -0.03328100  12.010000   ; qtot 69.792388
 1794          n     69    bbb     N2   1794 -0.33303000  14.010000   ; qtot 69.459358
 1795          o     69    bbb     O1   1795 -0.52917200  16.000000   ; qtot 68.930186
 1796          o     69    bbb     O2   1796 -0.52917200  16.000000   ; qtot 68.401014
 1797         hx     69    bbb     H1   1797 0.11563300   1.008000   ; qtot 68.516647
 1798         hx     69    bbb     H2   1798 0.11563300   1.008000   ; qtot 68.632280
 1799         hx     69    bbb     H3   1799 0.11563300   1.008000   ; qtot 68.747913
 1800         hx     69    bbb     H4   1800 0.11563300   1.008000   ; qtot 68.863546
 1801         hc     69    bbb     H5   1801 0.08347900   1.008000   ; qtot 68.947025
 1802         hc     69    bbb     H6   1802 0.08347900   1.008000   ; qtot 69.030504
 1803         hc     69    bbb     H7   1803 0.08347900   1.008000   ; qtot 69.113983
 1804         hc     69    bbb     H8   1804 0.08347900   1.008000   ; qtot 69.197462
 1805         hx     69    bbb     H9   1805 0.07988000   1.008000   ; qtot 69.277342
 1806         hx     69    bbb    H10   1806 0.07988000   1.008000   ; qtot 69.357222
 1807         h1     69    bbb    H11   1807 0.10618100   1.008000   ; qtot 69.463403
 1808         h1     69    bbb    H12   1808 0.10618100   1.008000   ; qtot 69.569584
 1809         hn     69    bbb    H13   1809 0.25916100   1.008000   ; qtot 69.828745
 1810         hn     69    bbb    H25   1810 0.17125500   1.008000   ; qtot 70.000000
; residue   70 bbb rtp bbb q 1.0
 1811         n4     70    bbb     N1   1811 -0.02747900  14.010000   ; qtot 69.972521
 1812         c3     70    bbb     C1   1812 -0.05097600  12.010000   ; qtot 69.921545
 1813         c3     70    bbb     C2   1813 -0.05097600  12.010000   ; qtot 69.870569
 1814         c3     70    bbb     C3   1814 -0.18457900  12.010000   ; qtot 69.685990
 1815          c     70    bbb     C4   1815 0.67254400  12.010000   ; qtot 70.358534
 1816         c3     70    bbb     C5   1816 -0.18457900  12.010000   ; qtot 70.173955
 1817          c     70    bbb     C6   1817 0.67254400  12.010000   ; qtot 70.846499
 1818         c3     70    bbb     C7   1818 -0.02083000  12.010000   ; qtot 70.825669
 1819         c3     70    bbb     C8   1819 -0.03328100  12.010000   ; qtot 70.792388
 1820          n     70    bbb     N2   1820 -0.33303000  14.010000   ; qtot 70.459358
 1821          o     70    bbb     O1   1821 -0.52917200  16.000000   ; qtot 69.930186
 1822          o     70    bbb     O2   1822 -0.52917200  16.000000   ; qtot 69.401014
 1823         hx     70    bbb     H1   1823 0.11563300   1.008000   ; qtot 69.516647
 1824         hx     70    bbb     H2   1824 0.11563300   1.008000   ; qtot 69.632280
 1825         hx     70    bbb     H3   1825 0.11563300   1.008000   ; qtot 69.747913
 1826         hx     70    bbb     H4   1826 0.11563300   1.008000   ; qtot 69.863546
 1827         hc     70    bbb     H5   1827 0.08347900   1.008000   ; qtot 69.947025
 1828         hc     70    bbb     H6   1828 0.08347900   1.008000   ; qtot 70.030504
 1829         hc     70    bbb     H7   1829 0.08347900   1.008000   ; qtot 70.113983
 1830         hc     70    bbb     H8   1830 0.08347900   1.008000   ; qtot 70.197462
 1831         hx     70    bbb     H9   1831 0.07988000   1.008000   ; qtot 70.277342
 1832         hx     70    bbb    H10   1832 0.07988000   1.008000   ; qtot 70.357222
 1833         h1     70    bbb    H11   1833 0.10618100   1.008000   ; qtot 70.463403
 1834         h1     70    bbb    H12   1834 0.10618100   1.008000   ; qtot 70.569584
 1835         hn     70    bbb    H13   1835 0.25916100   1.008000   ; qtot 70.828745
 1836         hn     70    bbb    H25   1836 0.17125500   1.008000   ; qtot 71.000000
; residue   71 bbb rtp bbb q 1.0
 1837         n4     71    bbb     N1   1837 -0.02747900  14.010000   ; qtot 70.972521
 1838         c3     71    bbb     C1   1838 -0.05097600  12.010000   ; qtot 70.921545
 1839         c3     71    bbb     C2   1839 -0.05097600  12.010000   ; qtot 70.870569
 1840         c3     71    bbb     C3   1840 -0.18457900  12.010000   ; qtot 70.685990
 1841          c     71    bbb     C4   1841 0.67254400  12.010000   ; qtot 71.358534
 1842         c3     71    bbb     C5   1842 -0.18457900  12.010000   ; qtot 71.173955
 1843          c     71    bbb     C6   1843 0.67254400  12.010000   ; qtot 71.846499
 1844         c3     71    bbb     C7   1844 -0.02083000  12.010000   ; qtot 71.825669
 1845         c3     71    bbb     C8   1845 -0.03328100  12.010000   ; qtot 71.792388
 1846          n     71    bbb     N2   1846 -0.33303000  14.010000   ; qtot 71.459358
 1847          o     71    bbb     O1   1847 -0.52917200  16.000000   ; qtot 70.930186
 1848          o     71    bbb     O2   1848 -0.52917200  16.000000   ; qtot 70.401014
 1849         hx     71    bbb     H1   1849 0.11563300   1.008000   ; qtot 70.516647
 1850         hx     71    bbb     H2   1850 0.11563300   1.008000   ; qtot 70.632280
 1851         hx     71    bbb     H3   1851 0.11563300   1.008000   ; qtot 70.747913
 1852         hx     71    bbb     H4   1852 0.11563300   1.008000   ; qtot 70.863546
 1853         hc     71    bbb     H5   1853 0.08347900   1.008000   ; qtot 70.947025
 1854         hc     71    bbb     H6   1854 0.08347900   1.008000   ; qtot 71.030504
 1855         hc     71    bbb     H7   1855 0.08347900   1.008000   ; qtot 71.113983
 1856         hc     71    bbb     H8   1856 0.08347900   1.008000   ; qtot 71.197462
 1857         hx     71    bbb     H9   1857 0.07988000   1.008000   ; qtot 71.277342
 1858         hx     71    bbb    H10   1858 0.07988000   1.008000   ; qtot 71.357222
 1859         h1     71    bbb    H11   1859 0.10618100   1.008000   ; qtot 71.463403
 1860         h1     71    bbb    H12   1860 0.10618100   1.008000   ; qtot 71.569584
 1861         hn     71    bbb    H13   1861 0.25916100   1.008000   ; qtot 71.828745
 1862         hn     71    bbb    H25   1862 0.17125500   1.008000   ; qtot 72.000000
; residue   72 bbb rtp bbb q 1.0
 1863         n4     72    bbb     N1   1863 -0.02747900  14.010000   ; qtot 71.972521
 1864         c3     72    bbb     C1   1864 -0.05097600  12.010000   ; qtot 71.921545
 1865         c3     72    bbb     C2   1865 -0.05097600  12.010000   ; qtot 71.870569
 1866         c3     72    bbb     C3   1866 -0.18457900  12.010000   ; qtot 71.685990
 1867          c     72    bbb     C4   1867 0.67254400  12.010000   ; qtot 72.358534
 1868         c3     72    bbb     C5   1868 -0.18457900  12.010000   ; qtot 72.173955
 1869          c     72    bbb     C6   1869 0.67254400  12.010000   ; qtot 72.846499
 1870         c3     72    bbb     C7   1870 -0.02083000  12.010000   ; qtot 72.825669
 1871         c3     72    bbb     C8   1871 -0.03328100  12.010000   ; qtot 72.792388
 1872          n     72    bbb     N2   1872 -0.33303000  14.010000   ; qtot 72.459358
 1873          o     72    bbb     O1   1873 -0.52917200  16.000000   ; qtot 71.930186
 1874          o     72    bbb     O2   1874 -0.52917200  16.000000   ; qtot 71.401014
 1875         hx     72    bbb     H1   1875 0.11563300   1.008000   ; qtot 71.516647
 1876         hx     72    bbb     H2   1876 0.11563300   1.008000   ; qtot 71.632280
 1877         hx     72    bbb     H3   1877 0.11563300   1.008000   ; qtot 71.747913
 1878         hx     72    bbb     H4   1878 0.11563300   1.008000   ; qtot 71.863546
 1879         hc     72    bbb     H5   1879 0.08347900   1.008000   ; qtot 71.947025
 1880         hc     72    bbb     H6   1880 0.08347900   1.008000   ; qtot 72.030504
 1881         hc     72    bbb     H7   1881 0.08347900   1.008000   ; qtot 72.113983
 1882         hc     72    bbb     H8   1882 0.08347900   1.008000   ; qtot 72.197462
 1883         hx     72    bbb     H9   1883 0.07988000   1.008000   ; qtot 72.277342
 1884         hx     72    bbb    H10   1884 0.07988000   1.008000   ; qtot 72.357222
 1885         h1     72    bbb    H11   1885 0.10618100   1.008000   ; qtot 72.463403
 1886         h1     72    bbb    H12   1886 0.10618100   1.008000   ; qtot 72.569584
 1887         hn     72    bbb    H13   1887 0.25916100   1.008000   ; qtot 72.828745
 1888         hn     72    bbb    H25   1888 0.17125500   1.008000   ; qtot 73.000000
; residue   73 bbb rtp bbb q 1.0
 1889         n4     73    bbb     N1   1889 -0.02747900  14.010000   ; qtot 72.972521
 1890         c3     73    bbb     C1   1890 -0.05097600  12.010000   ; qtot 72.921545
 1891         c3     73    bbb     C2   1891 -0.05097600  12.010000   ; qtot 72.870569
 1892         c3     73    bbb     C3   1892 -0.18457900  12.010000   ; qtot 72.685990
 1893          c     73    bbb     C4   1893 0.67254400  12.010000   ; qtot 73.358534
 1894         c3     73    bbb     C5   1894 -0.18457900  12.010000   ; qtot 73.173955
 1895          c     73    bbb     C6   1895 0.67254400  12.010000   ; qtot 73.846499
 1896         c3     73    bbb     C7   1896 -0.02083000  12.010000   ; qtot 73.825669
 1897         c3     73    bbb     C8   1897 -0.03328100  12.010000   ; qtot 73.792388
 1898          n     73    bbb     N2   1898 -0.33303000  14.010000   ; qtot 73.459358
 1899          o     73    bbb     O1   1899 -0.52917200  16.000000   ; qtot 72.930186
 1900          o     73    bbb     O2   1900 -0.52917200  16.000000   ; qtot 72.401014
 1901         hx     73    bbb     H1   1901 0.11563300   1.008000   ; qtot 72.516647
 1902         hx     73    bbb     H2   1902 0.11563300   1.008000   ; qtot 72.632280
 1903         hx     73    bbb     H3   1903 0.11563300   1.008000   ; qtot 72.747913
 1904         hx     73    bbb     H4   1904 0.11563300   1.008000   ; qtot 72.863546
 1905         hc     73    bbb     H5   1905 0.08347900   1.008000   ; qtot 72.947025
 1906         hc     73    bbb     H6   1906 0.08347900   1.008000   ; qtot 73.030504
 1907         hc     73    bbb     H7   1907 0.08347900   1.008000   ; qtot 73.113983
 1908         hc     73    bbb     H8   1908 0.08347900   1.008000   ; qtot 73.197462
 1909         hx     73    bbb     H9   1909 0.07988000   1.008000   ; qtot 73.277342
 1910         hx     73    bbb    H10   1910 0.07988000   1.008000   ; qtot 73.357222
 1911         h1     73    bbb    H11   1911 0.10618100   1.008000   ; qtot 73.463403
 1912         h1     73    bbb    H12   1912 0.10618100   1.008000   ; qtot 73.569584
 1913         hn     73    bbb    H13   1913 0.25916100   1.008000   ; qtot 73.828745
 1914         hn     73    bbb    H25   1914 0.17125500   1.008000   ; qtot 74.000000
; residue   74 bbb rtp bbb q 1.0
 1915         n4     74    bbb     N1   1915 -0.02747900  14.010000   ; qtot 73.972521
 1916         c3     74    bbb     C1   1916 -0.05097600  12.010000   ; qtot 73.921545
 1917         c3     74    bbb     C2   1917 -0.05097600  12.010000   ; qtot 73.870569
 1918         c3     74    bbb     C3   1918 -0.18457900  12.010000   ; qtot 73.685990
 1919          c     74    bbb     C4   1919 0.67254400  12.010000   ; qtot 74.358534
 1920         c3     74    bbb     C5   1920 -0.18457900  12.010000   ; qtot 74.173955
 1921          c     74    bbb     C6   1921 0.67254400  12.010000   ; qtot 74.846499
 1922         c3     74    bbb     C7   1922 -0.02083000  12.010000   ; qtot 74.825669
 1923         c3     74    bbb     C8   1923 -0.03328100  12.010000   ; qtot 74.792388
 1924          n     74    bbb     N2   1924 -0.33303000  14.010000   ; qtot 74.459358
 1925          o     74    bbb     O1   1925 -0.52917200  16.000000   ; qtot 73.930186
 1926          o     74    bbb     O2   1926 -0.52917200  16.000000   ; qtot 73.401014
 1927         hx     74    bbb     H1   1927 0.11563300   1.008000   ; qtot 73.516647
 1928         hx     74    bbb     H2   1928 0.11563300   1.008000   ; qtot 73.632280
 1929         hx     74    bbb     H3   1929 0.11563300   1.008000   ; qtot 73.747913
 1930         hx     74    bbb     H4   1930 0.11563300   1.008000   ; qtot 73.863546
 1931         hc     74    bbb     H5   1931 0.08347900   1.008000   ; qtot 73.947025
 1932         hc     74    bbb     H6   1932 0.08347900   1.008000   ; qtot 74.030504
 1933         hc     74    bbb     H7   1933 0.08347900   1.008000   ; qtot 74.113983
 1934         hc     74    bbb     H8   1934 0.08347900   1.008000   ; qtot 74.197462
 1935         hx     74    bbb     H9   1935 0.07988000   1.008000   ; qtot 74.277342
 1936         hx     74    bbb    H10   1936 0.07988000   1.008000   ; qtot 74.357222
 1937         h1     74    bbb    H11   1937 0.10618100   1.008000   ; qtot 74.463403
 1938         h1     74    bbb    H12   1938 0.10618100   1.008000   ; qtot 74.569584
 1939         hn     74    bbb    H13   1939 0.25916100   1.008000   ; qtot 74.828745
 1940         hn     74    bbb    H25   1940 0.17125500   1.008000   ; qtot 75.000000
; residue   75 bbb rtp bbb q 1.0
 1941         n4     75    bbb     N1   1941 -0.02747900  14.010000   ; qtot 74.972521
 1942         c3     75    bbb     C1   1942 -0.05097600  12.010000   ; qtot 74.921545
 1943         c3     75    bbb     C2   1943 -0.05097600  12.010000   ; qtot 74.870569
 1944         c3     75    bbb     C3   1944 -0.18457900  12.010000   ; qtot 74.685990
 1945          c     75    bbb     C4   1945 0.67254400  12.010000   ; qtot 75.358534
 1946         c3     75    bbb     C5   1946 -0.18457900  12.010000   ; qtot 75.173955
 1947          c     75    bbb     C6   1947 0.67254400  12.010000   ; qtot 75.846499
 1948         c3     75    bbb     C7   1948 -0.02083000  12.010000   ; qtot 75.825669
 1949         c3     75    bbb     C8   1949 -0.03328100  12.010000   ; qtot 75.792388
 1950          n     75    bbb     N2   1950 -0.33303000  14.010000   ; qtot 75.459358
 1951          o     75    bbb     O1   1951 -0.52917200  16.000000   ; qtot 74.930186
 1952          o     75    bbb     O2   1952 -0.52917200  16.000000   ; qtot 74.401014
 1953         hx     75    bbb     H1   1953 0.11563300   1.008000   ; qtot 74.516647
 1954         hx     75    bbb     H2   1954 0.11563300   1.008000   ; qtot 74.632280
 1955         hx     75    bbb     H3   1955 0.11563300   1.008000   ; qtot 74.747913
 1956         hx     75    bbb     H4   1956 0.11563300   1.008000   ; qtot 74.863546
 1957         hc     75    bbb     H5   1957 0.08347900   1.008000   ; qtot 74.947025
 1958         hc     75    bbb     H6   1958 0.08347900   1.008000   ; qtot 75.030504
 1959         hc     75    bbb     H7   1959 0.08347900   1.008000   ; qtot 75.113983
 1960         hc     75    bbb     H8   1960 0.08347900   1.008000   ; qtot 75.197462
 1961         hx     75    bbb     H9   1961 0.07988000   1.008000   ; qtot 75.277342
 1962         hx     75    bbb    H10   1962 0.07988000   1.008000   ; qtot 75.357222
 1963         h1     75    bbb    H11   1963 0.10618100   1.008000   ; qtot 75.463403
 1964         h1     75    bbb    H12   1964 0.10618100   1.008000   ; qtot 75.569584
 1965         hn     75    bbb    H13   1965 0.25916100   1.008000   ; qtot 75.828745
 1966         hn     75    bbb    H25   1966 0.17125500   1.008000   ; qtot 76.000000
; residue   76 bbb rtp bbb q 1.0
 1967         n4     76    bbb     N1   1967 -0.02747900  14.010000   ; qtot 75.972521
 1968         c3     76    bbb     C1   1968 -0.05097600  12.010000   ; qtot 75.921545
 1969         c3     76    bbb     C2   1969 -0.05097600  12.010000   ; qtot 75.870569
 1970         c3     76    bbb     C3   1970 -0.18457900  12.010000   ; qtot 75.685990
 1971          c     76    bbb     C4   1971 0.67254400  12.010000   ; qtot 76.358534
 1972         c3     76    bbb     C5   1972 -0.18457900  12.010000   ; qtot 76.173955
 1973          c     76    bbb     C6   1973 0.67254400  12.010000   ; qtot 76.846499
 1974         c3     76    bbb     C7   1974 -0.02083000  12.010000   ; qtot 76.825669
 1975         c3     76    bbb     C8   1975 -0.03328100  12.010000   ; qtot 76.792388
 1976          n     76    bbb     N2   1976 -0.33303000  14.010000   ; qtot 76.459358
 1977          o     76    bbb     O1   1977 -0.52917200  16.000000   ; qtot 75.930186
 1978          o     76    bbb     O2   1978 -0.52917200  16.000000   ; qtot 75.401014
 1979         hx     76    bbb     H1   1979 0.11563300   1.008000   ; qtot 75.516647
 1980         hx     76    bbb     H2   1980 0.11563300   1.008000   ; qtot 75.632280
 1981         hx     76    bbb     H3   1981 0.11563300   1.008000   ; qtot 75.747913
 1982         hx     76    bbb     H4   1982 0.11563300   1.008000   ; qtot 75.863546
 1983         hc     76    bbb     H5   1983 0.08347900   1.008000   ; qtot 75.947025
 1984         hc     76    bbb     H6   1984 0.08347900   1.008000   ; qtot 76.030504
 1985         hc     76    bbb     H7   1985 0.08347900   1.008000   ; qtot 76.113983
 1986         hc     76    bbb     H8   1986 0.08347900   1.008000   ; qtot 76.197462
 1987         hx     76    bbb     H9   1987 0.07988000   1.008000   ; qtot 76.277342
 1988         hx     76    bbb    H10   1988 0.07988000   1.008000   ; qtot 76.357222
 1989         h1     76    bbb    H11   1989 0.10618100   1.008000   ; qtot 76.463403
 1990         h1     76    bbb    H12   1990 0.10618100   1.008000   ; qtot 76.569584
 1991         hn     76    bbb    H13   1991 0.25916100   1.008000   ; qtot 76.828745
 1992         hn     76    bbb    H25   1992 0.17125500   1.008000   ; qtot 77.000000
; residue   77 bbb rtp bbb q 1.0
 1993         n4     77    bbb     N1   1993 -0.02747900  14.010000   ; qtot 76.972521
 1994         c3     77    bbb     C1   1994 -0.05097600  12.010000   ; qtot 76.921545
 1995         c3     77    bbb     C2   1995 -0.05097600  12.010000   ; qtot 76.870569
 1996         c3     77    bbb     C3   1996 -0.18457900  12.010000   ; qtot 76.685990
 1997          c     77    bbb     C4   1997 0.67254400  12.010000   ; qtot 77.358534
 1998         c3     77    bbb     C5   1998 -0.18457900  12.010000   ; qtot 77.173955
 1999          c     77    bbb     C6   1999 0.67254400  12.010000   ; qtot 77.846499
 2000         c3     77    bbb     C7   2000 -0.02083000  12.010000   ; qtot 77.825669
 2001         c3     77    bbb     C8   2001 -0.03328100  12.010000   ; qtot 77.792388
 2002          n     77    bbb     N2   2002 -0.33303000  14.010000   ; qtot 77.459358
 2003          o     77    bbb     O1   2003 -0.52917200  16.000000   ; qtot 76.930186
 2004          o     77    bbb     O2   2004 -0.52917200  16.000000   ; qtot 76.401014
 2005         hx     77    bbb     H1   2005 0.11563300   1.008000   ; qtot 76.516647
 2006         hx     77    bbb     H2   2006 0.11563300   1.008000   ; qtot 76.632280
 2007         hx     77    bbb     H3   2007 0.11563300   1.008000   ; qtot 76.747913
 2008         hx     77    bbb     H4   2008 0.11563300   1.008000   ; qtot 76.863546
 2009         hc     77    bbb     H5   2009 0.08347900   1.008000   ; qtot 76.947025
 2010         hc     77    bbb     H6   2010 0.08347900   1.008000   ; qtot 77.030504
 2011         hc     77    bbb     H7   2011 0.08347900   1.008000   ; qtot 77.113983
 2012         hc     77    bbb     H8   2012 0.08347900   1.008000   ; qtot 77.197462
 2013         hx     77    bbb     H9   2013 0.07988000   1.008000   ; qtot 77.277342
 2014         hx     77    bbb    H10   2014 0.07988000   1.008000   ; qtot 77.357222
 2015         h1     77    bbb    H11   2015 0.10618100   1.008000   ; qtot 77.463403
 2016         h1     77    bbb    H12   2016 0.10618100   1.008000   ; qtot 77.569584
 2017         hn     77    bbb    H13   2017 0.25916100   1.008000   ; qtot 77.828745
 2018         hn     77    bbb    H25   2018 0.17125500   1.008000   ; qtot 78.000000
; residue   78 bbb rtp bbb q 1.0
 2019         n4     78    bbb     N1   2019 -0.02747900  14.010000   ; qtot 77.972521
 2020         c3     78    bbb     C1   2020 -0.05097600  12.010000   ; qtot 77.921545
 2021         c3     78    bbb     C2   2021 -0.05097600  12.010000   ; qtot 77.870569
 2022         c3     78    bbb     C3   2022 -0.18457900  12.010000   ; qtot 77.685990
 2023          c     78    bbb     C4   2023 0.67254400  12.010000   ; qtot 78.358534
 2024         c3     78    bbb     C5   2024 -0.18457900  12.010000   ; qtot 78.173955
 2025          c     78    bbb     C6   2025 0.67254400  12.010000   ; qtot 78.846499
 2026         c3     78    bbb     C7   2026 -0.02083000  12.010000   ; qtot 78.825669
 2027         c3     78    bbb     C8   2027 -0.03328100  12.010000   ; qtot 78.792388
 2028          n     78    bbb     N2   2028 -0.33303000  14.010000   ; qtot 78.459358
 2029          o     78    bbb     O1   2029 -0.52917200  16.000000   ; qtot 77.930186
 2030          o     78    bbb     O2   2030 -0.52917200  16.000000   ; qtot 77.401014
 2031         hx     78    bbb     H1   2031 0.11563300   1.008000   ; qtot 77.516647
 2032         hx     78    bbb     H2   2032 0.11563300   1.008000   ; qtot 77.632280
 2033         hx     78    bbb     H3   2033 0.11563300   1.008000   ; qtot 77.747913
 2034         hx     78    bbb     H4   2034 0.11563300   1.008000   ; qtot 77.863546
 2035         hc     78    bbb     H5   2035 0.08347900   1.008000   ; qtot 77.947025
 2036         hc     78    bbb     H6   2036 0.08347900   1.008000   ; qtot 78.030504
 2037         hc     78    bbb     H7   2037 0.08347900   1.008000   ; qtot 78.113983
 2038         hc     78    bbb     H8   2038 0.08347900   1.008000   ; qtot 78.197462
 2039         hx     78    bbb     H9   2039 0.07988000   1.008000   ; qtot 78.277342
 2040         hx     78    bbb    H10   2040 0.07988000   1.008000   ; qtot 78.357222
 2041         h1     78    bbb    H11   2041 0.10618100   1.008000   ; qtot 78.463403
 2042         h1     78    bbb    H12   2042 0.10618100   1.008000   ; qtot 78.569584
 2043         hn     78    bbb    H13   2043 0.25916100   1.008000   ; qtot 78.828745
 2044         hn     78    bbb    H25   2044 0.17125500   1.008000   ; qtot 79.000000
; residue   79 bbb rtp bbb q 1.0
 2045         n4     79    bbb     N1   2045 -0.02747900  14.010000   ; qtot 78.972521
 2046         c3     79    bbb     C1   2046 -0.05097600  12.010000   ; qtot 78.921545
 2047         c3     79    bbb     C2   2047 -0.05097600  12.010000   ; qtot 78.870569
 2048         c3     79    bbb     C3   2048 -0.18457900  12.010000   ; qtot 78.685990
 2049          c     79    bbb     C4   2049 0.67254400  12.010000   ; qtot 79.358534
 2050         c3     79    bbb     C5   2050 -0.18457900  12.010000   ; qtot 79.173955
 2051          c     79    bbb     C6   2051 0.67254400  12.010000   ; qtot 79.846499
 2052         c3     79    bbb     C7   2052 -0.02083000  12.010000   ; qtot 79.825669
 2053         c3     79    bbb     C8   2053 -0.03328100  12.010000   ; qtot 79.792388
 2054          n     79    bbb     N2   2054 -0.33303000  14.010000   ; qtot 79.459358
 2055          o     79    bbb     O1   2055 -0.52917200  16.000000   ; qtot 78.930186
 2056          o     79    bbb     O2   2056 -0.52917200  16.000000   ; qtot 78.401014
 2057         hx     79    bbb     H1   2057 0.11563300   1.008000   ; qtot 78.516647
 2058         hx     79    bbb     H2   2058 0.11563300   1.008000   ; qtot 78.632280
 2059         hx     79    bbb     H3   2059 0.11563300   1.008000   ; qtot 78.747913
 2060         hx     79    bbb     H4   2060 0.11563300   1.008000   ; qtot 78.863546
 2061         hc     79    bbb     H5   2061 0.08347900   1.008000   ; qtot 78.947025
 2062         hc     79    bbb     H6   2062 0.08347900   1.008000   ; qtot 79.030504
 2063         hc     79    bbb     H7   2063 0.08347900   1.008000   ; qtot 79.113983
 2064         hc     79    bbb     H8   2064 0.08347900   1.008000   ; qtot 79.197462
 2065         hx     79    bbb     H9   2065 0.07988000   1.008000   ; qtot 79.277342
 2066         hx     79    bbb    H10   2066 0.07988000   1.008000   ; qtot 79.357222
 2067         h1     79    bbb    H11   2067 0.10618100   1.008000   ; qtot 79.463403
 2068         h1     79    bbb    H12   2068 0.10618100   1.008000   ; qtot 79.569584
 2069         hn     79    bbb    H13   2069 0.25916100   1.008000   ; qtot 79.828745
 2070         hn     79    bbb    H25   2070 0.17125500   1.008000   ; qtot 80.000000
; residue   80 bbb rtp bbb q 1.0
 2071         n4     80    bbb     N1   2071 -0.02747900  14.010000   ; qtot 79.972521
 2072         c3     80    bbb     C1   2072 -0.05097600  12.010000   ; qtot 79.921545
 2073         c3     80    bbb     C2   2073 -0.05097600  12.010000   ; qtot 79.870569
 2074         c3     80    bbb     C3   2074 -0.18457900  12.010000   ; qtot 79.685990
 2075          c     80    bbb     C4   2075 0.67254400  12.010000   ; qtot 80.358534
 2076         c3     80    bbb     C5   2076 -0.18457900  12.010000   ; qtot 80.173955
 2077          c     80    bbb     C6   2077 0.67254400  12.010000   ; qtot 80.846499
 2078         c3     80    bbb     C7   2078 -0.02083000  12.010000   ; qtot 80.825669
 2079         c3     80    bbb     C8   2079 -0.03328100  12.010000   ; qtot 80.792388
 2080          n     80    bbb     N2   2080 -0.33303000  14.010000   ; qtot 80.459358
 2081          o     80    bbb     O1   2081 -0.52917200  16.000000   ; qtot 79.930186
 2082          o     80    bbb     O2   2082 -0.52917200  16.000000   ; qtot 79.401014
 2083         hx     80    bbb     H1   2083 0.11563300   1.008000   ; qtot 79.516647
 2084         hx     80    bbb     H2   2084 0.11563300   1.008000   ; qtot 79.632280
 2085         hx     80    bbb     H3   2085 0.11563300   1.008000   ; qtot 79.747913
 2086         hx     80    bbb     H4   2086 0.11563300   1.008000   ; qtot 79.863546
 2087         hc     80    bbb     H5   2087 0.08347900   1.008000   ; qtot 79.947025
 2088         hc     80    bbb     H6   2088 0.08347900   1.008000   ; qtot 80.030504
 2089         hc     80    bbb     H7   2089 0.08347900   1.008000   ; qtot 80.113983
 2090         hc     80    bbb     H8   2090 0.08347900   1.008000   ; qtot 80.197462
 2091         hx     80    bbb     H9   2091 0.07988000   1.008000   ; qtot 80.277342
 2092         hx     80    bbb    H10   2092 0.07988000   1.008000   ; qtot 80.357222
 2093         h1     80    bbb    H11   2093 0.10618100   1.008000   ; qtot 80.463403
 2094         h1     80    bbb    H12   2094 0.10618100   1.008000   ; qtot 80.569584
 2095         hn     80    bbb    H13   2095 0.25916100   1.008000   ; qtot 80.828745
 2096         hn     80    bbb    H25   2096 0.17125500   1.008000   ; qtot 81.000000
; residue   81 bbb rtp bbb q 1.0
 2097         n4     81    bbb     N1   2097 -0.02747900  14.010000   ; qtot 80.972521
 2098         c3     81    bbb     C1   2098 -0.05097600  12.010000   ; qtot 80.921545
 2099         c3     81    bbb     C2   2099 -0.05097600  12.010000   ; qtot 80.870569
 2100         c3     81    bbb     C3   2100 -0.18457900  12.010000   ; qtot 80.685990
 2101          c     81    bbb     C4   2101 0.67254400  12.010000   ; qtot 81.358534
 2102         c3     81    bbb     C5   2102 -0.18457900  12.010000   ; qtot 81.173955
 2103          c     81    bbb     C6   2103 0.67254400  12.010000   ; qtot 81.846499
 2104         c3     81    bbb     C7   2104 -0.02083000  12.010000   ; qtot 81.825669
 2105         c3     81    bbb     C8   2105 -0.03328100  12.010000   ; qtot 81.792388
 2106          n     81    bbb     N2   2106 -0.33303000  14.010000   ; qtot 81.459358
 2107          o     81    bbb     O1   2107 -0.52917200  16.000000   ; qtot 80.930186
 2108          o     81    bbb     O2   2108 -0.52917200  16.000000   ; qtot 80.401014
 2109         hx     81    bbb     H1   2109 0.11563300   1.008000   ; qtot 80.516647
 2110         hx     81    bbb     H2   2110 0.11563300   1.008000   ; qtot 80.632280
 2111         hx     81    bbb     H3   2111 0.11563300   1.008000   ; qtot 80.747913
 2112         hx     81    bbb     H4   2112 0.11563300   1.008000   ; qtot 80.863546
 2113         hc     81    bbb     H5   2113 0.08347900   1.008000   ; qtot 80.947025
 2114         hc     81    bbb     H6   2114 0.08347900   1.008000   ; qtot 81.030504
 2115         hc     81    bbb     H7   2115 0.08347900   1.008000   ; qtot 81.113983
 2116         hc     81    bbb     H8   2116 0.08347900   1.008000   ; qtot 81.197462
 2117         hx     81    bbb     H9   2117 0.07988000   1.008000   ; qtot 81.277342
 2118         hx     81    bbb    H10   2118 0.07988000   1.008000   ; qtot 81.357222
 2119         h1     81    bbb    H11   2119 0.10618100   1.008000   ; qtot 81.463403
 2120         h1     81    bbb    H12   2120 0.10618100   1.008000   ; qtot 81.569584
 2121         hn     81    bbb    H13   2121 0.25916100   1.008000   ; qtot 81.828745
 2122         hn     81    bbb    H25   2122 0.17125500   1.008000   ; qtot 82.000000
; residue   82 bbb rtp bbb q 1.0
 2123         n4     82    bbb     N1   2123 -0.02747900  14.010000   ; qtot 81.972521
 2124         c3     82    bbb     C1   2124 -0.05097600  12.010000   ; qtot 81.921545
 2125         c3     82    bbb     C2   2125 -0.05097600  12.010000   ; qtot 81.870569
 2126         c3     82    bbb     C3   2126 -0.18457900  12.010000   ; qtot 81.685990
 2127          c     82    bbb     C4   2127 0.67254400  12.010000   ; qtot 82.358534
 2128         c3     82    bbb     C5   2128 -0.18457900  12.010000   ; qtot 82.173955
 2129          c     82    bbb     C6   2129 0.67254400  12.010000   ; qtot 82.846499
 2130         c3     82    bbb     C7   2130 -0.02083000  12.010000   ; qtot 82.825669
 2131         c3     82    bbb     C8   2131 -0.03328100  12.010000   ; qtot 82.792388
 2132          n     82    bbb     N2   2132 -0.33303000  14.010000   ; qtot 82.459358
 2133          o     82    bbb     O1   2133 -0.52917200  16.000000   ; qtot 81.930186
 2134          o     82    bbb     O2   2134 -0.52917200  16.000000   ; qtot 81.401014
 2135         hx     82    bbb     H1   2135 0.11563300   1.008000   ; qtot 81.516647
 2136         hx     82    bbb     H2   2136 0.11563300   1.008000   ; qtot 81.632280
 2137         hx     82    bbb     H3   2137 0.11563300   1.008000   ; qtot 81.747913
 2138         hx     82    bbb     H4   2138 0.11563300   1.008000   ; qtot 81.863546
 2139         hc     82    bbb     H5   2139 0.08347900   1.008000   ; qtot 81.947025
 2140         hc     82    bbb     H6   2140 0.08347900   1.008000   ; qtot 82.030504
 2141         hc     82    bbb     H7   2141 0.08347900   1.008000   ; qtot 82.113983
 2142         hc     82    bbb     H8   2142 0.08347900   1.008000   ; qtot 82.197462
 2143         hx     82    bbb     H9   2143 0.07988000   1.008000   ; qtot 82.277342
 2144         hx     82    bbb    H10   2144 0.07988000   1.008000   ; qtot 82.357222
 2145         h1     82    bbb    H11   2145 0.10618100   1.008000   ; qtot 82.463403
 2146         h1     82    bbb    H12   2146 0.10618100   1.008000   ; qtot 82.569584
 2147         hn     82    bbb    H13   2147 0.25916100   1.008000   ; qtot 82.828745
 2148         hn     82    bbb    H25   2148 0.17125500   1.008000   ; qtot 83.000000
; residue   83 bbb rtp bbb q 1.0
 2149         n4     83    bbb     N1   2149 -0.02747900  14.010000   ; qtot 82.972521
 2150         c3     83    bbb     C1   2150 -0.05097600  12.010000   ; qtot 82.921545
 2151         c3     83    bbb     C2   2151 -0.05097600  12.010000   ; qtot 82.870569
 2152         c3     83    bbb     C3   2152 -0.18457900  12.010000   ; qtot 82.685990
 2153          c     83    bbb     C4   2153 0.67254400  12.010000   ; qtot 83.358534
 2154         c3     83    bbb     C5   2154 -0.18457900  12.010000   ; qtot 83.173955
 2155          c     83    bbb     C6   2155 0.67254400  12.010000   ; qtot 83.846499
 2156         c3     83    bbb     C7   2156 -0.02083000  12.010000   ; qtot 83.825669
 2157         c3     83    bbb     C8   2157 -0.03328100  12.010000   ; qtot 83.792388
 2158          n     83    bbb     N2   2158 -0.33303000  14.010000   ; qtot 83.459358
 2159          o     83    bbb     O1   2159 -0.52917200  16.000000   ; qtot 82.930186
 2160          o     83    bbb     O2   2160 -0.52917200  16.000000   ; qtot 82.401014
 2161         hx     83    bbb     H1   2161 0.11563300   1.008000   ; qtot 82.516647
 2162         hx     83    bbb     H2   2162 0.11563300   1.008000   ; qtot 82.632280
 2163         hx     83    bbb     H3   2163 0.11563300   1.008000   ; qtot 82.747913
 2164         hx     83    bbb     H4   2164 0.11563300   1.008000   ; qtot 82.863546
 2165         hc     83    bbb     H5   2165 0.08347900   1.008000   ; qtot 82.947025
 2166         hc     83    bbb     H6   2166 0.08347900   1.008000   ; qtot 83.030504
 2167         hc     83    bbb     H7   2167 0.08347900   1.008000   ; qtot 83.113983
 2168         hc     83    bbb     H8   2168 0.08347900   1.008000   ; qtot 83.197462
 2169         hx     83    bbb     H9   2169 0.07988000   1.008000   ; qtot 83.277342
 2170         hx     83    bbb    H10   2170 0.07988000   1.008000   ; qtot 83.357222
 2171         h1     83    bbb    H11   2171 0.10618100   1.008000   ; qtot 83.463403
 2172         h1     83    bbb    H12   2172 0.10618100   1.008000   ; qtot 83.569584
 2173         hn     83    bbb    H13   2173 0.25916100   1.008000   ; qtot 83.828745
 2174         hn     83    bbb    H25   2174 0.17125500   1.008000   ; qtot 84.000000
; residue   84 bbb rtp bbb q 1.0
 2175         n4     84    bbb     N1   2175 -0.02747900  14.010000   ; qtot 83.972521
 2176         c3     84    bbb     C1   2176 -0.05097600  12.010000   ; qtot 83.921545
 2177         c3     84    bbb     C2   2177 -0.05097600  12.010000   ; qtot 83.870569
 2178         c3     84    bbb     C3   2178 -0.18457900  12.010000   ; qtot 83.685990
 2179          c     84    bbb     C4   2179 0.67254400  12.010000   ; qtot 84.358534
 2180         c3     84    bbb     C5   2180 -0.18457900  12.010000   ; qtot 84.173955
 2181          c     84    bbb     C6   2181 0.67254400  12.010000   ; qtot 84.846499
 2182         c3     84    bbb     C7   2182 -0.02083000  12.010000   ; qtot 84.825669
 2183         c3     84    bbb     C8   2183 -0.03328100  12.010000   ; qtot 84.792388
 2184          n     84    bbb     N2   2184 -0.33303000  14.010000   ; qtot 84.459358
 2185          o     84    bbb     O1   2185 -0.52917200  16.000000   ; qtot 83.930186
 2186          o     84    bbb     O2   2186 -0.52917200  16.000000   ; qtot 83.401014
 2187         hx     84    bbb     H1   2187 0.11563300   1.008000   ; qtot 83.516647
 2188         hx     84    bbb     H2   2188 0.11563300   1.008000   ; qtot 83.632280
 2189         hx     84    bbb     H3   2189 0.11563300   1.008000   ; qtot 83.747913
 2190         hx     84    bbb     H4   2190 0.11563300   1.008000   ; qtot 83.863546
 2191         hc     84    bbb     H5   2191 0.08347900   1.008000   ; qtot 83.947025
 2192         hc     84    bbb     H6   2192 0.08347900   1.008000   ; qtot 84.030504
 2193         hc     84    bbb     H7   2193 0.08347900   1.008000   ; qtot 84.113983
 2194         hc     84    bbb     H8   2194 0.08347900   1.008000   ; qtot 84.197462
 2195         hx     84    bbb     H9   2195 0.07988000   1.008000   ; qtot 84.277342
 2196         hx     84    bbb    H10   2196 0.07988000   1.008000   ; qtot 84.357222
 2197         h1     84    bbb    H11   2197 0.10618100   1.008000   ; qtot 84.463403
 2198         h1     84    bbb    H12   2198 0.10618100   1.008000   ; qtot 84.569584
 2199         hn     84    bbb    H13   2199 0.25916100   1.008000   ; qtot 84.828745
 2200         hn     84    bbb    H25   2200 0.17125500   1.008000   ; qtot 85.000000
; residue   85 bbb rtp bbb q 1.0
 2201         n4     85    bbb     N1   2201 -0.02747900  14.010000   ; qtot 84.972521
 2202         c3     85    bbb     C1   2202 -0.05097600  12.010000   ; qtot 84.921545
 2203         c3     85    bbb     C2   2203 -0.05097600  12.010000   ; qtot 84.870569
 2204         c3     85    bbb     C3   2204 -0.18457900  12.010000   ; qtot 84.685990
 2205          c     85    bbb     C4   2205 0.67254400  12.010000   ; qtot 85.358534
 2206         c3     85    bbb     C5   2206 -0.18457900  12.010000   ; qtot 85.173955
 2207          c     85    bbb     C6   2207 0.67254400  12.010000   ; qtot 85.846499
 2208         c3     85    bbb     C7   2208 -0.02083000  12.010000   ; qtot 85.825669
 2209         c3     85    bbb     C8   2209 -0.03328100  12.010000   ; qtot 85.792388
 2210          n     85    bbb     N2   2210 -0.33303000  14.010000   ; qtot 85.459358
 2211          o     85    bbb     O1   2211 -0.52917200  16.000000   ; qtot 84.930186
 2212          o     85    bbb     O2   2212 -0.52917200  16.000000   ; qtot 84.401014
 2213         hx     85    bbb     H1   2213 0.11563300   1.008000   ; qtot 84.516647
 2214         hx     85    bbb     H2   2214 0.11563300   1.008000   ; qtot 84.632280
 2215         hx     85    bbb     H3   2215 0.11563300   1.008000   ; qtot 84.747913
 2216         hx     85    bbb     H4   2216 0.11563300   1.008000   ; qtot 84.863546
 2217         hc     85    bbb     H5   2217 0.08347900   1.008000   ; qtot 84.947025
 2218         hc     85    bbb     H6   2218 0.08347900   1.008000   ; qtot 85.030504
 2219         hc     85    bbb     H7   2219 0.08347900   1.008000   ; qtot 85.113983
 2220         hc     85    bbb     H8   2220 0.08347900   1.008000   ; qtot 85.197462
 2221         hx     85    bbb     H9   2221 0.07988000   1.008000   ; qtot 85.277342
 2222         hx     85    bbb    H10   2222 0.07988000   1.008000   ; qtot 85.357222
 2223         h1     85    bbb    H11   2223 0.10618100   1.008000   ; qtot 85.463403
 2224         h1     85    bbb    H12   2224 0.10618100   1.008000   ; qtot 85.569584
 2225         hn     85    bbb    H13   2225 0.25916100   1.008000   ; qtot 85.828745
 2226         hn     85    bbb    H25   2226 0.17125500   1.008000   ; qtot 86.000000
; residue   86 bbb rtp bbb q 1.0
 2227         n4     86    bbb     N1   2227 -0.02747900  14.010000   ; qtot 85.972521
 2228         c3     86    bbb     C1   2228 -0.05097600  12.010000   ; qtot 85.921545
 2229         c3     86    bbb     C2   2229 -0.05097600  12.010000   ; qtot 85.870569
 2230         c3     86    bbb     C3   2230 -0.18457900  12.010000   ; qtot 85.685990
 2231          c     86    bbb     C4   2231 0.67254400  12.010000   ; qtot 86.358534
 2232         c3     86    bbb     C5   2232 -0.18457900  12.010000   ; qtot 86.173955
 2233          c     86    bbb     C6   2233 0.67254400  12.010000   ; qtot 86.846499
 2234         c3     86    bbb     C7   2234 -0.02083000  12.010000   ; qtot 86.825669
 2235         c3     86    bbb     C8   2235 -0.03328100  12.010000   ; qtot 86.792388
 2236          n     86    bbb     N2   2236 -0.33303000  14.010000   ; qtot 86.459358
 2237          o     86    bbb     O1   2237 -0.52917200  16.000000   ; qtot 85.930186
 2238          o     86    bbb     O2   2238 -0.52917200  16.000000   ; qtot 85.401014
 2239         hx     86    bbb     H1   2239 0.11563300   1.008000   ; qtot 85.516647
 2240         hx     86    bbb     H2   2240 0.11563300   1.008000   ; qtot 85.632280
 2241         hx     86    bbb     H3   2241 0.11563300   1.008000   ; qtot 85.747913
 2242         hx     86    bbb     H4   2242 0.11563300   1.008000   ; qtot 85.863546
 2243         hc     86    bbb     H5   2243 0.08347900   1.008000   ; qtot 85.947025
 2244         hc     86    bbb     H6   2244 0.08347900   1.008000   ; qtot 86.030504
 2245         hc     86    bbb     H7   2245 0.08347900   1.008000   ; qtot 86.113983
 2246         hc     86    bbb     H8   2246 0.08347900   1.008000   ; qtot 86.197462
 2247         hx     86    bbb     H9   2247 0.07988000   1.008000   ; qtot 86.277342
 2248         hx     86    bbb    H10   2248 0.07988000   1.008000   ; qtot 86.357222
 2249         h1     86    bbb    H11   2249 0.10618100   1.008000   ; qtot 86.463403
 2250         h1     86    bbb    H12   2250 0.10618100   1.008000   ; qtot 86.569584
 2251         hn     86    bbb    H13   2251 0.25916100   1.008000   ; qtot 86.828745
 2252         hn     86    bbb    H25   2252 0.17125500   1.008000   ; qtot 87.000000
; residue   87 bbb rtp bbb q 1.0
 2253         n4     87    bbb     N1   2253 -0.02747900  14.010000   ; qtot 86.972521
 2254         c3     87    bbb     C1   2254 -0.05097600  12.010000   ; qtot 86.921545
 2255         c3     87    bbb     C2   2255 -0.05097600  12.010000   ; qtot 86.870569
 2256         c3     87    bbb     C3   2256 -0.18457900  12.010000   ; qtot 86.685990
 2257          c     87    bbb     C4   2257 0.67254400  12.010000   ; qtot 87.358534
 2258         c3     87    bbb     C5   2258 -0.18457900  12.010000   ; qtot 87.173955
 2259          c     87    bbb     C6   2259 0.67254400  12.010000   ; qtot 87.846499
 2260         c3     87    bbb     C7   2260 -0.02083000  12.010000   ; qtot 87.825669
 2261         c3     87    bbb     C8   2261 -0.03328100  12.010000   ; qtot 87.792388
 2262          n     87    bbb     N2   2262 -0.33303000  14.010000   ; qtot 87.459358
 2263          o     87    bbb     O1   2263 -0.52917200  16.000000   ; qtot 86.930186
 2264          o     87    bbb     O2   2264 -0.52917200  16.000000   ; qtot 86.401014
 2265         hx     87    bbb     H1   2265 0.11563300   1.008000   ; qtot 86.516647
 2266         hx     87    bbb     H2   2266 0.11563300   1.008000   ; qtot 86.632280
 2267         hx     87    bbb     H3   2267 0.11563300   1.008000   ; qtot 86.747913
 2268         hx     87    bbb     H4   2268 0.11563300   1.008000   ; qtot 86.863546
 2269         hc     87    bbb     H5   2269 0.08347900   1.008000   ; qtot 86.947025
 2270         hc     87    bbb     H6   2270 0.08347900   1.008000   ; qtot 87.030504
 2271         hc     87    bbb     H7   2271 0.08347900   1.008000   ; qtot 87.113983
 2272         hc     87    bbb     H8   2272 0.08347900   1.008000   ; qtot 87.197462
 2273         hx     87    bbb     H9   2273 0.07988000   1.008000   ; qtot 87.277342
 2274         hx     87    bbb    H10   2274 0.07988000   1.008000   ; qtot 87.357222
 2275         h1     87    bbb    H11   2275 0.10618100   1.008000   ; qtot 87.463403
 2276         h1     87    bbb    H12   2276 0.10618100   1.008000   ; qtot 87.569584
 2277         hn     87    bbb    H13   2277 0.25916100   1.008000   ; qtot 87.828745
 2278         hn     87    bbb    H25   2278 0.17125500   1.008000   ; qtot 88.000000
; residue   88 bbb rtp bbb q 1.0
 2279         n4     88    bbb     N1   2279 -0.02747900  14.010000   ; qtot 87.972521
 2280         c3     88    bbb     C1   2280 -0.05097600  12.010000   ; qtot 87.921545
 2281         c3     88    bbb     C2   2281 -0.05097600  12.010000   ; qtot 87.870569
 2282         c3     88    bbb     C3   2282 -0.18457900  12.010000   ; qtot 87.685990
 2283          c     88    bbb     C4   2283 0.67254400  12.010000   ; qtot 88.358534
 2284         c3     88    bbb     C5   2284 -0.18457900  12.010000   ; qtot 88.173955
 2285          c     88    bbb     C6   2285 0.67254400  12.010000   ; qtot 88.846499
 2286         c3     88    bbb     C7   2286 -0.02083000  12.010000   ; qtot 88.825669
 2287         c3     88    bbb     C8   2287 -0.03328100  12.010000   ; qtot 88.792388
 2288          n     88    bbb     N2   2288 -0.33303000  14.010000   ; qtot 88.459358
 2289          o     88    bbb     O1   2289 -0.52917200  16.000000   ; qtot 87.930186
 2290          o     88    bbb     O2   2290 -0.52917200  16.000000   ; qtot 87.401014
 2291         hx     88    bbb     H1   2291 0.11563300   1.008000   ; qtot 87.516647
 2292         hx     88    bbb     H2   2292 0.11563300   1.008000   ; qtot 87.632280
 2293         hx     88    bbb     H3   2293 0.11563300   1.008000   ; qtot 87.747913
 2294         hx     88    bbb     H4   2294 0.11563300   1.008000   ; qtot 87.863546
 2295         hc     88    bbb     H5   2295 0.08347900   1.008000   ; qtot 87.947025
 2296         hc     88    bbb     H6   2296 0.08347900   1.008000   ; qtot 88.030504
 2297         hc     88    bbb     H7   2297 0.08347900   1.008000   ; qtot 88.113983
 2298         hc     88    bbb     H8   2298 0.08347900   1.008000   ; qtot 88.197462
 2299         hx     88    bbb     H9   2299 0.07988000   1.008000   ; qtot 88.277342
 2300         hx     88    bbb    H10   2300 0.07988000   1.008000   ; qtot 88.357222
 2301         h1     88    bbb    H11   2301 0.10618100   1.008000   ; qtot 88.463403
 2302         h1     88    bbb    H12   2302 0.10618100   1.008000   ; qtot 88.569584
 2303         hn     88    bbb    H13   2303 0.25916100   1.008000   ; qtot 88.828745
 2304         hn     88    bbb    H25   2304 0.17125500   1.008000   ; qtot 89.000000
; residue   89 bbb rtp bbb q 1.0
 2305         n4     89    bbb     N1   2305 -0.02747900  14.010000   ; qtot 88.972521
 2306         c3     89    bbb     C1   2306 -0.05097600  12.010000   ; qtot 88.921545
 2307         c3     89    bbb     C2   2307 -0.05097600  12.010000   ; qtot 88.870569
 2308         c3     89    bbb     C3   2308 -0.18457900  12.010000   ; qtot 88.685990
 2309          c     89    bbb     C4   2309 0.67254400  12.010000   ; qtot 89.358534
 2310         c3     89    bbb     C5   2310 -0.18457900  12.010000   ; qtot 89.173955
 2311          c     89    bbb     C6   2311 0.67254400  12.010000   ; qtot 89.846499
 2312         c3     89    bbb     C7   2312 -0.02083000  12.010000   ; qtot 89.825669
 2313         c3     89    bbb     C8   2313 -0.03328100  12.010000   ; qtot 89.792388
 2314          n     89    bbb     N2   2314 -0.33303000  14.010000   ; qtot 89.459358
 2315          o     89    bbb     O1   2315 -0.52917200  16.000000   ; qtot 88.930186
 2316          o     89    bbb     O2   2316 -0.52917200  16.000000   ; qtot 88.401014
 2317         hx     89    bbb     H1   2317 0.11563300   1.008000   ; qtot 88.516647
 2318         hx     89    bbb     H2   2318 0.11563300   1.008000   ; qtot 88.632280
 2319         hx     89    bbb     H3   2319 0.11563300   1.008000   ; qtot 88.747913
 2320         hx     89    bbb     H4   2320 0.11563300   1.008000   ; qtot 88.863546
 2321         hc     89    bbb     H5   2321 0.08347900   1.008000   ; qtot 88.947025
 2322         hc     89    bbb     H6   2322 0.08347900   1.008000   ; qtot 89.030504
 2323         hc     89    bbb     H7   2323 0.08347900   1.008000   ; qtot 89.113983
 2324         hc     89    bbb     H8   2324 0.08347900   1.008000   ; qtot 89.197462
 2325         hx     89    bbb     H9   2325 0.07988000   1.008000   ; qtot 89.277342
 2326         hx     89    bbb    H10   2326 0.07988000   1.008000   ; qtot 89.357222
 2327         h1     89    bbb    H11   2327 0.10618100   1.008000   ; qtot 89.463403
 2328         h1     89    bbb    H12   2328 0.10618100   1.008000   ; qtot 89.569584
 2329         hn     89    bbb    H13   2329 0.25916100   1.008000   ; qtot 89.828745
 2330         hn     89    bbb    H25   2330 0.17125500   1.008000   ; qtot 90.000000
; residue   90 bbb rtp bbb q 1.0
 2331         n4     90    bbb     N1   2331 -0.02747900  14.010000   ; qtot 89.972521
 2332         c3     90    bbb     C1   2332 -0.05097600  12.010000   ; qtot 89.921545
 2333         c3     90    bbb     C2   2333 -0.05097600  12.010000   ; qtot 89.870569
 2334         c3     90    bbb     C3   2334 -0.18457900  12.010000   ; qtot 89.685990
 2335          c     90    bbb     C4   2335 0.67254400  12.010000   ; qtot 90.358534
 2336         c3     90    bbb     C5   2336 -0.18457900  12.010000   ; qtot 90.173955
 2337          c     90    bbb     C6   2337 0.67254400  12.010000   ; qtot 90.846499
 2338         c3     90    bbb     C7   2338 -0.02083000  12.010000   ; qtot 90.825669
 2339         c3     90    bbb     C8   2339 -0.03328100  12.010000   ; qtot 90.792388
 2340          n     90    bbb     N2   2340 -0.33303000  14.010000   ; qtot 90.459358
 2341          o     90    bbb     O1   2341 -0.52917200  16.000000   ; qtot 89.930186
 2342          o     90    bbb     O2   2342 -0.52917200  16.000000   ; qtot 89.401014
 2343         hx     90    bbb     H1   2343 0.11563300   1.008000   ; qtot 89.516647
 2344         hx     90    bbb     H2   2344 0.11563300   1.008000   ; qtot 89.632280
 2345         hx     90    bbb     H3   2345 0.11563300   1.008000   ; qtot 89.747913
 2346         hx     90    bbb     H4   2346 0.11563300   1.008000   ; qtot 89.863546
 2347         hc     90    bbb     H5   2347 0.08347900   1.008000   ; qtot 89.947025
 2348         hc     90    bbb     H6   2348 0.08347900   1.008000   ; qtot 90.030504
 2349         hc     90    bbb     H7   2349 0.08347900   1.008000   ; qtot 90.113983
 2350         hc     90    bbb     H8   2350 0.08347900   1.008000   ; qtot 90.197462
 2351         hx     90    bbb     H9   2351 0.07988000   1.008000   ; qtot 90.277342
 2352         hx     90    bbb    H10   2352 0.07988000   1.008000   ; qtot 90.357222
 2353         h1     90    bbb    H11   2353 0.10618100   1.008000   ; qtot 90.463403
 2354         h1     90    bbb    H12   2354 0.10618100   1.008000   ; qtot 90.569584
 2355         hn     90    bbb    H13   2355 0.25916100   1.008000   ; qtot 90.828745
 2356         hn     90    bbb    H25   2356 0.17125500   1.008000   ; qtot 91.000000
; residue   91 bbb rtp bbb q 1.0
 2357         n4     91    bbb     N1   2357 -0.02747900  14.010000   ; qtot 90.972521
 2358         c3     91    bbb     C1   2358 -0.05097600  12.010000   ; qtot 90.921545
 2359         c3     91    bbb     C2   2359 -0.05097600  12.010000   ; qtot 90.870569
 2360         c3     91    bbb     C3   2360 -0.18457900  12.010000   ; qtot 90.685990
 2361          c     91    bbb     C4   2361 0.67254400  12.010000   ; qtot 91.358534
 2362         c3     91    bbb     C5   2362 -0.18457900  12.010000   ; qtot 91.173955
 2363          c     91    bbb     C6   2363 0.67254400  12.010000   ; qtot 91.846499
 2364         c3     91    bbb     C7   2364 -0.02083000  12.010000   ; qtot 91.825669
 2365         c3     91    bbb     C8   2365 -0.03328100  12.010000   ; qtot 91.792388
 2366          n     91    bbb     N2   2366 -0.33303000  14.010000   ; qtot 91.459358
 2367          o     91    bbb     O1   2367 -0.52917200  16.000000   ; qtot 90.930186
 2368          o     91    bbb     O2   2368 -0.52917200  16.000000   ; qtot 90.401014
 2369         hx     91    bbb     H1   2369 0.11563300   1.008000   ; qtot 90.516647
 2370         hx     91    bbb     H2   2370 0.11563300   1.008000   ; qtot 90.632280
 2371         hx     91    bbb     H3   2371 0.11563300   1.008000   ; qtot 90.747913
 2372         hx     91    bbb     H4   2372 0.11563300   1.008000   ; qtot 90.863546
 2373         hc     91    bbb     H5   2373 0.08347900   1.008000   ; qtot 90.947025
 2374         hc     91    bbb     H6   2374 0.08347900   1.008000   ; qtot 91.030504
 2375         hc     91    bbb     H7   2375 0.08347900   1.008000   ; qtot 91.113983
 2376         hc     91    bbb     H8   2376 0.08347900   1.008000   ; qtot 91.197462
 2377         hx     91    bbb     H9   2377 0.07988000   1.008000   ; qtot 91.277342
 2378         hx     91    bbb    H10   2378 0.07988000   1.008000   ; qtot 91.357222
 2379         h1     91    bbb    H11   2379 0.10618100   1.008000   ; qtot 91.463403
 2380         h1     91    bbb    H12   2380 0.10618100   1.008000   ; qtot 91.569584
 2381         hn     91    bbb    H13   2381 0.25916100   1.008000   ; qtot 91.828745
 2382         hn     91    bbb    H25   2382 0.17125500   1.008000   ; qtot 92.000000
; residue   92 bbb rtp bbb q 1.0
 2383         n4     92    bbb     N1   2383 -0.02747900  14.010000   ; qtot 91.972521
 2384         c3     92    bbb     C1   2384 -0.05097600  12.010000   ; qtot 91.921545
 2385         c3     92    bbb     C2   2385 -0.05097600  12.010000   ; qtot 91.870569
 2386         c3     92    bbb     C3   2386 -0.18457900  12.010000   ; qtot 91.685990
 2387          c     92    bbb     C4   2387 0.67254400  12.010000   ; qtot 92.358534
 2388         c3     92    bbb     C5   2388 -0.18457900  12.010000   ; qtot 92.173955
 2389          c     92    bbb     C6   2389 0.67254400  12.010000   ; qtot 92.846499
 2390         c3     92    bbb     C7   2390 -0.02083000  12.010000   ; qtot 92.825669
 2391         c3     92    bbb     C8   2391 -0.03328100  12.010000   ; qtot 92.792388
 2392          n     92    bbb     N2   2392 -0.33303000  14.010000   ; qtot 92.459358
 2393          o     92    bbb     O1   2393 -0.52917200  16.000000   ; qtot 91.930186
 2394          o     92    bbb     O2   2394 -0.52917200  16.000000   ; qtot 91.401014
 2395         hx     92    bbb     H1   2395 0.11563300   1.008000   ; qtot 91.516647
 2396         hx     92    bbb     H2   2396 0.11563300   1.008000   ; qtot 91.632280
 2397         hx     92    bbb     H3   2397 0.11563300   1.008000   ; qtot 91.747913
 2398         hx     92    bbb     H4   2398 0.11563300   1.008000   ; qtot 91.863546
 2399         hc     92    bbb     H5   2399 0.08347900   1.008000   ; qtot 91.947025
 2400         hc     92    bbb     H6   2400 0.08347900   1.008000   ; qtot 92.030504
 2401         hc     92    bbb     H7   2401 0.08347900   1.008000   ; qtot 92.113983
 2402         hc     92    bbb     H8   2402 0.08347900   1.008000   ; qtot 92.197462
 2403         hx     92    bbb     H9   2403 0.07988000   1.008000   ; qtot 92.277342
 2404         hx     92    bbb    H10   2404 0.07988000   1.008000   ; qtot 92.357222
 2405         h1     92    bbb    H11   2405 0.10618100   1.008000   ; qtot 92.463403
 2406         h1     92    bbb    H12   2406 0.10618100   1.008000   ; qtot 92.569584
 2407         hn     92    bbb    H13   2407 0.25916100   1.008000   ; qtot 92.828745
 2408         hn     92    bbb    H25   2408 0.17125500   1.008000   ; qtot 93.000000
; residue   93 bbb rtp bbb q 1.0
 2409         n4     93    bbb     N1   2409 -0.02747900  14.010000   ; qtot 92.972521
 2410         c3     93    bbb     C1   2410 -0.05097600  12.010000   ; qtot 92.921545
 2411         c3     93    bbb     C2   2411 -0.05097600  12.010000   ; qtot 92.870569
 2412         c3     93    bbb     C3   2412 -0.18457900  12.010000   ; qtot 92.685990
 2413          c     93    bbb     C4   2413 0.67254400  12.010000   ; qtot 93.358534
 2414         c3     93    bbb     C5   2414 -0.18457900  12.010000   ; qtot 93.173955
 2415          c     93    bbb     C6   2415 0.67254400  12.010000   ; qtot 93.846499
 2416         c3     93    bbb     C7   2416 -0.02083000  12.010000   ; qtot 93.825669
 2417         c3     93    bbb     C8   2417 -0.03328100  12.010000   ; qtot 93.792388
 2418          n     93    bbb     N2   2418 -0.33303000  14.010000   ; qtot 93.459358
 2419          o     93    bbb     O1   2419 -0.52917200  16.000000   ; qtot 92.930186
 2420          o     93    bbb     O2   2420 -0.52917200  16.000000   ; qtot 92.401014
 2421         hx     93    bbb     H1   2421 0.11563300   1.008000   ; qtot 92.516647
 2422         hx     93    bbb     H2   2422 0.11563300   1.008000   ; qtot 92.632280
 2423         hx     93    bbb     H3   2423 0.11563300   1.008000   ; qtot 92.747913
 2424         hx     93    bbb     H4   2424 0.11563300   1.008000   ; qtot 92.863546
 2425         hc     93    bbb     H5   2425 0.08347900   1.008000   ; qtot 92.947025
 2426         hc     93    bbb     H6   2426 0.08347900   1.008000   ; qtot 93.030504
 2427         hc     93    bbb     H7   2427 0.08347900   1.008000   ; qtot 93.113983
 2428         hc     93    bbb     H8   2428 0.08347900   1.008000   ; qtot 93.197462
 2429         hx     93    bbb     H9   2429 0.07988000   1.008000   ; qtot 93.277342
 2430         hx     93    bbb    H10   2430 0.07988000   1.008000   ; qtot 93.357222
 2431         h1     93    bbb    H11   2431 0.10618100   1.008000   ; qtot 93.463403
 2432         h1     93    bbb    H12   2432 0.10618100   1.008000   ; qtot 93.569584
 2433         hn     93    bbb    H13   2433 0.25916100   1.008000   ; qtot 93.828745
 2434         hn     93    bbb    H25   2434 0.17125500   1.008000   ; qtot 94.000000
; residue   94 bbb rtp bbb q 1.0
 2435         n4     94    bbb     N1   2435 -0.02747900  14.010000   ; qtot 93.972521
 2436         c3     94    bbb     C1   2436 -0.05097600  12.010000   ; qtot 93.921545
 2437         c3     94    bbb     C2   2437 -0.05097600  12.010000   ; qtot 93.870569
 2438         c3     94    bbb     C3   2438 -0.18457900  12.010000   ; qtot 93.685990
 2439          c     94    bbb     C4   2439 0.67254400  12.010000   ; qtot 94.358534
 2440         c3     94    bbb     C5   2440 -0.18457900  12.010000   ; qtot 94.173955
 2441          c     94    bbb     C6   2441 0.67254400  12.010000   ; qtot 94.846499
 2442         c3     94    bbb     C7   2442 -0.02083000  12.010000   ; qtot 94.825669
 2443         c3     94    bbb     C8   2443 -0.03328100  12.010000   ; qtot 94.792388
 2444          n     94    bbb     N2   2444 -0.33303000  14.010000   ; qtot 94.459358
 2445          o     94    bbb     O1   2445 -0.52917200  16.000000   ; qtot 93.930186
 2446          o     94    bbb     O2   2446 -0.52917200  16.000000   ; qtot 93.401014
 2447         hx     94    bbb     H1   2447 0.11563300   1.008000   ; qtot 93.516647
 2448         hx     94    bbb     H2   2448 0.11563300   1.008000   ; qtot 93.632280
 2449         hx     94    bbb     H3   2449 0.11563300   1.008000   ; qtot 93.747913
 2450         hx     94    bbb     H4   2450 0.11563300   1.008000   ; qtot 93.863546
 2451         hc     94    bbb     H5   2451 0.08347900   1.008000   ; qtot 93.947025
 2452         hc     94    bbb     H6   2452 0.08347900   1.008000   ; qtot 94.030504
 2453         hc     94    bbb     H7   2453 0.08347900   1.008000   ; qtot 94.113983
 2454         hc     94    bbb     H8   2454 0.08347900   1.008000   ; qtot 94.197462
 2455         hx     94    bbb     H9   2455 0.07988000   1.008000   ; qtot 94.277342
 2456         hx     94    bbb    H10   2456 0.07988000   1.008000   ; qtot 94.357222
 2457         h1     94    bbb    H11   2457 0.10618100   1.008000   ; qtot 94.463403
 2458         h1     94    bbb    H12   2458 0.10618100   1.008000   ; qtot 94.569584
 2459         hn     94    bbb    H13   2459 0.25916100   1.008000   ; qtot 94.828745
 2460         hn     94    bbb    H25   2460 0.17125500   1.008000   ; qtot 95.000000
; residue   95 bbb rtp bbb q 1.0
 2461         n4     95    bbb     N1   2461 -0.02747900  14.010000   ; qtot 94.972521
 2462         c3     95    bbb     C1   2462 -0.05097600  12.010000   ; qtot 94.921545
 2463         c3     95    bbb     C2   2463 -0.05097600  12.010000   ; qtot 94.870569
 2464         c3     95    bbb     C3   2464 -0.18457900  12.010000   ; qtot 94.685990
 2465          c     95    bbb     C4   2465 0.67254400  12.010000   ; qtot 95.358534
 2466         c3     95    bbb     C5   2466 -0.18457900  12.010000   ; qtot 95.173955
 2467          c     95    bbb     C6   2467 0.67254400  12.010000   ; qtot 95.846499
 2468         c3     95    bbb     C7   2468 -0.02083000  12.010000   ; qtot 95.825669
 2469         c3     95    bbb     C8   2469 -0.03328100  12.010000   ; qtot 95.792388
 2470          n     95    bbb     N2   2470 -0.33303000  14.010000   ; qtot 95.459358
 2471          o     95    bbb     O1   2471 -0.52917200  16.000000   ; qtot 94.930186
 2472          o     95    bbb     O2   2472 -0.52917200  16.000000   ; qtot 94.401014
 2473         hx     95    bbb     H1   2473 0.11563300   1.008000   ; qtot 94.516647
 2474         hx     95    bbb     H2   2474 0.11563300   1.008000   ; qtot 94.632280
 2475         hx     95    bbb     H3   2475 0.11563300   1.008000   ; qtot 94.747913
 2476         hx     95    bbb     H4   2476 0.11563300   1.008000   ; qtot 94.863546
 2477         hc     95    bbb     H5   2477 0.08347900   1.008000   ; qtot 94.947025
 2478         hc     95    bbb     H6   2478 0.08347900   1.008000   ; qtot 95.030504
 2479         hc     95    bbb     H7   2479 0.08347900   1.008000   ; qtot 95.113983
 2480         hc     95    bbb     H8   2480 0.08347900   1.008000   ; qtot 95.197462
 2481         hx     95    bbb     H9   2481 0.07988000   1.008000   ; qtot 95.277342
 2482         hx     95    bbb    H10   2482 0.07988000   1.008000   ; qtot 95.357222
 2483         h1     95    bbb    H11   2483 0.10618100   1.008000   ; qtot 95.463403
 2484         h1     95    bbb    H12   2484 0.10618100   1.008000   ; qtot 95.569584
 2485         hn     95    bbb    H13   2485 0.25916100   1.008000   ; qtot 95.828745
 2486         hn     95    bbb    H25   2486 0.17125500   1.008000   ; qtot 96.000000
; residue   96 bbb rtp bbb q 1.0
 2487         n4     96    bbb     N1   2487 -0.02747900  14.010000   ; qtot 95.972521
 2488         c3     96    bbb     C1   2488 -0.05097600  12.010000   ; qtot 95.921545
 2489         c3     96    bbb     C2   2489 -0.05097600  12.010000   ; qtot 95.870569
 2490         c3     96    bbb     C3   2490 -0.18457900  12.010000   ; qtot 95.685990
 2491          c     96    bbb     C4   2491 0.67254400  12.010000   ; qtot 96.358534
 2492         c3     96    bbb     C5   2492 -0.18457900  12.010000   ; qtot 96.173955
 2493          c     96    bbb     C6   2493 0.67254400  12.010000   ; qtot 96.846499
 2494         c3     96    bbb     C7   2494 -0.02083000  12.010000   ; qtot 96.825669
 2495         c3     96    bbb     C8   2495 -0.03328100  12.010000   ; qtot 96.792388
 2496          n     96    bbb     N2   2496 -0.33303000  14.010000   ; qtot 96.459358
 2497          o     96    bbb     O1   2497 -0.52917200  16.000000   ; qtot 95.930186
 2498          o     96    bbb     O2   2498 -0.52917200  16.000000   ; qtot 95.401014
 2499         hx     96    bbb     H1   2499 0.11563300   1.008000   ; qtot 95.516647
 2500         hx     96    bbb     H2   2500 0.11563300   1.008000   ; qtot 95.632280
 2501         hx     96    bbb     H3   2501 0.11563300   1.008000   ; qtot 95.747913
 2502         hx     96    bbb     H4   2502 0.11563300   1.008000   ; qtot 95.863546
 2503         hc     96    bbb     H5   2503 0.08347900   1.008000   ; qtot 95.947025
 2504         hc     96    bbb     H6   2504 0.08347900   1.008000   ; qtot 96.030504
 2505         hc     96    bbb     H7   2505 0.08347900   1.008000   ; qtot 96.113983
 2506         hc     96    bbb     H8   2506 0.08347900   1.008000   ; qtot 96.197462
 2507         hx     96    bbb     H9   2507 0.07988000   1.008000   ; qtot 96.277342
 2508         hx     96    bbb    H10   2508 0.07988000   1.008000   ; qtot 96.357222
 2509         h1     96    bbb    H11   2509 0.10618100   1.008000   ; qtot 96.463403
 2510         h1     96    bbb    H12   2510 0.10618100   1.008000   ; qtot 96.569584
 2511         hn     96    bbb    H13   2511 0.25916100   1.008000   ; qtot 96.828745
 2512         hn     96    bbb    H25   2512 0.17125500   1.008000   ; qtot 97.000000
; residue   97 bbb rtp bbb q 1.0
 2513         n4     97    bbb     N1   2513 -0.02747900  14.010000   ; qtot 96.972521
 2514         c3     97    bbb     C1   2514 -0.05097600  12.010000   ; qtot 96.921545
 2515         c3     97    bbb     C2   2515 -0.05097600  12.010000   ; qtot 96.870569
 2516         c3     97    bbb     C3   2516 -0.18457900  12.010000   ; qtot 96.685990
 2517          c     97    bbb     C4   2517 0.67254400  12.010000   ; qtot 97.358534
 2518         c3     97    bbb     C5   2518 -0.18457900  12.010000   ; qtot 97.173955
 2519          c     97    bbb     C6   2519 0.67254400  12.010000   ; qtot 97.846499
 2520         c3     97    bbb     C7   2520 -0.02083000  12.010000   ; qtot 97.825669
 2521         c3     97    bbb     C8   2521 -0.03328100  12.010000   ; qtot 97.792388
 2522          n     97    bbb     N2   2522 -0.33303000  14.010000   ; qtot 97.459358
 2523          o     97    bbb     O1   2523 -0.52917200  16.000000   ; qtot 96.930186
 2524          o     97    bbb     O2   2524 -0.52917200  16.000000   ; qtot 96.401014
 2525         hx     97    bbb     H1   2525 0.11563300   1.008000   ; qtot 96.516647
 2526         hx     97    bbb     H2   2526 0.11563300   1.008000   ; qtot 96.632280
 2527         hx     97    bbb     H3   2527 0.11563300   1.008000   ; qtot 96.747913
 2528         hx     97    bbb     H4   2528 0.11563300   1.008000   ; qtot 96.863546
 2529         hc     97    bbb     H5   2529 0.08347900   1.008000   ; qtot 96.947025
 2530         hc     97    bbb     H6   2530 0.08347900   1.008000   ; qtot 97.030504
 2531         hc     97    bbb     H7   2531 0.08347900   1.008000   ; qtot 97.113983
 2532         hc     97    bbb     H8   2532 0.08347900   1.008000   ; qtot 97.197462
 2533         hx     97    bbb     H9   2533 0.07988000   1.008000   ; qtot 97.277342
 2534         hx     97    bbb    H10   2534 0.07988000   1.008000   ; qtot 97.357222
 2535         h1     97    bbb    H11   2535 0.10618100   1.008000   ; qtot 97.463403
 2536         h1     97    bbb    H12   2536 0.10618100   1.008000   ; qtot 97.569584
 2537         hn     97    bbb    H13   2537 0.25916100   1.008000   ; qtot 97.828745
 2538         hn     97    bbb    H25   2538 0.17125500   1.008000   ; qtot 98.000000
; residue   98 bbb rtp bbb q 1.0
 2539         n4     98    bbb     N1   2539 -0.02747900  14.010000   ; qtot 97.972521
 2540         c3     98    bbb     C1   2540 -0.05097600  12.010000   ; qtot 97.921545
 2541         c3     98    bbb     C2   2541 -0.05097600  12.010000   ; qtot 97.870569
 2542         c3     98    bbb     C3   2542 -0.18457900  12.010000   ; qtot 97.685990
 2543          c     98    bbb     C4   2543 0.67254400  12.010000   ; qtot 98.358534
 2544         c3     98    bbb     C5   2544 -0.18457900  12.010000   ; qtot 98.173955
 2545          c     98    bbb     C6   2545 0.67254400  12.010000   ; qtot 98.846499
 2546         c3     98    bbb     C7   2546 -0.02083000  12.010000   ; qtot 98.825669
 2547         c3     98    bbb     C8   2547 -0.03328100  12.010000   ; qtot 98.792388
 2548          n     98    bbb     N2   2548 -0.33303000  14.010000   ; qtot 98.459358
 2549          o     98    bbb     O1   2549 -0.52917200  16.000000   ; qtot 97.930186
 2550          o     98    bbb     O2   2550 -0.52917200  16.000000   ; qtot 97.401014
 2551         hx     98    bbb     H1   2551 0.11563300   1.008000   ; qtot 97.516647
 2552         hx     98    bbb     H2   2552 0.11563300   1.008000   ; qtot 97.632280
 2553         hx     98    bbb     H3   2553 0.11563300   1.008000   ; qtot 97.747913
 2554         hx     98    bbb     H4   2554 0.11563300   1.008000   ; qtot 97.863546
 2555         hc     98    bbb     H5   2555 0.08347900   1.008000   ; qtot 97.947025
 2556         hc     98    bbb     H6   2556 0.08347900   1.008000   ; qtot 98.030504
 2557         hc     98    bbb     H7   2557 0.08347900   1.008000   ; qtot 98.113983
 2558         hc     98    bbb     H8   2558 0.08347900   1.008000   ; qtot 98.197462
 2559         hx     98    bbb     H9   2559 0.07988000   1.008000   ; qtot 98.277342
 2560         hx     98    bbb    H10   2560 0.07988000   1.008000   ; qtot 98.357222
 2561         h1     98    bbb    H11   2561 0.10618100   1.008000   ; qtot 98.463403
 2562         h1     98    bbb    H12   2562 0.10618100   1.008000   ; qtot 98.569584
 2563         hn     98    bbb    H13   2563 0.25916100   1.008000   ; qtot 98.828745
 2564         hn     98    bbb    H25   2564 0.17125500   1.008000   ; qtot 99.000000
; residue   99 bbb rtp bbb q 1.0
 2565         n4     99    bbb     N1   2565 -0.02747900  14.010000   ; qtot 98.972521
 2566         c3     99    bbb     C1   2566 -0.05097600  12.010000   ; qtot 98.921545
 2567         c3     99    bbb     C2   2567 -0.05097600  12.010000   ; qtot 98.870569
 2568         c3     99    bbb     C3   2568 -0.18457900  12.010000   ; qtot 98.685990
 2569          c     99    bbb     C4   2569 0.67254400  12.010000   ; qtot 99.358534
 2570         c3     99    bbb     C5   2570 -0.18457900  12.010000   ; qtot 99.173955
 2571          c     99    bbb     C6   2571 0.67254400  12.010000   ; qtot 99.846499
 2572         c3     99    bbb     C7   2572 -0.02083000  12.010000   ; qtot 99.825669
 2573         c3     99    bbb     C8   2573 -0.03328100  12.010000   ; qtot 99.792388
 2574          n     99    bbb     N2   2574 -0.33303000  14.010000   ; qtot 99.459358
 2575          o     99    bbb     O1   2575 -0.52917200  16.000000   ; qtot 98.930186
 2576          o     99    bbb     O2   2576 -0.52917200  16.000000   ; qtot 98.401014
 2577         hx     99    bbb     H1   2577 0.11563300   1.008000   ; qtot 98.516647
 2578         hx     99    bbb     H2   2578 0.11563300   1.008000   ; qtot 98.632280
 2579         hx     99    bbb     H3   2579 0.11563300   1.008000   ; qtot 98.747913
 2580         hx     99    bbb     H4   2580 0.11563300   1.008000   ; qtot 98.863546
 2581         hc     99    bbb     H5   2581 0.08347900   1.008000   ; qtot 98.947025
 2582         hc     99    bbb     H6   2582 0.08347900   1.008000   ; qtot 99.030504
 2583         hc     99    bbb     H7   2583 0.08347900   1.008000   ; qtot 99.113983
 2584         hc     99    bbb     H8   2584 0.08347900   1.008000   ; qtot 99.197462
 2585         hx     99    bbb     H9   2585 0.07988000   1.008000   ; qtot 99.277342
 2586         hx     99    bbb    H10   2586 0.07988000   1.008000   ; qtot 99.357222
 2587         h1     99    bbb    H11   2587 0.10618100   1.008000   ; qtot 99.463403
 2588         h1     99    bbb    H12   2588 0.10618100   1.008000   ; qtot 99.569584
 2589         hn     99    bbb    H13   2589 0.25916100   1.008000   ; qtot 99.828745
 2590         hn     99    bbb    H25   2590 0.17125500   1.008000   ; qtot 100.000000
; residue  100 bbb rtp bbb q 1.0
 2591         n4    100    bbb     N1   2591 -0.02747900  14.010000   ; qtot 99.972521
 2592         c3    100    bbb     C1   2592 -0.05097600  12.010000   ; qtot 99.921545
 2593         c3    100    bbb     C2   2593 -0.05097600  12.010000   ; qtot 99.870569
 2594         c3    100    bbb     C3   2594 -0.18457900  12.010000   ; qtot 99.685990
 2595          c    100    bbb     C4   2595 0.67254400  12.010000   ; qtot 100.358534
 2596         c3    100    bbb     C5   2596 -0.18457900  12.010000   ; qtot 100.173955
 2597          c    100    bbb     C6   2597 0.67254400  12.010000   ; qtot 100.846499
 2598         c3    100    bbb     C7   2598 -0.02083000  12.010000   ; qtot 100.825669
 2599         c3    100    bbb     C8   2599 -0.03328100  12.010000   ; qtot 100.792388
 2600          n    100    bbb     N2   2600 -0.33303000  14.010000   ; qtot 100.459358
 2601          o    100    bbb     O1   2601 -0.52917200  16.000000   ; qtot 99.930186
 2602          o    100    bbb     O2   2602 -0.52917200  16.000000   ; qtot 99.401014
 2603         hx    100    bbb     H1   2603 0.11563300   1.008000   ; qtot 99.516647
 2604         hx    100    bbb     H2   2604 0.11563300   1.008000   ; qtot 99.632280
 2605         hx    100    bbb     H3   2605 0.11563300   1.008000   ; qtot 99.747913
 2606         hx    100    bbb     H4   2606 0.11563300   1.008000   ; qtot 99.863546
 2607         hc    100    bbb     H5   2607 0.08347900   1.008000   ; qtot 99.947025
 2608         hc    100    bbb     H6   2608 0.08347900   1.008000   ; qtot 100.030504
 2609         hc    100    bbb     H7   2609 0.08347900   1.008000   ; qtot 100.113983
 2610         hc    100    bbb     H8   2610 0.08347900   1.008000   ; qtot 100.197462
 2611         hx    100    bbb     H9   2611 0.07988000   1.008000   ; qtot 100.277342
 2612         hx    100    bbb    H10   2612 0.07988000   1.008000   ; qtot 100.357222
 2613         h1    100    bbb    H11   2613 0.10618100   1.008000   ; qtot 100.463403
 2614         h1    100    bbb    H12   2614 0.10618100   1.008000   ; qtot 100.569584
 2615         hn    100    bbb    H13   2615 0.25916100   1.008000   ; qtot 100.828745
 2616         hn    100    bbb    H25   2616 0.17125500   1.008000   ; qtot 101.000000
; residue  101 bbb rtp bbb q 1.0
 2617         n4    101    bbb     N1   2617 -0.02747900  14.010000   ; qtot 100.972521
 2618         c3    101    bbb     C1   2618 -0.05097600  12.010000   ; qtot 100.921545
 2619         c3    101    bbb     C2   2619 -0.05097600  12.010000   ; qtot 100.870569
 2620         c3    101    bbb     C3   2620 -0.18457900  12.010000   ; qtot 100.685990
 2621          c    101    bbb     C4   2621 0.67254400  12.010000   ; qtot 101.358534
 2622         c3    101    bbb     C5   2622 -0.18457900  12.010000   ; qtot 101.173955
 2623          c    101    bbb     C6   2623 0.67254400  12.010000   ; qtot 101.846499
 2624         c3    101    bbb     C7   2624 -0.02083000  12.010000   ; qtot 101.825669
 2625         c3    101    bbb     C8   2625 -0.03328100  12.010000   ; qtot 101.792388
 2626          n    101    bbb     N2   2626 -0.33303000  14.010000   ; qtot 101.459358
 2627          o    101    bbb     O1   2627 -0.52917200  16.000000   ; qtot 100.930186
 2628          o    101    bbb     O2   2628 -0.52917200  16.000000   ; qtot 100.401014
 2629         hx    101    bbb     H1   2629 0.11563300   1.008000   ; qtot 100.516647
 2630         hx    101    bbb     H2   2630 0.11563300   1.008000   ; qtot 100.632280
 2631         hx    101    bbb     H3   2631 0.11563300   1.008000   ; qtot 100.747913
 2632         hx    101    bbb     H4   2632 0.11563300   1.008000   ; qtot 100.863546
 2633         hc    101    bbb     H5   2633 0.08347900   1.008000   ; qtot 100.947025
 2634         hc    101    bbb     H6   2634 0.08347900   1.008000   ; qtot 101.030504
 2635         hc    101    bbb     H7   2635 0.08347900   1.008000   ; qtot 101.113983
 2636         hc    101    bbb     H8   2636 0.08347900   1.008000   ; qtot 101.197462
 2637         hx    101    bbb     H9   2637 0.07988000   1.008000   ; qtot 101.277342
 2638         hx    101    bbb    H10   2638 0.07988000   1.008000   ; qtot 101.357222
 2639         h1    101    bbb    H11   2639 0.10618100   1.008000   ; qtot 101.463403
 2640         h1    101    bbb    H12   2640 0.10618100   1.008000   ; qtot 101.569584
 2641         hn    101    bbb    H13   2641 0.25916100   1.008000   ; qtot 101.828745
 2642         hn    101    bbb    H25   2642 0.17125500   1.008000   ; qtot 102.000000
; residue  102 bbb rtp bbb q 1.0
 2643         n4    102    bbb     N1   2643 -0.02747900  14.010000   ; qtot 101.972521
 2644         c3    102    bbb     C1   2644 -0.05097600  12.010000   ; qtot 101.921545
 2645         c3    102    bbb     C2   2645 -0.05097600  12.010000   ; qtot 101.870569
 2646         c3    102    bbb     C3   2646 -0.18457900  12.010000   ; qtot 101.685990
 2647          c    102    bbb     C4   2647 0.67254400  12.010000   ; qtot 102.358534
 2648         c3    102    bbb     C5   2648 -0.18457900  12.010000   ; qtot 102.173955
 2649          c    102    bbb     C6   2649 0.67254400  12.010000   ; qtot 102.846499
 2650         c3    102    bbb     C7   2650 -0.02083000  12.010000   ; qtot 102.825669
 2651         c3    102    bbb     C8   2651 -0.03328100  12.010000   ; qtot 102.792388
 2652          n    102    bbb     N2   2652 -0.33303000  14.010000   ; qtot 102.459358
 2653          o    102    bbb     O1   2653 -0.52917200  16.000000   ; qtot 101.930186
 2654          o    102    bbb     O2   2654 -0.52917200  16.000000   ; qtot 101.401014
 2655         hx    102    bbb     H1   2655 0.11563300   1.008000   ; qtot 101.516647
 2656         hx    102    bbb     H2   2656 0.11563300   1.008000   ; qtot 101.632280
 2657         hx    102    bbb     H3   2657 0.11563300   1.008000   ; qtot 101.747913
 2658         hx    102    bbb     H4   2658 0.11563300   1.008000   ; qtot 101.863546
 2659         hc    102    bbb     H5   2659 0.08347900   1.008000   ; qtot 101.947025
 2660         hc    102    bbb     H6   2660 0.08347900   1.008000   ; qtot 102.030504
 2661         hc    102    bbb     H7   2661 0.08347900   1.008000   ; qtot 102.113983
 2662         hc    102    bbb     H8   2662 0.08347900   1.008000   ; qtot 102.197462
 2663         hx    102    bbb     H9   2663 0.07988000   1.008000   ; qtot 102.277342
 2664         hx    102    bbb    H10   2664 0.07988000   1.008000   ; qtot 102.357222
 2665         h1    102    bbb    H11   2665 0.10618100   1.008000   ; qtot 102.463403
 2666         h1    102    bbb    H12   2666 0.10618100   1.008000   ; qtot 102.569584
 2667         hn    102    bbb    H13   2667 0.25916100   1.008000   ; qtot 102.828745
 2668         hn    102    bbb    H25   2668 0.17125500   1.008000   ; qtot 103.000000
; residue  103 bbb rtp bbb q 1.0
 2669         n4    103    bbb     N1   2669 -0.02747900  14.010000   ; qtot 102.972521
 2670         c3    103    bbb     C1   2670 -0.05097600  12.010000   ; qtot 102.921545
 2671         c3    103    bbb     C2   2671 -0.05097600  12.010000   ; qtot 102.870569
 2672         c3    103    bbb     C3   2672 -0.18457900  12.010000   ; qtot 102.685990
 2673          c    103    bbb     C4   2673 0.67254400  12.010000   ; qtot 103.358534
 2674         c3    103    bbb     C5   2674 -0.18457900  12.010000   ; qtot 103.173955
 2675          c    103    bbb     C6   2675 0.67254400  12.010000   ; qtot 103.846499
 2676         c3    103    bbb     C7   2676 -0.02083000  12.010000   ; qtot 103.825669
 2677         c3    103    bbb     C8   2677 -0.03328100  12.010000   ; qtot 103.792388
 2678          n    103    bbb     N2   2678 -0.33303000  14.010000   ; qtot 103.459358
 2679          o    103    bbb     O1   2679 -0.52917200  16.000000   ; qtot 102.930186
 2680          o    103    bbb     O2   2680 -0.52917200  16.000000   ; qtot 102.401014
 2681         hx    103    bbb     H1   2681 0.11563300   1.008000   ; qtot 102.516647
 2682         hx    103    bbb     H2   2682 0.11563300   1.008000   ; qtot 102.632280
 2683         hx    103    bbb     H3   2683 0.11563300   1.008000   ; qtot 102.747913
 2684         hx    103    bbb     H4   2684 0.11563300   1.008000   ; qtot 102.863546
 2685         hc    103    bbb     H5   2685 0.08347900   1.008000   ; qtot 102.947025
 2686         hc    103    bbb     H6   2686 0.08347900   1.008000   ; qtot 103.030504
 2687         hc    103    bbb     H7   2687 0.08347900   1.008000   ; qtot 103.113983
 2688         hc    103    bbb     H8   2688 0.08347900   1.008000   ; qtot 103.197462
 2689         hx    103    bbb     H9   2689 0.07988000   1.008000   ; qtot 103.277342
 2690         hx    103    bbb    H10   2690 0.07988000   1.008000   ; qtot 103.357222
 2691         h1    103    bbb    H11   2691 0.10618100   1.008000   ; qtot 103.463403
 2692         h1    103    bbb    H12   2692 0.10618100   1.008000   ; qtot 103.569584
 2693         hn    103    bbb    H13   2693 0.25916100   1.008000   ; qtot 103.828745
 2694         hn    103    bbb    H25   2694 0.17125500   1.008000   ; qtot 104.000000
; residue  104 bbb rtp bbb q 1.0
 2695         n4    104    bbb     N1   2695 -0.02747900  14.010000   ; qtot 103.972521
 2696         c3    104    bbb     C1   2696 -0.05097600  12.010000   ; qtot 103.921545
 2697         c3    104    bbb     C2   2697 -0.05097600  12.010000   ; qtot 103.870569
 2698         c3    104    bbb     C3   2698 -0.18457900  12.010000   ; qtot 103.685990
 2699          c    104    bbb     C4   2699 0.67254400  12.010000   ; qtot 104.358534
 2700         c3    104    bbb     C5   2700 -0.18457900  12.010000   ; qtot 104.173955
 2701          c    104    bbb     C6   2701 0.67254400  12.010000   ; qtot 104.846499
 2702         c3    104    bbb     C7   2702 -0.02083000  12.010000   ; qtot 104.825669
 2703         c3    104    bbb     C8   2703 -0.03328100  12.010000   ; qtot 104.792388
 2704          n    104    bbb     N2   2704 -0.33303000  14.010000   ; qtot 104.459358
 2705          o    104    bbb     O1   2705 -0.52917200  16.000000   ; qtot 103.930186
 2706          o    104    bbb     O2   2706 -0.52917200  16.000000   ; qtot 103.401014
 2707         hx    104    bbb     H1   2707 0.11563300   1.008000   ; qtot 103.516647
 2708         hx    104    bbb     H2   2708 0.11563300   1.008000   ; qtot 103.632280
 2709         hx    104    bbb     H3   2709 0.11563300   1.008000   ; qtot 103.747913
 2710         hx    104    bbb     H4   2710 0.11563300   1.008000   ; qtot 103.863546
 2711         hc    104    bbb     H5   2711 0.08347900   1.008000   ; qtot 103.947025
 2712         hc    104    bbb     H6   2712 0.08347900   1.008000   ; qtot 104.030504
 2713         hc    104    bbb     H7   2713 0.08347900   1.008000   ; qtot 104.113983
 2714         hc    104    bbb     H8   2714 0.08347900   1.008000   ; qtot 104.197462
 2715         hx    104    bbb     H9   2715 0.07988000   1.008000   ; qtot 104.277342
 2716         hx    104    bbb    H10   2716 0.07988000   1.008000   ; qtot 104.357222
 2717         h1    104    bbb    H11   2717 0.10618100   1.008000   ; qtot 104.463403
 2718         h1    104    bbb    H12   2718 0.10618100   1.008000   ; qtot 104.569584
 2719         hn    104    bbb    H13   2719 0.25916100   1.008000   ; qtot 104.828745
 2720         hn    104    bbb    H25   2720 0.17125500   1.008000   ; qtot 105.000000
; residue  105 bbb rtp bbb q 1.0
 2721         n4    105    bbb     N1   2721 -0.02747900  14.010000   ; qtot 104.972521
 2722         c3    105    bbb     C1   2722 -0.05097600  12.010000   ; qtot 104.921545
 2723         c3    105    bbb     C2   2723 -0.05097600  12.010000   ; qtot 104.870569
 2724         c3    105    bbb     C3   2724 -0.18457900  12.010000   ; qtot 104.685990
 2725          c    105    bbb     C4   2725 0.67254400  12.010000   ; qtot 105.358534
 2726         c3    105    bbb     C5   2726 -0.18457900  12.010000   ; qtot 105.173955
 2727          c    105    bbb     C6   2727 0.67254400  12.010000   ; qtot 105.846499
 2728         c3    105    bbb     C7   2728 -0.02083000  12.010000   ; qtot 105.825669
 2729         c3    105    bbb     C8   2729 -0.03328100  12.010000   ; qtot 105.792388
 2730          n    105    bbb     N2   2730 -0.33303000  14.010000   ; qtot 105.459358
 2731          o    105    bbb     O1   2731 -0.52917200  16.000000   ; qtot 104.930186
 2732          o    105    bbb     O2   2732 -0.52917200  16.000000   ; qtot 104.401014
 2733         hx    105    bbb     H1   2733 0.11563300   1.008000   ; qtot 104.516647
 2734         hx    105    bbb     H2   2734 0.11563300   1.008000   ; qtot 104.632280
 2735         hx    105    bbb     H3   2735 0.11563300   1.008000   ; qtot 104.747913
 2736         hx    105    bbb     H4   2736 0.11563300   1.008000   ; qtot 104.863546
 2737         hc    105    bbb     H5   2737 0.08347900   1.008000   ; qtot 104.947025
 2738         hc    105    bbb     H6   2738 0.08347900   1.008000   ; qtot 105.030504
 2739         hc    105    bbb     H7   2739 0.08347900   1.008000   ; qtot 105.113983
 2740         hc    105    bbb     H8   2740 0.08347900   1.008000   ; qtot 105.197462
 2741         hx    105    bbb     H9   2741 0.07988000   1.008000   ; qtot 105.277342
 2742         hx    105    bbb    H10   2742 0.07988000   1.008000   ; qtot 105.357222
 2743         h1    105    bbb    H11   2743 0.10618100   1.008000   ; qtot 105.463403
 2744         h1    105    bbb    H12   2744 0.10618100   1.008000   ; qtot 105.569584
 2745         hn    105    bbb    H13   2745 0.25916100   1.008000   ; qtot 105.828745
 2746         hn    105    bbb    H25   2746 0.17125500   1.008000   ; qtot 106.000000
; residue  106 bbb rtp bbb q 1.0
 2747         n4    106    bbb     N1   2747 -0.02747900  14.010000   ; qtot 105.972521
 2748         c3    106    bbb     C1   2748 -0.05097600  12.010000   ; qtot 105.921545
 2749         c3    106    bbb     C2   2749 -0.05097600  12.010000   ; qtot 105.870569
 2750         c3    106    bbb     C3   2750 -0.18457900  12.010000   ; qtot 105.685990
 2751          c    106    bbb     C4   2751 0.67254400  12.010000   ; qtot 106.358534
 2752         c3    106    bbb     C5   2752 -0.18457900  12.010000   ; qtot 106.173955
 2753          c    106    bbb     C6   2753 0.67254400  12.010000   ; qtot 106.846499
 2754         c3    106    bbb     C7   2754 -0.02083000  12.010000   ; qtot 106.825669
 2755         c3    106    bbb     C8   2755 -0.03328100  12.010000   ; qtot 106.792388
 2756          n    106    bbb     N2   2756 -0.33303000  14.010000   ; qtot 106.459358
 2757          o    106    bbb     O1   2757 -0.52917200  16.000000   ; qtot 105.930186
 2758          o    106    bbb     O2   2758 -0.52917200  16.000000   ; qtot 105.401014
 2759         hx    106    bbb     H1   2759 0.11563300   1.008000   ; qtot 105.516647
 2760         hx    106    bbb     H2   2760 0.11563300   1.008000   ; qtot 105.632280
 2761         hx    106    bbb     H3   2761 0.11563300   1.008000   ; qtot 105.747913
 2762         hx    106    bbb     H4   2762 0.11563300   1.008000   ; qtot 105.863546
 2763         hc    106    bbb     H5   2763 0.08347900   1.008000   ; qtot 105.947025
 2764         hc    106    bbb     H6   2764 0.08347900   1.008000   ; qtot 106.030504
 2765         hc    106    bbb     H7   2765 0.08347900   1.008000   ; qtot 106.113983
 2766         hc    106    bbb     H8   2766 0.08347900   1.008000   ; qtot 106.197462
 2767         hx    106    bbb     H9   2767 0.07988000   1.008000   ; qtot 106.277342
 2768         hx    106    bbb    H10   2768 0.07988000   1.008000   ; qtot 106.357222
 2769         h1    106    bbb    H11   2769 0.10618100   1.008000   ; qtot 106.463403
 2770         h1    106    bbb    H12   2770 0.10618100   1.008000   ; qtot 106.569584
 2771         hn    106    bbb    H13   2771 0.25916100   1.008000   ; qtot 106.828745
 2772         hn    106    bbb    H25   2772 0.17125500   1.008000   ; qtot 107.000000
; residue  107 bbb rtp bbb q 1.0
 2773         n4    107    bbb     N1   2773 -0.02747900  14.010000   ; qtot 106.972521
 2774         c3    107    bbb     C1   2774 -0.05097600  12.010000   ; qtot 106.921545
 2775         c3    107    bbb     C2   2775 -0.05097600  12.010000   ; qtot 106.870569
 2776         c3    107    bbb     C3   2776 -0.18457900  12.010000   ; qtot 106.685990
 2777          c    107    bbb     C4   2777 0.67254400  12.010000   ; qtot 107.358534
 2778         c3    107    bbb     C5   2778 -0.18457900  12.010000   ; qtot 107.173955
 2779          c    107    bbb     C6   2779 0.67254400  12.010000   ; qtot 107.846499
 2780         c3    107    bbb     C7   2780 -0.02083000  12.010000   ; qtot 107.825669
 2781         c3    107    bbb     C8   2781 -0.03328100  12.010000   ; qtot 107.792388
 2782          n    107    bbb     N2   2782 -0.33303000  14.010000   ; qtot 107.459358
 2783          o    107    bbb     O1   2783 -0.52917200  16.000000   ; qtot 106.930186
 2784          o    107    bbb     O2   2784 -0.52917200  16.000000   ; qtot 106.401014
 2785         hx    107    bbb     H1   2785 0.11563300   1.008000   ; qtot 106.516647
 2786         hx    107    bbb     H2   2786 0.11563300   1.008000   ; qtot 106.632280
 2787         hx    107    bbb     H3   2787 0.11563300   1.008000   ; qtot 106.747913
 2788         hx    107    bbb     H4   2788 0.11563300   1.008000   ; qtot 106.863546
 2789         hc    107    bbb     H5   2789 0.08347900   1.008000   ; qtot 106.947025
 2790         hc    107    bbb     H6   2790 0.08347900   1.008000   ; qtot 107.030504
 2791         hc    107    bbb     H7   2791 0.08347900   1.008000   ; qtot 107.113983
 2792         hc    107    bbb     H8   2792 0.08347900   1.008000   ; qtot 107.197462
 2793         hx    107    bbb     H9   2793 0.07988000   1.008000   ; qtot 107.277342
 2794         hx    107    bbb    H10   2794 0.07988000   1.008000   ; qtot 107.357222
 2795         h1    107    bbb    H11   2795 0.10618100   1.008000   ; qtot 107.463403
 2796         h1    107    bbb    H12   2796 0.10618100   1.008000   ; qtot 107.569584
 2797         hn    107    bbb    H13   2797 0.25916100   1.008000   ; qtot 107.828745
 2798         hn    107    bbb    H25   2798 0.17125500   1.008000   ; qtot 108.000000
; residue  108 bbb rtp bbb q 1.0
 2799         n4    108    bbb     N1   2799 -0.02747900  14.010000   ; qtot 107.972521
 2800         c3    108    bbb     C1   2800 -0.05097600  12.010000   ; qtot 107.921545
 2801         c3    108    bbb     C2   2801 -0.05097600  12.010000   ; qtot 107.870569
 2802         c3    108    bbb     C3   2802 -0.18457900  12.010000   ; qtot 107.685990
 2803          c    108    bbb     C4   2803 0.67254400  12.010000   ; qtot 108.358534
 2804         c3    108    bbb     C5   2804 -0.18457900  12.010000   ; qtot 108.173955
 2805          c    108    bbb     C6   2805 0.67254400  12.010000   ; qtot 108.846499
 2806         c3    108    bbb     C7   2806 -0.02083000  12.010000   ; qtot 108.825669
 2807         c3    108    bbb     C8   2807 -0.03328100  12.010000   ; qtot 108.792388
 2808          n    108    bbb     N2   2808 -0.33303000  14.010000   ; qtot 108.459358
 2809          o    108    bbb     O1   2809 -0.52917200  16.000000   ; qtot 107.930186
 2810          o    108    bbb     O2   2810 -0.52917200  16.000000   ; qtot 107.401014
 2811         hx    108    bbb     H1   2811 0.11563300   1.008000   ; qtot 107.516647
 2812         hx    108    bbb     H2   2812 0.11563300   1.008000   ; qtot 107.632280
 2813         hx    108    bbb     H3   2813 0.11563300   1.008000   ; qtot 107.747913
 2814         hx    108    bbb     H4   2814 0.11563300   1.008000   ; qtot 107.863546
 2815         hc    108    bbb     H5   2815 0.08347900   1.008000   ; qtot 107.947025
 2816         hc    108    bbb     H6   2816 0.08347900   1.008000   ; qtot 108.030504
 2817         hc    108    bbb     H7   2817 0.08347900   1.008000   ; qtot 108.113983
 2818         hc    108    bbb     H8   2818 0.08347900   1.008000   ; qtot 108.197462
 2819         hx    108    bbb     H9   2819 0.07988000   1.008000   ; qtot 108.277342
 2820         hx    108    bbb    H10   2820 0.07988000   1.008000   ; qtot 108.357222
 2821         h1    108    bbb    H11   2821 0.10618100   1.008000   ; qtot 108.463403
 2822         h1    108    bbb    H12   2822 0.10618100   1.008000   ; qtot 108.569584
 2823         hn    108    bbb    H13   2823 0.25916100   1.008000   ; qtot 108.828745
 2824         hn    108    bbb    H25   2824 0.17125500   1.008000   ; qtot 109.000000
; residue  109 bbb rtp bbb q 1.0
 2825         n4    109    bbb     N1   2825 -0.02747900  14.010000   ; qtot 108.972521
 2826         c3    109    bbb     C1   2826 -0.05097600  12.010000   ; qtot 108.921545
 2827         c3    109    bbb     C2   2827 -0.05097600  12.010000   ; qtot 108.870569
 2828         c3    109    bbb     C3   2828 -0.18457900  12.010000   ; qtot 108.685990
 2829          c    109    bbb     C4   2829 0.67254400  12.010000   ; qtot 109.358534
 2830         c3    109    bbb     C5   2830 -0.18457900  12.010000   ; qtot 109.173955
 2831          c    109    bbb     C6   2831 0.67254400  12.010000   ; qtot 109.846499
 2832         c3    109    bbb     C7   2832 -0.02083000  12.010000   ; qtot 109.825669
 2833         c3    109    bbb     C8   2833 -0.03328100  12.010000   ; qtot 109.792388
 2834          n    109    bbb     N2   2834 -0.33303000  14.010000   ; qtot 109.459358
 2835          o    109    bbb     O1   2835 -0.52917200  16.000000   ; qtot 108.930186
 2836          o    109    bbb     O2   2836 -0.52917200  16.000000   ; qtot 108.401014
 2837         hx    109    bbb     H1   2837 0.11563300   1.008000   ; qtot 108.516647
 2838         hx    109    bbb     H2   2838 0.11563300   1.008000   ; qtot 108.632280
 2839         hx    109    bbb     H3   2839 0.11563300   1.008000   ; qtot 108.747913
 2840         hx    109    bbb     H4   2840 0.11563300   1.008000   ; qtot 108.863546
 2841         hc    109    bbb     H5   2841 0.08347900   1.008000   ; qtot 108.947025
 2842         hc    109    bbb     H6   2842 0.08347900   1.008000   ; qtot 109.030504
 2843         hc    109    bbb     H7   2843 0.08347900   1.008000   ; qtot 109.113983
 2844         hc    109    bbb     H8   2844 0.08347900   1.008000   ; qtot 109.197462
 2845         hx    109    bbb     H9   2845 0.07988000   1.008000   ; qtot 109.277342
 2846         hx    109    bbb    H10   2846 0.07988000   1.008000   ; qtot 109.357222
 2847         h1    109    bbb    H11   2847 0.10618100   1.008000   ; qtot 109.463403
 2848         h1    109    bbb    H12   2848 0.10618100   1.008000   ; qtot 109.569584
 2849         hn    109    bbb    H13   2849 0.25916100   1.008000   ; qtot 109.828745
 2850         hn    109    bbb    H25   2850 0.17125500   1.008000   ; qtot 110.000000
; residue  110 bbb rtp bbb q 1.0
 2851         n4    110    bbb     N1   2851 -0.02747900  14.010000   ; qtot 109.972521
 2852         c3    110    bbb     C1   2852 -0.05097600  12.010000   ; qtot 109.921545
 2853         c3    110    bbb     C2   2853 -0.05097600  12.010000   ; qtot 109.870569
 2854         c3    110    bbb     C3   2854 -0.18457900  12.010000   ; qtot 109.685990
 2855          c    110    bbb     C4   2855 0.67254400  12.010000   ; qtot 110.358534
 2856         c3    110    bbb     C5   2856 -0.18457900  12.010000   ; qtot 110.173955
 2857          c    110    bbb     C6   2857 0.67254400  12.010000   ; qtot 110.846499
 2858         c3    110    bbb     C7   2858 -0.02083000  12.010000   ; qtot 110.825669
 2859         c3    110    bbb     C8   2859 -0.03328100  12.010000   ; qtot 110.792388
 2860          n    110    bbb     N2   2860 -0.33303000  14.010000   ; qtot 110.459358
 2861          o    110    bbb     O1   2861 -0.52917200  16.000000   ; qtot 109.930186
 2862          o    110    bbb     O2   2862 -0.52917200  16.000000   ; qtot 109.401014
 2863         hx    110    bbb     H1   2863 0.11563300   1.008000   ; qtot 109.516647
 2864         hx    110    bbb     H2   2864 0.11563300   1.008000   ; qtot 109.632280
 2865         hx    110    bbb     H3   2865 0.11563300   1.008000   ; qtot 109.747913
 2866         hx    110    bbb     H4   2866 0.11563300   1.008000   ; qtot 109.863546
 2867         hc    110    bbb     H5   2867 0.08347900   1.008000   ; qtot 109.947025
 2868         hc    110    bbb     H6   2868 0.08347900   1.008000   ; qtot 110.030504
 2869         hc    110    bbb     H7   2869 0.08347900   1.008000   ; qtot 110.113983
 2870         hc    110    bbb     H8   2870 0.08347900   1.008000   ; qtot 110.197462
 2871         hx    110    bbb     H9   2871 0.07988000   1.008000   ; qtot 110.277342
 2872         hx    110    bbb    H10   2872 0.07988000   1.008000   ; qtot 110.357222
 2873         h1    110    bbb    H11   2873 0.10618100   1.008000   ; qtot 110.463403
 2874         h1    110    bbb    H12   2874 0.10618100   1.008000   ; qtot 110.569584
 2875         hn    110    bbb    H13   2875 0.25916100   1.008000   ; qtot 110.828745
 2876         hn    110    bbb    H25   2876 0.17125500   1.008000   ; qtot 111.000000
; residue  111 bbb rtp bbb q 1.0
 2877         n4    111    bbb     N1   2877 -0.02747900  14.010000   ; qtot 110.972521
 2878         c3    111    bbb     C1   2878 -0.05097600  12.010000   ; qtot 110.921545
 2879         c3    111    bbb     C2   2879 -0.05097600  12.010000   ; qtot 110.870569
 2880         c3    111    bbb     C3   2880 -0.18457900  12.010000   ; qtot 110.685990
 2881          c    111    bbb     C4   2881 0.67254400  12.010000   ; qtot 111.358534
 2882         c3    111    bbb     C5   2882 -0.18457900  12.010000   ; qtot 111.173955
 2883          c    111    bbb     C6   2883 0.67254400  12.010000   ; qtot 111.846499
 2884         c3    111    bbb     C7   2884 -0.02083000  12.010000   ; qtot 111.825669
 2885         c3    111    bbb     C8   2885 -0.03328100  12.010000   ; qtot 111.792388
 2886          n    111    bbb     N2   2886 -0.33303000  14.010000   ; qtot 111.459358
 2887          o    111    bbb     O1   2887 -0.52917200  16.000000   ; qtot 110.930186
 2888          o    111    bbb     O2   2888 -0.52917200  16.000000   ; qtot 110.401014
 2889         hx    111    bbb     H1   2889 0.11563300   1.008000   ; qtot 110.516647
 2890         hx    111    bbb     H2   2890 0.11563300   1.008000   ; qtot 110.632280
 2891         hx    111    bbb     H3   2891 0.11563300   1.008000   ; qtot 110.747913
 2892         hx    111    bbb     H4   2892 0.11563300   1.008000   ; qtot 110.863546
 2893         hc    111    bbb     H5   2893 0.08347900   1.008000   ; qtot 110.947025
 2894         hc    111    bbb     H6   2894 0.08347900   1.008000   ; qtot 111.030504
 2895         hc    111    bbb     H7   2895 0.08347900   1.008000   ; qtot 111.113983
 2896         hc    111    bbb     H8   2896 0.08347900   1.008000   ; qtot 111.197462
 2897         hx    111    bbb     H9   2897 0.07988000   1.008000   ; qtot 111.277342
 2898         hx    111    bbb    H10   2898 0.07988000   1.008000   ; qtot 111.357222
 2899         h1    111    bbb    H11   2899 0.10618100   1.008000   ; qtot 111.463403
 2900         h1    111    bbb    H12   2900 0.10618100   1.008000   ; qtot 111.569584
 2901         hn    111    bbb    H13   2901 0.25916100   1.008000   ; qtot 111.828745
 2902         hn    111    bbb    H25   2902 0.17125500   1.008000   ; qtot 112.000000
; residue  112 bbb rtp bbb q 1.0
 2903         n4    112    bbb     N1   2903 -0.02747900  14.010000   ; qtot 111.972521
 2904         c3    112    bbb     C1   2904 -0.05097600  12.010000   ; qtot 111.921545
 2905         c3    112    bbb     C2   2905 -0.05097600  12.010000   ; qtot 111.870569
 2906         c3    112    bbb     C3   2906 -0.18457900  12.010000   ; qtot 111.685990
 2907          c    112    bbb     C4   2907 0.67254400  12.010000   ; qtot 112.358534
 2908         c3    112    bbb     C5   2908 -0.18457900  12.010000   ; qtot 112.173955
 2909          c    112    bbb     C6   2909 0.67254400  12.010000   ; qtot 112.846499
 2910         c3    112    bbb     C7   2910 -0.02083000  12.010000   ; qtot 112.825669
 2911         c3    112    bbb     C8   2911 -0.03328100  12.010000   ; qtot 112.792388
 2912          n    112    bbb     N2   2912 -0.33303000  14.010000   ; qtot 112.459358
 2913          o    112    bbb     O1   2913 -0.52917200  16.000000   ; qtot 111.930186
 2914          o    112    bbb     O2   2914 -0.52917200  16.000000   ; qtot 111.401014
 2915         hx    112    bbb     H1   2915 0.11563300   1.008000   ; qtot 111.516647
 2916         hx    112    bbb     H2   2916 0.11563300   1.008000   ; qtot 111.632280
 2917         hx    112    bbb     H3   2917 0.11563300   1.008000   ; qtot 111.747913
 2918         hx    112    bbb     H4   2918 0.11563300   1.008000   ; qtot 111.863546
 2919         hc    112    bbb     H5   2919 0.08347900   1.008000   ; qtot 111.947025
 2920         hc    112    bbb     H6   2920 0.08347900   1.008000   ; qtot 112.030504
 2921         hc    112    bbb     H7   2921 0.08347900   1.008000   ; qtot 112.113983
 2922         hc    112    bbb     H8   2922 0.08347900   1.008000   ; qtot 112.197462
 2923         hx    112    bbb     H9   2923 0.07988000   1.008000   ; qtot 112.277342
 2924         hx    112    bbb    H10   2924 0.07988000   1.008000   ; qtot 112.357222
 2925         h1    112    bbb    H11   2925 0.10618100   1.008000   ; qtot 112.463403
 2926         h1    112    bbb    H12   2926 0.10618100   1.008000   ; qtot 112.569584
 2927         hn    112    bbb    H13   2927 0.25916100   1.008000   ; qtot 112.828745
 2928         hn    112    bbb    H25   2928 0.17125500   1.008000   ; qtot 113.000000
; residue  113 bbb rtp bbb q 1.0
 2929         n4    113    bbb     N1   2929 -0.02747900  14.010000   ; qtot 112.972521
 2930         c3    113    bbb     C1   2930 -0.05097600  12.010000   ; qtot 112.921545
 2931         c3    113    bbb     C2   2931 -0.05097600  12.010000   ; qtot 112.870569
 2932         c3    113    bbb     C3   2932 -0.18457900  12.010000   ; qtot 112.685990
 2933          c    113    bbb     C4   2933 0.67254400  12.010000   ; qtot 113.358534
 2934         c3    113    bbb     C5   2934 -0.18457900  12.010000   ; qtot 113.173955
 2935          c    113    bbb     C6   2935 0.67254400  12.010000   ; qtot 113.846499
 2936         c3    113    bbb     C7   2936 -0.02083000  12.010000   ; qtot 113.825669
 2937         c3    113    bbb     C8   2937 -0.03328100  12.010000   ; qtot 113.792388
 2938          n    113    bbb     N2   2938 -0.33303000  14.010000   ; qtot 113.459358
 2939          o    113    bbb     O1   2939 -0.52917200  16.000000   ; qtot 112.930186
 2940          o    113    bbb     O2   2940 -0.52917200  16.000000   ; qtot 112.401014
 2941         hx    113    bbb     H1   2941 0.11563300   1.008000   ; qtot 112.516647
 2942         hx    113    bbb     H2   2942 0.11563300   1.008000   ; qtot 112.632280
 2943         hx    113    bbb     H3   2943 0.11563300   1.008000   ; qtot 112.747913
 2944         hx    113    bbb     H4   2944 0.11563300   1.008000   ; qtot 112.863546
 2945         hc    113    bbb     H5   2945 0.08347900   1.008000   ; qtot 112.947025
 2946         hc    113    bbb     H6   2946 0.08347900   1.008000   ; qtot 113.030504
 2947         hc    113    bbb     H7   2947 0.08347900   1.008000   ; qtot 113.113983
 2948         hc    113    bbb     H8   2948 0.08347900   1.008000   ; qtot 113.197462
 2949         hx    113    bbb     H9   2949 0.07988000   1.008000   ; qtot 113.277342
 2950         hx    113    bbb    H10   2950 0.07988000   1.008000   ; qtot 113.357222
 2951         h1    113    bbb    H11   2951 0.10618100   1.008000   ; qtot 113.463403
 2952         h1    113    bbb    H12   2952 0.10618100   1.008000   ; qtot 113.569584
 2953         hn    113    bbb    H13   2953 0.25916100   1.008000   ; qtot 113.828745
 2954         hn    113    bbb    H25   2954 0.17125500   1.008000   ; qtot 114.000000
; residue  114 bbb rtp bbb q 1.0
 2955         n4    114    bbb     N1   2955 -0.02747900  14.010000   ; qtot 113.972521
 2956         c3    114    bbb     C1   2956 -0.05097600  12.010000   ; qtot 113.921545
 2957         c3    114    bbb     C2   2957 -0.05097600  12.010000   ; qtot 113.870569
 2958         c3    114    bbb     C3   2958 -0.18457900  12.010000   ; qtot 113.685990
 2959          c    114    bbb     C4   2959 0.67254400  12.010000   ; qtot 114.358534
 2960         c3    114    bbb     C5   2960 -0.18457900  12.010000   ; qtot 114.173955
 2961          c    114    bbb     C6   2961 0.67254400  12.010000   ; qtot 114.846499
 2962         c3    114    bbb     C7   2962 -0.02083000  12.010000   ; qtot 114.825669
 2963         c3    114    bbb     C8   2963 -0.03328100  12.010000   ; qtot 114.792388
 2964          n    114    bbb     N2   2964 -0.33303000  14.010000   ; qtot 114.459358
 2965          o    114    bbb     O1   2965 -0.52917200  16.000000   ; qtot 113.930186
 2966          o    114    bbb     O2   2966 -0.52917200  16.000000   ; qtot 113.401014
 2967         hx    114    bbb     H1   2967 0.11563300   1.008000   ; qtot 113.516647
 2968         hx    114    bbb     H2   2968 0.11563300   1.008000   ; qtot 113.632280
 2969         hx    114    bbb     H3   2969 0.11563300   1.008000   ; qtot 113.747913
 2970         hx    114    bbb     H4   2970 0.11563300   1.008000   ; qtot 113.863546
 2971         hc    114    bbb     H5   2971 0.08347900   1.008000   ; qtot 113.947025
 2972         hc    114    bbb     H6   2972 0.08347900   1.008000   ; qtot 114.030504
 2973         hc    114    bbb     H7   2973 0.08347900   1.008000   ; qtot 114.113983
 2974         hc    114    bbb     H8   2974 0.08347900   1.008000   ; qtot 114.197462
 2975         hx    114    bbb     H9   2975 0.07988000   1.008000   ; qtot 114.277342
 2976         hx    114    bbb    H10   2976 0.07988000   1.008000   ; qtot 114.357222
 2977         h1    114    bbb    H11   2977 0.10618100   1.008000   ; qtot 114.463403
 2978         h1    114    bbb    H12   2978 0.10618100   1.008000   ; qtot 114.569584
 2979         hn    114    bbb    H13   2979 0.25916100   1.008000   ; qtot 114.828745
 2980         hn    114    bbb    H25   2980 0.17125500   1.008000   ; qtot 115.000000
; residue  115 bbb rtp bbb q 1.0
 2981         n4    115    bbb     N1   2981 -0.02747900  14.010000   ; qtot 114.972521
 2982         c3    115    bbb     C1   2982 -0.05097600  12.010000   ; qtot 114.921545
 2983         c3    115    bbb     C2   2983 -0.05097600  12.010000   ; qtot 114.870569
 2984         c3    115    bbb     C3   2984 -0.18457900  12.010000   ; qtot 114.685990
 2985          c    115    bbb     C4   2985 0.67254400  12.010000   ; qtot 115.358534
 2986         c3    115    bbb     C5   2986 -0.18457900  12.010000   ; qtot 115.173955
 2987          c    115    bbb     C6   2987 0.67254400  12.010000   ; qtot 115.846499
 2988         c3    115    bbb     C7   2988 -0.02083000  12.010000   ; qtot 115.825669
 2989         c3    115    bbb     C8   2989 -0.03328100  12.010000   ; qtot 115.792388
 2990          n    115    bbb     N2   2990 -0.33303000  14.010000   ; qtot 115.459358
 2991          o    115    bbb     O1   2991 -0.52917200  16.000000   ; qtot 114.930186
 2992          o    115    bbb     O2   2992 -0.52917200  16.000000   ; qtot 114.401014
 2993         hx    115    bbb     H1   2993 0.11563300   1.008000   ; qtot 114.516647
 2994         hx    115    bbb     H2   2994 0.11563300   1.008000   ; qtot 114.632280
 2995         hx    115    bbb     H3   2995 0.11563300   1.008000   ; qtot 114.747913
 2996         hx    115    bbb     H4   2996 0.11563300   1.008000   ; qtot 114.863546
 2997         hc    115    bbb     H5   2997 0.08347900   1.008000   ; qtot 114.947025
 2998         hc    115    bbb     H6   2998 0.08347900   1.008000   ; qtot 115.030504
 2999         hc    115    bbb     H7   2999 0.08347900   1.008000   ; qtot 115.113983
 3000         hc    115    bbb     H8   3000 0.08347900   1.008000   ; qtot 115.197462
 3001         hx    115    bbb     H9   3001 0.07988000   1.008000   ; qtot 115.277342
 3002         hx    115    bbb    H10   3002 0.07988000   1.008000   ; qtot 115.357222
 3003         h1    115    bbb    H11   3003 0.10618100   1.008000   ; qtot 115.463403
 3004         h1    115    bbb    H12   3004 0.10618100   1.008000   ; qtot 115.569584
 3005         hn    115    bbb    H13   3005 0.25916100   1.008000   ; qtot 115.828745
 3006         hn    115    bbb    H25   3006 0.17125500   1.008000   ; qtot 116.000000
; residue  116 bbb rtp bbb q 1.0
 3007         n4    116    bbb     N1   3007 -0.02747900  14.010000   ; qtot 115.972521
 3008         c3    116    bbb     C1   3008 -0.05097600  12.010000   ; qtot 115.921545
 3009         c3    116    bbb     C2   3009 -0.05097600  12.010000   ; qtot 115.870569
 3010         c3    116    bbb     C3   3010 -0.18457900  12.010000   ; qtot 115.685990
 3011          c    116    bbb     C4   3011 0.67254400  12.010000   ; qtot 116.358534
 3012         c3    116    bbb     C5   3012 -0.18457900  12.010000   ; qtot 116.173955
 3013          c    116    bbb     C6   3013 0.67254400  12.010000   ; qtot 116.846499
 3014         c3    116    bbb     C7   3014 -0.02083000  12.010000   ; qtot 116.825669
 3015         c3    116    bbb     C8   3015 -0.03328100  12.010000   ; qtot 116.792388
 3016          n    116    bbb     N2   3016 -0.33303000  14.010000   ; qtot 116.459358
 3017          o    116    bbb     O1   3017 -0.52917200  16.000000   ; qtot 115.930186
 3018          o    116    bbb     O2   3018 -0.52917200  16.000000   ; qtot 115.401014
 3019         hx    116    bbb     H1   3019 0.11563300   1.008000   ; qtot 115.516647
 3020         hx    116    bbb     H2   3020 0.11563300   1.008000   ; qtot 115.632280
 3021         hx    116    bbb     H3   3021 0.11563300   1.008000   ; qtot 115.747913
 3022         hx    116    bbb     H4   3022 0.11563300   1.008000   ; qtot 115.863546
 3023         hc    116    bbb     H5   3023 0.08347900   1.008000   ; qtot 115.947025
 3024         hc    116    bbb     H6   3024 0.08347900   1.008000   ; qtot 116.030504
 3025         hc    116    bbb     H7   3025 0.08347900   1.008000   ; qtot 116.113983
 3026         hc    116    bbb     H8   3026 0.08347900   1.008000   ; qtot 116.197462
 3027         hx    116    bbb     H9   3027 0.07988000   1.008000   ; qtot 116.277342
 3028         hx    116    bbb    H10   3028 0.07988000   1.008000   ; qtot 116.357222
 3029         h1    116    bbb    H11   3029 0.10618100   1.008000   ; qtot 116.463403
 3030         h1    116    bbb    H12   3030 0.10618100   1.008000   ; qtot 116.569584
 3031         hn    116    bbb    H13   3031 0.25916100   1.008000   ; qtot 116.828745
 3032         hn    116    bbb    H25   3032 0.17125500   1.008000   ; qtot 117.000000
; residue  117 bbb rtp bbb q 1.0
 3033         n4    117    bbb     N1   3033 -0.02747900  14.010000   ; qtot 116.972521
 3034         c3    117    bbb     C1   3034 -0.05097600  12.010000   ; qtot 116.921545
 3035         c3    117    bbb     C2   3035 -0.05097600  12.010000   ; qtot 116.870569
 3036         c3    117    bbb     C3   3036 -0.18457900  12.010000   ; qtot 116.685990
 3037          c    117    bbb     C4   3037 0.67254400  12.010000   ; qtot 117.358534
 3038         c3    117    bbb     C5   3038 -0.18457900  12.010000   ; qtot 117.173955
 3039          c    117    bbb     C6   3039 0.67254400  12.010000   ; qtot 117.846499
 3040         c3    117    bbb     C7   3040 -0.02083000  12.010000   ; qtot 117.825669
 3041         c3    117    bbb     C8   3041 -0.03328100  12.010000   ; qtot 117.792388
 3042          n    117    bbb     N2   3042 -0.33303000  14.010000   ; qtot 117.459358
 3043          o    117    bbb     O1   3043 -0.52917200  16.000000   ; qtot 116.930186
 3044          o    117    bbb     O2   3044 -0.52917200  16.000000   ; qtot 116.401014
 3045         hx    117    bbb     H1   3045 0.11563300   1.008000   ; qtot 116.516647
 3046         hx    117    bbb     H2   3046 0.11563300   1.008000   ; qtot 116.632280
 3047         hx    117    bbb     H3   3047 0.11563300   1.008000   ; qtot 116.747913
 3048         hx    117    bbb     H4   3048 0.11563300   1.008000   ; qtot 116.863546
 3049         hc    117    bbb     H5   3049 0.08347900   1.008000   ; qtot 116.947025
 3050         hc    117    bbb     H6   3050 0.08347900   1.008000   ; qtot 117.030504
 3051         hc    117    bbb     H7   3051 0.08347900   1.008000   ; qtot 117.113983
 3052         hc    117    bbb     H8   3052 0.08347900   1.008000   ; qtot 117.197462
 3053         hx    117    bbb     H9   3053 0.07988000   1.008000   ; qtot 117.277342
 3054         hx    117    bbb    H10   3054 0.07988000   1.008000   ; qtot 117.357222
 3055         h1    117    bbb    H11   3055 0.10618100   1.008000   ; qtot 117.463403
 3056         h1    117    bbb    H12   3056 0.10618100   1.008000   ; qtot 117.569584
 3057         hn    117    bbb    H13   3057 0.25916100   1.008000   ; qtot 117.828745
 3058         hn    117    bbb    H25   3058 0.17125500   1.008000   ; qtot 118.000000
; residue  118 bbb rtp bbb q 1.0
 3059         n4    118    bbb     N1   3059 -0.02747900  14.010000   ; qtot 117.972521
 3060         c3    118    bbb     C1   3060 -0.05097600  12.010000   ; qtot 117.921545
 3061         c3    118    bbb     C2   3061 -0.05097600  12.010000   ; qtot 117.870569
 3062         c3    118    bbb     C3   3062 -0.18457900  12.010000   ; qtot 117.685990
 3063          c    118    bbb     C4   3063 0.67254400  12.010000   ; qtot 118.358534
 3064         c3    118    bbb     C5   3064 -0.18457900  12.010000   ; qtot 118.173955
 3065          c    118    bbb     C6   3065 0.67254400  12.010000   ; qtot 118.846499
 3066         c3    118    bbb     C7   3066 -0.02083000  12.010000   ; qtot 118.825669
 3067         c3    118    bbb     C8   3067 -0.03328100  12.010000   ; qtot 118.792388
 3068          n    118    bbb     N2   3068 -0.33303000  14.010000   ; qtot 118.459358
 3069          o    118    bbb     O1   3069 -0.52917200  16.000000   ; qtot 117.930186
 3070          o    118    bbb     O2   3070 -0.52917200  16.000000   ; qtot 117.401014
 3071         hx    118    bbb     H1   3071 0.11563300   1.008000   ; qtot 117.516647
 3072         hx    118    bbb     H2   3072 0.11563300   1.008000   ; qtot 117.632280
 3073         hx    118    bbb     H3   3073 0.11563300   1.008000   ; qtot 117.747913
 3074         hx    118    bbb     H4   3074 0.11563300   1.008000   ; qtot 117.863546
 3075         hc    118    bbb     H5   3075 0.08347900   1.008000   ; qtot 117.947025
 3076         hc    118    bbb     H6   3076 0.08347900   1.008000   ; qtot 118.030504
 3077         hc    118    bbb     H7   3077 0.08347900   1.008000   ; qtot 118.113983
 3078         hc    118    bbb     H8   3078 0.08347900   1.008000   ; qtot 118.197462
 3079         hx    118    bbb     H9   3079 0.07988000   1.008000   ; qtot 118.277342
 3080         hx    118    bbb    H10   3080 0.07988000   1.008000   ; qtot 118.357222
 3081         h1    118    bbb    H11   3081 0.10618100   1.008000   ; qtot 118.463403
 3082         h1    118    bbb    H12   3082 0.10618100   1.008000   ; qtot 118.569584
 3083         hn    118    bbb    H13   3083 0.25916100   1.008000   ; qtot 118.828745
 3084         hn    118    bbb    H25   3084 0.17125500   1.008000   ; qtot 119.000000
; residue  119 bbb rtp bbb q 1.0
 3085         n4    119    bbb     N1   3085 -0.02747900  14.010000   ; qtot 118.972521
 3086         c3    119    bbb     C1   3086 -0.05097600  12.010000   ; qtot 118.921545
 3087         c3    119    bbb     C2   3087 -0.05097600  12.010000   ; qtot 118.870569
 3088         c3    119    bbb     C3   3088 -0.18457900  12.010000   ; qtot 118.685990
 3089          c    119    bbb     C4   3089 0.67254400  12.010000   ; qtot 119.358534
 3090         c3    119    bbb     C5   3090 -0.18457900  12.010000   ; qtot 119.173955
 3091          c    119    bbb     C6   3091 0.67254400  12.010000   ; qtot 119.846499
 3092         c3    119    bbb     C7   3092 -0.02083000  12.010000   ; qtot 119.825669
 3093         c3    119    bbb     C8   3093 -0.03328100  12.010000   ; qtot 119.792388
 3094          n    119    bbb     N2   3094 -0.33303000  14.010000   ; qtot 119.459358
 3095          o    119    bbb     O1   3095 -0.52917200  16.000000   ; qtot 118.930186
 3096          o    119    bbb     O2   3096 -0.52917200  16.000000   ; qtot 118.401014
 3097         hx    119    bbb     H1   3097 0.11563300   1.008000   ; qtot 118.516647
 3098         hx    119    bbb     H2   3098 0.11563300   1.008000   ; qtot 118.632280
 3099         hx    119    bbb     H3   3099 0.11563300   1.008000   ; qtot 118.747913
 3100         hx    119    bbb     H4   3100 0.11563300   1.008000   ; qtot 118.863546
 3101         hc    119    bbb     H5   3101 0.08347900   1.008000   ; qtot 118.947025
 3102         hc    119    bbb     H6   3102 0.08347900   1.008000   ; qtot 119.030504
 3103         hc    119    bbb     H7   3103 0.08347900   1.008000   ; qtot 119.113983
 3104         hc    119    bbb     H8   3104 0.08347900   1.008000   ; qtot 119.197462
 3105         hx    119    bbb     H9   3105 0.07988000   1.008000   ; qtot 119.277342
 3106         hx    119    bbb    H10   3106 0.07988000   1.008000   ; qtot 119.357222
 3107         h1    119    bbb    H11   3107 0.10618100   1.008000   ; qtot 119.463403
 3108         h1    119    bbb    H12   3108 0.10618100   1.008000   ; qtot 119.569584
 3109         hn    119    bbb    H13   3109 0.25916100   1.008000   ; qtot 119.828745
 3110         hn    119    bbb    H25   3110 0.17125500   1.008000   ; qtot 120.000000
; residue  120 bbb rtp bbb q 1.0
 3111         n4    120    bbb     N1   3111 -0.02747900  14.010000   ; qtot 119.972521
 3112         c3    120    bbb     C1   3112 -0.05097600  12.010000   ; qtot 119.921545
 3113         c3    120    bbb     C2   3113 -0.05097600  12.010000   ; qtot 119.870569
 3114         c3    120    bbb     C3   3114 -0.18457900  12.010000   ; qtot 119.685990
 3115          c    120    bbb     C4   3115 0.67254400  12.010000   ; qtot 120.358534
 3116         c3    120    bbb     C5   3116 -0.18457900  12.010000   ; qtot 120.173955
 3117          c    120    bbb     C6   3117 0.67254400  12.010000   ; qtot 120.846499
 3118         c3    120    bbb     C7   3118 -0.02083000  12.010000   ; qtot 120.825669
 3119         c3    120    bbb     C8   3119 -0.03328100  12.010000   ; qtot 120.792388
 3120          n    120    bbb     N2   3120 -0.33303000  14.010000   ; qtot 120.459358
 3121          o    120    bbb     O1   3121 -0.52917200  16.000000   ; qtot 119.930186
 3122          o    120    bbb     O2   3122 -0.52917200  16.000000   ; qtot 119.401014
 3123         hx    120    bbb     H1   3123 0.11563300   1.008000   ; qtot 119.516647
 3124         hx    120    bbb     H2   3124 0.11563300   1.008000   ; qtot 119.632280
 3125         hx    120    bbb     H3   3125 0.11563300   1.008000   ; qtot 119.747913
 3126         hx    120    bbb     H4   3126 0.11563300   1.008000   ; qtot 119.863546
 3127         hc    120    bbb     H5   3127 0.08347900   1.008000   ; qtot 119.947025
 3128         hc    120    bbb     H6   3128 0.08347900   1.008000   ; qtot 120.030504
 3129         hc    120    bbb     H7   3129 0.08347900   1.008000   ; qtot 120.113983
 3130         hc    120    bbb     H8   3130 0.08347900   1.008000   ; qtot 120.197462
 3131         hx    120    bbb     H9   3131 0.07988000   1.008000   ; qtot 120.277342
 3132         hx    120    bbb    H10   3132 0.07988000   1.008000   ; qtot 120.357222
 3133         h1    120    bbb    H11   3133 0.10618100   1.008000   ; qtot 120.463403
 3134         h1    120    bbb    H12   3134 0.10618100   1.008000   ; qtot 120.569584
 3135         hn    120    bbb    H13   3135 0.25916100   1.008000   ; qtot 120.828745
 3136         hn    120    bbb    H25   3136 0.17125500   1.008000   ; qtot 121.000000
; residue  121 bbb rtp bbb q 1.0
 3137         n4    121    bbb     N1   3137 -0.02747900  14.010000   ; qtot 120.972521
 3138         c3    121    bbb     C1   3138 -0.05097600  12.010000   ; qtot 120.921545
 3139         c3    121    bbb     C2   3139 -0.05097600  12.010000   ; qtot 120.870569
 3140         c3    121    bbb     C3   3140 -0.18457900  12.010000   ; qtot 120.685990
 3141          c    121    bbb     C4   3141 0.67254400  12.010000   ; qtot 121.358534
 3142         c3    121    bbb     C5   3142 -0.18457900  12.010000   ; qtot 121.173955
 3143          c    121    bbb     C6   3143 0.67254400  12.010000   ; qtot 121.846499
 3144         c3    121    bbb     C7   3144 -0.02083000  12.010000   ; qtot 121.825669
 3145         c3    121    bbb     C8   3145 -0.03328100  12.010000   ; qtot 121.792388
 3146          n    121    bbb     N2   3146 -0.33303000  14.010000   ; qtot 121.459358
 3147          o    121    bbb     O1   3147 -0.52917200  16.000000   ; qtot 120.930186
 3148          o    121    bbb     O2   3148 -0.52917200  16.000000   ; qtot 120.401014
 3149         hx    121    bbb     H1   3149 0.11563300   1.008000   ; qtot 120.516647
 3150         hx    121    bbb     H2   3150 0.11563300   1.008000   ; qtot 120.632280
 3151         hx    121    bbb     H3   3151 0.11563300   1.008000   ; qtot 120.747913
 3152         hx    121    bbb     H4   3152 0.11563300   1.008000   ; qtot 120.863546
 3153         hc    121    bbb     H5   3153 0.08347900   1.008000   ; qtot 120.947025
 3154         hc    121    bbb     H6   3154 0.08347900   1.008000   ; qtot 121.030504
 3155         hc    121    bbb     H7   3155 0.08347900   1.008000   ; qtot 121.113983
 3156         hc    121    bbb     H8   3156 0.08347900   1.008000   ; qtot 121.197462
 3157         hx    121    bbb     H9   3157 0.07988000   1.008000   ; qtot 121.277342
 3158         hx    121    bbb    H10   3158 0.07988000   1.008000   ; qtot 121.357222
 3159         h1    121    bbb    H11   3159 0.10618100   1.008000   ; qtot 121.463403
 3160         h1    121    bbb    H12   3160 0.10618100   1.008000   ; qtot 121.569584
 3161         hn    121    bbb    H13   3161 0.25916100   1.008000   ; qtot 121.828745
 3162         hn    121    bbb    H25   3162 0.17125500   1.008000   ; qtot 122.000000
; residue  122 bbb rtp bbb q 1.0
 3163         n4    122    bbb     N1   3163 -0.02747900  14.010000   ; qtot 121.972521
 3164         c3    122    bbb     C1   3164 -0.05097600  12.010000   ; qtot 121.921545
 3165         c3    122    bbb     C2   3165 -0.05097600  12.010000   ; qtot 121.870569
 3166         c3    122    bbb     C3   3166 -0.18457900  12.010000   ; qtot 121.685990
 3167          c    122    bbb     C4   3167 0.67254400  12.010000   ; qtot 122.358534
 3168         c3    122    bbb     C5   3168 -0.18457900  12.010000   ; qtot 122.173955
 3169          c    122    bbb     C6   3169 0.67254400  12.010000   ; qtot 122.846499
 3170         c3    122    bbb     C7   3170 -0.02083000  12.010000   ; qtot 122.825669
 3171         c3    122    bbb     C8   3171 -0.03328100  12.010000   ; qtot 122.792388
 3172          n    122    bbb     N2   3172 -0.33303000  14.010000   ; qtot 122.459358
 3173          o    122    bbb     O1   3173 -0.52917200  16.000000   ; qtot 121.930186
 3174          o    122    bbb     O2   3174 -0.52917200  16.000000   ; qtot 121.401014
 3175         hx    122    bbb     H1   3175 0.11563300   1.008000   ; qtot 121.516647
 3176         hx    122    bbb     H2   3176 0.11563300   1.008000   ; qtot 121.632280
 3177         hx    122    bbb     H3   3177 0.11563300   1.008000   ; qtot 121.747913
 3178         hx    122    bbb     H4   3178 0.11563300   1.008000   ; qtot 121.863546
 3179         hc    122    bbb     H5   3179 0.08347900   1.008000   ; qtot 121.947025
 3180         hc    122    bbb     H6   3180 0.08347900   1.008000   ; qtot 122.030504
 3181         hc    122    bbb     H7   3181 0.08347900   1.008000   ; qtot 122.113983
 3182         hc    122    bbb     H8   3182 0.08347900   1.008000   ; qtot 122.197462
 3183         hx    122    bbb     H9   3183 0.07988000   1.008000   ; qtot 122.277342
 3184         hx    122    bbb    H10   3184 0.07988000   1.008000   ; qtot 122.357222
 3185         h1    122    bbb    H11   3185 0.10618100   1.008000   ; qtot 122.463403
 3186         h1    122    bbb    H12   3186 0.10618100   1.008000   ; qtot 122.569584
 3187         hn    122    bbb    H13   3187 0.25916100   1.008000   ; qtot 122.828745
 3188         hn    122    bbb    H25   3188 0.17125500   1.008000   ; qtot 123.000000
; residue  123 bbb rtp bbb q 1.0
 3189         n4    123    bbb     N1   3189 -0.02747900  14.010000   ; qtot 122.972521
 3190         c3    123    bbb     C1   3190 -0.05097600  12.010000   ; qtot 122.921545
 3191         c3    123    bbb     C2   3191 -0.05097600  12.010000   ; qtot 122.870569
 3192         c3    123    bbb     C3   3192 -0.18457900  12.010000   ; qtot 122.685990
 3193          c    123    bbb     C4   3193 0.67254400  12.010000   ; qtot 123.358534
 3194         c3    123    bbb     C5   3194 -0.18457900  12.010000   ; qtot 123.173955
 3195          c    123    bbb     C6   3195 0.67254400  12.010000   ; qtot 123.846499
 3196         c3    123    bbb     C7   3196 -0.02083000  12.010000   ; qtot 123.825669
 3197         c3    123    bbb     C8   3197 -0.03328100  12.010000   ; qtot 123.792388
 3198          n    123    bbb     N2   3198 -0.33303000  14.010000   ; qtot 123.459358
 3199          o    123    bbb     O1   3199 -0.52917200  16.000000   ; qtot 122.930186
 3200          o    123    bbb     O2   3200 -0.52917200  16.000000   ; qtot 122.401014
 3201         hx    123    bbb     H1   3201 0.11563300   1.008000   ; qtot 122.516647
 3202         hx    123    bbb     H2   3202 0.11563300   1.008000   ; qtot 122.632280
 3203         hx    123    bbb     H3   3203 0.11563300   1.008000   ; qtot 122.747913
 3204         hx    123    bbb     H4   3204 0.11563300   1.008000   ; qtot 122.863546
 3205         hc    123    bbb     H5   3205 0.08347900   1.008000   ; qtot 122.947025
 3206         hc    123    bbb     H6   3206 0.08347900   1.008000   ; qtot 123.030504
 3207         hc    123    bbb     H7   3207 0.08347900   1.008000   ; qtot 123.113983
 3208         hc    123    bbb     H8   3208 0.08347900   1.008000   ; qtot 123.197462
 3209         hx    123    bbb     H9   3209 0.07988000   1.008000   ; qtot 123.277342
 3210         hx    123    bbb    H10   3210 0.07988000   1.008000   ; qtot 123.357222
 3211         h1    123    bbb    H11   3211 0.10618100   1.008000   ; qtot 123.463403
 3212         h1    123    bbb    H12   3212 0.10618100   1.008000   ; qtot 123.569584
 3213         hn    123    bbb    H13   3213 0.25916100   1.008000   ; qtot 123.828745
 3214         hn    123    bbb    H25   3214 0.17125500   1.008000   ; qtot 124.000000
; residue  124 bbb rtp bbb q 1.0
 3215         n4    124    bbb     N1   3215 -0.02747900  14.010000   ; qtot 123.972521
 3216         c3    124    bbb     C1   3216 -0.05097600  12.010000   ; qtot 123.921545
 3217         c3    124    bbb     C2   3217 -0.05097600  12.010000   ; qtot 123.870569
 3218         c3    124    bbb     C3   3218 -0.18457900  12.010000   ; qtot 123.685990
 3219          c    124    bbb     C4   3219 0.67254400  12.010000   ; qtot 124.358534
 3220         c3    124    bbb     C5   3220 -0.18457900  12.010000   ; qtot 124.173955
 3221          c    124    bbb     C6   3221 0.67254400  12.010000   ; qtot 124.846499
 3222         c3    124    bbb     C7   3222 -0.02083000  12.010000   ; qtot 124.825669
 3223         c3    124    bbb     C8   3223 -0.03328100  12.010000   ; qtot 124.792388
 3224          n    124    bbb     N2   3224 -0.33303000  14.010000   ; qtot 124.459358
 3225          o    124    bbb     O1   3225 -0.52917200  16.000000   ; qtot 123.930186
 3226          o    124    bbb     O2   3226 -0.52917200  16.000000   ; qtot 123.401014
 3227         hx    124    bbb     H1   3227 0.11563300   1.008000   ; qtot 123.516647
 3228         hx    124    bbb     H2   3228 0.11563300   1.008000   ; qtot 123.632280
 3229         hx    124    bbb     H3   3229 0.11563300   1.008000   ; qtot 123.747913
 3230         hx    124    bbb     H4   3230 0.11563300   1.008000   ; qtot 123.863546
 3231         hc    124    bbb     H5   3231 0.08347900   1.008000   ; qtot 123.947025
 3232         hc    124    bbb     H6   3232 0.08347900   1.008000   ; qtot 124.030504
 3233         hc    124    bbb     H7   3233 0.08347900   1.008000   ; qtot 124.113983
 3234         hc    124    bbb     H8   3234 0.08347900   1.008000   ; qtot 124.197462
 3235         hx    124    bbb     H9   3235 0.07988000   1.008000   ; qtot 124.277342
 3236         hx    124    bbb    H10   3236 0.07988000   1.008000   ; qtot 124.357222
 3237         h1    124    bbb    H11   3237 0.10618100   1.008000   ; qtot 124.463403
 3238         h1    124    bbb    H12   3238 0.10618100   1.008000   ; qtot 124.569584
 3239         hn    124    bbb    H13   3239 0.25916100   1.008000   ; qtot 124.828745
 3240         hn    124    bbb    H25   3240 0.17125500   1.008000   ; qtot 125.000000
; residue  125 bbb rtp bbb q 1.0
 3241         n4    125    bbb     N1   3241 -0.02747900  14.010000   ; qtot 124.972521
 3242         c3    125    bbb     C1   3242 -0.05097600  12.010000   ; qtot 124.921545
 3243         c3    125    bbb     C2   3243 -0.05097600  12.010000   ; qtot 124.870569
 3244         c3    125    bbb     C3   3244 -0.18457900  12.010000   ; qtot 124.685990
 3245          c    125    bbb     C4   3245 0.67254400  12.010000   ; qtot 125.358534
 3246         c3    125    bbb     C5   3246 -0.18457900  12.010000   ; qtot 125.173955
 3247          c    125    bbb     C6   3247 0.67254400  12.010000   ; qtot 125.846499
 3248         c3    125    bbb     C7   3248 -0.02083000  12.010000   ; qtot 125.825669
 3249         c3    125    bbb     C8   3249 -0.03328100  12.010000   ; qtot 125.792388
 3250          n    125    bbb     N2   3250 -0.33303000  14.010000   ; qtot 125.459358
 3251          o    125    bbb     O1   3251 -0.52917200  16.000000   ; qtot 124.930186
 3252          o    125    bbb     O2   3252 -0.52917200  16.000000   ; qtot 124.401014
 3253         hx    125    bbb     H1   3253 0.11563300   1.008000   ; qtot 124.516647
 3254         hx    125    bbb     H2   3254 0.11563300   1.008000   ; qtot 124.632280
 3255         hx    125    bbb     H3   3255 0.11563300   1.008000   ; qtot 124.747913
 3256         hx    125    bbb     H4   3256 0.11563300   1.008000   ; qtot 124.863546
 3257         hc    125    bbb     H5   3257 0.08347900   1.008000   ; qtot 124.947025
 3258         hc    125    bbb     H6   3258 0.08347900   1.008000   ; qtot 125.030504
 3259         hc    125    bbb     H7   3259 0.08347900   1.008000   ; qtot 125.113983
 3260         hc    125    bbb     H8   3260 0.08347900   1.008000   ; qtot 125.197462
 3261         hx    125    bbb     H9   3261 0.07988000   1.008000   ; qtot 125.277342
 3262         hx    125    bbb    H10   3262 0.07988000   1.008000   ; qtot 125.357222
 3263         h1    125    bbb    H11   3263 0.10618100   1.008000   ; qtot 125.463403
 3264         h1    125    bbb    H12   3264 0.10618100   1.008000   ; qtot 125.569584
 3265         hn    125    bbb    H13   3265 0.25916100   1.008000   ; qtot 125.828745
 3266         hn    125    bbb    H25   3266 0.17125500   1.008000   ; qtot 126.000000
; residue  126 ccc rtp ccc q 1.0
 3267          n    126    ccc     N1   3267 -0.56206700  14.010000   ; qtot 125.437933
 3268         hn    126    ccc     H1   3268 0.35233300   1.008000   ; qtot 125.790266
 3269         c3    126    ccc     C1   3269 0.10283300  12.010000   ; qtot 125.893099
 3270         h1    126    ccc     H2   3270 0.07153300   1.008000   ; qtot 125.964632
 3271         c3    126    ccc     C2   3271 0.07063300  12.010000   ; qtot 126.035265
 3272         h1    126    ccc     H3   3272 0.07153300   1.008000   ; qtot 126.106798
 3273         hx    126    ccc     H4   3273 0.11303300   1.008000   ; qtot 126.219831
 3274         hx    126    ccc     H5   3274 0.11303300   1.008000   ; qtot 126.332864
 3275         n4    126    ccc     N2   3275 -0.67056700  14.010000   ; qtot 125.662297
 3276         c3    126    ccc     C3   3276 0.10863300  12.010000   ; qtot 125.770930
 3277         c3    126    ccc     C4   3277 0.10863300  12.010000   ; qtot 125.879563
 3278         hx    126    ccc     H6   3278 0.12753300   1.008000   ; qtot 126.007096
 3279         c3    126    ccc     C5   3279 -0.20606700  12.010000   ; qtot 125.801029
 3280         hx    126    ccc     H7   3280 0.12753300   1.008000   ; qtot 125.928562
 3281         hc    126    ccc     H8   3281 0.10603300   1.008000   ; qtot 126.034595
 3282         hc    126    ccc     H9   3282 0.10603300   1.008000   ; qtot 126.140628
 3283          c    126    ccc     C6   3283 0.63793300  12.010000   ; qtot 126.778561
 3284         oh    126    ccc     O1   3284 -0.53626700  16.000000   ; qtot 126.242294
 3285          o    126    ccc     O2   3285 -0.48266700  16.000000   ; qtot 125.759627
 3286         hx    126    ccc    H10   3286 0.12753300   1.008000   ; qtot 125.887160
 3287         hx    126    ccc    H11   3287 0.12753300   1.008000   ; qtot 126.014693
 3288         c3    126    ccc     C7   3288 -0.20606700  12.010000   ; qtot 125.808626
 3289         hc    126    ccc    H12   3289 0.10603300   1.008000   ; qtot 125.914659
 3290         hc    126    ccc    H13   3290 0.10603300   1.008000   ; qtot 126.020692
 3291          c    126    ccc     C8   3291 0.63793300  12.010000   ; qtot 126.658625
 3292          o    126    ccc     O3   3292 -0.48266700  16.000000   ; qtot 126.175958
 3293         oh    126    ccc     O4   3293 -0.53626700  16.000000   ; qtot 125.639691
 3294         ho    126    ccc    H14   3294 0.45283300   1.008000   ; qtot 126.092524
 3295         ho    126    ccc    H15   3295 0.45283300   1.008000   ; qtot 126.545357
 3296         hn    126    ccc    H16   3296 0.45463300   1.008000   ; qtot 126.999990
; residue  127 ccc rtp ccc q 1.0
 3297          n    127    ccc     N1   3297 -0.56206700  14.010000   ; qtot 126.437923
 3298         hn    127    ccc     H1   3298 0.35233300   1.008000   ; qtot 126.790256
 3299         c3    127    ccc     C1   3299 0.10283300  12.010000   ; qtot 126.893089
 3300         h1    127    ccc     H2   3300 0.07153300   1.008000   ; qtot 126.964622
 3301         c3    127    ccc     C2   3301 0.07063300  12.010000   ; qtot 127.035255
 3302         h1    127    ccc     H3   3302 0.07153300   1.008000   ; qtot 127.106788
 3303         hx    127    ccc     H4   3303 0.11303300   1.008000   ; qtot 127.219821
 3304         hx    127    ccc     H5   3304 0.11303300   1.008000   ; qtot 127.332854
 3305         n4    127    ccc     N2   3305 -0.67056700  14.010000   ; qtot 126.662287
 3306         c3    127    ccc     C3   3306 0.10863300  12.010000   ; qtot 126.770920
 3307         c3    127    ccc     C4   3307 0.10863300  12.010000   ; qtot 126.879553
 3308         hx    127    ccc     H6   3308 0.12753300   1.008000   ; qtot 127.007086
 3309         c3    127    ccc     C5   3309 -0.20606700  12.010000   ; qtot 126.801019
 3310         hx    127    ccc     H7   3310 0.12753300   1.008000   ; qtot 126.928552
 3311         hc    127    ccc     H8   3311 0.10603300   1.008000   ; qtot 127.034585
 3312         hc    127    ccc     H9   3312 0.10603300   1.008000   ; qtot 127.140618
 3313          c    127    ccc     C6   3313 0.63793300  12.010000   ; qtot 127.778551
 3314         oh    127    ccc     O1   3314 -0.53626700  16.000000   ; qtot 127.242284
 3315          o    127    ccc     O2   3315 -0.48266700  16.000000   ; qtot 126.759617
 3316         hx    127    ccc    H10   3316 0.12753300   1.008000   ; qtot 126.887150
 3317         hx    127    ccc    H11   3317 0.12753300   1.008000   ; qtot 127.014683
 3318         c3    127    ccc     C7   3318 -0.20606700  12.010000   ; qtot 126.808616
 3319         hc    127    ccc    H12   3319 0.10603300   1.008000   ; qtot 126.914649
 3320         hc    127    ccc    H13   3320 0.10603300   1.008000   ; qtot 127.020682
 3321          c    127    ccc     C8   3321 0.63793300  12.010000   ; qtot 127.658615
 3322          o    127    ccc     O3   3322 -0.48266700  16.000000   ; qtot 127.175948
 3323         oh    127    ccc     O4   3323 -0.53626700  16.000000   ; qtot 126.639681
 3324         ho    127    ccc    H14   3324 0.45283300   1.008000   ; qtot 127.092514
 3325         ho    127    ccc    H15   3325 0.45283300   1.008000   ; qtot 127.545347
 3326         hn    127    ccc    H16   3326 0.45463300   1.008000   ; qtot 127.999980
; residue  128 ccc rtp ccc q 1.0
 3327          n    128    ccc     N1   3327 -0.56206700  14.010000   ; qtot 127.437913
 3328         hn    128    ccc     H1   3328 0.35233300   1.008000   ; qtot 127.790246
 3329         c3    128    ccc     C1   3329 0.10283300  12.010000   ; qtot 127.893079
 3330         h1    128    ccc     H2   3330 0.07153300   1.008000   ; qtot 127.964612
 3331         c3    128    ccc     C2   3331 0.07063300  12.010000   ; qtot 128.035245
 3332         h1    128    ccc     H3   3332 0.07153300   1.008000   ; qtot 128.106778
 3333         hx    128    ccc     H4   3333 0.11303300   1.008000   ; qtot 128.219811
 3334         hx    128    ccc     H5   3334 0.11303300   1.008000   ; qtot 128.332844
 3335         n4    128    ccc     N2   3335 -0.67056700  14.010000   ; qtot 127.662277
 3336         c3    128    ccc     C3   3336 0.10863300  12.010000   ; qtot 127.770910
 3337         c3    128    ccc     C4   3337 0.10863300  12.010000   ; qtot 127.879543
 3338         hx    128    ccc     H6   3338 0.12753300   1.008000   ; qtot 128.007076
 3339         c3    128    ccc     C5   3339 -0.20606700  12.010000   ; qtot 127.801009
 3340         hx    128    ccc     H7   3340 0.12753300   1.008000   ; qtot 127.928542
 3341         hc    128    ccc     H8   3341 0.10603300   1.008000   ; qtot 128.034575
 3342         hc    128    ccc     H9   3342 0.10603300   1.008000   ; qtot 128.140608
 3343          c    128    ccc     C6   3343 0.63793300  12.010000   ; qtot 128.778541
 3344         oh    128    ccc     O1   3344 -0.53626700  16.000000   ; qtot 128.242274
 3345          o    128    ccc     O2   3345 -0.48266700  16.000000   ; qtot 127.759607
 3346         hx    128    ccc    H10   3346 0.12753300   1.008000   ; qtot 127.887140
 3347         hx    128    ccc    H11   3347 0.12753300   1.008000   ; qtot 128.014673
 3348         c3    128    ccc     C7   3348 -0.20606700  12.010000   ; qtot 127.808606
 3349         hc    128    ccc    H12   3349 0.10603300   1.008000   ; qtot 127.914639
 3350         hc    128    ccc    H13   3350 0.10603300   1.008000   ; qtot 128.020672
 3351          c    128    ccc     C8   3351 0.63793300  12.010000   ; qtot 128.658605
 3352          o    128    ccc     O3   3352 -0.48266700  16.000000   ; qtot 128.175938
 3353         oh    128    ccc     O4   3353 -0.53626700  16.000000   ; qtot 127.639671
 3354         ho    128    ccc    H14   3354 0.45283300   1.008000   ; qtot 128.092504
 3355         ho    128    ccc    H15   3355 0.45283300   1.008000   ; qtot 128.545337
 3356         hn    128    ccc    H16   3356 0.45463300   1.008000   ; qtot 128.999970
; residue  129 ccc rtp ccc q 1.0
 3357          n    129    ccc     N1   3357 -0.56206700  14.010000   ; qtot 128.437903
 3358         hn    129    ccc     H1   3358 0.35233300   1.008000   ; qtot 128.790236
 3359         c3    129    ccc     C1   3359 0.10283300  12.010000   ; qtot 128.893069
 3360         h1    129    ccc     H2   3360 0.07153300   1.008000   ; qtot 128.964602
 3361         c3    129    ccc     C2   3361 0.07063300  12.010000   ; qtot 129.035235
 3362         h1    129    ccc     H3   3362 0.07153300   1.008000   ; qtot 129.106768
 3363         hx    129    ccc     H4   3363 0.11303300   1.008000   ; qtot 129.219801
 3364         hx    129    ccc     H5   3364 0.11303300   1.008000   ; qtot 129.332834
 3365         n4    129    ccc     N2   3365 -0.67056700  14.010000   ; qtot 128.662267
 3366         c3    129    ccc     C3   3366 0.10863300  12.010000   ; qtot 128.770900
 3367         c3    129    ccc     C4   3367 0.10863300  12.010000   ; qtot 128.879533
 3368         hx    129    ccc     H6   3368 0.12753300   1.008000   ; qtot 129.007066
 3369         c3    129    ccc     C5   3369 -0.20606700  12.010000   ; qtot 128.800999
 3370         hx    129    ccc     H7   3370 0.12753300   1.008000   ; qtot 128.928532
 3371         hc    129    ccc     H8   3371 0.10603300   1.008000   ; qtot 129.034565
 3372         hc    129    ccc     H9   3372 0.10603300   1.008000   ; qtot 129.140598
 3373          c    129    ccc     C6   3373 0.63793300  12.010000   ; qtot 129.778531
 3374         oh    129    ccc     O1   3374 -0.53626700  16.000000   ; qtot 129.242264
 3375          o    129    ccc     O2   3375 -0.48266700  16.000000   ; qtot 128.759597
 3376         hx    129    ccc    H10   3376 0.12753300   1.008000   ; qtot 128.887130
 3377         hx    129    ccc    H11   3377 0.12753300   1.008000   ; qtot 129.014663
 3378         c3    129    ccc     C7   3378 -0.20606700  12.010000   ; qtot 128.808596
 3379         hc    129    ccc    H12   3379 0.10603300   1.008000   ; qtot 128.914629
 3380         hc    129    ccc    H13   3380 0.10603300   1.008000   ; qtot 129.020662
 3381          c    129    ccc     C8   3381 0.63793300  12.010000   ; qtot 129.658595
 3382          o    129    ccc     O3   3382 -0.48266700  16.000000   ; qtot 129.175928
 3383         oh    129    ccc     O4   3383 -0.53626700  16.000000   ; qtot 128.639661
 3384         ho    129    ccc    H14   3384 0.45283300   1.008000   ; qtot 129.092494
 3385         ho    129    ccc    H15   3385 0.45283300   1.008000   ; qtot 129.545327
 3386         hn    129    ccc    H16   3386 0.45463300   1.008000   ; qtot 129.999960
; residue  130 ccc rtp ccc q 1.0
 3387          n    130    ccc     N1   3387 -0.56206700  14.010000   ; qtot 129.437893
 3388         hn    130    ccc     H1   3388 0.35233300   1.008000   ; qtot 129.790226
 3389         c3    130    ccc     C1   3389 0.10283300  12.010000   ; qtot 129.893059
 3390         h1    130    ccc     H2   3390 0.07153300   1.008000   ; qtot 129.964592
 3391         c3    130    ccc     C2   3391 0.07063300  12.010000   ; qtot 130.035225
 3392         h1    130    ccc     H3   3392 0.07153300   1.008000   ; qtot 130.106758
 3393         hx    130    ccc     H4   3393 0.11303300   1.008000   ; qtot 130.219791
 3394         hx    130    ccc     H5   3394 0.11303300   1.008000   ; qtot 130.332824
 3395         n4    130    ccc     N2   3395 -0.67056700  14.010000   ; qtot 129.662257
 3396         c3    130    ccc     C3   3396 0.10863300  12.010000   ; qtot 129.770890
 3397         c3    130    ccc     C4   3397 0.10863300  12.010000   ; qtot 129.879523
 3398         hx    130    ccc     H6   3398 0.12753300   1.008000   ; qtot 130.007056
 3399         c3    130    ccc     C5   3399 -0.20606700  12.010000   ; qtot 129.800989
 3400         hx    130    ccc     H7   3400 0.12753300   1.008000   ; qtot 129.928522
 3401         hc    130    ccc     H8   3401 0.10603300   1.008000   ; qtot 130.034555
 3402         hc    130    ccc     H9   3402 0.10603300   1.008000   ; qtot 130.140588
 3403          c    130    ccc     C6   3403 0.63793300  12.010000   ; qtot 130.778521
 3404         oh    130    ccc     O1   3404 -0.53626700  16.000000   ; qtot 130.242254
 3405          o    130    ccc     O2   3405 -0.48266700  16.000000   ; qtot 129.759587
 3406         hx    130    ccc    H10   3406 0.12753300   1.008000   ; qtot 129.887120
 3407         hx    130    ccc    H11   3407 0.12753300   1.008000   ; qtot 130.014653
 3408         c3    130    ccc     C7   3408 -0.20606700  12.010000   ; qtot 129.808586
 3409         hc    130    ccc    H12   3409 0.10603300   1.008000   ; qtot 129.914619
 3410         hc    130    ccc    H13   3410 0.10603300   1.008000   ; qtot 130.020652
 3411          c    130    ccc     C8   3411 0.63793300  12.010000   ; qtot 130.658585
 3412          o    130    ccc     O3   3412 -0.48266700  16.000000   ; qtot 130.175918
 3413         oh    130    ccc     O4   3413 -0.53626700  16.000000   ; qtot 129.639651
 3414         ho    130    ccc    H14   3414 0.45283300   1.008000   ; qtot 130.092484
 3415         ho    130    ccc    H15   3415 0.45283300   1.008000   ; qtot 130.545317
 3416         hn    130    ccc    H16   3416 0.45463300   1.008000   ; qtot 130.999950
; residue  131 ccc rtp ccc q 1.0
 3417          n    131    ccc     N1   3417 -0.56206700  14.010000   ; qtot 130.437883
 3418         hn    131    ccc     H1   3418 0.35233300   1.008000   ; qtot 130.790216
 3419         c3    131    ccc     C1   3419 0.10283300  12.010000   ; qtot 130.893049
 3420         h1    131    ccc     H2   3420 0.07153300   1.008000   ; qtot 130.964582
 3421         c3    131    ccc     C2   3421 0.07063300  12.010000   ; qtot 131.035215
 3422         h1    131    ccc     H3   3422 0.07153300   1.008000   ; qtot 131.106748
 3423         hx    131    ccc     H4   3423 0.11303300   1.008000   ; qtot 131.219781
 3424         hx    131    ccc     H5   3424 0.11303300   1.008000   ; qtot 131.332814
 3425         n4    131    ccc     N2   3425 -0.67056700  14.010000   ; qtot 130.662247
 3426         c3    131    ccc     C3   3426 0.10863300  12.010000   ; qtot 130.770880
 3427         c3    131    ccc     C4   3427 0.10863300  12.010000   ; qtot 130.879513
 3428         hx    131    ccc     H6   3428 0.12753300   1.008000   ; qtot 131.007046
 3429         c3    131    ccc     C5   3429 -0.20606700  12.010000   ; qtot 130.800979
 3430         hx    131    ccc     H7   3430 0.12753300   1.008000   ; qtot 130.928512
 3431         hc    131    ccc     H8   3431 0.10603300   1.008000   ; qtot 131.034545
 3432         hc    131    ccc     H9   3432 0.10603300   1.008000   ; qtot 131.140578
 3433          c    131    ccc     C6   3433 0.63793300  12.010000   ; qtot 131.778511
 3434         oh    131    ccc     O1   3434 -0.53626700  16.000000   ; qtot 131.242244
 3435          o    131    ccc     O2   3435 -0.48266700  16.000000   ; qtot 130.759577
 3436         hx    131    ccc    H10   3436 0.12753300   1.008000   ; qtot 130.887110
 3437         hx    131    ccc    H11   3437 0.12753300   1.008000   ; qtot 131.014643
 3438         c3    131    ccc     C7   3438 -0.20606700  12.010000   ; qtot 130.808576
 3439         hc    131    ccc    H12   3439 0.10603300   1.008000   ; qtot 130.914609
 3440         hc    131    ccc    H13   3440 0.10603300   1.008000   ; qtot 131.020642
 3441          c    131    ccc     C8   3441 0.63793300  12.010000   ; qtot 131.658575
 3442          o    131    ccc     O3   3442 -0.48266700  16.000000   ; qtot 131.175908
 3443         oh    131    ccc     O4   3443 -0.53626700  16.000000   ; qtot 130.639641
 3444         ho    131    ccc    H14   3444 0.45283300   1.008000   ; qtot 131.092474
 3445         ho    131    ccc    H15   3445 0.45283300   1.008000   ; qtot 131.545307
 3446         hn    131    ccc    H16   3446 0.45463300   1.008000   ; qtot 131.999940
; residue  132 ccc rtp ccc q 1.0
 3447          n    132    ccc     N1   3447 -0.56206700  14.010000   ; qtot 131.437873
 3448         hn    132    ccc     H1   3448 0.35233300   1.008000   ; qtot 131.790206
 3449         c3    132    ccc     C1   3449 0.10283300  12.010000   ; qtot 131.893039
 3450         h1    132    ccc     H2   3450 0.07153300   1.008000   ; qtot 131.964572
 3451         c3    132    ccc     C2   3451 0.07063300  12.010000   ; qtot 132.035205
 3452         h1    132    ccc     H3   3452 0.07153300   1.008000   ; qtot 132.106738
 3453         hx    132    ccc     H4   3453 0.11303300   1.008000   ; qtot 132.219771
 3454         hx    132    ccc     H5   3454 0.11303300   1.008000   ; qtot 132.332804
 3455         n4    132    ccc     N2   3455 -0.67056700  14.010000   ; qtot 131.662237
 3456         c3    132    ccc     C3   3456 0.10863300  12.010000   ; qtot 131.770870
 3457         c3    132    ccc     C4   3457 0.10863300  12.010000   ; qtot 131.879503
 3458         hx    132    ccc     H6   3458 0.12753300   1.008000   ; qtot 132.007036
 3459         c3    132    ccc     C5   3459 -0.20606700  12.010000   ; qtot 131.800969
 3460         hx    132    ccc     H7   3460 0.12753300   1.008000   ; qtot 131.928502
 3461         hc    132    ccc     H8   3461 0.10603300   1.008000   ; qtot 132.034535
 3462         hc    132    ccc     H9   3462 0.10603300   1.008000   ; qtot 132.140568
 3463          c    132    ccc     C6   3463 0.63793300  12.010000   ; qtot 132.778501
 3464         oh    132    ccc     O1   3464 -0.53626700  16.000000   ; qtot 132.242234
 3465          o    132    ccc     O2   3465 -0.48266700  16.000000   ; qtot 131.759567
 3466         hx    132    ccc    H10   3466 0.12753300   1.008000   ; qtot 131.887100
 3467         hx    132    ccc    H11   3467 0.12753300   1.008000   ; qtot 132.014633
 3468         c3    132    ccc     C7   3468 -0.20606700  12.010000   ; qtot 131.808566
 3469         hc    132    ccc    H12   3469 0.10603300   1.008000   ; qtot 131.914599
 3470         hc    132    ccc    H13   3470 0.10603300   1.008000   ; qtot 132.020632
 3471          c    132    ccc     C8   3471 0.63793300  12.010000   ; qtot 132.658565
 3472          o    132    ccc     O3   3472 -0.48266700  16.000000   ; qtot 132.175898
 3473         oh    132    ccc     O4   3473 -0.53626700  16.000000   ; qtot 131.639631
 3474         ho    132    ccc    H14   3474 0.45283300   1.008000   ; qtot 132.092464
 3475         ho    132    ccc    H15   3475 0.45283300   1.008000   ; qtot 132.545297
 3476         hn    132    ccc    H16   3476 0.45463300   1.008000   ; qtot 132.999930
; residue  133 ccc rtp ccc q 1.0
 3477          n    133    ccc     N1   3477 -0.56206700  14.010000   ; qtot 132.437863
 3478         hn    133    ccc     H1   3478 0.35233300   1.008000   ; qtot 132.790196
 3479         c3    133    ccc     C1   3479 0.10283300  12.010000   ; qtot 132.893029
 3480         h1    133    ccc     H2   3480 0.07153300   1.008000   ; qtot 132.964562
 3481         c3    133    ccc     C2   3481 0.07063300  12.010000   ; qtot 133.035195
 3482         h1    133    ccc     H3   3482 0.07153300   1.008000   ; qtot 133.106728
 3483         hx    133    ccc     H4   3483 0.11303300   1.008000   ; qtot 133.219761
 3484         hx    133    ccc     H5   3484 0.11303300   1.008000   ; qtot 133.332794
 3485         n4    133    ccc     N2   3485 -0.67056700  14.010000   ; qtot 132.662227
 3486         c3    133    ccc     C3   3486 0.10863300  12.010000   ; qtot 132.770860
 3487         c3    133    ccc     C4   3487 0.10863300  12.010000   ; qtot 132.879493
 3488         hx    133    ccc     H6   3488 0.12753300   1.008000   ; qtot 133.007026
 3489         c3    133    ccc     C5   3489 -0.20606700  12.010000   ; qtot 132.800959
 3490         hx    133    ccc     H7   3490 0.12753300   1.008000   ; qtot 132.928492
 3491         hc    133    ccc     H8   3491 0.10603300   1.008000   ; qtot 133.034525
 3492         hc    133    ccc     H9   3492 0.10603300   1.008000   ; qtot 133.140558
 3493          c    133    ccc     C6   3493 0.63793300  12.010000   ; qtot 133.778491
 3494         oh    133    ccc     O1   3494 -0.53626700  16.000000   ; qtot 133.242224
 3495          o    133    ccc     O2   3495 -0.48266700  16.000000   ; qtot 132.759557
 3496         hx    133    ccc    H10   3496 0.12753300   1.008000   ; qtot 132.887090
 3497         hx    133    ccc    H11   3497 0.12753300   1.008000   ; qtot 133.014623
 3498         c3    133    ccc     C7   3498 -0.20606700  12.010000   ; qtot 132.808556
 3499         hc    133    ccc    H12   3499 0.10603300   1.008000   ; qtot 132.914589
 3500         hc    133    ccc    H13   3500 0.10603300   1.008000   ; qtot 133.020622
 3501          c    133    ccc     C8   3501 0.63793300  12.010000   ; qtot 133.658555
 3502          o    133    ccc     O3   3502 -0.48266700  16.000000   ; qtot 133.175888
 3503         oh    133    ccc     O4   3503 -0.53626700  16.000000   ; qtot 132.639621
 3504         ho    133    ccc    H14   3504 0.45283300   1.008000   ; qtot 133.092454
 3505         ho    133    ccc    H15   3505 0.45283300   1.008000   ; qtot 133.545287
 3506         hn    133    ccc    H16   3506 0.45463300   1.008000   ; qtot 133.999920
; residue  134 ccc rtp ccc q 1.0
 3507          n    134    ccc     N1   3507 -0.56206700  14.010000   ; qtot 133.437853
 3508         hn    134    ccc     H1   3508 0.35233300   1.008000   ; qtot 133.790186
 3509         c3    134    ccc     C1   3509 0.10283300  12.010000   ; qtot 133.893019
 3510         h1    134    ccc     H2   3510 0.07153300   1.008000   ; qtot 133.964552
 3511         c3    134    ccc     C2   3511 0.07063300  12.010000   ; qtot 134.035185
 3512         h1    134    ccc     H3   3512 0.07153300   1.008000   ; qtot 134.106718
 3513         hx    134    ccc     H4   3513 0.11303300   1.008000   ; qtot 134.219751
 3514         hx    134    ccc     H5   3514 0.11303300   1.008000   ; qtot 134.332784
 3515         n4    134    ccc     N2   3515 -0.67056700  14.010000   ; qtot 133.662217
 3516         c3    134    ccc     C3   3516 0.10863300  12.010000   ; qtot 133.770850
 3517         c3    134    ccc     C4   3517 0.10863300  12.010000   ; qtot 133.879483
 3518         hx    134    ccc     H6   3518 0.12753300   1.008000   ; qtot 134.007016
 3519         c3    134    ccc     C5   3519 -0.20606700  12.010000   ; qtot 133.800949
 3520         hx    134    ccc     H7   3520 0.12753300   1.008000   ; qtot 133.928482
 3521         hc    134    ccc     H8   3521 0.10603300   1.008000   ; qtot 134.034515
 3522         hc    134    ccc     H9   3522 0.10603300   1.008000   ; qtot 134.140548
 3523          c    134    ccc     C6   3523 0.63793300  12.010000   ; qtot 134.778481
 3524         oh    134    ccc     O1   3524 -0.53626700  16.000000   ; qtot 134.242214
 3525          o    134    ccc     O2   3525 -0.48266700  16.000000   ; qtot 133.759547
 3526         hx    134    ccc    H10   3526 0.12753300   1.008000   ; qtot 133.887080
 3527         hx    134    ccc    H11   3527 0.12753300   1.008000   ; qtot 134.014613
 3528         c3    134    ccc     C7   3528 -0.20606700  12.010000   ; qtot 133.808546
 3529         hc    134    ccc    H12   3529 0.10603300   1.008000   ; qtot 133.914579
 3530         hc    134    ccc    H13   3530 0.10603300   1.008000   ; qtot 134.020612
 3531          c    134    ccc     C8   3531 0.63793300  12.010000   ; qtot 134.658545
 3532          o    134    ccc     O3   3532 -0.48266700  16.000000   ; qtot 134.175878
 3533         oh    134    ccc     O4   3533 -0.53626700  16.000000   ; qtot 133.639611
 3534         ho    134    ccc    H14   3534 0.45283300   1.008000   ; qtot 134.092444
 3535         ho    134    ccc    H15   3535 0.45283300   1.008000   ; qtot 134.545277
 3536         hn    134    ccc    H16   3536 0.45463300   1.008000   ; qtot 134.999910
; residue  135 ccc rtp ccc q 1.0
 3537          n    135    ccc     N1   3537 -0.56206700  14.010000   ; qtot 134.437843
 3538         hn    135    ccc     H1   3538 0.35233300   1.008000   ; qtot 134.790176
 3539         c3    135    ccc     C1   3539 0.10283300  12.010000   ; qtot 134.893009
 3540         h1    135    ccc     H2   3540 0.07153300   1.008000   ; qtot 134.964542
 3541         c3    135    ccc     C2   3541 0.07063300  12.010000   ; qtot 135.035175
 3542         h1    135    ccc     H3   3542 0.07153300   1.008000   ; qtot 135.106708
 3543         hx    135    ccc     H4   3543 0.11303300   1.008000   ; qtot 135.219741
 3544         hx    135    ccc     H5   3544 0.11303300   1.008000   ; qtot 135.332774
 3545         n4    135    ccc     N2   3545 -0.67056700  14.010000   ; qtot 134.662207
 3546         c3    135    ccc     C3   3546 0.10863300  12.010000   ; qtot 134.770840
 3547         c3    135    ccc     C4   3547 0.10863300  12.010000   ; qtot 134.879473
 3548         hx    135    ccc     H6   3548 0.12753300   1.008000   ; qtot 135.007006
 3549         c3    135    ccc     C5   3549 -0.20606700  12.010000   ; qtot 134.800939
 3550         hx    135    ccc     H7   3550 0.12753300   1.008000   ; qtot 134.928472
 3551         hc    135    ccc     H8   3551 0.10603300   1.008000   ; qtot 135.034505
 3552         hc    135    ccc     H9   3552 0.10603300   1.008000   ; qtot 135.140538
 3553          c    135    ccc     C6   3553 0.63793300  12.010000   ; qtot 135.778471
 3554         oh    135    ccc     O1   3554 -0.53626700  16.000000   ; qtot 135.242204
 3555          o    135    ccc     O2   3555 -0.48266700  16.000000   ; qtot 134.759537
 3556         hx    135    ccc    H10   3556 0.12753300   1.008000   ; qtot 134.887070
 3557         hx    135    ccc    H11   3557 0.12753300   1.008000   ; qtot 135.014603
 3558         c3    135    ccc     C7   3558 -0.20606700  12.010000   ; qtot 134.808536
 3559         hc    135    ccc    H12   3559 0.10603300   1.008000   ; qtot 134.914569
 3560         hc    135    ccc    H13   3560 0.10603300   1.008000   ; qtot 135.020602
 3561          c    135    ccc     C8   3561 0.63793300  12.010000   ; qtot 135.658535
 3562          o    135    ccc     O3   3562 -0.48266700  16.000000   ; qtot 135.175868
 3563         oh    135    ccc     O4   3563 -0.53626700  16.000000   ; qtot 134.639601
 3564         ho    135    ccc    H14   3564 0.45283300   1.008000   ; qtot 135.092434
 3565         ho    135    ccc    H15   3565 0.45283300   1.008000   ; qtot 135.545267
 3566         hn    135    ccc    H16   3566 0.45463300   1.008000   ; qtot 135.999900
; residue  136 ccc rtp ccc q 1.0
 3567          n    136    ccc     N1   3567 -0.56206700  14.010000   ; qtot 135.437833
 3568         hn    136    ccc     H1   3568 0.35233300   1.008000   ; qtot 135.790166
 3569         c3    136    ccc     C1   3569 0.10283300  12.010000   ; qtot 135.892999
 3570         h1    136    ccc     H2   3570 0.07153300   1.008000   ; qtot 135.964532
 3571         c3    136    ccc     C2   3571 0.07063300  12.010000   ; qtot 136.035165
 3572         h1    136    ccc     H3   3572 0.07153300   1.008000   ; qtot 136.106698
 3573         hx    136    ccc     H4   3573 0.11303300   1.008000   ; qtot 136.219731
 3574         hx    136    ccc     H5   3574 0.11303300   1.008000   ; qtot 136.332764
 3575         n4    136    ccc     N2   3575 -0.67056700  14.010000   ; qtot 135.662197
 3576         c3    136    ccc     C3   3576 0.10863300  12.010000   ; qtot 135.770830
 3577         c3    136    ccc     C4   3577 0.10863300  12.010000   ; qtot 135.879463
 3578         hx    136    ccc     H6   3578 0.12753300   1.008000   ; qtot 136.006996
 3579         c3    136    ccc     C5   3579 -0.20606700  12.010000   ; qtot 135.800929
 3580         hx    136    ccc     H7   3580 0.12753300   1.008000   ; qtot 135.928462
 3581         hc    136    ccc     H8   3581 0.10603300   1.008000   ; qtot 136.034495
 3582         hc    136    ccc     H9   3582 0.10603300   1.008000   ; qtot 136.140528
 3583          c    136    ccc     C6   3583 0.63793300  12.010000   ; qtot 136.778461
 3584         oh    136    ccc     O1   3584 -0.53626700  16.000000   ; qtot 136.242194
 3585          o    136    ccc     O2   3585 -0.48266700  16.000000   ; qtot 135.759527
 3586         hx    136    ccc    H10   3586 0.12753300   1.008000   ; qtot 135.887060
 3587         hx    136    ccc    H11   3587 0.12753300   1.008000   ; qtot 136.014593
 3588         c3    136    ccc     C7   3588 -0.20606700  12.010000   ; qtot 135.808526
 3589         hc    136    ccc    H12   3589 0.10603300   1.008000   ; qtot 135.914559
 3590         hc    136    ccc    H13   3590 0.10603300   1.008000   ; qtot 136.020592
 3591          c    136    ccc     C8   3591 0.63793300  12.010000   ; qtot 136.658525
 3592          o    136    ccc     O3   3592 -0.48266700  16.000000   ; qtot 136.175858
 3593         oh    136    ccc     O4   3593 -0.53626700  16.000000   ; qtot 135.639591
 3594         ho    136    ccc    H14   3594 0.45283300   1.008000   ; qtot 136.092424
 3595         ho    136    ccc    H15   3595 0.45283300   1.008000   ; qtot 136.545257
 3596         hn    136    ccc    H16   3596 0.45463300   1.008000   ; qtot 136.999890
; residue  137 ccc rtp ccc q 1.0
 3597          n    137    ccc     N1   3597 -0.56206700  14.010000   ; qtot 136.437823
 3598         hn    137    ccc     H1   3598 0.35233300   1.008000   ; qtot 136.790156
 3599         c3    137    ccc     C1   3599 0.10283300  12.010000   ; qtot 136.892989
 3600         h1    137    ccc     H2   3600 0.07153300   1.008000   ; qtot 136.964522
 3601         c3    137    ccc     C2   3601 0.07063300  12.010000   ; qtot 137.035155
 3602         h1    137    ccc     H3   3602 0.07153300   1.008000   ; qtot 137.106688
 3603         hx    137    ccc     H4   3603 0.11303300   1.008000   ; qtot 137.219721
 3604         hx    137    ccc     H5   3604 0.11303300   1.008000   ; qtot 137.332754
 3605         n4    137    ccc     N2   3605 -0.67056700  14.010000   ; qtot 136.662187
 3606         c3    137    ccc     C3   3606 0.10863300  12.010000   ; qtot 136.770820
 3607         c3    137    ccc     C4   3607 0.10863300  12.010000   ; qtot 136.879453
 3608         hx    137    ccc     H6   3608 0.12753300   1.008000   ; qtot 137.006986
 3609         c3    137    ccc     C5   3609 -0.20606700  12.010000   ; qtot 136.800919
 3610         hx    137    ccc     H7   3610 0.12753300   1.008000   ; qtot 136.928452
 3611         hc    137    ccc     H8   3611 0.10603300   1.008000   ; qtot 137.034485
 3612         hc    137    ccc     H9   3612 0.10603300   1.008000   ; qtot 137.140518
 3613          c    137    ccc     C6   3613 0.63793300  12.010000   ; qtot 137.778451
 3614         oh    137    ccc     O1   3614 -0.53626700  16.000000   ; qtot 137.242184
 3615          o    137    ccc     O2   3615 -0.48266700  16.000000   ; qtot 136.759517
 3616         hx    137    ccc    H10   3616 0.12753300   1.008000   ; qtot 136.887050
 3617         hx    137    ccc    H11   3617 0.12753300   1.008000   ; qtot 137.014583
 3618         c3    137    ccc     C7   3618 -0.20606700  12.010000   ; qtot 136.808516
 3619         hc    137    ccc    H12   3619 0.10603300   1.008000   ; qtot 136.914549
 3620         hc    137    ccc    H13   3620 0.10603300   1.008000   ; qtot 137.020582
 3621          c    137    ccc     C8   3621 0.63793300  12.010000   ; qtot 137.658515
 3622          o    137    ccc     O3   3622 -0.48266700  16.000000   ; qtot 137.175848
 3623         oh    137    ccc     O4   3623 -0.53626700  16.000000   ; qtot 136.639581
 3624         ho    137    ccc    H14   3624 0.45283300   1.008000   ; qtot 137.092414
 3625         ho    137    ccc    H15   3625 0.45283300   1.008000   ; qtot 137.545247
 3626         hn    137    ccc    H16   3626 0.45463300   1.008000   ; qtot 137.999880
; residue  138 ccc rtp ccc q 1.0
 3627          n    138    ccc     N1   3627 -0.56206700  14.010000   ; qtot 137.437813
 3628         hn    138    ccc     H1   3628 0.35233300   1.008000   ; qtot 137.790146
 3629         c3    138    ccc     C1   3629 0.10283300  12.010000   ; qtot 137.892979
 3630         h1    138    ccc     H2   3630 0.07153300   1.008000   ; qtot 137.964512
 3631         c3    138    ccc     C2   3631 0.07063300  12.010000   ; qtot 138.035145
 3632         h1    138    ccc     H3   3632 0.07153300   1.008000   ; qtot 138.106678
 3633         hx    138    ccc     H4   3633 0.11303300   1.008000   ; qtot 138.219711
 3634         hx    138    ccc     H5   3634 0.11303300   1.008000   ; qtot 138.332744
 3635         n4    138    ccc     N2   3635 -0.67056700  14.010000   ; qtot 137.662177
 3636         c3    138    ccc     C3   3636 0.10863300  12.010000   ; qtot 137.770810
 3637         c3    138    ccc     C4   3637 0.10863300  12.010000   ; qtot 137.879443
 3638         hx    138    ccc     H6   3638 0.12753300   1.008000   ; qtot 138.006976
 3639         c3    138    ccc     C5   3639 -0.20606700  12.010000   ; qtot 137.800909
 3640         hx    138    ccc     H7   3640 0.12753300   1.008000   ; qtot 137.928442
 3641         hc    138    ccc     H8   3641 0.10603300   1.008000   ; qtot 138.034475
 3642         hc    138    ccc     H9   3642 0.10603300   1.008000   ; qtot 138.140508
 3643          c    138    ccc     C6   3643 0.63793300  12.010000   ; qtot 138.778441
 3644         oh    138    ccc     O1   3644 -0.53626700  16.000000   ; qtot 138.242174
 3645          o    138    ccc     O2   3645 -0.48266700  16.000000   ; qtot 137.759507
 3646         hx    138    ccc    H10   3646 0.12753300   1.008000   ; qtot 137.887040
 3647         hx    138    ccc    H11   3647 0.12753300   1.008000   ; qtot 138.014573
 3648         c3    138    ccc     C7   3648 -0.20606700  12.010000   ; qtot 137.808506
 3649         hc    138    ccc    H12   3649 0.10603300   1.008000   ; qtot 137.914539
 3650         hc    138    ccc    H13   3650 0.10603300   1.008000   ; qtot 138.020572
 3651          c    138    ccc     C8   3651 0.63793300  12.010000   ; qtot 138.658505
 3652          o    138    ccc     O3   3652 -0.48266700  16.000000   ; qtot 138.175838
 3653         oh    138    ccc     O4   3653 -0.53626700  16.000000   ; qtot 137.639571
 3654         ho    138    ccc    H14   3654 0.45283300   1.008000   ; qtot 138.092404
 3655         ho    138    ccc    H15   3655 0.45283300   1.008000   ; qtot 138.545237
 3656         hn    138    ccc    H16   3656 0.45463300   1.008000   ; qtot 138.999870
; residue  139 ccc rtp ccc q 1.0
 3657          n    139    ccc     N1   3657 -0.56206700  14.010000   ; qtot 138.437803
 3658         hn    139    ccc     H1   3658 0.35233300   1.008000   ; qtot 138.790136
 3659         c3    139    ccc     C1   3659 0.10283300  12.010000   ; qtot 138.892969
 3660         h1    139    ccc     H2   3660 0.07153300   1.008000   ; qtot 138.964502
 3661         c3    139    ccc     C2   3661 0.07063300  12.010000   ; qtot 139.035135
 3662         h1    139    ccc     H3   3662 0.07153300   1.008000   ; qtot 139.106668
 3663         hx    139    ccc     H4   3663 0.11303300   1.008000   ; qtot 139.219701
 3664         hx    139    ccc     H5   3664 0.11303300   1.008000   ; qtot 139.332734
 3665         n4    139    ccc     N2   3665 -0.67056700  14.010000   ; qtot 138.662167
 3666         c3    139    ccc     C3   3666 0.10863300  12.010000   ; qtot 138.770800
 3667         c3    139    ccc     C4   3667 0.10863300  12.010000   ; qtot 138.879433
 3668         hx    139    ccc     H6   3668 0.12753300   1.008000   ; qtot 139.006966
 3669         c3    139    ccc     C5   3669 -0.20606700  12.010000   ; qtot 138.800899
 3670         hx    139    ccc     H7   3670 0.12753300   1.008000   ; qtot 138.928432
 3671         hc    139    ccc     H8   3671 0.10603300   1.008000   ; qtot 139.034465
 3672         hc    139    ccc     H9   3672 0.10603300   1.008000   ; qtot 139.140498
 3673          c    139    ccc     C6   3673 0.63793300  12.010000   ; qtot 139.778431
 3674         oh    139    ccc     O1   3674 -0.53626700  16.000000   ; qtot 139.242164
 3675          o    139    ccc     O2   3675 -0.48266700  16.000000   ; qtot 138.759497
 3676         hx    139    ccc    H10   3676 0.12753300   1.008000   ; qtot 138.887030
 3677         hx    139    ccc    H11   3677 0.12753300   1.008000   ; qtot 139.014563
 3678         c3    139    ccc     C7   3678 -0.20606700  12.010000   ; qtot 138.808496
 3679         hc    139    ccc    H12   3679 0.10603300   1.008000   ; qtot 138.914529
 3680         hc    139    ccc    H13   3680 0.10603300   1.008000   ; qtot 139.020562
 3681          c    139    ccc     C8   3681 0.63793300  12.010000   ; qtot 139.658495
 3682          o    139    ccc     O3   3682 -0.48266700  16.000000   ; qtot 139.175828
 3683         oh    139    ccc     O4   3683 -0.53626700  16.000000   ; qtot 138.639561
 3684         ho    139    ccc    H14   3684 0.45283300   1.008000   ; qtot 139.092394
 3685         ho    139    ccc    H15   3685 0.45283300   1.008000   ; qtot 139.545227
 3686         hn    139    ccc    H16   3686 0.45463300   1.008000   ; qtot 139.999860
; residue  140 ccc rtp ccc q 1.0
 3687          n    140    ccc     N1   3687 -0.56206700  14.010000   ; qtot 139.437793
 3688         hn    140    ccc     H1   3688 0.35233300   1.008000   ; qtot 139.790126
 3689         c3    140    ccc     C1   3689 0.10283300  12.010000   ; qtot 139.892959
 3690         h1    140    ccc     H2   3690 0.07153300   1.008000   ; qtot 139.964492
 3691         c3    140    ccc     C2   3691 0.07063300  12.010000   ; qtot 140.035125
 3692         h1    140    ccc     H3   3692 0.07153300   1.008000   ; qtot 140.106658
 3693         hx    140    ccc     H4   3693 0.11303300   1.008000   ; qtot 140.219691
 3694         hx    140    ccc     H5   3694 0.11303300   1.008000   ; qtot 140.332724
 3695         n4    140    ccc     N2   3695 -0.67056700  14.010000   ; qtot 139.662157
 3696         c3    140    ccc     C3   3696 0.10863300  12.010000   ; qtot 139.770790
 3697         c3    140    ccc     C4   3697 0.10863300  12.010000   ; qtot 139.879423
 3698         hx    140    ccc     H6   3698 0.12753300   1.008000   ; qtot 140.006956
 3699         c3    140    ccc     C5   3699 -0.20606700  12.010000   ; qtot 139.800889
 3700         hx    140    ccc     H7   3700 0.12753300   1.008000   ; qtot 139.928422
 3701         hc    140    ccc     H8   3701 0.10603300   1.008000   ; qtot 140.034455
 3702         hc    140    ccc     H9   3702 0.10603300   1.008000   ; qtot 140.140488
 3703          c    140    ccc     C6   3703 0.63793300  12.010000   ; qtot 140.778421
 3704         oh    140    ccc     O1   3704 -0.53626700  16.000000   ; qtot 140.242154
 3705          o    140    ccc     O2   3705 -0.48266700  16.000000   ; qtot 139.759487
 3706         hx    140    ccc    H10   3706 0.12753300   1.008000   ; qtot 139.887020
 3707         hx    140    ccc    H11   3707 0.12753300   1.008000   ; qtot 140.014553
 3708         c3    140    ccc     C7   3708 -0.20606700  12.010000   ; qtot 139.808486
 3709         hc    140    ccc    H12   3709 0.10603300   1.008000   ; qtot 139.914519
 3710         hc    140    ccc    H13   3710 0.10603300   1.008000   ; qtot 140.020552
 3711          c    140    ccc     C8   3711 0.63793300  12.010000   ; qtot 140.658485
 3712          o    140    ccc     O3   3712 -0.48266700  16.000000   ; qtot 140.175818
 3713         oh    140    ccc     O4   3713 -0.53626700  16.000000   ; qtot 139.639551
 3714         ho    140    ccc    H14   3714 0.45283300   1.008000   ; qtot 140.092384
 3715         ho    140    ccc    H15   3715 0.45283300   1.008000   ; qtot 140.545217
 3716         hn    140    ccc    H16   3716 0.45463300   1.008000   ; qtot 140.999850
; residue  141 ccc rtp ccc q 1.0
 3717          n    141    ccc     N1   3717 -0.56206700  14.010000   ; qtot 140.437783
 3718         hn    141    ccc     H1   3718 0.35233300   1.008000   ; qtot 140.790116
 3719         c3    141    ccc     C1   3719 0.10283300  12.010000   ; qtot 140.892949
 3720         h1    141    ccc     H2   3720 0.07153300   1.008000   ; qtot 140.964482
 3721         c3    141    ccc     C2   3721 0.07063300  12.010000   ; qtot 141.035115
 3722         h1    141    ccc     H3   3722 0.07153300   1.008000   ; qtot 141.106648
 3723         hx    141    ccc     H4   3723 0.11303300   1.008000   ; qtot 141.219681
 3724         hx    141    ccc     H5   3724 0.11303300   1.008000   ; qtot 141.332714
 3725         n4    141    ccc     N2   3725 -0.67056700  14.010000   ; qtot 140.662147
 3726         c3    141    ccc     C3   3726 0.10863300  12.010000   ; qtot 140.770780
 3727         c3    141    ccc     C4   3727 0.10863300  12.010000   ; qtot 140.879413
 3728         hx    141    ccc     H6   3728 0.12753300   1.008000   ; qtot 141.006946
 3729         c3    141    ccc     C5   3729 -0.20606700  12.010000   ; qtot 140.800879
 3730         hx    141    ccc     H7   3730 0.12753300   1.008000   ; qtot 140.928412
 3731         hc    141    ccc     H8   3731 0.10603300   1.008000   ; qtot 141.034445
 3732         hc    141    ccc     H9   3732 0.10603300   1.008000   ; qtot 141.140478
 3733          c    141    ccc     C6   3733 0.63793300  12.010000   ; qtot 141.778411
 3734         oh    141    ccc     O1   3734 -0.53626700  16.000000   ; qtot 141.242144
 3735          o    141    ccc     O2   3735 -0.48266700  16.000000   ; qtot 140.759477
 3736         hx    141    ccc    H10   3736 0.12753300   1.008000   ; qtot 140.887010
 3737         hx    141    ccc    H11   3737 0.12753300   1.008000   ; qtot 141.014543
 3738         c3    141    ccc     C7   3738 -0.20606700  12.010000   ; qtot 140.808476
 3739         hc    141    ccc    H12   3739 0.10603300   1.008000   ; qtot 140.914509
 3740         hc    141    ccc    H13   3740 0.10603300   1.008000   ; qtot 141.020542
 3741          c    141    ccc     C8   3741 0.63793300  12.010000   ; qtot 141.658475
 3742          o    141    ccc     O3   3742 -0.48266700  16.000000   ; qtot 141.175808
 3743         oh    141    ccc     O4   3743 -0.53626700  16.000000   ; qtot 140.639541
 3744         ho    141    ccc    H14   3744 0.45283300   1.008000   ; qtot 141.092374
 3745         ho    141    ccc    H15   3745 0.45283300   1.008000   ; qtot 141.545207
 3746         hn    141    ccc    H16   3746 0.45463300   1.008000   ; qtot 141.999840
; residue  142 ccc rtp ccc q 1.0
 3747          n    142    ccc     N1   3747 -0.56206700  14.010000   ; qtot 141.437773
 3748         hn    142    ccc     H1   3748 0.35233300   1.008000   ; qtot 141.790106
 3749         c3    142    ccc     C1   3749 0.10283300  12.010000   ; qtot 141.892939
 3750         h1    142    ccc     H2   3750 0.07153300   1.008000   ; qtot 141.964472
 3751         c3    142    ccc     C2   3751 0.07063300  12.010000   ; qtot 142.035105
 3752         h1    142    ccc     H3   3752 0.07153300   1.008000   ; qtot 142.106638
 3753         hx    142    ccc     H4   3753 0.11303300   1.008000   ; qtot 142.219671
 3754         hx    142    ccc     H5   3754 0.11303300   1.008000   ; qtot 142.332704
 3755         n4    142    ccc     N2   3755 -0.67056700  14.010000   ; qtot 141.662137
 3756         c3    142    ccc     C3   3756 0.10863300  12.010000   ; qtot 141.770770
 3757         c3    142    ccc     C4   3757 0.10863300  12.010000   ; qtot 141.879403
 3758         hx    142    ccc     H6   3758 0.12753300   1.008000   ; qtot 142.006936
 3759         c3    142    ccc     C5   3759 -0.20606700  12.010000   ; qtot 141.800869
 3760         hx    142    ccc     H7   3760 0.12753300   1.008000   ; qtot 141.928402
 3761         hc    142    ccc     H8   3761 0.10603300   1.008000   ; qtot 142.034435
 3762         hc    142    ccc     H9   3762 0.10603300   1.008000   ; qtot 142.140468
 3763          c    142    ccc     C6   3763 0.63793300  12.010000   ; qtot 142.778401
 3764         oh    142    ccc     O1   3764 -0.53626700  16.000000   ; qtot 142.242134
 3765          o    142    ccc     O2   3765 -0.48266700  16.000000   ; qtot 141.759467
 3766         hx    142    ccc    H10   3766 0.12753300   1.008000   ; qtot 141.887000
 3767         hx    142    ccc    H11   3767 0.12753300   1.008000   ; qtot 142.014533
 3768         c3    142    ccc     C7   3768 -0.20606700  12.010000   ; qtot 141.808466
 3769         hc    142    ccc    H12   3769 0.10603300   1.008000   ; qtot 141.914499
 3770         hc    142    ccc    H13   3770 0.10603300   1.008000   ; qtot 142.020532
 3771          c    142    ccc     C8   3771 0.63793300  12.010000   ; qtot 142.658465
 3772          o    142    ccc     O3   3772 -0.48266700  16.000000   ; qtot 142.175798
 3773         oh    142    ccc     O4   3773 -0.53626700  16.000000   ; qtot 141.639531
 3774         ho    142    ccc    H14   3774 0.45283300   1.008000   ; qtot 142.092364
 3775         ho    142    ccc    H15   3775 0.45283300   1.008000   ; qtot 142.545197
 3776         hn    142    ccc    H16   3776 0.45463300   1.008000   ; qtot 142.999830
; residue  143 ccc rtp ccc q 1.0
 3777          n    143    ccc     N1   3777 -0.56206700  14.010000   ; qtot 142.437763
 3778         hn    143    ccc     H1   3778 0.35233300   1.008000   ; qtot 142.790096
 3779         c3    143    ccc     C1   3779 0.10283300  12.010000   ; qtot 142.892929
 3780         h1    143    ccc     H2   3780 0.07153300   1.008000   ; qtot 142.964462
 3781         c3    143    ccc     C2   3781 0.07063300  12.010000   ; qtot 143.035095
 3782         h1    143    ccc     H3   3782 0.07153300   1.008000   ; qtot 143.106628
 3783         hx    143    ccc     H4   3783 0.11303300   1.008000   ; qtot 143.219661
 3784         hx    143    ccc     H5   3784 0.11303300   1.008000   ; qtot 143.332694
 3785         n4    143    ccc     N2   3785 -0.67056700  14.010000   ; qtot 142.662127
 3786         c3    143    ccc     C3   3786 0.10863300  12.010000   ; qtot 142.770760
 3787         c3    143    ccc     C4   3787 0.10863300  12.010000   ; qtot 142.879393
 3788         hx    143    ccc     H6   3788 0.12753300   1.008000   ; qtot 143.006926
 3789         c3    143    ccc     C5   3789 -0.20606700  12.010000   ; qtot 142.800859
 3790         hx    143    ccc     H7   3790 0.12753300   1.008000   ; qtot 142.928392
 3791         hc    143    ccc     H8   3791 0.10603300   1.008000   ; qtot 143.034425
 3792         hc    143    ccc     H9   3792 0.10603300   1.008000   ; qtot 143.140458
 3793          c    143    ccc     C6   3793 0.63793300  12.010000   ; qtot 143.778391
 3794         oh    143    ccc     O1   3794 -0.53626700  16.000000   ; qtot 143.242124
 3795          o    143    ccc     O2   3795 -0.48266700  16.000000   ; qtot 142.759457
 3796         hx    143    ccc    H10   3796 0.12753300   1.008000   ; qtot 142.886990
 3797         hx    143    ccc    H11   3797 0.12753300   1.008000   ; qtot 143.014523
 3798         c3    143    ccc     C7   3798 -0.20606700  12.010000   ; qtot 142.808456
 3799         hc    143    ccc    H12   3799 0.10603300   1.008000   ; qtot 142.914489
 3800         hc    143    ccc    H13   3800 0.10603300   1.008000   ; qtot 143.020522
 3801          c    143    ccc     C8   3801 0.63793300  12.010000   ; qtot 143.658455
 3802          o    143    ccc     O3   3802 -0.48266700  16.000000   ; qtot 143.175788
 3803         oh    143    ccc     O4   3803 -0.53626700  16.000000   ; qtot 142.639521
 3804         ho    143    ccc    H14   3804 0.45283300   1.008000   ; qtot 143.092354
 3805         ho    143    ccc    H15   3805 0.45283300   1.008000   ; qtot 143.545187
 3806         hn    143    ccc    H16   3806 0.45463300   1.008000   ; qtot 143.999820
; residue  144 ccc rtp ccc q 1.0
 3807          n    144    ccc     N1   3807 -0.56206700  14.010000   ; qtot 143.437753
 3808         hn    144    ccc     H1   3808 0.35233300   1.008000   ; qtot 143.790086
 3809         c3    144    ccc     C1   3809 0.10283300  12.010000   ; qtot 143.892919
 3810         h1    144    ccc     H2   3810 0.07153300   1.008000   ; qtot 143.964452
 3811         c3    144    ccc     C2   3811 0.07063300  12.010000   ; qtot 144.035085
 3812         h1    144    ccc     H3   3812 0.07153300   1.008000   ; qtot 144.106618
 3813         hx    144    ccc     H4   3813 0.11303300   1.008000   ; qtot 144.219651
 3814         hx    144    ccc     H5   3814 0.11303300   1.008000   ; qtot 144.332684
 3815         n4    144    ccc     N2   3815 -0.67056700  14.010000   ; qtot 143.662117
 3816         c3    144    ccc     C3   3816 0.10863300  12.010000   ; qtot 143.770750
 3817         c3    144    ccc     C4   3817 0.10863300  12.010000   ; qtot 143.879383
 3818         hx    144    ccc     H6   3818 0.12753300   1.008000   ; qtot 144.006916
 3819         c3    144    ccc     C5   3819 -0.20606700  12.010000   ; qtot 143.800849
 3820         hx    144    ccc     H7   3820 0.12753300   1.008000   ; qtot 143.928382
 3821         hc    144    ccc     H8   3821 0.10603300   1.008000   ; qtot 144.034415
 3822         hc    144    ccc     H9   3822 0.10603300   1.008000   ; qtot 144.140448
 3823          c    144    ccc     C6   3823 0.63793300  12.010000   ; qtot 144.778381
 3824         oh    144    ccc     O1   3824 -0.53626700  16.000000   ; qtot 144.242114
 3825          o    144    ccc     O2   3825 -0.48266700  16.000000   ; qtot 143.759447
 3826         hx    144    ccc    H10   3826 0.12753300   1.008000   ; qtot 143.886980
 3827         hx    144    ccc    H11   3827 0.12753300   1.008000   ; qtot 144.014513
 3828         c3    144    ccc     C7   3828 -0.20606700  12.010000   ; qtot 143.808446
 3829         hc    144    ccc    H12   3829 0.10603300   1.008000   ; qtot 143.914479
 3830         hc    144    ccc    H13   3830 0.10603300   1.008000   ; qtot 144.020512
 3831          c    144    ccc     C8   3831 0.63793300  12.010000   ; qtot 144.658445
 3832          o    144    ccc     O3   3832 -0.48266700  16.000000   ; qtot 144.175778
 3833         oh    144    ccc     O4   3833 -0.53626700  16.000000   ; qtot 143.639511
 3834         ho    144    ccc    H14   3834 0.45283300   1.008000   ; qtot 144.092344
 3835         ho    144    ccc    H15   3835 0.45283300   1.008000   ; qtot 144.545177
 3836         hn    144    ccc    H16   3836 0.45463300   1.008000   ; qtot 144.999810
; residue  145 ccc rtp ccc q 1.0
 3837          n    145    ccc     N1   3837 -0.56206700  14.010000   ; qtot 144.437743
 3838         hn    145    ccc     H1   3838 0.35233300   1.008000   ; qtot 144.790076
 3839         c3    145    ccc     C1   3839 0.10283300  12.010000   ; qtot 144.892909
 3840         h1    145    ccc     H2   3840 0.07153300   1.008000   ; qtot 144.964442
 3841         c3    145    ccc     C2   3841 0.07063300  12.010000   ; qtot 145.035075
 3842         h1    145    ccc     H3   3842 0.07153300   1.008000   ; qtot 145.106608
 3843         hx    145    ccc     H4   3843 0.11303300   1.008000   ; qtot 145.219641
 3844         hx    145    ccc     H5   3844 0.11303300   1.008000   ; qtot 145.332674
 3845         n4    145    ccc     N2   3845 -0.67056700  14.010000   ; qtot 144.662107
 3846         c3    145    ccc     C3   3846 0.10863300  12.010000   ; qtot 144.770740
 3847         c3    145    ccc     C4   3847 0.10863300  12.010000   ; qtot 144.879373
 3848         hx    145    ccc     H6   3848 0.12753300   1.008000   ; qtot 145.006906
 3849         c3    145    ccc     C5   3849 -0.20606700  12.010000   ; qtot 144.800839
 3850         hx    145    ccc     H7   3850 0.12753300   1.008000   ; qtot 144.928372
 3851         hc    145    ccc     H8   3851 0.10603300   1.008000   ; qtot 145.034405
 3852         hc    145    ccc     H9   3852 0.10603300   1.008000   ; qtot 145.140438
 3853          c    145    ccc     C6   3853 0.63793300  12.010000   ; qtot 145.778371
 3854         oh    145    ccc     O1   3854 -0.53626700  16.000000   ; qtot 145.242104
 3855          o    145    ccc     O2   3855 -0.48266700  16.000000   ; qtot 144.759437
 3856         hx    145    ccc    H10   3856 0.12753300   1.008000   ; qtot 144.886970
 3857         hx    145    ccc    H11   3857 0.12753300   1.008000   ; qtot 145.014503
 3858         c3    145    ccc     C7   3858 -0.20606700  12.010000   ; qtot 144.808436
 3859         hc    145    ccc    H12   3859 0.10603300   1.008000   ; qtot 144.914469
 3860         hc    145    ccc    H13   3860 0.10603300   1.008000   ; qtot 145.020502
 3861          c    145    ccc     C8   3861 0.63793300  12.010000   ; qtot 145.658435
 3862          o    145    ccc     O3   3862 -0.48266700  16.000000   ; qtot 145.175768
 3863         oh    145    ccc     O4   3863 -0.53626700  16.000000   ; qtot 144.639501
 3864         ho    145    ccc    H14   3864 0.45283300   1.008000   ; qtot 145.092334
 3865         ho    145    ccc    H15   3865 0.45283300   1.008000   ; qtot 145.545167
 3866         hn    145    ccc    H16   3866 0.45463300   1.008000   ; qtot 145.999800
; residue  146 ccc rtp ccc q 1.0
 3867          n    146    ccc     N1   3867 -0.56206700  14.010000   ; qtot 145.437733
 3868         hn    146    ccc     H1   3868 0.35233300   1.008000   ; qtot 145.790066
 3869         c3    146    ccc     C1   3869 0.10283300  12.010000   ; qtot 145.892899
 3870         h1    146    ccc     H2   3870 0.07153300   1.008000   ; qtot 145.964432
 3871         c3    146    ccc     C2   3871 0.07063300  12.010000   ; qtot 146.035065
 3872         h1    146    ccc     H3   3872 0.07153300   1.008000   ; qtot 146.106598
 3873         hx    146    ccc     H4   3873 0.11303300   1.008000   ; qtot 146.219631
 3874         hx    146    ccc     H5   3874 0.11303300   1.008000   ; qtot 146.332664
 3875         n4    146    ccc     N2   3875 -0.67056700  14.010000   ; qtot 145.662097
 3876         c3    146    ccc     C3   3876 0.10863300  12.010000   ; qtot 145.770730
 3877         c3    146    ccc     C4   3877 0.10863300  12.010000   ; qtot 145.879363
 3878         hx    146    ccc     H6   3878 0.12753300   1.008000   ; qtot 146.006896
 3879         c3    146    ccc     C5   3879 -0.20606700  12.010000   ; qtot 145.800829
 3880         hx    146    ccc     H7   3880 0.12753300   1.008000   ; qtot 145.928362
 3881         hc    146    ccc     H8   3881 0.10603300   1.008000   ; qtot 146.034395
 3882         hc    146    ccc     H9   3882 0.10603300   1.008000   ; qtot 146.140428
 3883          c    146    ccc     C6   3883 0.63793300  12.010000   ; qtot 146.778361
 3884         oh    146    ccc     O1   3884 -0.53626700  16.000000   ; qtot 146.242094
 3885          o    146    ccc     O2   3885 -0.48266700  16.000000   ; qtot 145.759427
 3886         hx    146    ccc    H10   3886 0.12753300   1.008000   ; qtot 145.886960
 3887         hx    146    ccc    H11   3887 0.12753300   1.008000   ; qtot 146.014493
 3888         c3    146    ccc     C7   3888 -0.20606700  12.010000   ; qtot 145.808426
 3889         hc    146    ccc    H12   3889 0.10603300   1.008000   ; qtot 145.914459
 3890         hc    146    ccc    H13   3890 0.10603300   1.008000   ; qtot 146.020492
 3891          c    146    ccc     C8   3891 0.63793300  12.010000   ; qtot 146.658425
 3892          o    146    ccc     O3   3892 -0.48266700  16.000000   ; qtot 146.175758
 3893         oh    146    ccc     O4   3893 -0.53626700  16.000000   ; qtot 145.639491
 3894         ho    146    ccc    H14   3894 0.45283300   1.008000   ; qtot 146.092324
 3895         ho    146    ccc    H15   3895 0.45283300   1.008000   ; qtot 146.545157
 3896         hn    146    ccc    H16   3896 0.45463300   1.008000   ; qtot 146.999790
; residue  147 ccc rtp ccc q 1.0
 3897          n    147    ccc     N1   3897 -0.56206700  14.010000   ; qtot 146.437723
 3898         hn    147    ccc     H1   3898 0.35233300   1.008000   ; qtot 146.790056
 3899         c3    147    ccc     C1   3899 0.10283300  12.010000   ; qtot 146.892889
 3900         h1    147    ccc     H2   3900 0.07153300   1.008000   ; qtot 146.964422
 3901         c3    147    ccc     C2   3901 0.07063300  12.010000   ; qtot 147.035055
 3902         h1    147    ccc     H3   3902 0.07153300   1.008000   ; qtot 147.106588
 3903         hx    147    ccc     H4   3903 0.11303300   1.008000   ; qtot 147.219621
 3904         hx    147    ccc     H5   3904 0.11303300   1.008000   ; qtot 147.332654
 3905         n4    147    ccc     N2   3905 -0.67056700  14.010000   ; qtot 146.662087
 3906         c3    147    ccc     C3   3906 0.10863300  12.010000   ; qtot 146.770720
 3907         c3    147    ccc     C4   3907 0.10863300  12.010000   ; qtot 146.879353
 3908         hx    147    ccc     H6   3908 0.12753300   1.008000   ; qtot 147.006886
 3909         c3    147    ccc     C5   3909 -0.20606700  12.010000   ; qtot 146.800819
 3910         hx    147    ccc     H7   3910 0.12753300   1.008000   ; qtot 146.928352
 3911         hc    147    ccc     H8   3911 0.10603300   1.008000   ; qtot 147.034385
 3912         hc    147    ccc     H9   3912 0.10603300   1.008000   ; qtot 147.140418
 3913          c    147    ccc     C6   3913 0.63793300  12.010000   ; qtot 147.778351
 3914         oh    147    ccc     O1   3914 -0.53626700  16.000000   ; qtot 147.242084
 3915          o    147    ccc     O2   3915 -0.48266700  16.000000   ; qtot 146.759417
 3916         hx    147    ccc    H10   3916 0.12753300   1.008000   ; qtot 146.886950
 3917         hx    147    ccc    H11   3917 0.12753300   1.008000   ; qtot 147.014483
 3918         c3    147    ccc     C7   3918 -0.20606700  12.010000   ; qtot 146.808416
 3919         hc    147    ccc    H12   3919 0.10603300   1.008000   ; qtot 146.914449
 3920         hc    147    ccc    H13   3920 0.10603300   1.008000   ; qtot 147.020482
 3921          c    147    ccc     C8   3921 0.63793300  12.010000   ; qtot 147.658415
 3922          o    147    ccc     O3   3922 -0.48266700  16.000000   ; qtot 147.175748
 3923         oh    147    ccc     O4   3923 -0.53626700  16.000000   ; qtot 146.639481
 3924         ho    147    ccc    H14   3924 0.45283300   1.008000   ; qtot 147.092314
 3925         ho    147    ccc    H15   3925 0.45283300   1.008000   ; qtot 147.545147
 3926         hn    147    ccc    H16   3926 0.45463300   1.008000   ; qtot 147.999780
; residue  148 ccc rtp ccc q 1.0
 3927          n    148    ccc     N1   3927 -0.56206700  14.010000   ; qtot 147.437713
 3928         hn    148    ccc     H1   3928 0.35233300   1.008000   ; qtot 147.790046
 3929         c3    148    ccc     C1   3929 0.10283300  12.010000   ; qtot 147.892879
 3930         h1    148    ccc     H2   3930 0.07153300   1.008000   ; qtot 147.964412
 3931         c3    148    ccc     C2   3931 0.07063300  12.010000   ; qtot 148.035045
 3932         h1    148    ccc     H3   3932 0.07153300   1.008000   ; qtot 148.106578
 3933         hx    148    ccc     H4   3933 0.11303300   1.008000   ; qtot 148.219611
 3934         hx    148    ccc     H5   3934 0.11303300   1.008000   ; qtot 148.332644
 3935         n4    148    ccc     N2   3935 -0.67056700  14.010000   ; qtot 147.662077
 3936         c3    148    ccc     C3   3936 0.10863300  12.010000   ; qtot 147.770710
 3937         c3    148    ccc     C4   3937 0.10863300  12.010000   ; qtot 147.879343
 3938         hx    148    ccc     H6   3938 0.12753300   1.008000   ; qtot 148.006876
 3939         c3    148    ccc     C5   3939 -0.20606700  12.010000   ; qtot 147.800809
 3940         hx    148    ccc     H7   3940 0.12753300   1.008000   ; qtot 147.928342
 3941         hc    148    ccc     H8   3941 0.10603300   1.008000   ; qtot 148.034375
 3942         hc    148    ccc     H9   3942 0.10603300   1.008000   ; qtot 148.140408
 3943          c    148    ccc     C6   3943 0.63793300  12.010000   ; qtot 148.778341
 3944         oh    148    ccc     O1   3944 -0.53626700  16.000000   ; qtot 148.242074
 3945          o    148    ccc     O2   3945 -0.48266700  16.000000   ; qtot 147.759407
 3946         hx    148    ccc    H10   3946 0.12753300   1.008000   ; qtot 147.886940
 3947         hx    148    ccc    H11   3947 0.12753300   1.008000   ; qtot 148.014473
 3948         c3    148    ccc     C7   3948 -0.20606700  12.010000   ; qtot 147.808406
 3949         hc    148    ccc    H12   3949 0.10603300   1.008000   ; qtot 147.914439
 3950         hc    148    ccc    H13   3950 0.10603300   1.008000   ; qtot 148.020472
 3951          c    148    ccc     C8   3951 0.63793300  12.010000   ; qtot 148.658405
 3952          o    148    ccc     O3   3952 -0.48266700  16.000000   ; qtot 148.175738
 3953         oh    148    ccc     O4   3953 -0.53626700  16.000000   ; qtot 147.639471
 3954         ho    148    ccc    H14   3954 0.45283300   1.008000   ; qtot 148.092304
 3955         ho    148    ccc    H15   3955 0.45283300   1.008000   ; qtot 148.545137
 3956         hn    148    ccc    H16   3956 0.45463300   1.008000   ; qtot 148.999770
; residue  149 ccc rtp ccc q 1.0
 3957          n    149    ccc     N1   3957 -0.56206700  14.010000   ; qtot 148.437703
 3958         hn    149    ccc     H1   3958 0.35233300   1.008000   ; qtot 148.790036
 3959         c3    149    ccc     C1   3959 0.10283300  12.010000   ; qtot 148.892869
 3960         h1    149    ccc     H2   3960 0.07153300   1.008000   ; qtot 148.964402
 3961         c3    149    ccc     C2   3961 0.07063300  12.010000   ; qtot 149.035035
 3962         h1    149    ccc     H3   3962 0.07153300   1.008000   ; qtot 149.106568
 3963         hx    149    ccc     H4   3963 0.11303300   1.008000   ; qtot 149.219601
 3964         hx    149    ccc     H5   3964 0.11303300   1.008000   ; qtot 149.332634
 3965         n4    149    ccc     N2   3965 -0.67056700  14.010000   ; qtot 148.662067
 3966         c3    149    ccc     C3   3966 0.10863300  12.010000   ; qtot 148.770700
 3967         c3    149    ccc     C4   3967 0.10863300  12.010000   ; qtot 148.879333
 3968         hx    149    ccc     H6   3968 0.12753300   1.008000   ; qtot 149.006866
 3969         c3    149    ccc     C5   3969 -0.20606700  12.010000   ; qtot 148.800799
 3970         hx    149    ccc     H7   3970 0.12753300   1.008000   ; qtot 148.928332
 3971         hc    149    ccc     H8   3971 0.10603300   1.008000   ; qtot 149.034365
 3972         hc    149    ccc     H9   3972 0.10603300   1.008000   ; qtot 149.140398
 3973          c    149    ccc     C6   3973 0.63793300  12.010000   ; qtot 149.778331
 3974         oh    149    ccc     O1   3974 -0.53626700  16.000000   ; qtot 149.242064
 3975          o    149    ccc     O2   3975 -0.48266700  16.000000   ; qtot 148.759397
 3976         hx    149    ccc    H10   3976 0.12753300   1.008000   ; qtot 148.886930
 3977         hx    149    ccc    H11   3977 0.12753300   1.008000   ; qtot 149.014463
 3978         c3    149    ccc     C7   3978 -0.20606700  12.010000   ; qtot 148.808396
 3979         hc    149    ccc    H12   3979 0.10603300   1.008000   ; qtot 148.914429
 3980         hc    149    ccc    H13   3980 0.10603300   1.008000   ; qtot 149.020462
 3981          c    149    ccc     C8   3981 0.63793300  12.010000   ; qtot 149.658395
 3982          o    149    ccc     O3   3982 -0.48266700  16.000000   ; qtot 149.175728
 3983         oh    149    ccc     O4   3983 -0.53626700  16.000000   ; qtot 148.639461
 3984         ho    149    ccc    H14   3984 0.45283300   1.008000   ; qtot 149.092294
 3985         ho    149    ccc    H15   3985 0.45283300   1.008000   ; qtot 149.545127
 3986         hn    149    ccc    H16   3986 0.45463300   1.008000   ; qtot 149.999760
; residue  150 ccc rtp ccc q 1.0
 3987          n    150    ccc     N1   3987 -0.56206700  14.010000   ; qtot 149.437693
 3988         hn    150    ccc     H1   3988 0.35233300   1.008000   ; qtot 149.790026
 3989         c3    150    ccc     C1   3989 0.10283300  12.010000   ; qtot 149.892859
 3990         h1    150    ccc     H2   3990 0.07153300   1.008000   ; qtot 149.964392
 3991         c3    150    ccc     C2   3991 0.07063300  12.010000   ; qtot 150.035025
 3992         h1    150    ccc     H3   3992 0.07153300   1.008000   ; qtot 150.106558
 3993         hx    150    ccc     H4   3993 0.11303300   1.008000   ; qtot 150.219591
 3994         hx    150    ccc     H5   3994 0.11303300   1.008000   ; qtot 150.332624
 3995         n4    150    ccc     N2   3995 -0.67056700  14.010000   ; qtot 149.662057
 3996         c3    150    ccc     C3   3996 0.10863300  12.010000   ; qtot 149.770690
 3997         c3    150    ccc     C4   3997 0.10863300  12.010000   ; qtot 149.879323
 3998         hx    150    ccc     H6   3998 0.12753300   1.008000   ; qtot 150.006856
 3999         c3    150    ccc     C5   3999 -0.20606700  12.010000   ; qtot 149.800789
 4000         hx    150    ccc     H7   4000 0.12753300   1.008000   ; qtot 149.928322
 4001         hc    150    ccc     H8   4001 0.10603300   1.008000   ; qtot 150.034355
 4002         hc    150    ccc     H9   4002 0.10603300   1.008000   ; qtot 150.140388
 4003          c    150    ccc     C6   4003 0.63793300  12.010000   ; qtot 150.778321
 4004         oh    150    ccc     O1   4004 -0.53626700  16.000000   ; qtot 150.242054
 4005          o    150    ccc     O2   4005 -0.48266700  16.000000   ; qtot 149.759387
 4006         hx    150    ccc    H10   4006 0.12753300   1.008000   ; qtot 149.886920
 4007         hx    150    ccc    H11   4007 0.12753300   1.008000   ; qtot 150.014453
 4008         c3    150    ccc     C7   4008 -0.20606700  12.010000   ; qtot 149.808386
 4009         hc    150    ccc    H12   4009 0.10603300   1.008000   ; qtot 149.914419
 4010         hc    150    ccc    H13   4010 0.10603300   1.008000   ; qtot 150.020452
 4011          c    150    ccc     C8   4011 0.63793300  12.010000   ; qtot 150.658385
 4012          o    150    ccc     O3   4012 -0.48266700  16.000000   ; qtot 150.175718
 4013         oh    150    ccc     O4   4013 -0.53626700  16.000000   ; qtot 149.639451
 4014         ho    150    ccc    H14   4014 0.45283300   1.008000   ; qtot 150.092284
 4015         ho    150    ccc    H15   4015 0.45283300   1.008000   ; qtot 150.545117
 4016         hn    150    ccc    H16   4016 0.45463300   1.008000   ; qtot 150.999750
; residue  151 ccc rtp ccc q 1.0
 4017          n    151    ccc     N1   4017 -0.56206700  14.010000   ; qtot 150.437683
 4018         hn    151    ccc     H1   4018 0.35233300   1.008000   ; qtot 150.790016
 4019         c3    151    ccc     C1   4019 0.10283300  12.010000   ; qtot 150.892849
 4020         h1    151    ccc     H2   4020 0.07153300   1.008000   ; qtot 150.964382
 4021         c3    151    ccc     C2   4021 0.07063300  12.010000   ; qtot 151.035015
 4022         h1    151    ccc     H3   4022 0.07153300   1.008000   ; qtot 151.106548
 4023         hx    151    ccc     H4   4023 0.11303300   1.008000   ; qtot 151.219581
 4024         hx    151    ccc     H5   4024 0.11303300   1.008000   ; qtot 151.332614
 4025         n4    151    ccc     N2   4025 -0.67056700  14.010000   ; qtot 150.662047
 4026         c3    151    ccc     C3   4026 0.10863300  12.010000   ; qtot 150.770680
 4027         c3    151    ccc     C4   4027 0.10863300  12.010000   ; qtot 150.879313
 4028         hx    151    ccc     H6   4028 0.12753300   1.008000   ; qtot 151.006846
 4029         c3    151    ccc     C5   4029 -0.20606700  12.010000   ; qtot 150.800779
 4030         hx    151    ccc     H7   4030 0.12753300   1.008000   ; qtot 150.928312
 4031         hc    151    ccc     H8   4031 0.10603300   1.008000   ; qtot 151.034345
 4032         hc    151    ccc     H9   4032 0.10603300   1.008000   ; qtot 151.140378
 4033          c    151    ccc     C6   4033 0.63793300  12.010000   ; qtot 151.778311
 4034         oh    151    ccc     O1   4034 -0.53626700  16.000000   ; qtot 151.242044
 4035          o    151    ccc     O2   4035 -0.48266700  16.000000   ; qtot 150.759377
 4036         hx    151    ccc    H10   4036 0.12753300   1.008000   ; qtot 150.886910
 4037         hx    151    ccc    H11   4037 0.12753300   1.008000   ; qtot 151.014443
 4038         c3    151    ccc     C7   4038 -0.20606700  12.010000   ; qtot 150.808376
 4039         hc    151    ccc    H12   4039 0.10603300   1.008000   ; qtot 150.914409
 4040         hc    151    ccc    H13   4040 0.10603300   1.008000   ; qtot 151.020442
 4041          c    151    ccc     C8   4041 0.63793300  12.010000   ; qtot 151.658375
 4042          o    151    ccc     O3   4042 -0.48266700  16.000000   ; qtot 151.175708
 4043         oh    151    ccc     O4   4043 -0.53626700  16.000000   ; qtot 150.639441
 4044         ho    151    ccc    H14   4044 0.45283300   1.008000   ; qtot 151.092274
 4045         ho    151    ccc    H15   4045 0.45283300   1.008000   ; qtot 151.545107
 4046         hn    151    ccc    H16   4046 0.45463300   1.008000   ; qtot 151.999740
; residue  152 ccc rtp ccc q 1.0
 4047          n    152    ccc     N1   4047 -0.56206700  14.010000   ; qtot 151.437673
 4048         hn    152    ccc     H1   4048 0.35233300   1.008000   ; qtot 151.790006
 4049         c3    152    ccc     C1   4049 0.10283300  12.010000   ; qtot 151.892839
 4050         h1    152    ccc     H2   4050 0.07153300   1.008000   ; qtot 151.964372
 4051         c3    152    ccc     C2   4051 0.07063300  12.010000   ; qtot 152.035005
 4052         h1    152    ccc     H3   4052 0.07153300   1.008000   ; qtot 152.106538
 4053         hx    152    ccc     H4   4053 0.11303300   1.008000   ; qtot 152.219571
 4054         hx    152    ccc     H5   4054 0.11303300   1.008000   ; qtot 152.332604
 4055         n4    152    ccc     N2   4055 -0.67056700  14.010000   ; qtot 151.662037
 4056         c3    152    ccc     C3   4056 0.10863300  12.010000   ; qtot 151.770670
 4057         c3    152    ccc     C4   4057 0.10863300  12.010000   ; qtot 151.879303
 4058         hx    152    ccc     H6   4058 0.12753300   1.008000   ; qtot 152.006836
 4059         c3    152    ccc     C5   4059 -0.20606700  12.010000   ; qtot 151.800769
 4060         hx    152    ccc     H7   4060 0.12753300   1.008000   ; qtot 151.928302
 4061         hc    152    ccc     H8   4061 0.10603300   1.008000   ; qtot 152.034335
 4062         hc    152    ccc     H9   4062 0.10603300   1.008000   ; qtot 152.140368
 4063          c    152    ccc     C6   4063 0.63793300  12.010000   ; qtot 152.778301
 4064         oh    152    ccc     O1   4064 -0.53626700  16.000000   ; qtot 152.242034
 4065          o    152    ccc     O2   4065 -0.48266700  16.000000   ; qtot 151.759367
 4066         hx    152    ccc    H10   4066 0.12753300   1.008000   ; qtot 151.886900
 4067         hx    152    ccc    H11   4067 0.12753300   1.008000   ; qtot 152.014433
 4068         c3    152    ccc     C7   4068 -0.20606700  12.010000   ; qtot 151.808366
 4069         hc    152    ccc    H12   4069 0.10603300   1.008000   ; qtot 151.914399
 4070         hc    152    ccc    H13   4070 0.10603300   1.008000   ; qtot 152.020432
 4071          c    152    ccc     C8   4071 0.63793300  12.010000   ; qtot 152.658365
 4072          o    152    ccc     O3   4072 -0.48266700  16.000000   ; qtot 152.175698
 4073         oh    152    ccc     O4   4073 -0.53626700  16.000000   ; qtot 151.639431
 4074         ho    152    ccc    H14   4074 0.45283300   1.008000   ; qtot 152.092264
 4075         ho    152    ccc    H15   4075 0.45283300   1.008000   ; qtot 152.545097
 4076         hn    152    ccc    H16   4076 0.45463300   1.008000   ; qtot 152.999730
; residue  153 ccc rtp ccc q 1.0
 4077          n    153    ccc     N1   4077 -0.56206700  14.010000   ; qtot 152.437663
 4078         hn    153    ccc     H1   4078 0.35233300   1.008000   ; qtot 152.789996
 4079         c3    153    ccc     C1   4079 0.10283300  12.010000   ; qtot 152.892829
 4080         h1    153    ccc     H2   4080 0.07153300   1.008000   ; qtot 152.964362
 4081         c3    153    ccc     C2   4081 0.07063300  12.010000   ; qtot 153.034995
 4082         h1    153    ccc     H3   4082 0.07153300   1.008000   ; qtot 153.106528
 4083         hx    153    ccc     H4   4083 0.11303300   1.008000   ; qtot 153.219561
 4084         hx    153    ccc     H5   4084 0.11303300   1.008000   ; qtot 153.332594
 4085         n4    153    ccc     N2   4085 -0.67056700  14.010000   ; qtot 152.662027
 4086         c3    153    ccc     C3   4086 0.10863300  12.010000   ; qtot 152.770660
 4087         c3    153    ccc     C4   4087 0.10863300  12.010000   ; qtot 152.879293
 4088         hx    153    ccc     H6   4088 0.12753300   1.008000   ; qtot 153.006826
 4089         c3    153    ccc     C5   4089 -0.20606700  12.010000   ; qtot 152.800759
 4090         hx    153    ccc     H7   4090 0.12753300   1.008000   ; qtot 152.928292
 4091         hc    153    ccc     H8   4091 0.10603300   1.008000   ; qtot 153.034325
 4092         hc    153    ccc     H9   4092 0.10603300   1.008000   ; qtot 153.140358
 4093          c    153    ccc     C6   4093 0.63793300  12.010000   ; qtot 153.778291
 4094         oh    153    ccc     O1   4094 -0.53626700  16.000000   ; qtot 153.242024
 4095          o    153    ccc     O2   4095 -0.48266700  16.000000   ; qtot 152.759357
 4096         hx    153    ccc    H10   4096 0.12753300   1.008000   ; qtot 152.886890
 4097         hx    153    ccc    H11   4097 0.12753300   1.008000   ; qtot 153.014423
 4098         c3    153    ccc     C7   4098 -0.20606700  12.010000   ; qtot 152.808356
 4099         hc    153    ccc    H12   4099 0.10603300   1.008000   ; qtot 152.914389
 4100         hc    153    ccc    H13   4100 0.10603300   1.008000   ; qtot 153.020422
 4101          c    153    ccc     C8   4101 0.63793300  12.010000   ; qtot 153.658355
 4102          o    153    ccc     O3   4102 -0.48266700  16.000000   ; qtot 153.175688
 4103         oh    153    ccc     O4   4103 -0.53626700  16.000000   ; qtot 152.639421
 4104         ho    153    ccc    H14   4104 0.45283300   1.008000   ; qtot 153.092254
 4105         ho    153    ccc    H15   4105 0.45283300   1.008000   ; qtot 153.545087
 4106         hn    153    ccc    H16   4106 0.45463300   1.008000   ; qtot 153.999720
; residue  154 ccc rtp ccc q 1.0
 4107          n    154    ccc     N1   4107 -0.56206700  14.010000   ; qtot 153.437653
 4108         hn    154    ccc     H1   4108 0.35233300   1.008000   ; qtot 153.789986
 4109         c3    154    ccc     C1   4109 0.10283300  12.010000   ; qtot 153.892819
 4110         h1    154    ccc     H2   4110 0.07153300   1.008000   ; qtot 153.964352
 4111         c3    154    ccc     C2   4111 0.07063300  12.010000   ; qtot 154.034985
 4112         h1    154    ccc     H3   4112 0.07153300   1.008000   ; qtot 154.106518
 4113         hx    154    ccc     H4   4113 0.11303300   1.008000   ; qtot 154.219551
 4114         hx    154    ccc     H5   4114 0.11303300   1.008000   ; qtot 154.332584
 4115         n4    154    ccc     N2   4115 -0.67056700  14.010000   ; qtot 153.662017
 4116         c3    154    ccc     C3   4116 0.10863300  12.010000   ; qtot 153.770650
 4117         c3    154    ccc     C4   4117 0.10863300  12.010000   ; qtot 153.879283
 4118         hx    154    ccc     H6   4118 0.12753300   1.008000   ; qtot 154.006816
 4119         c3    154    ccc     C5   4119 -0.20606700  12.010000   ; qtot 153.800749
 4120         hx    154    ccc     H7   4120 0.12753300   1.008000   ; qtot 153.928282
 4121         hc    154    ccc     H8   4121 0.10603300   1.008000   ; qtot 154.034315
 4122         hc    154    ccc     H9   4122 0.10603300   1.008000   ; qtot 154.140348
 4123          c    154    ccc     C6   4123 0.63793300  12.010000   ; qtot 154.778281
 4124         oh    154    ccc     O1   4124 -0.53626700  16.000000   ; qtot 154.242014
 4125          o    154    ccc     O2   4125 -0.48266700  16.000000   ; qtot 153.759347
 4126         hx    154    ccc    H10   4126 0.12753300   1.008000   ; qtot 153.886880
 4127         hx    154    ccc    H11   4127 0.12753300   1.008000   ; qtot 154.014413
 4128         c3    154    ccc     C7   4128 -0.20606700  12.010000   ; qtot 153.808346
 4129         hc    154    ccc    H12   4129 0.10603300   1.008000   ; qtot 153.914379
 4130         hc    154    ccc    H13   4130 0.10603300   1.008000   ; qtot 154.020412
 4131          c    154    ccc     C8   4131 0.63793300  12.010000   ; qtot 154.658345
 4132          o    154    ccc     O3   4132 -0.48266700  16.000000   ; qtot 154.175678
 4133         oh    154    ccc     O4   4133 -0.53626700  16.000000   ; qtot 153.639411
 4134         ho    154    ccc    H14   4134 0.45283300   1.008000   ; qtot 154.092244
 4135         ho    154    ccc    H15   4135 0.45283300   1.008000   ; qtot 154.545077
 4136         hn    154    ccc    H16   4136 0.45463300   1.008000   ; qtot 154.999710
; residue  155 ccc rtp ccc q 1.0
 4137          n    155    ccc     N1   4137 -0.56206700  14.010000   ; qtot 154.437643
 4138         hn    155    ccc     H1   4138 0.35233300   1.008000   ; qtot 154.789976
 4139         c3    155    ccc     C1   4139 0.10283300  12.010000   ; qtot 154.892809
 4140         h1    155    ccc     H2   4140 0.07153300   1.008000   ; qtot 154.964342
 4141         c3    155    ccc     C2   4141 0.07063300  12.010000   ; qtot 155.034975
 4142         h1    155    ccc     H3   4142 0.07153300   1.008000   ; qtot 155.106508
 4143         hx    155    ccc     H4   4143 0.11303300   1.008000   ; qtot 155.219541
 4144         hx    155    ccc     H5   4144 0.11303300   1.008000   ; qtot 155.332574
 4145         n4    155    ccc     N2   4145 -0.67056700  14.010000   ; qtot 154.662007
 4146         c3    155    ccc     C3   4146 0.10863300  12.010000   ; qtot 154.770640
 4147         c3    155    ccc     C4   4147 0.10863300  12.010000   ; qtot 154.879273
 4148         hx    155    ccc     H6   4148 0.12753300   1.008000   ; qtot 155.006806
 4149         c3    155    ccc     C5   4149 -0.20606700  12.010000   ; qtot 154.800739
 4150         hx    155    ccc     H7   4150 0.12753300   1.008000   ; qtot 154.928272
 4151         hc    155    ccc     H8   4151 0.10603300   1.008000   ; qtot 155.034305
 4152         hc    155    ccc     H9   4152 0.10603300   1.008000   ; qtot 155.140338
 4153          c    155    ccc     C6   4153 0.63793300  12.010000   ; qtot 155.778271
 4154         oh    155    ccc     O1   4154 -0.53626700  16.000000   ; qtot 155.242004
 4155          o    155    ccc     O2   4155 -0.48266700  16.000000   ; qtot 154.759337
 4156         hx    155    ccc    H10   4156 0.12753300   1.008000   ; qtot 154.886870
 4157         hx    155    ccc    H11   4157 0.12753300   1.008000   ; qtot 155.014403
 4158         c3    155    ccc     C7   4158 -0.20606700  12.010000   ; qtot 154.808336
 4159         hc    155    ccc    H12   4159 0.10603300   1.008000   ; qtot 154.914369
 4160         hc    155    ccc    H13   4160 0.10603300   1.008000   ; qtot 155.020402
 4161          c    155    ccc     C8   4161 0.63793300  12.010000   ; qtot 155.658335
 4162          o    155    ccc     O3   4162 -0.48266700  16.000000   ; qtot 155.175668
 4163         oh    155    ccc     O4   4163 -0.53626700  16.000000   ; qtot 154.639401
 4164         ho    155    ccc    H14   4164 0.45283300   1.008000   ; qtot 155.092234
 4165         ho    155    ccc    H15   4165 0.45283300   1.008000   ; qtot 155.545067
 4166         hn    155    ccc    H16   4166 0.45463300   1.008000   ; qtot 155.999700
; residue  156 ccc rtp ccc q 1.0
 4167          n    156    ccc     N1   4167 -0.56206700  14.010000   ; qtot 155.437633
 4168         hn    156    ccc     H1   4168 0.35233300   1.008000   ; qtot 155.789966
 4169         c3    156    ccc     C1   4169 0.10283300  12.010000   ; qtot 155.892799
 4170         h1    156    ccc     H2   4170 0.07153300   1.008000   ; qtot 155.964332
 4171         c3    156    ccc     C2   4171 0.07063300  12.010000   ; qtot 156.034965
 4172         h1    156    ccc     H3   4172 0.07153300   1.008000   ; qtot 156.106498
 4173         hx    156    ccc     H4   4173 0.11303300   1.008000   ; qtot 156.219531
 4174         hx    156    ccc     H5   4174 0.11303300   1.008000   ; qtot 156.332564
 4175         n4    156    ccc     N2   4175 -0.67056700  14.010000   ; qtot 155.661997
 4176         c3    156    ccc     C3   4176 0.10863300  12.010000   ; qtot 155.770630
 4177         c3    156    ccc     C4   4177 0.10863300  12.010000   ; qtot 155.879263
 4178         hx    156    ccc     H6   4178 0.12753300   1.008000   ; qtot 156.006796
 4179         c3    156    ccc     C5   4179 -0.20606700  12.010000   ; qtot 155.800729
 4180         hx    156    ccc     H7   4180 0.12753300   1.008000   ; qtot 155.928262
 4181         hc    156    ccc     H8   4181 0.10603300   1.008000   ; qtot 156.034295
 4182         hc    156    ccc     H9   4182 0.10603300   1.008000   ; qtot 156.140328
 4183          c    156    ccc     C6   4183 0.63793300  12.010000   ; qtot 156.778261
 4184         oh    156    ccc     O1   4184 -0.53626700  16.000000   ; qtot 156.241994
 4185          o    156    ccc     O2   4185 -0.48266700  16.000000   ; qtot 155.759327
 4186         hx    156    ccc    H10   4186 0.12753300   1.008000   ; qtot 155.886860
 4187         hx    156    ccc    H11   4187 0.12753300   1.008000   ; qtot 156.014393
 4188         c3    156    ccc     C7   4188 -0.20606700  12.010000   ; qtot 155.808326
 4189         hc    156    ccc    H12   4189 0.10603300   1.008000   ; qtot 155.914359
 4190         hc    156    ccc    H13   4190 0.10603300   1.008000   ; qtot 156.020392
 4191          c    156    ccc     C8   4191 0.63793300  12.010000   ; qtot 156.658325
 4192          o    156    ccc     O3   4192 -0.48266700  16.000000   ; qtot 156.175658
 4193         oh    156    ccc     O4   4193 -0.53626700  16.000000   ; qtot 155.639391
 4194         ho    156    ccc    H14   4194 0.45283300   1.008000   ; qtot 156.092224
 4195         ho    156    ccc    H15   4195 0.45283300   1.008000   ; qtot 156.545057
 4196         hn    156    ccc    H16   4196 0.45463300   1.008000   ; qtot 156.999690
; residue  157 ccc rtp ccc q 1.0
 4197          n    157    ccc     N1   4197 -0.56206700  14.010000   ; qtot 156.437623
 4198         hn    157    ccc     H1   4198 0.35233300   1.008000   ; qtot 156.789956
 4199         c3    157    ccc     C1   4199 0.10283300  12.010000   ; qtot 156.892789
 4200         h1    157    ccc     H2   4200 0.07153300   1.008000   ; qtot 156.964322
 4201         c3    157    ccc     C2   4201 0.07063300  12.010000   ; qtot 157.034955
 4202         h1    157    ccc     H3   4202 0.07153300   1.008000   ; qtot 157.106488
 4203         hx    157    ccc     H4   4203 0.11303300   1.008000   ; qtot 157.219521
 4204         hx    157    ccc     H5   4204 0.11303300   1.008000   ; qtot 157.332554
 4205         n4    157    ccc     N2   4205 -0.67056700  14.010000   ; qtot 156.661987
 4206         c3    157    ccc     C3   4206 0.10863300  12.010000   ; qtot 156.770620
 4207         c3    157    ccc     C4   4207 0.10863300  12.010000   ; qtot 156.879253
 4208         hx    157    ccc     H6   4208 0.12753300   1.008000   ; qtot 157.006786
 4209         c3    157    ccc     C5   4209 -0.20606700  12.010000   ; qtot 156.800719
 4210         hx    157    ccc     H7   4210 0.12753300   1.008000   ; qtot 156.928252
 4211         hc    157    ccc     H8   4211 0.10603300   1.008000   ; qtot 157.034285
 4212         hc    157    ccc     H9   4212 0.10603300   1.008000   ; qtot 157.140318
 4213          c    157    ccc     C6   4213 0.63793300  12.010000   ; qtot 157.778251
 4214         oh    157    ccc     O1   4214 -0.53626700  16.000000   ; qtot 157.241984
 4215          o    157    ccc     O2   4215 -0.48266700  16.000000   ; qtot 156.759317
 4216         hx    157    ccc    H10   4216 0.12753300   1.008000   ; qtot 156.886850
 4217         hx    157    ccc    H11   4217 0.12753300   1.008000   ; qtot 157.014383
 4218         c3    157    ccc     C7   4218 -0.20606700  12.010000   ; qtot 156.808316
 4219         hc    157    ccc    H12   4219 0.10603300   1.008000   ; qtot 156.914349
 4220         hc    157    ccc    H13   4220 0.10603300   1.008000   ; qtot 157.020382
 4221          c    157    ccc     C8   4221 0.63793300  12.010000   ; qtot 157.658315
 4222          o    157    ccc     O3   4222 -0.48266700  16.000000   ; qtot 157.175648
 4223         oh    157    ccc     O4   4223 -0.53626700  16.000000   ; qtot 156.639381
 4224         ho    157    ccc    H14   4224 0.45283300   1.008000   ; qtot 157.092214
 4225         ho    157    ccc    H15   4225 0.45283300   1.008000   ; qtot 157.545047
 4226         hn    157    ccc    H16   4226 0.45463300   1.008000   ; qtot 157.999680
; residue  158 ccc rtp ccc q 1.0
 4227          n    158    ccc     N1   4227 -0.56206700  14.010000   ; qtot 157.437613
 4228         hn    158    ccc     H1   4228 0.35233300   1.008000   ; qtot 157.789946
 4229         c3    158    ccc     C1   4229 0.10283300  12.010000   ; qtot 157.892779
 4230         h1    158    ccc     H2   4230 0.07153300   1.008000   ; qtot 157.964312
 4231         c3    158    ccc     C2   4231 0.07063300  12.010000   ; qtot 158.034945
 4232         h1    158    ccc     H3   4232 0.07153300   1.008000   ; qtot 158.106478
 4233         hx    158    ccc     H4   4233 0.11303300   1.008000   ; qtot 158.219511
 4234         hx    158    ccc     H5   4234 0.11303300   1.008000   ; qtot 158.332544
 4235         n4    158    ccc     N2   4235 -0.67056700  14.010000   ; qtot 157.661977
 4236         c3    158    ccc     C3   4236 0.10863300  12.010000   ; qtot 157.770610
 4237         c3    158    ccc     C4   4237 0.10863300  12.010000   ; qtot 157.879243
 4238         hx    158    ccc     H6   4238 0.12753300   1.008000   ; qtot 158.006776
 4239         c3    158    ccc     C5   4239 -0.20606700  12.010000   ; qtot 157.800709
 4240         hx    158    ccc     H7   4240 0.12753300   1.008000   ; qtot 157.928242
 4241         hc    158    ccc     H8   4241 0.10603300   1.008000   ; qtot 158.034275
 4242         hc    158    ccc     H9   4242 0.10603300   1.008000   ; qtot 158.140308
 4243          c    158    ccc     C6   4243 0.63793300  12.010000   ; qtot 158.778241
 4244         oh    158    ccc     O1   4244 -0.53626700  16.000000   ; qtot 158.241974
 4245          o    158    ccc     O2   4245 -0.48266700  16.000000   ; qtot 157.759307
 4246         hx    158    ccc    H10   4246 0.12753300   1.008000   ; qtot 157.886840
 4247         hx    158    ccc    H11   4247 0.12753300   1.008000   ; qtot 158.014373
 4248         c3    158    ccc     C7   4248 -0.20606700  12.010000   ; qtot 157.808306
 4249         hc    158    ccc    H12   4249 0.10603300   1.008000   ; qtot 157.914339
 4250         hc    158    ccc    H13   4250 0.10603300   1.008000   ; qtot 158.020372
 4251          c    158    ccc     C8   4251 0.63793300  12.010000   ; qtot 158.658305
 4252          o    158    ccc     O3   4252 -0.48266700  16.000000   ; qtot 158.175638
 4253         oh    158    ccc     O4   4253 -0.53626700  16.000000   ; qtot 157.639371
 4254         ho    158    ccc    H14   4254 0.45283300   1.008000   ; qtot 158.092204
 4255         ho    158    ccc    H15   4255 0.45283300   1.008000   ; qtot 158.545037
 4256         hn    158    ccc    H16   4256 0.45463300   1.008000   ; qtot 158.999670
; residue  159 ccc rtp ccc q 1.0
 4257          n    159    ccc     N1   4257 -0.56206700  14.010000   ; qtot 158.437603
 4258         hn    159    ccc     H1   4258 0.35233300   1.008000   ; qtot 158.789936
 4259         c3    159    ccc     C1   4259 0.10283300  12.010000   ; qtot 158.892769
 4260         h1    159    ccc     H2   4260 0.07153300   1.008000   ; qtot 158.964302
 4261         c3    159    ccc     C2   4261 0.07063300  12.010000   ; qtot 159.034935
 4262         h1    159    ccc     H3   4262 0.07153300   1.008000   ; qtot 159.106468
 4263         hx    159    ccc     H4   4263 0.11303300   1.008000   ; qtot 159.219501
 4264         hx    159    ccc     H5   4264 0.11303300   1.008000   ; qtot 159.332534
 4265         n4    159    ccc     N2   4265 -0.67056700  14.010000   ; qtot 158.661967
 4266         c3    159    ccc     C3   4266 0.10863300  12.010000   ; qtot 158.770600
 4267         c3    159    ccc     C4   4267 0.10863300  12.010000   ; qtot 158.879233
 4268         hx    159    ccc     H6   4268 0.12753300   1.008000   ; qtot 159.006766
 4269         c3    159    ccc     C5   4269 -0.20606700  12.010000   ; qtot 158.800699
 4270         hx    159    ccc     H7   4270 0.12753300   1.008000   ; qtot 158.928232
 4271         hc    159    ccc     H8   4271 0.10603300   1.008000   ; qtot 159.034265
 4272         hc    159    ccc     H9   4272 0.10603300   1.008000   ; qtot 159.140298
 4273          c    159    ccc     C6   4273 0.63793300  12.010000   ; qtot 159.778231
 4274         oh    159    ccc     O1   4274 -0.53626700  16.000000   ; qtot 159.241964
 4275          o    159    ccc     O2   4275 -0.48266700  16.000000   ; qtot 158.759297
 4276         hx    159    ccc    H10   4276 0.12753300   1.008000   ; qtot 158.886830
 4277         hx    159    ccc    H11   4277 0.12753300   1.008000   ; qtot 159.014363
 4278         c3    159    ccc     C7   4278 -0.20606700  12.010000   ; qtot 158.808296
 4279         hc    159    ccc    H12   4279 0.10603300   1.008000   ; qtot 158.914329
 4280         hc    159    ccc    H13   4280 0.10603300   1.008000   ; qtot 159.020362
 4281          c    159    ccc     C8   4281 0.63793300  12.010000   ; qtot 159.658295
 4282          o    159    ccc     O3   4282 -0.48266700  16.000000   ; qtot 159.175628
 4283         oh    159    ccc     O4   4283 -0.53626700  16.000000   ; qtot 158.639361
 4284         ho    159    ccc    H14   4284 0.45283300   1.008000   ; qtot 159.092194
 4285         ho    159    ccc    H15   4285 0.45283300   1.008000   ; qtot 159.545027
 4286         hn    159    ccc    H16   4286 0.45463300   1.008000   ; qtot 159.999660
; residue  160 ccc rtp ccc q 1.0
 4287          n    160    ccc     N1   4287 -0.56206700  14.010000   ; qtot 159.437593
 4288         hn    160    ccc     H1   4288 0.35233300   1.008000   ; qtot 159.789926
 4289         c3    160    ccc     C1   4289 0.10283300  12.010000   ; qtot 159.892759
 4290         h1    160    ccc     H2   4290 0.07153300   1.008000   ; qtot 159.964292
 4291         c3    160    ccc     C2   4291 0.07063300  12.010000   ; qtot 160.034925
 4292         h1    160    ccc     H3   4292 0.07153300   1.008000   ; qtot 160.106458
 4293         hx    160    ccc     H4   4293 0.11303300   1.008000   ; qtot 160.219491
 4294         hx    160    ccc     H5   4294 0.11303300   1.008000   ; qtot 160.332524
 4295         n4    160    ccc     N2   4295 -0.67056700  14.010000   ; qtot 159.661957
 4296         c3    160    ccc     C3   4296 0.10863300  12.010000   ; qtot 159.770590
 4297         c3    160    ccc     C4   4297 0.10863300  12.010000   ; qtot 159.879223
 4298         hx    160    ccc     H6   4298 0.12753300   1.008000   ; qtot 160.006756
 4299         c3    160    ccc     C5   4299 -0.20606700  12.010000   ; qtot 159.800689
 4300         hx    160    ccc     H7   4300 0.12753300   1.008000   ; qtot 159.928222
 4301         hc    160    ccc     H8   4301 0.10603300   1.008000   ; qtot 160.034255
 4302         hc    160    ccc     H9   4302 0.10603300   1.008000   ; qtot 160.140288
 4303          c    160    ccc     C6   4303 0.63793300  12.010000   ; qtot 160.778221
 4304         oh    160    ccc     O1   4304 -0.53626700  16.000000   ; qtot 160.241954
 4305          o    160    ccc     O2   4305 -0.48266700  16.000000   ; qtot 159.759287
 4306         hx    160    ccc    H10   4306 0.12753300   1.008000   ; qtot 159.886820
 4307         hx    160    ccc    H11   4307 0.12753300   1.008000   ; qtot 160.014353
 4308         c3    160    ccc     C7   4308 -0.20606700  12.010000   ; qtot 159.808286
 4309         hc    160    ccc    H12   4309 0.10603300   1.008000   ; qtot 159.914319
 4310         hc    160    ccc    H13   4310 0.10603300   1.008000   ; qtot 160.020352
 4311          c    160    ccc     C8   4311 0.63793300  12.010000   ; qtot 160.658285
 4312          o    160    ccc     O3   4312 -0.48266700  16.000000   ; qtot 160.175618
 4313         oh    160    ccc     O4   4313 -0.53626700  16.000000   ; qtot 159.639351
 4314         ho    160    ccc    H14   4314 0.45283300   1.008000   ; qtot 160.092184
 4315         ho    160    ccc    H15   4315 0.45283300   1.008000   ; qtot 160.545017
 4316         hn    160    ccc    H16   4316 0.45463300   1.008000   ; qtot 160.999650
; residue  161 ccc rtp ccc q 1.0
 4317          n    161    ccc     N1   4317 -0.56206700  14.010000   ; qtot 160.437583
 4318         hn    161    ccc     H1   4318 0.35233300   1.008000   ; qtot 160.789916
 4319         c3    161    ccc     C1   4319 0.10283300  12.010000   ; qtot 160.892749
 4320         h1    161    ccc     H2   4320 0.07153300   1.008000   ; qtot 160.964282
 4321         c3    161    ccc     C2   4321 0.07063300  12.010000   ; qtot 161.034915
 4322         h1    161    ccc     H3   4322 0.07153300   1.008000   ; qtot 161.106448
 4323         hx    161    ccc     H4   4323 0.11303300   1.008000   ; qtot 161.219481
 4324         hx    161    ccc     H5   4324 0.11303300   1.008000   ; qtot 161.332514
 4325         n4    161    ccc     N2   4325 -0.67056700  14.010000   ; qtot 160.661947
 4326         c3    161    ccc     C3   4326 0.10863300  12.010000   ; qtot 160.770580
 4327         c3    161    ccc     C4   4327 0.10863300  12.010000   ; qtot 160.879213
 4328         hx    161    ccc     H6   4328 0.12753300   1.008000   ; qtot 161.006746
 4329         c3    161    ccc     C5   4329 -0.20606700  12.010000   ; qtot 160.800679
 4330         hx    161    ccc     H7   4330 0.12753300   1.008000   ; qtot 160.928212
 4331         hc    161    ccc     H8   4331 0.10603300   1.008000   ; qtot 161.034245
 4332         hc    161    ccc     H9   4332 0.10603300   1.008000   ; qtot 161.140278
 4333          c    161    ccc     C6   4333 0.63793300  12.010000   ; qtot 161.778211
 4334         oh    161    ccc     O1   4334 -0.53626700  16.000000   ; qtot 161.241944
 4335          o    161    ccc     O2   4335 -0.48266700  16.000000   ; qtot 160.759277
 4336         hx    161    ccc    H10   4336 0.12753300   1.008000   ; qtot 160.886810
 4337         hx    161    ccc    H11   4337 0.12753300   1.008000   ; qtot 161.014343
 4338         c3    161    ccc     C7   4338 -0.20606700  12.010000   ; qtot 160.808276
 4339         hc    161    ccc    H12   4339 0.10603300   1.008000   ; qtot 160.914309
 4340         hc    161    ccc    H13   4340 0.10603300   1.008000   ; qtot 161.020342
 4341          c    161    ccc     C8   4341 0.63793300  12.010000   ; qtot 161.658275
 4342          o    161    ccc     O3   4342 -0.48266700  16.000000   ; qtot 161.175608
 4343         oh    161    ccc     O4   4343 -0.53626700  16.000000   ; qtot 160.639341
 4344         ho    161    ccc    H14   4344 0.45283300   1.008000   ; qtot 161.092174
 4345         ho    161    ccc    H15   4345 0.45283300   1.008000   ; qtot 161.545007
 4346         hn    161    ccc    H16   4346 0.45463300   1.008000   ; qtot 161.999640
; residue  162 ccc rtp ccc q 1.0
 4347          n    162    ccc     N1   4347 -0.56206700  14.010000   ; qtot 161.437573
 4348         hn    162    ccc     H1   4348 0.35233300   1.008000   ; qtot 161.789906
 4349         c3    162    ccc     C1   4349 0.10283300  12.010000   ; qtot 161.892739
 4350         h1    162    ccc     H2   4350 0.07153300   1.008000   ; qtot 161.964272
 4351         c3    162    ccc     C2   4351 0.07063300  12.010000   ; qtot 162.034905
 4352         h1    162    ccc     H3   4352 0.07153300   1.008000   ; qtot 162.106438
 4353         hx    162    ccc     H4   4353 0.11303300   1.008000   ; qtot 162.219471
 4354         hx    162    ccc     H5   4354 0.11303300   1.008000   ; qtot 162.332504
 4355         n4    162    ccc     N2   4355 -0.67056700  14.010000   ; qtot 161.661937
 4356         c3    162    ccc     C3   4356 0.10863300  12.010000   ; qtot 161.770570
 4357         c3    162    ccc     C4   4357 0.10863300  12.010000   ; qtot 161.879203
 4358         hx    162    ccc     H6   4358 0.12753300   1.008000   ; qtot 162.006736
 4359         c3    162    ccc     C5   4359 -0.20606700  12.010000   ; qtot 161.800669
 4360         hx    162    ccc     H7   4360 0.12753300   1.008000   ; qtot 161.928202
 4361         hc    162    ccc     H8   4361 0.10603300   1.008000   ; qtot 162.034235
 4362         hc    162    ccc     H9   4362 0.10603300   1.008000   ; qtot 162.140268
 4363          c    162    ccc     C6   4363 0.63793300  12.010000   ; qtot 162.778201
 4364         oh    162    ccc     O1   4364 -0.53626700  16.000000   ; qtot 162.241934
 4365          o    162    ccc     O2   4365 -0.48266700  16.000000   ; qtot 161.759267
 4366         hx    162    ccc    H10   4366 0.12753300   1.008000   ; qtot 161.886800
 4367         hx    162    ccc    H11   4367 0.12753300   1.008000   ; qtot 162.014333
 4368         c3    162    ccc     C7   4368 -0.20606700  12.010000   ; qtot 161.808266
 4369         hc    162    ccc    H12   4369 0.10603300   1.008000   ; qtot 161.914299
 4370         hc    162    ccc    H13   4370 0.10603300   1.008000   ; qtot 162.020332
 4371          c    162    ccc     C8   4371 0.63793300  12.010000   ; qtot 162.658265
 4372          o    162    ccc     O3   4372 -0.48266700  16.000000   ; qtot 162.175598
 4373         oh    162    ccc     O4   4373 -0.53626700  16.000000   ; qtot 161.639331
 4374         ho    162    ccc    H14   4374 0.45283300   1.008000   ; qtot 162.092164
 4375         ho    162    ccc    H15   4375 0.45283300   1.008000   ; qtot 162.544997
 4376         hn    162    ccc    H16   4376 0.45463300   1.008000   ; qtot 162.999630
; residue  163 ccc rtp ccc q 1.0
 4377          n    163    ccc     N1   4377 -0.56206700  14.010000   ; qtot 162.437563
 4378         hn    163    ccc     H1   4378 0.35233300   1.008000   ; qtot 162.789896
 4379         c3    163    ccc     C1   4379 0.10283300  12.010000   ; qtot 162.892729
 4380         h1    163    ccc     H2   4380 0.07153300   1.008000   ; qtot 162.964262
 4381         c3    163    ccc     C2   4381 0.07063300  12.010000   ; qtot 163.034895
 4382         h1    163    ccc     H3   4382 0.07153300   1.008000   ; qtot 163.106428
 4383         hx    163    ccc     H4   4383 0.11303300   1.008000   ; qtot 163.219461
 4384         hx    163    ccc     H5   4384 0.11303300   1.008000   ; qtot 163.332494
 4385         n4    163    ccc     N2   4385 -0.67056700  14.010000   ; qtot 162.661927
 4386         c3    163    ccc     C3   4386 0.10863300  12.010000   ; qtot 162.770560
 4387         c3    163    ccc     C4   4387 0.10863300  12.010000   ; qtot 162.879193
 4388         hx    163    ccc     H6   4388 0.12753300   1.008000   ; qtot 163.006726
 4389         c3    163    ccc     C5   4389 -0.20606700  12.010000   ; qtot 162.800659
 4390         hx    163    ccc     H7   4390 0.12753300   1.008000   ; qtot 162.928192
 4391         hc    163    ccc     H8   4391 0.10603300   1.008000   ; qtot 163.034225
 4392         hc    163    ccc     H9   4392 0.10603300   1.008000   ; qtot 163.140258
 4393          c    163    ccc     C6   4393 0.63793300  12.010000   ; qtot 163.778191
 4394         oh    163    ccc     O1   4394 -0.53626700  16.000000   ; qtot 163.241924
 4395          o    163    ccc     O2   4395 -0.48266700  16.000000   ; qtot 162.759257
 4396         hx    163    ccc    H10   4396 0.12753300   1.008000   ; qtot 162.886790
 4397         hx    163    ccc    H11   4397 0.12753300   1.008000   ; qtot 163.014323
 4398         c3    163    ccc     C7   4398 -0.20606700  12.010000   ; qtot 162.808256
 4399         hc    163    ccc    H12   4399 0.10603300   1.008000   ; qtot 162.914289
 4400         hc    163    ccc    H13   4400 0.10603300   1.008000   ; qtot 163.020322
 4401          c    163    ccc     C8   4401 0.63793300  12.010000   ; qtot 163.658255
 4402          o    163    ccc     O3   4402 -0.48266700  16.000000   ; qtot 163.175588
 4403         oh    163    ccc     O4   4403 -0.53626700  16.000000   ; qtot 162.639321
 4404         ho    163    ccc    H14   4404 0.45283300   1.008000   ; qtot 163.092154
 4405         ho    163    ccc    H15   4405 0.45283300   1.008000   ; qtot 163.544987
 4406         hn    163    ccc    H16   4406 0.45463300   1.008000   ; qtot 163.999620
; residue  164 ccc rtp ccc q 1.0
 4407          n    164    ccc     N1   4407 -0.56206700  14.010000   ; qtot 163.437553
 4408         hn    164    ccc     H1   4408 0.35233300   1.008000   ; qtot 163.789886
 4409         c3    164    ccc     C1   4409 0.10283300  12.010000   ; qtot 163.892719
 4410         h1    164    ccc     H2   4410 0.07153300   1.008000   ; qtot 163.964252
 4411         c3    164    ccc     C2   4411 0.07063300  12.010000   ; qtot 164.034885
 4412         h1    164    ccc     H3   4412 0.07153300   1.008000   ; qtot 164.106418
 4413         hx    164    ccc     H4   4413 0.11303300   1.008000   ; qtot 164.219451
 4414         hx    164    ccc     H5   4414 0.11303300   1.008000   ; qtot 164.332484
 4415         n4    164    ccc     N2   4415 -0.67056700  14.010000   ; qtot 163.661917
 4416         c3    164    ccc     C3   4416 0.10863300  12.010000   ; qtot 163.770550
 4417         c3    164    ccc     C4   4417 0.10863300  12.010000   ; qtot 163.879183
 4418         hx    164    ccc     H6   4418 0.12753300   1.008000   ; qtot 164.006716
 4419         c3    164    ccc     C5   4419 -0.20606700  12.010000   ; qtot 163.800649
 4420         hx    164    ccc     H7   4420 0.12753300   1.008000   ; qtot 163.928182
 4421         hc    164    ccc     H8   4421 0.10603300   1.008000   ; qtot 164.034215
 4422         hc    164    ccc     H9   4422 0.10603300   1.008000   ; qtot 164.140248
 4423          c    164    ccc     C6   4423 0.63793300  12.010000   ; qtot 164.778181
 4424         oh    164    ccc     O1   4424 -0.53626700  16.000000   ; qtot 164.241914
 4425          o    164    ccc     O2   4425 -0.48266700  16.000000   ; qtot 163.759247
 4426         hx    164    ccc    H10   4426 0.12753300   1.008000   ; qtot 163.886780
 4427         hx    164    ccc    H11   4427 0.12753300   1.008000   ; qtot 164.014313
 4428         c3    164    ccc     C7   4428 -0.20606700  12.010000   ; qtot 163.808246
 4429         hc    164    ccc    H12   4429 0.10603300   1.008000   ; qtot 163.914279
 4430         hc    164    ccc    H13   4430 0.10603300   1.008000   ; qtot 164.020312
 4431          c    164    ccc     C8   4431 0.63793300  12.010000   ; qtot 164.658245
 4432          o    164    ccc     O3   4432 -0.48266700  16.000000   ; qtot 164.175578
 4433         oh    164    ccc     O4   4433 -0.53626700  16.000000   ; qtot 163.639311
 4434         ho    164    ccc    H14   4434 0.45283300   1.008000   ; qtot 164.092144
 4435         ho    164    ccc    H15   4435 0.45283300   1.008000   ; qtot 164.544977
 4436         hn    164    ccc    H16   4436 0.45463300   1.008000   ; qtot 164.999610
; residue  165 ccc rtp ccc q 1.0
 4437          n    165    ccc     N1   4437 -0.56206700  14.010000   ; qtot 164.437543
 4438         hn    165    ccc     H1   4438 0.35233300   1.008000   ; qtot 164.789876
 4439         c3    165    ccc     C1   4439 0.10283300  12.010000   ; qtot 164.892709
 4440         h1    165    ccc     H2   4440 0.07153300   1.008000   ; qtot 164.964242
 4441         c3    165    ccc     C2   4441 0.07063300  12.010000   ; qtot 165.034875
 4442         h1    165    ccc     H3   4442 0.07153300   1.008000   ; qtot 165.106408
 4443         hx    165    ccc     H4   4443 0.11303300   1.008000   ; qtot 165.219441
 4444         hx    165    ccc     H5   4444 0.11303300   1.008000   ; qtot 165.332474
 4445         n4    165    ccc     N2   4445 -0.67056700  14.010000   ; qtot 164.661907
 4446         c3    165    ccc     C3   4446 0.10863300  12.010000   ; qtot 164.770540
 4447         c3    165    ccc     C4   4447 0.10863300  12.010000   ; qtot 164.879173
 4448         hx    165    ccc     H6   4448 0.12753300   1.008000   ; qtot 165.006706
 4449         c3    165    ccc     C5   4449 -0.20606700  12.010000   ; qtot 164.800639
 4450         hx    165    ccc     H7   4450 0.12753300   1.008000   ; qtot 164.928172
 4451         hc    165    ccc     H8   4451 0.10603300   1.008000   ; qtot 165.034205
 4452         hc    165    ccc     H9   4452 0.10603300   1.008000   ; qtot 165.140238
 4453          c    165    ccc     C6   4453 0.63793300  12.010000   ; qtot 165.778171
 4454         oh    165    ccc     O1   4454 -0.53626700  16.000000   ; qtot 165.241904
 4455          o    165    ccc     O2   4455 -0.48266700  16.000000   ; qtot 164.759237
 4456         hx    165    ccc    H10   4456 0.12753300   1.008000   ; qtot 164.886770
 4457         hx    165    ccc    H11   4457 0.12753300   1.008000   ; qtot 165.014303
 4458         c3    165    ccc     C7   4458 -0.20606700  12.010000   ; qtot 164.808236
 4459         hc    165    ccc    H12   4459 0.10603300   1.008000   ; qtot 164.914269
 4460         hc    165    ccc    H13   4460 0.10603300   1.008000   ; qtot 165.020302
 4461          c    165    ccc     C8   4461 0.63793300  12.010000   ; qtot 165.658235
 4462          o    165    ccc     O3   4462 -0.48266700  16.000000   ; qtot 165.175568
 4463         oh    165    ccc     O4   4463 -0.53626700  16.000000   ; qtot 164.639301
 4464         ho    165    ccc    H14   4464 0.45283300   1.008000   ; qtot 165.092134
 4465         ho    165    ccc    H15   4465 0.45283300   1.008000   ; qtot 165.544967
 4466         hn    165    ccc    H16   4466 0.45463300   1.008000   ; qtot 165.999600
; residue  166 ccc rtp ccc q 1.0
 4467          n    166    ccc     N1   4467 -0.56206700  14.010000   ; qtot 165.437533
 4468         hn    166    ccc     H1   4468 0.35233300   1.008000   ; qtot 165.789866
 4469         c3    166    ccc     C1   4469 0.10283300  12.010000   ; qtot 165.892699
 4470         h1    166    ccc     H2   4470 0.07153300   1.008000   ; qtot 165.964232
 4471         c3    166    ccc     C2   4471 0.07063300  12.010000   ; qtot 166.034865
 4472         h1    166    ccc     H3   4472 0.07153300   1.008000   ; qtot 166.106398
 4473         hx    166    ccc     H4   4473 0.11303300   1.008000   ; qtot 166.219431
 4474         hx    166    ccc     H5   4474 0.11303300   1.008000   ; qtot 166.332464
 4475         n4    166    ccc     N2   4475 -0.67056700  14.010000   ; qtot 165.661897
 4476         c3    166    ccc     C3   4476 0.10863300  12.010000   ; qtot 165.770530
 4477         c3    166    ccc     C4   4477 0.10863300  12.010000   ; qtot 165.879163
 4478         hx    166    ccc     H6   4478 0.12753300   1.008000   ; qtot 166.006696
 4479         c3    166    ccc     C5   4479 -0.20606700  12.010000   ; qtot 165.800629
 4480         hx    166    ccc     H7   4480 0.12753300   1.008000   ; qtot 165.928162
 4481         hc    166    ccc     H8   4481 0.10603300   1.008000   ; qtot 166.034195
 4482         hc    166    ccc     H9   4482 0.10603300   1.008000   ; qtot 166.140228
 4483          c    166    ccc     C6   4483 0.63793300  12.010000   ; qtot 166.778161
 4484         oh    166    ccc     O1   4484 -0.53626700  16.000000   ; qtot 166.241894
 4485          o    166    ccc     O2   4485 -0.48266700  16.000000   ; qtot 165.759227
 4486         hx    166    ccc    H10   4486 0.12753300   1.008000   ; qtot 165.886760
 4487         hx    166    ccc    H11   4487 0.12753300   1.008000   ; qtot 166.014293
 4488         c3    166    ccc     C7   4488 -0.20606700  12.010000   ; qtot 165.808226
 4489         hc    166    ccc    H12   4489 0.10603300   1.008000   ; qtot 165.914259
 4490         hc    166    ccc    H13   4490 0.10603300   1.008000   ; qtot 166.020292
 4491          c    166    ccc     C8   4491 0.63793300  12.010000   ; qtot 166.658225
 4492          o    166    ccc     O3   4492 -0.48266700  16.000000   ; qtot 166.175558
 4493         oh    166    ccc     O4   4493 -0.53626700  16.000000   ; qtot 165.639291
 4494         ho    166    ccc    H14   4494 0.45283300   1.008000   ; qtot 166.092124
 4495         ho    166    ccc    H15   4495 0.45283300   1.008000   ; qtot 166.544957
 4496         hn    166    ccc    H16   4496 0.45463300   1.008000   ; qtot 166.999590
; residue  167 ccc rtp ccc q 1.0
 4497          n    167    ccc     N1   4497 -0.56206700  14.010000   ; qtot 166.437523
 4498         hn    167    ccc     H1   4498 0.35233300   1.008000   ; qtot 166.789856
 4499         c3    167    ccc     C1   4499 0.10283300  12.010000   ; qtot 166.892689
 4500         h1    167    ccc     H2   4500 0.07153300   1.008000   ; qtot 166.964222
 4501         c3    167    ccc     C2   4501 0.07063300  12.010000   ; qtot 167.034855
 4502         h1    167    ccc     H3   4502 0.07153300   1.008000   ; qtot 167.106388
 4503         hx    167    ccc     H4   4503 0.11303300   1.008000   ; qtot 167.219421
 4504         hx    167    ccc     H5   4504 0.11303300   1.008000   ; qtot 167.332454
 4505         n4    167    ccc     N2   4505 -0.67056700  14.010000   ; qtot 166.661887
 4506         c3    167    ccc     C3   4506 0.10863300  12.010000   ; qtot 166.770520
 4507         c3    167    ccc     C4   4507 0.10863300  12.010000   ; qtot 166.879153
 4508         hx    167    ccc     H6   4508 0.12753300   1.008000   ; qtot 167.006686
 4509         c3    167    ccc     C5   4509 -0.20606700  12.010000   ; qtot 166.800619
 4510         hx    167    ccc     H7   4510 0.12753300   1.008000   ; qtot 166.928152
 4511         hc    167    ccc     H8   4511 0.10603300   1.008000   ; qtot 167.034185
 4512         hc    167    ccc     H9   4512 0.10603300   1.008000   ; qtot 167.140218
 4513          c    167    ccc     C6   4513 0.63793300  12.010000   ; qtot 167.778151
 4514         oh    167    ccc     O1   4514 -0.53626700  16.000000   ; qtot 167.241884
 4515          o    167    ccc     O2   4515 -0.48266700  16.000000   ; qtot 166.759217
 4516         hx    167    ccc    H10   4516 0.12753300   1.008000   ; qtot 166.886750
 4517         hx    167    ccc    H11   4517 0.12753300   1.008000   ; qtot 167.014283
 4518         c3    167    ccc     C7   4518 -0.20606700  12.010000   ; qtot 166.808216
 4519         hc    167    ccc    H12   4519 0.10603300   1.008000   ; qtot 166.914249
 4520         hc    167    ccc    H13   4520 0.10603300   1.008000   ; qtot 167.020282
 4521          c    167    ccc     C8   4521 0.63793300  12.010000   ; qtot 167.658215
 4522          o    167    ccc     O3   4522 -0.48266700  16.000000   ; qtot 167.175548
 4523         oh    167    ccc     O4   4523 -0.53626700  16.000000   ; qtot 166.639281
 4524         ho    167    ccc    H14   4524 0.45283300   1.008000   ; qtot 167.092114
 4525         ho    167    ccc    H15   4525 0.45283300   1.008000   ; qtot 167.544947
 4526         hn    167    ccc    H16   4526 0.45463300   1.008000   ; qtot 167.999580
; residue  168 ccc rtp ccc q 1.0
 4527          n    168    ccc     N1   4527 -0.56206700  14.010000   ; qtot 167.437513
 4528         hn    168    ccc     H1   4528 0.35233300   1.008000   ; qtot 167.789846
 4529         c3    168    ccc     C1   4529 0.10283300  12.010000   ; qtot 167.892679
 4530         h1    168    ccc     H2   4530 0.07153300   1.008000   ; qtot 167.964212
 4531         c3    168    ccc     C2   4531 0.07063300  12.010000   ; qtot 168.034845
 4532         h1    168    ccc     H3   4532 0.07153300   1.008000   ; qtot 168.106378
 4533         hx    168    ccc     H4   4533 0.11303300   1.008000   ; qtot 168.219411
 4534         hx    168    ccc     H5   4534 0.11303300   1.008000   ; qtot 168.332444
 4535         n4    168    ccc     N2   4535 -0.67056700  14.010000   ; qtot 167.661877
 4536         c3    168    ccc     C3   4536 0.10863300  12.010000   ; qtot 167.770510
 4537         c3    168    ccc     C4   4537 0.10863300  12.010000   ; qtot 167.879143
 4538         hx    168    ccc     H6   4538 0.12753300   1.008000   ; qtot 168.006676
 4539         c3    168    ccc     C5   4539 -0.20606700  12.010000   ; qtot 167.800609
 4540         hx    168    ccc     H7   4540 0.12753300   1.008000   ; qtot 167.928142
 4541         hc    168    ccc     H8   4541 0.10603300   1.008000   ; qtot 168.034175
 4542         hc    168    ccc     H9   4542 0.10603300   1.008000   ; qtot 168.140208
 4543          c    168    ccc     C6   4543 0.63793300  12.010000   ; qtot 168.778141
 4544         oh    168    ccc     O1   4544 -0.53626700  16.000000   ; qtot 168.241874
 4545          o    168    ccc     O2   4545 -0.48266700  16.000000   ; qtot 167.759207
 4546         hx    168    ccc    H10   4546 0.12753300   1.008000   ; qtot 167.886740
 4547         hx    168    ccc    H11   4547 0.12753300   1.008000   ; qtot 168.014273
 4548         c3    168    ccc     C7   4548 -0.20606700  12.010000   ; qtot 167.808206
 4549         hc    168    ccc    H12   4549 0.10603300   1.008000   ; qtot 167.914239
 4550         hc    168    ccc    H13   4550 0.10603300   1.008000   ; qtot 168.020272
 4551          c    168    ccc     C8   4551 0.63793300  12.010000   ; qtot 168.658205
 4552          o    168    ccc     O3   4552 -0.48266700  16.000000   ; qtot 168.175538
 4553         oh    168    ccc     O4   4553 -0.53626700  16.000000   ; qtot 167.639271
 4554         ho    168    ccc    H14   4554 0.45283300   1.008000   ; qtot 168.092104
 4555         ho    168    ccc    H15   4555 0.45283300   1.008000   ; qtot 168.544937
 4556         hn    168    ccc    H16   4556 0.45463300   1.008000   ; qtot 168.999570
; residue  169 ccc rtp ccc q 1.0
 4557          n    169    ccc     N1   4557 -0.56206700  14.010000   ; qtot 168.437503
 4558         hn    169    ccc     H1   4558 0.35233300   1.008000   ; qtot 168.789836
 4559         c3    169    ccc     C1   4559 0.10283300  12.010000   ; qtot 168.892669
 4560         h1    169    ccc     H2   4560 0.07153300   1.008000   ; qtot 168.964202
 4561         c3    169    ccc     C2   4561 0.07063300  12.010000   ; qtot 169.034835
 4562         h1    169    ccc     H3   4562 0.07153300   1.008000   ; qtot 169.106368
 4563         hx    169    ccc     H4   4563 0.11303300   1.008000   ; qtot 169.219401
 4564         hx    169    ccc     H5   4564 0.11303300   1.008000   ; qtot 169.332434
 4565         n4    169    ccc     N2   4565 -0.67056700  14.010000   ; qtot 168.661867
 4566         c3    169    ccc     C3   4566 0.10863300  12.010000   ; qtot 168.770500
 4567         c3    169    ccc     C4   4567 0.10863300  12.010000   ; qtot 168.879133
 4568         hx    169    ccc     H6   4568 0.12753300   1.008000   ; qtot 169.006666
 4569         c3    169    ccc     C5   4569 -0.20606700  12.010000   ; qtot 168.800599
 4570         hx    169    ccc     H7   4570 0.12753300   1.008000   ; qtot 168.928132
 4571         hc    169    ccc     H8   4571 0.10603300   1.008000   ; qtot 169.034165
 4572         hc    169    ccc     H9   4572 0.10603300   1.008000   ; qtot 169.140198
 4573          c    169    ccc     C6   4573 0.63793300  12.010000   ; qtot 169.778131
 4574         oh    169    ccc     O1   4574 -0.53626700  16.000000   ; qtot 169.241864
 4575          o    169    ccc     O2   4575 -0.48266700  16.000000   ; qtot 168.759197
 4576         hx    169    ccc    H10   4576 0.12753300   1.008000   ; qtot 168.886730
 4577         hx    169    ccc    H11   4577 0.12753300   1.008000   ; qtot 169.014263
 4578         c3    169    ccc     C7   4578 -0.20606700  12.010000   ; qtot 168.808196
 4579         hc    169    ccc    H12   4579 0.10603300   1.008000   ; qtot 168.914229
 4580         hc    169    ccc    H13   4580 0.10603300   1.008000   ; qtot 169.020262
 4581          c    169    ccc     C8   4581 0.63793300  12.010000   ; qtot 169.658195
 4582          o    169    ccc     O3   4582 -0.48266700  16.000000   ; qtot 169.175528
 4583         oh    169    ccc     O4   4583 -0.53626700  16.000000   ; qtot 168.639261
 4584         ho    169    ccc    H14   4584 0.45283300   1.008000   ; qtot 169.092094
 4585         ho    169    ccc    H15   4585 0.45283300   1.008000   ; qtot 169.544927
 4586         hn    169    ccc    H16   4586 0.45463300   1.008000   ; qtot 169.999560
; residue  170 ccc rtp ccc q 1.0
 4587          n    170    ccc     N1   4587 -0.56206700  14.010000   ; qtot 169.437493
 4588         hn    170    ccc     H1   4588 0.35233300   1.008000   ; qtot 169.789826
 4589         c3    170    ccc     C1   4589 0.10283300  12.010000   ; qtot 169.892659
 4590         h1    170    ccc     H2   4590 0.07153300   1.008000   ; qtot 169.964192
 4591         c3    170    ccc     C2   4591 0.07063300  12.010000   ; qtot 170.034825
 4592         h1    170    ccc     H3   4592 0.07153300   1.008000   ; qtot 170.106358
 4593         hx    170    ccc     H4   4593 0.11303300   1.008000   ; qtot 170.219391
 4594         hx    170    ccc     H5   4594 0.11303300   1.008000   ; qtot 170.332424
 4595         n4    170    ccc     N2   4595 -0.67056700  14.010000   ; qtot 169.661857
 4596         c3    170    ccc     C3   4596 0.10863300  12.010000   ; qtot 169.770490
 4597         c3    170    ccc     C4   4597 0.10863300  12.010000   ; qtot 169.879123
 4598         hx    170    ccc     H6   4598 0.12753300   1.008000   ; qtot 170.006656
 4599         c3    170    ccc     C5   4599 -0.20606700  12.010000   ; qtot 169.800589
 4600         hx    170    ccc     H7   4600 0.12753300   1.008000   ; qtot 169.928122
 4601         hc    170    ccc     H8   4601 0.10603300   1.008000   ; qtot 170.034155
 4602         hc    170    ccc     H9   4602 0.10603300   1.008000   ; qtot 170.140188
 4603          c    170    ccc     C6   4603 0.63793300  12.010000   ; qtot 170.778121
 4604         oh    170    ccc     O1   4604 -0.53626700  16.000000   ; qtot 170.241854
 4605          o    170    ccc     O2   4605 -0.48266700  16.000000   ; qtot 169.759187
 4606         hx    170    ccc    H10   4606 0.12753300   1.008000   ; qtot 169.886720
 4607         hx    170    ccc    H11   4607 0.12753300   1.008000   ; qtot 170.014253
 4608         c3    170    ccc     C7   4608 -0.20606700  12.010000   ; qtot 169.808186
 4609         hc    170    ccc    H12   4609 0.10603300   1.008000   ; qtot 169.914219
 4610         hc    170    ccc    H13   4610 0.10603300   1.008000   ; qtot 170.020252
 4611          c    170    ccc     C8   4611 0.63793300  12.010000   ; qtot 170.658185
 4612          o    170    ccc     O3   4612 -0.48266700  16.000000   ; qtot 170.175518
 4613         oh    170    ccc     O4   4613 -0.53626700  16.000000   ; qtot 169.639251
 4614         ho    170    ccc    H14   4614 0.45283300   1.008000   ; qtot 170.092084
 4615         ho    170    ccc    H15   4615 0.45283300   1.008000   ; qtot 170.544917
 4616         hn    170    ccc    H16   4616 0.45463300   1.008000   ; qtot 170.999550
; residue  171 ccc rtp ccc q 1.0
 4617          n    171    ccc     N1   4617 -0.56206700  14.010000   ; qtot 170.437483
 4618         hn    171    ccc     H1   4618 0.35233300   1.008000   ; qtot 170.789816
 4619         c3    171    ccc     C1   4619 0.10283300  12.010000   ; qtot 170.892649
 4620         h1    171    ccc     H2   4620 0.07153300   1.008000   ; qtot 170.964182
 4621         c3    171    ccc     C2   4621 0.07063300  12.010000   ; qtot 171.034815
 4622         h1    171    ccc     H3   4622 0.07153300   1.008000   ; qtot 171.106348
 4623         hx    171    ccc     H4   4623 0.11303300   1.008000   ; qtot 171.219381
 4624         hx    171    ccc     H5   4624 0.11303300   1.008000   ; qtot 171.332414
 4625         n4    171    ccc     N2   4625 -0.67056700  14.010000   ; qtot 170.661847
 4626         c3    171    ccc     C3   4626 0.10863300  12.010000   ; qtot 170.770480
 4627         c3    171    ccc     C4   4627 0.10863300  12.010000   ; qtot 170.879113
 4628         hx    171    ccc     H6   4628 0.12753300   1.008000   ; qtot 171.006646
 4629         c3    171    ccc     C5   4629 -0.20606700  12.010000   ; qtot 170.800579
 4630         hx    171    ccc     H7   4630 0.12753300   1.008000   ; qtot 170.928112
 4631         hc    171    ccc     H8   4631 0.10603300   1.008000   ; qtot 171.034145
 4632         hc    171    ccc     H9   4632 0.10603300   1.008000   ; qtot 171.140178
 4633          c    171    ccc     C6   4633 0.63793300  12.010000   ; qtot 171.778111
 4634         oh    171    ccc     O1   4634 -0.53626700  16.000000   ; qtot 171.241844
 4635          o    171    ccc     O2   4635 -0.48266700  16.000000   ; qtot 170.759177
 4636         hx    171    ccc    H10   4636 0.12753300   1.008000   ; qtot 170.886710
 4637         hx    171    ccc    H11   4637 0.12753300   1.008000   ; qtot 171.014243
 4638         c3    171    ccc     C7   4638 -0.20606700  12.010000   ; qtot 170.808176
 4639         hc    171    ccc    H12   4639 0.10603300   1.008000   ; qtot 170.914209
 4640         hc    171    ccc    H13   4640 0.10603300   1.008000   ; qtot 171.020242
 4641          c    171    ccc     C8   4641 0.63793300  12.010000   ; qtot 171.658175
 4642          o    171    ccc     O3   4642 -0.48266700  16.000000   ; qtot 171.175508
 4643         oh    171    ccc     O4   4643 -0.53626700  16.000000   ; qtot 170.639241
 4644         ho    171    ccc    H14   4644 0.45283300   1.008000   ; qtot 171.092074
 4645         ho    171    ccc    H15   4645 0.45283300   1.008000   ; qtot 171.544907
 4646         hn    171    ccc    H16   4646 0.45463300   1.008000   ; qtot 171.999540
; residue  172 ccc rtp ccc q 1.0
 4647          n    172    ccc     N1   4647 -0.56206700  14.010000   ; qtot 171.437473
 4648         hn    172    ccc     H1   4648 0.35233300   1.008000   ; qtot 171.789806
 4649         c3    172    ccc     C1   4649 0.10283300  12.010000   ; qtot 171.892639
 4650         h1    172    ccc     H2   4650 0.07153300   1.008000   ; qtot 171.964172
 4651         c3    172    ccc     C2   4651 0.07063300  12.010000   ; qtot 172.034805
 4652         h1    172    ccc     H3   4652 0.07153300   1.008000   ; qtot 172.106338
 4653         hx    172    ccc     H4   4653 0.11303300   1.008000   ; qtot 172.219371
 4654         hx    172    ccc     H5   4654 0.11303300   1.008000   ; qtot 172.332404
 4655         n4    172    ccc     N2   4655 -0.67056700  14.010000   ; qtot 171.661837
 4656         c3    172    ccc     C3   4656 0.10863300  12.010000   ; qtot 171.770470
 4657         c3    172    ccc     C4   4657 0.10863300  12.010000   ; qtot 171.879103
 4658         hx    172    ccc     H6   4658 0.12753300   1.008000   ; qtot 172.006636
 4659         c3    172    ccc     C5   4659 -0.20606700  12.010000   ; qtot 171.800569
 4660         hx    172    ccc     H7   4660 0.12753300   1.008000   ; qtot 171.928102
 4661         hc    172    ccc     H8   4661 0.10603300   1.008000   ; qtot 172.034135
 4662         hc    172    ccc     H9   4662 0.10603300   1.008000   ; qtot 172.140168
 4663          c    172    ccc     C6   4663 0.63793300  12.010000   ; qtot 172.778101
 4664         oh    172    ccc     O1   4664 -0.53626700  16.000000   ; qtot 172.241834
 4665          o    172    ccc     O2   4665 -0.48266700  16.000000   ; qtot 171.759167
 4666         hx    172    ccc    H10   4666 0.12753300   1.008000   ; qtot 171.886700
 4667         hx    172    ccc    H11   4667 0.12753300   1.008000   ; qtot 172.014233
 4668         c3    172    ccc     C7   4668 -0.20606700  12.010000   ; qtot 171.808166
 4669         hc    172    ccc    H12   4669 0.10603300   1.008000   ; qtot 171.914199
 4670         hc    172    ccc    H13   4670 0.10603300   1.008000   ; qtot 172.020232
 4671          c    172    ccc     C8   4671 0.63793300  12.010000   ; qtot 172.658165
 4672          o    172    ccc     O3   4672 -0.48266700  16.000000   ; qtot 172.175498
 4673         oh    172    ccc     O4   4673 -0.53626700  16.000000   ; qtot 171.639231
 4674         ho    172    ccc    H14   4674 0.45283300   1.008000   ; qtot 172.092064
 4675         ho    172    ccc    H15   4675 0.45283300   1.008000   ; qtot 172.544897
 4676         hn    172    ccc    H16   4676 0.45463300   1.008000   ; qtot 172.999530
; residue  173 ccc rtp ccc q 1.0
 4677          n    173    ccc     N1   4677 -0.56206700  14.010000   ; qtot 172.437463
 4678         hn    173    ccc     H1   4678 0.35233300   1.008000   ; qtot 172.789796
 4679         c3    173    ccc     C1   4679 0.10283300  12.010000   ; qtot 172.892629
 4680         h1    173    ccc     H2   4680 0.07153300   1.008000   ; qtot 172.964162
 4681         c3    173    ccc     C2   4681 0.07063300  12.010000   ; qtot 173.034795
 4682         h1    173    ccc     H3   4682 0.07153300   1.008000   ; qtot 173.106328
 4683         hx    173    ccc     H4   4683 0.11303300   1.008000   ; qtot 173.219361
 4684         hx    173    ccc     H5   4684 0.11303300   1.008000   ; qtot 173.332394
 4685         n4    173    ccc     N2   4685 -0.67056700  14.010000   ; qtot 172.661827
 4686         c3    173    ccc     C3   4686 0.10863300  12.010000   ; qtot 172.770460
 4687         c3    173    ccc     C4   4687 0.10863300  12.010000   ; qtot 172.879093
 4688         hx    173    ccc     H6   4688 0.12753300   1.008000   ; qtot 173.006626
 4689         c3    173    ccc     C5   4689 -0.20606700  12.010000   ; qtot 172.800559
 4690         hx    173    ccc     H7   4690 0.12753300   1.008000   ; qtot 172.928092
 4691         hc    173    ccc     H8   4691 0.10603300   1.008000   ; qtot 173.034125
 4692         hc    173    ccc     H9   4692 0.10603300   1.008000   ; qtot 173.140158
 4693          c    173    ccc     C6   4693 0.63793300  12.010000   ; qtot 173.778091
 4694         oh    173    ccc     O1   4694 -0.53626700  16.000000   ; qtot 173.241824
 4695          o    173    ccc     O2   4695 -0.48266700  16.000000   ; qtot 172.759157
 4696         hx    173    ccc    H10   4696 0.12753300   1.008000   ; qtot 172.886690
 4697         hx    173    ccc    H11   4697 0.12753300   1.008000   ; qtot 173.014223
 4698         c3    173    ccc     C7   4698 -0.20606700  12.010000   ; qtot 172.808156
 4699         hc    173    ccc    H12   4699 0.10603300   1.008000   ; qtot 172.914189
 4700         hc    173    ccc    H13   4700 0.10603300   1.008000   ; qtot 173.020222
 4701          c    173    ccc     C8   4701 0.63793300  12.010000   ; qtot 173.658155
 4702          o    173    ccc     O3   4702 -0.48266700  16.000000   ; qtot 173.175488
 4703         oh    173    ccc     O4   4703 -0.53626700  16.000000   ; qtot 172.639221
 4704         ho    173    ccc    H14   4704 0.45283300   1.008000   ; qtot 173.092054
 4705         ho    173    ccc    H15   4705 0.45283300   1.008000   ; qtot 173.544887
 4706         hn    173    ccc    H16   4706 0.45463300   1.008000   ; qtot 173.999520
; residue  174 ccc rtp ccc q 1.0
 4707          n    174    ccc     N1   4707 -0.56206700  14.010000   ; qtot 173.437453
 4708         hn    174    ccc     H1   4708 0.35233300   1.008000   ; qtot 173.789786
 4709         c3    174    ccc     C1   4709 0.10283300  12.010000   ; qtot 173.892619
 4710         h1    174    ccc     H2   4710 0.07153300   1.008000   ; qtot 173.964152
 4711         c3    174    ccc     C2   4711 0.07063300  12.010000   ; qtot 174.034785
 4712         h1    174    ccc     H3   4712 0.07153300   1.008000   ; qtot 174.106318
 4713         hx    174    ccc     H4   4713 0.11303300   1.008000   ; qtot 174.219351
 4714         hx    174    ccc     H5   4714 0.11303300   1.008000   ; qtot 174.332384
 4715         n4    174    ccc     N2   4715 -0.67056700  14.010000   ; qtot 173.661817
 4716         c3    174    ccc     C3   4716 0.10863300  12.010000   ; qtot 173.770450
 4717         c3    174    ccc     C4   4717 0.10863300  12.010000   ; qtot 173.879083
 4718         hx    174    ccc     H6   4718 0.12753300   1.008000   ; qtot 174.006616
 4719         c3    174    ccc     C5   4719 -0.20606700  12.010000   ; qtot 173.800549
 4720         hx    174    ccc     H7   4720 0.12753300   1.008000   ; qtot 173.928082
 4721         hc    174    ccc     H8   4721 0.10603300   1.008000   ; qtot 174.034115
 4722         hc    174    ccc     H9   4722 0.10603300   1.008000   ; qtot 174.140148
 4723          c    174    ccc     C6   4723 0.63793300  12.010000   ; qtot 174.778081
 4724         oh    174    ccc     O1   4724 -0.53626700  16.000000   ; qtot 174.241814
 4725          o    174    ccc     O2   4725 -0.48266700  16.000000   ; qtot 173.759147
 4726         hx    174    ccc    H10   4726 0.12753300   1.008000   ; qtot 173.886680
 4727         hx    174    ccc    H11   4727 0.12753300   1.008000   ; qtot 174.014213
 4728         c3    174    ccc     C7   4728 -0.20606700  12.010000   ; qtot 173.808146
 4729         hc    174    ccc    H12   4729 0.10603300   1.008000   ; qtot 173.914179
 4730         hc    174    ccc    H13   4730 0.10603300   1.008000   ; qtot 174.020212
 4731          c    174    ccc     C8   4731 0.63793300  12.010000   ; qtot 174.658145
 4732          o    174    ccc     O3   4732 -0.48266700  16.000000   ; qtot 174.175478
 4733         oh    174    ccc     O4   4733 -0.53626700  16.000000   ; qtot 173.639211
 4734         ho    174    ccc    H14   4734 0.45283300   1.008000   ; qtot 174.092044
 4735         ho    174    ccc    H15   4735 0.45283300   1.008000   ; qtot 174.544877
 4736         hn    174    ccc    H16   4736 0.45463300   1.008000   ; qtot 174.999510
; residue  175 ccc rtp ccc q 1.0
 4737          n    175    ccc     N1   4737 -0.56206700  14.010000   ; qtot 174.437443
 4738         hn    175    ccc     H1   4738 0.35233300   1.008000   ; qtot 174.789776
 4739         c3    175    ccc     C1   4739 0.10283300  12.010000   ; qtot 174.892609
 4740         h1    175    ccc     H2   4740 0.07153300   1.008000   ; qtot 174.964142
 4741         c3    175    ccc     C2   4741 0.07063300  12.010000   ; qtot 175.034775
 4742         h1    175    ccc     H3   4742 0.07153300   1.008000   ; qtot 175.106308
 4743         hx    175    ccc     H4   4743 0.11303300   1.008000   ; qtot 175.219341
 4744         hx    175    ccc     H5   4744 0.11303300   1.008000   ; qtot 175.332374
 4745         n4    175    ccc     N2   4745 -0.67056700  14.010000   ; qtot 174.661807
 4746         c3    175    ccc     C3   4746 0.10863300  12.010000   ; qtot 174.770440
 4747         c3    175    ccc     C4   4747 0.10863300  12.010000   ; qtot 174.879073
 4748         hx    175    ccc     H6   4748 0.12753300   1.008000   ; qtot 175.006606
 4749         c3    175    ccc     C5   4749 -0.20606700  12.010000   ; qtot 174.800539
 4750         hx    175    ccc     H7   4750 0.12753300   1.008000   ; qtot 174.928072
 4751         hc    175    ccc     H8   4751 0.10603300   1.008000   ; qtot 175.034105
 4752         hc    175    ccc     H9   4752 0.10603300   1.008000   ; qtot 175.140138
 4753          c    175    ccc     C6   4753 0.63793300  12.010000   ; qtot 175.778071
 4754         oh    175    ccc     O1   4754 -0.53626700  16.000000   ; qtot 175.241804
 4755          o    175    ccc     O2   4755 -0.48266700  16.000000   ; qtot 174.759137
 4756         hx    175    ccc    H10   4756 0.12753300   1.008000   ; qtot 174.886670
 4757         hx    175    ccc    H11   4757 0.12753300   1.008000   ; qtot 175.014203
 4758         c3    175    ccc     C7   4758 -0.20606700  12.010000   ; qtot 174.808136
 4759         hc    175    ccc    H12   4759 0.10603300   1.008000   ; qtot 174.914169
 4760         hc    175    ccc    H13   4760 0.10603300   1.008000   ; qtot 175.020202
 4761          c    175    ccc     C8   4761 0.63793300  12.010000   ; qtot 175.658135
 4762          o    175    ccc     O3   4762 -0.48266700  16.000000   ; qtot 175.175468
 4763         oh    175    ccc     O4   4763 -0.53626700  16.000000   ; qtot 174.639201
 4764         ho    175    ccc    H14   4764 0.45283300   1.008000   ; qtot 175.092034
 4765         ho    175    ccc    H15   4765 0.45283300   1.008000   ; qtot 175.544867
 4766         hn    175    ccc    H16   4766 0.45463300   1.008000   ; qtot 175.999500
; residue  176 ccc rtp ccc q 1.0
 4767          n    176    ccc     N1   4767 -0.56206700  14.010000   ; qtot 175.437433
 4768         hn    176    ccc     H1   4768 0.35233300   1.008000   ; qtot 175.789766
 4769         c3    176    ccc     C1   4769 0.10283300  12.010000   ; qtot 175.892599
 4770         h1    176    ccc     H2   4770 0.07153300   1.008000   ; qtot 175.964132
 4771         c3    176    ccc     C2   4771 0.07063300  12.010000   ; qtot 176.034765
 4772         h1    176    ccc     H3   4772 0.07153300   1.008000   ; qtot 176.106298
 4773         hx    176    ccc     H4   4773 0.11303300   1.008000   ; qtot 176.219331
 4774         hx    176    ccc     H5   4774 0.11303300   1.008000   ; qtot 176.332364
 4775         n4    176    ccc     N2   4775 -0.67056700  14.010000   ; qtot 175.661797
 4776         c3    176    ccc     C3   4776 0.10863300  12.010000   ; qtot 175.770430
 4777         c3    176    ccc     C4   4777 0.10863300  12.010000   ; qtot 175.879063
 4778         hx    176    ccc     H6   4778 0.12753300   1.008000   ; qtot 176.006596
 4779         c3    176    ccc     C5   4779 -0.20606700  12.010000   ; qtot 175.800529
 4780         hx    176    ccc     H7   4780 0.12753300   1.008000   ; qtot 175.928062
 4781         hc    176    ccc     H8   4781 0.10603300   1.008000   ; qtot 176.034095
 4782         hc    176    ccc     H9   4782 0.10603300   1.008000   ; qtot 176.140128
 4783          c    176    ccc     C6   4783 0.63793300  12.010000   ; qtot 176.778061
 4784         oh    176    ccc     O1   4784 -0.53626700  16.000000   ; qtot 176.241794
 4785          o    176    ccc     O2   4785 -0.48266700  16.000000   ; qtot 175.759127
 4786         hx    176    ccc    H10   4786 0.12753300   1.008000   ; qtot 175.886660
 4787         hx    176    ccc    H11   4787 0.12753300   1.008000   ; qtot 176.014193
 4788         c3    176    ccc     C7   4788 -0.20606700  12.010000   ; qtot 175.808126
 4789         hc    176    ccc    H12   4789 0.10603300   1.008000   ; qtot 175.914159
 4790         hc    176    ccc    H13   4790 0.10603300   1.008000   ; qtot 176.020192
 4791          c    176    ccc     C8   4791 0.63793300  12.010000   ; qtot 176.658125
 4792          o    176    ccc     O3   4792 -0.48266700  16.000000   ; qtot 176.175458
 4793         oh    176    ccc     O4   4793 -0.53626700  16.000000   ; qtot 175.639191
 4794         ho    176    ccc    H14   4794 0.45283300   1.008000   ; qtot 176.092024
 4795         ho    176    ccc    H15   4795 0.45283300   1.008000   ; qtot 176.544857
 4796         hn    176    ccc    H16   4796 0.45463300   1.008000   ; qtot 176.999490
; residue  177 ccc rtp ccc q 1.0
 4797          n    177    ccc     N1   4797 -0.56206700  14.010000   ; qtot 176.437423
 4798         hn    177    ccc     H1   4798 0.35233300   1.008000   ; qtot 176.789756
 4799         c3    177    ccc     C1   4799 0.10283300  12.010000   ; qtot 176.892589
 4800         h1    177    ccc     H2   4800 0.07153300   1.008000   ; qtot 176.964122
 4801         c3    177    ccc     C2   4801 0.07063300  12.010000   ; qtot 177.034755
 4802         h1    177    ccc     H3   4802 0.07153300   1.008000   ; qtot 177.106288
 4803         hx    177    ccc     H4   4803 0.11303300   1.008000   ; qtot 177.219321
 4804         hx    177    ccc     H5   4804 0.11303300   1.008000   ; qtot 177.332354
 4805         n4    177    ccc     N2   4805 -0.67056700  14.010000   ; qtot 176.661787
 4806         c3    177    ccc     C3   4806 0.10863300  12.010000   ; qtot 176.770420
 4807         c3    177    ccc     C4   4807 0.10863300  12.010000   ; qtot 176.879053
 4808         hx    177    ccc     H6   4808 0.12753300   1.008000   ; qtot 177.006586
 4809         c3    177    ccc     C5   4809 -0.20606700  12.010000   ; qtot 176.800519
 4810         hx    177    ccc     H7   4810 0.12753300   1.008000   ; qtot 176.928052
 4811         hc    177    ccc     H8   4811 0.10603300   1.008000   ; qtot 177.034085
 4812         hc    177    ccc     H9   4812 0.10603300   1.008000   ; qtot 177.140118
 4813          c    177    ccc     C6   4813 0.63793300  12.010000   ; qtot 177.778051
 4814         oh    177    ccc     O1   4814 -0.53626700  16.000000   ; qtot 177.241784
 4815          o    177    ccc     O2   4815 -0.48266700  16.000000   ; qtot 176.759117
 4816         hx    177    ccc    H10   4816 0.12753300   1.008000   ; qtot 176.886650
 4817         hx    177    ccc    H11   4817 0.12753300   1.008000   ; qtot 177.014183
 4818         c3    177    ccc     C7   4818 -0.20606700  12.010000   ; qtot 176.808116
 4819         hc    177    ccc    H12   4819 0.10603300   1.008000   ; qtot 176.914149
 4820         hc    177    ccc    H13   4820 0.10603300   1.008000   ; qtot 177.020182
 4821          c    177    ccc     C8   4821 0.63793300  12.010000   ; qtot 177.658115
 4822          o    177    ccc     O3   4822 -0.48266700  16.000000   ; qtot 177.175448
 4823         oh    177    ccc     O4   4823 -0.53626700  16.000000   ; qtot 176.639181
 4824         ho    177    ccc    H14   4824 0.45283300   1.008000   ; qtot 177.092014
 4825         ho    177    ccc    H15   4825 0.45283300   1.008000   ; qtot 177.544847
 4826         hn    177    ccc    H16   4826 0.45463300   1.008000   ; qtot 177.999480
; residue  178 ccc rtp ccc q 1.0
 4827          n    178    ccc     N1   4827 -0.56206700  14.010000   ; qtot 177.437413
 4828         hn    178    ccc     H1   4828 0.35233300   1.008000   ; qtot 177.789746
 4829         c3    178    ccc     C1   4829 0.10283300  12.010000   ; qtot 177.892579
 4830         h1    178    ccc     H2   4830 0.07153300   1.008000   ; qtot 177.964112
 4831         c3    178    ccc     C2   4831 0.07063300  12.010000   ; qtot 178.034745
 4832         h1    178    ccc     H3   4832 0.07153300   1.008000   ; qtot 178.106278
 4833         hx    178    ccc     H4   4833 0.11303300   1.008000   ; qtot 178.219311
 4834         hx    178    ccc     H5   4834 0.11303300   1.008000   ; qtot 178.332344
 4835         n4    178    ccc     N2   4835 -0.67056700  14.010000   ; qtot 177.661777
 4836         c3    178    ccc     C3   4836 0.10863300  12.010000   ; qtot 177.770410
 4837         c3    178    ccc     C4   4837 0.10863300  12.010000   ; qtot 177.879043
 4838         hx    178    ccc     H6   4838 0.12753300   1.008000   ; qtot 178.006576
 4839         c3    178    ccc     C5   4839 -0.20606700  12.010000   ; qtot 177.800509
 4840         hx    178    ccc     H7   4840 0.12753300   1.008000   ; qtot 177.928042
 4841         hc    178    ccc     H8   4841 0.10603300   1.008000   ; qtot 178.034075
 4842         hc    178    ccc     H9   4842 0.10603300   1.008000   ; qtot 178.140108
 4843          c    178    ccc     C6   4843 0.63793300  12.010000   ; qtot 178.778041
 4844         oh    178    ccc     O1   4844 -0.53626700  16.000000   ; qtot 178.241774
 4845          o    178    ccc     O2   4845 -0.48266700  16.000000   ; qtot 177.759107
 4846         hx    178    ccc    H10   4846 0.12753300   1.008000   ; qtot 177.886640
 4847         hx    178    ccc    H11   4847 0.12753300   1.008000   ; qtot 178.014173
 4848         c3    178    ccc     C7   4848 -0.20606700  12.010000   ; qtot 177.808106
 4849         hc    178    ccc    H12   4849 0.10603300   1.008000   ; qtot 177.914139
 4850         hc    178    ccc    H13   4850 0.10603300   1.008000   ; qtot 178.020172
 4851          c    178    ccc     C8   4851 0.63793300  12.010000   ; qtot 178.658105
 4852          o    178    ccc     O3   4852 -0.48266700  16.000000   ; qtot 178.175438
 4853         oh    178    ccc     O4   4853 -0.53626700  16.000000   ; qtot 177.639171
 4854         ho    178    ccc    H14   4854 0.45283300   1.008000   ; qtot 178.092004
 4855         ho    178    ccc    H15   4855 0.45283300   1.008000   ; qtot 178.544837
 4856         hn    178    ccc    H16   4856 0.45463300   1.008000   ; qtot 178.999470
; residue  179 ccc rtp ccc q 1.0
 4857          n    179    ccc     N1   4857 -0.56206700  14.010000   ; qtot 178.437403
 4858         hn    179    ccc     H1   4858 0.35233300   1.008000   ; qtot 178.789736
 4859         c3    179    ccc     C1   4859 0.10283300  12.010000   ; qtot 178.892569
 4860         h1    179    ccc     H2   4860 0.07153300   1.008000   ; qtot 178.964102
 4861         c3    179    ccc     C2   4861 0.07063300  12.010000   ; qtot 179.034735
 4862         h1    179    ccc     H3   4862 0.07153300   1.008000   ; qtot 179.106268
 4863         hx    179    ccc     H4   4863 0.11303300   1.008000   ; qtot 179.219301
 4864         hx    179    ccc     H5   4864 0.11303300   1.008000   ; qtot 179.332334
 4865         n4    179    ccc     N2   4865 -0.67056700  14.010000   ; qtot 178.661767
 4866         c3    179    ccc     C3   4866 0.10863300  12.010000   ; qtot 178.770400
 4867         c3    179    ccc     C4   4867 0.10863300  12.010000   ; qtot 178.879033
 4868         hx    179    ccc     H6   4868 0.12753300   1.008000   ; qtot 179.006566
 4869         c3    179    ccc     C5   4869 -0.20606700  12.010000   ; qtot 178.800499
 4870         hx    179    ccc     H7   4870 0.12753300   1.008000   ; qtot 178.928032
 4871         hc    179    ccc     H8   4871 0.10603300   1.008000   ; qtot 179.034065
 4872         hc    179    ccc     H9   4872 0.10603300   1.008000   ; qtot 179.140098
 4873          c    179    ccc     C6   4873 0.63793300  12.010000   ; qtot 179.778031
 4874         oh    179    ccc     O1   4874 -0.53626700  16.000000   ; qtot 179.241764
 4875          o    179    ccc     O2   4875 -0.48266700  16.000000   ; qtot 178.759097
 4876         hx    179    ccc    H10   4876 0.12753300   1.008000   ; qtot 178.886630
 4877         hx    179    ccc    H11   4877 0.12753300   1.008000   ; qtot 179.014163
 4878         c3    179    ccc     C7   4878 -0.20606700  12.010000   ; qtot 178.808096
 4879         hc    179    ccc    H12   4879 0.10603300   1.008000   ; qtot 178.914129
 4880         hc    179    ccc    H13   4880 0.10603300   1.008000   ; qtot 179.020162
 4881          c    179    ccc     C8   4881 0.63793300  12.010000   ; qtot 179.658095
 4882          o    179    ccc     O3   4882 -0.48266700  16.000000   ; qtot 179.175428
 4883         oh    179    ccc     O4   4883 -0.53626700  16.000000   ; qtot 178.639161
 4884         ho    179    ccc    H14   4884 0.45283300   1.008000   ; qtot 179.091994
 4885         ho    179    ccc    H15   4885 0.45283300   1.008000   ; qtot 179.544827
 4886         hn    179    ccc    H16   4886 0.45463300   1.008000   ; qtot 179.999460
; residue  180 ccc rtp ccc q 1.0
 4887          n    180    ccc     N1   4887 -0.56206700  14.010000   ; qtot 179.437393
 4888         hn    180    ccc     H1   4888 0.35233300   1.008000   ; qtot 179.789726
 4889         c3    180    ccc     C1   4889 0.10283300  12.010000   ; qtot 179.892559
 4890         h1    180    ccc     H2   4890 0.07153300   1.008000   ; qtot 179.964092
 4891         c3    180    ccc     C2   4891 0.07063300  12.010000   ; qtot 180.034725
 4892         h1    180    ccc     H3   4892 0.07153300   1.008000   ; qtot 180.106258
 4893         hx    180    ccc     H4   4893 0.11303300   1.008000   ; qtot 180.219291
 4894         hx    180    ccc     H5   4894 0.11303300   1.008000   ; qtot 180.332324
 4895         n4    180    ccc     N2   4895 -0.67056700  14.010000   ; qtot 179.661757
 4896         c3    180    ccc     C3   4896 0.10863300  12.010000   ; qtot 179.770390
 4897         c3    180    ccc     C4   4897 0.10863300  12.010000   ; qtot 179.879023
 4898         hx    180    ccc     H6   4898 0.12753300   1.008000   ; qtot 180.006556
 4899         c3    180    ccc     C5   4899 -0.20606700  12.010000   ; qtot 179.800489
 4900         hx    180    ccc     H7   4900 0.12753300   1.008000   ; qtot 179.928022
 4901         hc    180    ccc     H8   4901 0.10603300   1.008000   ; qtot 180.034055
 4902         hc    180    ccc     H9   4902 0.10603300   1.008000   ; qtot 180.140088
 4903          c    180    ccc     C6   4903 0.63793300  12.010000   ; qtot 180.778021
 4904         oh    180    ccc     O1   4904 -0.53626700  16.000000   ; qtot 180.241754
 4905          o    180    ccc     O2   4905 -0.48266700  16.000000   ; qtot 179.759087
 4906         hx    180    ccc    H10   4906 0.12753300   1.008000   ; qtot 179.886620
 4907         hx    180    ccc    H11   4907 0.12753300   1.008000   ; qtot 180.014153
 4908         c3    180    ccc     C7   4908 -0.20606700  12.010000   ; qtot 179.808086
 4909         hc    180    ccc    H12   4909 0.10603300   1.008000   ; qtot 179.914119
 4910         hc    180    ccc    H13   4910 0.10603300   1.008000   ; qtot 180.020152
 4911          c    180    ccc     C8   4911 0.63793300  12.010000   ; qtot 180.658085
 4912          o    180    ccc     O3   4912 -0.48266700  16.000000   ; qtot 180.175418
 4913         oh    180    ccc     O4   4913 -0.53626700  16.000000   ; qtot 179.639151
 4914         ho    180    ccc    H14   4914 0.45283300   1.008000   ; qtot 180.091984
 4915         ho    180    ccc    H15   4915 0.45283300   1.008000   ; qtot 180.544817
 4916         hn    180    ccc    H16   4916 0.45463300   1.008000   ; qtot 180.999450
; residue  181 ccc rtp ccc q 1.0
 4917          n    181    ccc     N1   4917 -0.56206700  14.010000   ; qtot 180.437383
 4918         hn    181    ccc     H1   4918 0.35233300   1.008000   ; qtot 180.789716
 4919         c3    181    ccc     C1   4919 0.10283300  12.010000   ; qtot 180.892549
 4920         h1    181    ccc     H2   4920 0.07153300   1.008000   ; qtot 180.964082
 4921         c3    181    ccc     C2   4921 0.07063300  12.010000   ; qtot 181.034715
 4922         h1    181    ccc     H3   4922 0.07153300   1.008000   ; qtot 181.106248
 4923         hx    181    ccc     H4   4923 0.11303300   1.008000   ; qtot 181.219281
 4924         hx    181    ccc     H5   4924 0.11303300   1.008000   ; qtot 181.332314
 4925         n4    181    ccc     N2   4925 -0.67056700  14.010000   ; qtot 180.661747
 4926         c3    181    ccc     C3   4926 0.10863300  12.010000   ; qtot 180.770380
 4927         c3    181    ccc     C4   4927 0.10863300  12.010000   ; qtot 180.879013
 4928         hx    181    ccc     H6   4928 0.12753300   1.008000   ; qtot 181.006546
 4929         c3    181    ccc     C5   4929 -0.20606700  12.010000   ; qtot 180.800479
 4930         hx    181    ccc     H7   4930 0.12753300   1.008000   ; qtot 180.928012
 4931         hc    181    ccc     H8   4931 0.10603300   1.008000   ; qtot 181.034045
 4932         hc    181    ccc     H9   4932 0.10603300   1.008000   ; qtot 181.140078
 4933          c    181    ccc     C6   4933 0.63793300  12.010000   ; qtot 181.778011
 4934         oh    181    ccc     O1   4934 -0.53626700  16.000000   ; qtot 181.241744
 4935          o    181    ccc     O2   4935 -0.48266700  16.000000   ; qtot 180.759077
 4936         hx    181    ccc    H10   4936 0.12753300   1.008000   ; qtot 180.886610
 4937         hx    181    ccc    H11   4937 0.12753300   1.008000   ; qtot 181.014143
 4938         c3    181    ccc     C7   4938 -0.20606700  12.010000   ; qtot 180.808076
 4939         hc    181    ccc    H12   4939 0.10603300   1.008000   ; qtot 180.914109
 4940         hc    181    ccc    H13   4940 0.10603300   1.008000   ; qtot 181.020142
 4941          c    181    ccc     C8   4941 0.63793300  12.010000   ; qtot 181.658075
 4942          o    181    ccc     O3   4942 -0.48266700  16.000000   ; qtot 181.175408
 4943         oh    181    ccc     O4   4943 -0.53626700  16.000000   ; qtot 180.639141
 4944         ho    181    ccc    H14   4944 0.45283300   1.008000   ; qtot 181.091974
 4945         ho    181    ccc    H15   4945 0.45283300   1.008000   ; qtot 181.544807
 4946         hn    181    ccc    H16   4946 0.45463300   1.008000   ; qtot 181.999440
; residue  182 ccc rtp ccc q 1.0
 4947          n    182    ccc     N1   4947 -0.56206700  14.010000   ; qtot 181.437373
 4948         hn    182    ccc     H1   4948 0.35233300   1.008000   ; qtot 181.789706
 4949         c3    182    ccc     C1   4949 0.10283300  12.010000   ; qtot 181.892539
 4950         h1    182    ccc     H2   4950 0.07153300   1.008000   ; qtot 181.964072
 4951         c3    182    ccc     C2   4951 0.07063300  12.010000   ; qtot 182.034705
 4952         h1    182    ccc     H3   4952 0.07153300   1.008000   ; qtot 182.106238
 4953         hx    182    ccc     H4   4953 0.11303300   1.008000   ; qtot 182.219271
 4954         hx    182    ccc     H5   4954 0.11303300   1.008000   ; qtot 182.332304
 4955         n4    182    ccc     N2   4955 -0.67056700  14.010000   ; qtot 181.661737
 4956         c3    182    ccc     C3   4956 0.10863300  12.010000   ; qtot 181.770370
 4957         c3    182    ccc     C4   4957 0.10863300  12.010000   ; qtot 181.879003
 4958         hx    182    ccc     H6   4958 0.12753300   1.008000   ; qtot 182.006536
 4959         c3    182    ccc     C5   4959 -0.20606700  12.010000   ; qtot 181.800469
 4960         hx    182    ccc     H7   4960 0.12753300   1.008000   ; qtot 181.928002
 4961         hc    182    ccc     H8   4961 0.10603300   1.008000   ; qtot 182.034035
 4962         hc    182    ccc     H9   4962 0.10603300   1.008000   ; qtot 182.140068
 4963          c    182    ccc     C6   4963 0.63793300  12.010000   ; qtot 182.778001
 4964         oh    182    ccc     O1   4964 -0.53626700  16.000000   ; qtot 182.241734
 4965          o    182    ccc     O2   4965 -0.48266700  16.000000   ; qtot 181.759067
 4966         hx    182    ccc    H10   4966 0.12753300   1.008000   ; qtot 181.886600
 4967         hx    182    ccc    H11   4967 0.12753300   1.008000   ; qtot 182.014133
 4968         c3    182    ccc     C7   4968 -0.20606700  12.010000   ; qtot 181.808066
 4969         hc    182    ccc    H12   4969 0.10603300   1.008000   ; qtot 181.914099
 4970         hc    182    ccc    H13   4970 0.10603300   1.008000   ; qtot 182.020132
 4971          c    182    ccc     C8   4971 0.63793300  12.010000   ; qtot 182.658065
 4972          o    182    ccc     O3   4972 -0.48266700  16.000000   ; qtot 182.175398
 4973         oh    182    ccc     O4   4973 -0.53626700  16.000000   ; qtot 181.639131
 4974         ho    182    ccc    H14   4974 0.45283300   1.008000   ; qtot 182.091964
 4975         ho    182    ccc    H15   4975 0.45283300   1.008000   ; qtot 182.544797
 4976         hn    182    ccc    H16   4976 0.45463300   1.008000   ; qtot 182.999430
; residue  183 ccc rtp ccc q 1.0
 4977          n    183    ccc     N1   4977 -0.56206700  14.010000   ; qtot 182.437363
 4978         hn    183    ccc     H1   4978 0.35233300   1.008000   ; qtot 182.789696
 4979         c3    183    ccc     C1   4979 0.10283300  12.010000   ; qtot 182.892529
 4980         h1    183    ccc     H2   4980 0.07153300   1.008000   ; qtot 182.964062
 4981         c3    183    ccc     C2   4981 0.07063300  12.010000   ; qtot 183.034695
 4982         h1    183    ccc     H3   4982 0.07153300   1.008000   ; qtot 183.106228
 4983         hx    183    ccc     H4   4983 0.11303300   1.008000   ; qtot 183.219261
 4984         hx    183    ccc     H5   4984 0.11303300   1.008000   ; qtot 183.332294
 4985         n4    183    ccc     N2   4985 -0.67056700  14.010000   ; qtot 182.661727
 4986         c3    183    ccc     C3   4986 0.10863300  12.010000   ; qtot 182.770360
 4987         c3    183    ccc     C4   4987 0.10863300  12.010000   ; qtot 182.878993
 4988         hx    183    ccc     H6   4988 0.12753300   1.008000   ; qtot 183.006526
 4989         c3    183    ccc     C5   4989 -0.20606700  12.010000   ; qtot 182.800459
 4990         hx    183    ccc     H7   4990 0.12753300   1.008000   ; qtot 182.927992
 4991         hc    183    ccc     H8   4991 0.10603300   1.008000   ; qtot 183.034025
 4992         hc    183    ccc     H9   4992 0.10603300   1.008000   ; qtot 183.140058
 4993          c    183    ccc     C6   4993 0.63793300  12.010000   ; qtot 183.777991
 4994         oh    183    ccc     O1   4994 -0.53626700  16.000000   ; qtot 183.241724
 4995          o    183    ccc     O2   4995 -0.48266700  16.000000   ; qtot 182.759057
 4996         hx    183    ccc    H10   4996 0.12753300   1.008000   ; qtot 182.886590
 4997         hx    183    ccc    H11   4997 0.12753300   1.008000   ; qtot 183.014123
 4998         c3    183    ccc     C7   4998 -0.20606700  12.010000   ; qtot 182.808056
 4999         hc    183    ccc    H12   4999 0.10603300   1.008000   ; qtot 182.914089
 5000         hc    183    ccc    H13   5000 0.10603300   1.008000   ; qtot 183.020122
 5001          c    183    ccc     C8   5001 0.63793300  12.010000   ; qtot 183.658055
 5002          o    183    ccc     O3   5002 -0.48266700  16.000000   ; qtot 183.175388
 5003         oh    183    ccc     O4   5003 -0.53626700  16.000000   ; qtot 182.639121
 5004         ho    183    ccc    H14   5004 0.45283300   1.008000   ; qtot 183.091954
 5005         ho    183    ccc    H15   5005 0.45283300   1.008000   ; qtot 183.544787
 5006         hn    183    ccc    H16   5006 0.45463300   1.008000   ; qtot 183.999420
; residue  184 ccc rtp ccc q 1.0
 5007          n    184    ccc     N1   5007 -0.56206700  14.010000   ; qtot 183.437353
 5008         hn    184    ccc     H1   5008 0.35233300   1.008000   ; qtot 183.789686
 5009         c3    184    ccc     C1   5009 0.10283300  12.010000   ; qtot 183.892519
 5010         h1    184    ccc     H2   5010 0.07153300   1.008000   ; qtot 183.964052
 5011         c3    184    ccc     C2   5011 0.07063300  12.010000   ; qtot 184.034685
 5012         h1    184    ccc     H3   5012 0.07153300   1.008000   ; qtot 184.106218
 5013         hx    184    ccc     H4   5013 0.11303300   1.008000   ; qtot 184.219251
 5014         hx    184    ccc     H5   5014 0.11303300   1.008000   ; qtot 184.332284
 5015         n4    184    ccc     N2   5015 -0.67056700  14.010000   ; qtot 183.661717
 5016         c3    184    ccc     C3   5016 0.10863300  12.010000   ; qtot 183.770350
 5017         c3    184    ccc     C4   5017 0.10863300  12.010000   ; qtot 183.878983
 5018         hx    184    ccc     H6   5018 0.12753300   1.008000   ; qtot 184.006516
 5019         c3    184    ccc     C5   5019 -0.20606700  12.010000   ; qtot 183.800449
 5020         hx    184    ccc     H7   5020 0.12753300   1.008000   ; qtot 183.927982
 5021         hc    184    ccc     H8   5021 0.10603300   1.008000   ; qtot 184.034015
 5022         hc    184    ccc     H9   5022 0.10603300   1.008000   ; qtot 184.140048
 5023          c    184    ccc     C6   5023 0.63793300  12.010000   ; qtot 184.777981
 5024         oh    184    ccc     O1   5024 -0.53626700  16.000000   ; qtot 184.241714
 5025          o    184    ccc     O2   5025 -0.48266700  16.000000   ; qtot 183.759047
 5026         hx    184    ccc    H10   5026 0.12753300   1.008000   ; qtot 183.886580
 5027         hx    184    ccc    H11   5027 0.12753300   1.008000   ; qtot 184.014113
 5028         c3    184    ccc     C7   5028 -0.20606700  12.010000   ; qtot 183.808046
 5029         hc    184    ccc    H12   5029 0.10603300   1.008000   ; qtot 183.914079
 5030         hc    184    ccc    H13   5030 0.10603300   1.008000   ; qtot 184.020112
 5031          c    184    ccc     C8   5031 0.63793300  12.010000   ; qtot 184.658045
 5032          o    184    ccc     O3   5032 -0.48266700  16.000000   ; qtot 184.175378
 5033         oh    184    ccc     O4   5033 -0.53626700  16.000000   ; qtot 183.639111
 5034         ho    184    ccc    H14   5034 0.45283300   1.008000   ; qtot 184.091944
 5035         ho    184    ccc    H15   5035 0.45283300   1.008000   ; qtot 184.544777
 5036         hn    184    ccc    H16   5036 0.45463300   1.008000   ; qtot 184.999410
; residue  185 ccc rtp ccc q 1.0
 5037          n    185    ccc     N1   5037 -0.56206700  14.010000   ; qtot 184.437343
 5038         hn    185    ccc     H1   5038 0.35233300   1.008000   ; qtot 184.789676
 5039         c3    185    ccc     C1   5039 0.10283300  12.010000   ; qtot 184.892509
 5040         h1    185    ccc     H2   5040 0.07153300   1.008000   ; qtot 184.964042
 5041         c3    185    ccc     C2   5041 0.07063300  12.010000   ; qtot 185.034675
 5042         h1    185    ccc     H3   5042 0.07153300   1.008000   ; qtot 185.106208
 5043         hx    185    ccc     H4   5043 0.11303300   1.008000   ; qtot 185.219241
 5044         hx    185    ccc     H5   5044 0.11303300   1.008000   ; qtot 185.332274
 5045         n4    185    ccc     N2   5045 -0.67056700  14.010000   ; qtot 184.661707
 5046         c3    185    ccc     C3   5046 0.10863300  12.010000   ; qtot 184.770340
 5047         c3    185    ccc     C4   5047 0.10863300  12.010000   ; qtot 184.878973
 5048         hx    185    ccc     H6   5048 0.12753300   1.008000   ; qtot 185.006506
 5049         c3    185    ccc     C5   5049 -0.20606700  12.010000   ; qtot 184.800439
 5050         hx    185    ccc     H7   5050 0.12753300   1.008000   ; qtot 184.927972
 5051         hc    185    ccc     H8   5051 0.10603300   1.008000   ; qtot 185.034005
 5052         hc    185    ccc     H9   5052 0.10603300   1.008000   ; qtot 185.140038
 5053          c    185    ccc     C6   5053 0.63793300  12.010000   ; qtot 185.777971
 5054         oh    185    ccc     O1   5054 -0.53626700  16.000000   ; qtot 185.241704
 5055          o    185    ccc     O2   5055 -0.48266700  16.000000   ; qtot 184.759037
 5056         hx    185    ccc    H10   5056 0.12753300   1.008000   ; qtot 184.886570
 5057         hx    185    ccc    H11   5057 0.12753300   1.008000   ; qtot 185.014103
 5058         c3    185    ccc     C7   5058 -0.20606700  12.010000   ; qtot 184.808036
 5059         hc    185    ccc    H12   5059 0.10603300   1.008000   ; qtot 184.914069
 5060         hc    185    ccc    H13   5060 0.10603300   1.008000   ; qtot 185.020102
 5061          c    185    ccc     C8   5061 0.63793300  12.010000   ; qtot 185.658035
 5062          o    185    ccc     O3   5062 -0.48266700  16.000000   ; qtot 185.175368
 5063         oh    185    ccc     O4   5063 -0.53626700  16.000000   ; qtot 184.639101
 5064         ho    185    ccc    H14   5064 0.45283300   1.008000   ; qtot 185.091934
 5065         ho    185    ccc    H15   5065 0.45283300   1.008000   ; qtot 185.544767
 5066         hn    185    ccc    H16   5066 0.45463300   1.008000   ; qtot 185.999400
; residue  186 ccc rtp ccc q 1.0
 5067          n    186    ccc     N1   5067 -0.56206700  14.010000   ; qtot 185.437333
 5068         hn    186    ccc     H1   5068 0.35233300   1.008000   ; qtot 185.789666
 5069         c3    186    ccc     C1   5069 0.10283300  12.010000   ; qtot 185.892499
 5070         h1    186    ccc     H2   5070 0.07153300   1.008000   ; qtot 185.964032
 5071         c3    186    ccc     C2   5071 0.07063300  12.010000   ; qtot 186.034665
 5072         h1    186    ccc     H3   5072 0.07153300   1.008000   ; qtot 186.106198
 5073         hx    186    ccc     H4   5073 0.11303300   1.008000   ; qtot 186.219231
 5074         hx    186    ccc     H5   5074 0.11303300   1.008000   ; qtot 186.332264
 5075         n4    186    ccc     N2   5075 -0.67056700  14.010000   ; qtot 185.661697
 5076         c3    186    ccc     C3   5076 0.10863300  12.010000   ; qtot 185.770330
 5077         c3    186    ccc     C4   5077 0.10863300  12.010000   ; qtot 185.878963
 5078         hx    186    ccc     H6   5078 0.12753300   1.008000   ; qtot 186.006496
 5079         c3    186    ccc     C5   5079 -0.20606700  12.010000   ; qtot 185.800429
 5080         hx    186    ccc     H7   5080 0.12753300   1.008000   ; qtot 185.927962
 5081         hc    186    ccc     H8   5081 0.10603300   1.008000   ; qtot 186.033995
 5082         hc    186    ccc     H9   5082 0.10603300   1.008000   ; qtot 186.140028
 5083          c    186    ccc     C6   5083 0.63793300  12.010000   ; qtot 186.777961
 5084         oh    186    ccc     O1   5084 -0.53626700  16.000000   ; qtot 186.241694
 5085          o    186    ccc     O2   5085 -0.48266700  16.000000   ; qtot 185.759027
 5086         hx    186    ccc    H10   5086 0.12753300   1.008000   ; qtot 185.886560
 5087         hx    186    ccc    H11   5087 0.12753300   1.008000   ; qtot 186.014093
 5088         c3    186    ccc     C7   5088 -0.20606700  12.010000   ; qtot 185.808026
 5089         hc    186    ccc    H12   5089 0.10603300   1.008000   ; qtot 185.914059
 5090         hc    186    ccc    H13   5090 0.10603300   1.008000   ; qtot 186.020092
 5091          c    186    ccc     C8   5091 0.63793300  12.010000   ; qtot 186.658025
 5092          o    186    ccc     O3   5092 -0.48266700  16.000000   ; qtot 186.175358
 5093         oh    186    ccc     O4   5093 -0.53626700  16.000000   ; qtot 185.639091
 5094         ho    186    ccc    H14   5094 0.45283300   1.008000   ; qtot 186.091924
 5095         ho    186    ccc    H15   5095 0.45283300   1.008000   ; qtot 186.544757
 5096         hn    186    ccc    H16   5096 0.45463300   1.008000   ; qtot 186.999390
; residue  187 ccc rtp ccc q 1.0
 5097          n    187    ccc     N1   5097 -0.56206700  14.010000   ; qtot 186.437323
 5098         hn    187    ccc     H1   5098 0.35233300   1.008000   ; qtot 186.789656
 5099         c3    187    ccc     C1   5099 0.10283300  12.010000   ; qtot 186.892489
 5100         h1    187    ccc     H2   5100 0.07153300   1.008000   ; qtot 186.964022
 5101         c3    187    ccc     C2   5101 0.07063300  12.010000   ; qtot 187.034655
 5102         h1    187    ccc     H3   5102 0.07153300   1.008000   ; qtot 187.106188
 5103         hx    187    ccc     H4   5103 0.11303300   1.008000   ; qtot 187.219221
 5104         hx    187    ccc     H5   5104 0.11303300   1.008000   ; qtot 187.332254
 5105         n4    187    ccc     N2   5105 -0.67056700  14.010000   ; qtot 186.661687
 5106         c3    187    ccc     C3   5106 0.10863300  12.010000   ; qtot 186.770320
 5107         c3    187    ccc     C4   5107 0.10863300  12.010000   ; qtot 186.878953
 5108         hx    187    ccc     H6   5108 0.12753300   1.008000   ; qtot 187.006486
 5109         c3    187    ccc     C5   5109 -0.20606700  12.010000   ; qtot 186.800419
 5110         hx    187    ccc     H7   5110 0.12753300   1.008000   ; qtot 186.927952
 5111         hc    187    ccc     H8   5111 0.10603300   1.008000   ; qtot 187.033985
 5112         hc    187    ccc     H9   5112 0.10603300   1.008000   ; qtot 187.140018
 5113          c    187    ccc     C6   5113 0.63793300  12.010000   ; qtot 187.777951
 5114         oh    187    ccc     O1   5114 -0.53626700  16.000000   ; qtot 187.241684
 5115          o    187    ccc     O2   5115 -0.48266700  16.000000   ; qtot 186.759017
 5116         hx    187    ccc    H10   5116 0.12753300   1.008000   ; qtot 186.886550
 5117         hx    187    ccc    H11   5117 0.12753300   1.008000   ; qtot 187.014083
 5118         c3    187    ccc     C7   5118 -0.20606700  12.010000   ; qtot 186.808016
 5119         hc    187    ccc    H12   5119 0.10603300   1.008000   ; qtot 186.914049
 5120         hc    187    ccc    H13   5120 0.10603300   1.008000   ; qtot 187.020082
 5121          c    187    ccc     C8   5121 0.63793300  12.010000   ; qtot 187.658015
 5122          o    187    ccc     O3   5122 -0.48266700  16.000000   ; qtot 187.175348
 5123         oh    187    ccc     O4   5123 -0.53626700  16.000000   ; qtot 186.639081
 5124         ho    187    ccc    H14   5124 0.45283300   1.008000   ; qtot 187.091914
 5125         ho    187    ccc    H15   5125 0.45283300   1.008000   ; qtot 187.544747
 5126         hn    187    ccc    H16   5126 0.45463300   1.008000   ; qtot 187.999380
; residue  188 ccc rtp ccc q 1.0
 5127          n    188    ccc     N1   5127 -0.56206700  14.010000   ; qtot 187.437313
 5128         hn    188    ccc     H1   5128 0.35233300   1.008000   ; qtot 187.789646
 5129         c3    188    ccc     C1   5129 0.10283300  12.010000   ; qtot 187.892479
 5130         h1    188    ccc     H2   5130 0.07153300   1.008000   ; qtot 187.964012
 5131         c3    188    ccc     C2   5131 0.07063300  12.010000   ; qtot 188.034645
 5132         h1    188    ccc     H3   5132 0.07153300   1.008000   ; qtot 188.106178
 5133         hx    188    ccc     H4   5133 0.11303300   1.008000   ; qtot 188.219211
 5134         hx    188    ccc     H5   5134 0.11303300   1.008000   ; qtot 188.332244
 5135         n4    188    ccc     N2   5135 -0.67056700  14.010000   ; qtot 187.661677
 5136         c3    188    ccc     C3   5136 0.10863300  12.010000   ; qtot 187.770310
 5137         c3    188    ccc     C4   5137 0.10863300  12.010000   ; qtot 187.878943
 5138         hx    188    ccc     H6   5138 0.12753300   1.008000   ; qtot 188.006476
 5139         c3    188    ccc     C5   5139 -0.20606700  12.010000   ; qtot 187.800409
 5140         hx    188    ccc     H7   5140 0.12753300   1.008000   ; qtot 187.927942
 5141         hc    188    ccc     H8   5141 0.10603300   1.008000   ; qtot 188.033975
 5142         hc    188    ccc     H9   5142 0.10603300   1.008000   ; qtot 188.140008
 5143          c    188    ccc     C6   5143 0.63793300  12.010000   ; qtot 188.777941
 5144         oh    188    ccc     O1   5144 -0.53626700  16.000000   ; qtot 188.241674
 5145          o    188    ccc     O2   5145 -0.48266700  16.000000   ; qtot 187.759007
 5146         hx    188    ccc    H10   5146 0.12753300   1.008000   ; qtot 187.886540
 5147         hx    188    ccc    H11   5147 0.12753300   1.008000   ; qtot 188.014073
 5148         c3    188    ccc     C7   5148 -0.20606700  12.010000   ; qtot 187.808006
 5149         hc    188    ccc    H12   5149 0.10603300   1.008000   ; qtot 187.914039
 5150         hc    188    ccc    H13   5150 0.10603300   1.008000   ; qtot 188.020072
 5151          c    188    ccc     C8   5151 0.63793300  12.010000   ; qtot 188.658005
 5152          o    188    ccc     O3   5152 -0.48266700  16.000000   ; qtot 188.175338
 5153         oh    188    ccc     O4   5153 -0.53626700  16.000000   ; qtot 187.639071
 5154         ho    188    ccc    H14   5154 0.45283300   1.008000   ; qtot 188.091904
 5155         ho    188    ccc    H15   5155 0.45283300   1.008000   ; qtot 188.544737
 5156         hn    188    ccc    H16   5156 0.45463300   1.008000   ; qtot 188.999370
; residue  189 ccc rtp ccc q 1.0
 5157          n    189    ccc     N1   5157 -0.56206700  14.010000   ; qtot 188.437303
 5158         hn    189    ccc     H1   5158 0.35233300   1.008000   ; qtot 188.789636
 5159         c3    189    ccc     C1   5159 0.10283300  12.010000   ; qtot 188.892469
 5160         h1    189    ccc     H2   5160 0.07153300   1.008000   ; qtot 188.964002
 5161         c3    189    ccc     C2   5161 0.07063300  12.010000   ; qtot 189.034635
 5162         h1    189    ccc     H3   5162 0.07153300   1.008000   ; qtot 189.106168
 5163         hx    189    ccc     H4   5163 0.11303300   1.008000   ; qtot 189.219201
 5164         hx    189    ccc     H5   5164 0.11303300   1.008000   ; qtot 189.332234
 5165         n4    189    ccc     N2   5165 -0.67056700  14.010000   ; qtot 188.661667
 5166         c3    189    ccc     C3   5166 0.10863300  12.010000   ; qtot 188.770300
 5167         c3    189    ccc     C4   5167 0.10863300  12.010000   ; qtot 188.878933
 5168         hx    189    ccc     H6   5168 0.12753300   1.008000   ; qtot 189.006466
 5169         c3    189    ccc     C5   5169 -0.20606700  12.010000   ; qtot 188.800399
 5170         hx    189    ccc     H7   5170 0.12753300   1.008000   ; qtot 188.927932
 5171         hc    189    ccc     H8   5171 0.10603300   1.008000   ; qtot 189.033965
 5172         hc    189    ccc     H9   5172 0.10603300   1.008000   ; qtot 189.139998
 5173          c    189    ccc     C6   5173 0.63793300  12.010000   ; qtot 189.777931
 5174         oh    189    ccc     O1   5174 -0.53626700  16.000000   ; qtot 189.241664
 5175          o    189    ccc     O2   5175 -0.48266700  16.000000   ; qtot 188.758997
 5176         hx    189    ccc    H10   5176 0.12753300   1.008000   ; qtot 188.886530
 5177         hx    189    ccc    H11   5177 0.12753300   1.008000   ; qtot 189.014063
 5178         c3    189    ccc     C7   5178 -0.20606700  12.010000   ; qtot 188.807996
 5179         hc    189    ccc    H12   5179 0.10603300   1.008000   ; qtot 188.914029
 5180         hc    189    ccc    H13   5180 0.10603300   1.008000   ; qtot 189.020062
 5181          c    189    ccc     C8   5181 0.63793300  12.010000   ; qtot 189.657995
 5182          o    189    ccc     O3   5182 -0.48266700  16.000000   ; qtot 189.175328
 5183         oh    189    ccc     O4   5183 -0.53626700  16.000000   ; qtot 188.639061
 5184         ho    189    ccc    H14   5184 0.45283300   1.008000   ; qtot 189.091894
 5185         ho    189    ccc    H15   5185 0.45283300   1.008000   ; qtot 189.544727
 5186         hn    189    ccc    H16   5186 0.45463300   1.008000   ; qtot 189.999360
; residue  190 ccc rtp ccc q 1.0
 5187          n    190    ccc     N1   5187 -0.56206700  14.010000   ; qtot 189.437293
 5188         hn    190    ccc     H1   5188 0.35233300   1.008000   ; qtot 189.789626
 5189         c3    190    ccc     C1   5189 0.10283300  12.010000   ; qtot 189.892459
 5190         h1    190    ccc     H2   5190 0.07153300   1.008000   ; qtot 189.963992
 5191         c3    190    ccc     C2   5191 0.07063300  12.010000   ; qtot 190.034625
 5192         h1    190    ccc     H3   5192 0.07153300   1.008000   ; qtot 190.106158
 5193         hx    190    ccc     H4   5193 0.11303300   1.008000   ; qtot 190.219191
 5194         hx    190    ccc     H5   5194 0.11303300   1.008000   ; qtot 190.332224
 5195         n4    190    ccc     N2   5195 -0.67056700  14.010000   ; qtot 189.661657
 5196         c3    190    ccc     C3   5196 0.10863300  12.010000   ; qtot 189.770290
 5197         c3    190    ccc     C4   5197 0.10863300  12.010000   ; qtot 189.878923
 5198         hx    190    ccc     H6   5198 0.12753300   1.008000   ; qtot 190.006456
 5199         c3    190    ccc     C5   5199 -0.20606700  12.010000   ; qtot 189.800389
 5200         hx    190    ccc     H7   5200 0.12753300   1.008000   ; qtot 189.927922
 5201         hc    190    ccc     H8   5201 0.10603300   1.008000   ; qtot 190.033955
 5202         hc    190    ccc     H9   5202 0.10603300   1.008000   ; qtot 190.139988
 5203          c    190    ccc     C6   5203 0.63793300  12.010000   ; qtot 190.777921
 5204         oh    190    ccc     O1   5204 -0.53626700  16.000000   ; qtot 190.241654
 5205          o    190    ccc     O2   5205 -0.48266700  16.000000   ; qtot 189.758987
 5206         hx    190    ccc    H10   5206 0.12753300   1.008000   ; qtot 189.886520
 5207         hx    190    ccc    H11   5207 0.12753300   1.008000   ; qtot 190.014053
 5208         c3    190    ccc     C7   5208 -0.20606700  12.010000   ; qtot 189.807986
 5209         hc    190    ccc    H12   5209 0.10603300   1.008000   ; qtot 189.914019
 5210         hc    190    ccc    H13   5210 0.10603300   1.008000   ; qtot 190.020052
 5211          c    190    ccc     C8   5211 0.63793300  12.010000   ; qtot 190.657985
 5212          o    190    ccc     O3   5212 -0.48266700  16.000000   ; qtot 190.175318
 5213         oh    190    ccc     O4   5213 -0.53626700  16.000000   ; qtot 189.639051
 5214         ho    190    ccc    H14   5214 0.45283300   1.008000   ; qtot 190.091884
 5215         ho    190    ccc    H15   5215 0.45283300   1.008000   ; qtot 190.544717
 5216         hn    190    ccc    H16   5216 0.45463300   1.008000   ; qtot 190.999350
; residue  191 ccc rtp ccc q 1.0
 5217          n    191    ccc     N1   5217 -0.56206700  14.010000   ; qtot 190.437283
 5218         hn    191    ccc     H1   5218 0.35233300   1.008000   ; qtot 190.789616
 5219         c3    191    ccc     C1   5219 0.10283300  12.010000   ; qtot 190.892449
 5220         h1    191    ccc     H2   5220 0.07153300   1.008000   ; qtot 190.963982
 5221         c3    191    ccc     C2   5221 0.07063300  12.010000   ; qtot 191.034615
 5222         h1    191    ccc     H3   5222 0.07153300   1.008000   ; qtot 191.106148
 5223         hx    191    ccc     H4   5223 0.11303300   1.008000   ; qtot 191.219181
 5224         hx    191    ccc     H5   5224 0.11303300   1.008000   ; qtot 191.332214
 5225         n4    191    ccc     N2   5225 -0.67056700  14.010000   ; qtot 190.661647
 5226         c3    191    ccc     C3   5226 0.10863300  12.010000   ; qtot 190.770280
 5227         c3    191    ccc     C4   5227 0.10863300  12.010000   ; qtot 190.878913
 5228         hx    191    ccc     H6   5228 0.12753300   1.008000   ; qtot 191.006446
 5229         c3    191    ccc     C5   5229 -0.20606700  12.010000   ; qtot 190.800379
 5230         hx    191    ccc     H7   5230 0.12753300   1.008000   ; qtot 190.927912
 5231         hc    191    ccc     H8   5231 0.10603300   1.008000   ; qtot 191.033945
 5232         hc    191    ccc     H9   5232 0.10603300   1.008000   ; qtot 191.139978
 5233          c    191    ccc     C6   5233 0.63793300  12.010000   ; qtot 191.777911
 5234         oh    191    ccc     O1   5234 -0.53626700  16.000000   ; qtot 191.241644
 5235          o    191    ccc     O2   5235 -0.48266700  16.000000   ; qtot 190.758977
 5236         hx    191    ccc    H10   5236 0.12753300   1.008000   ; qtot 190.886510
 5237         hx    191    ccc    H11   5237 0.12753300   1.008000   ; qtot 191.014043
 5238         c3    191    ccc     C7   5238 -0.20606700  12.010000   ; qtot 190.807976
 5239         hc    191    ccc    H12   5239 0.10603300   1.008000   ; qtot 190.914009
 5240         hc    191    ccc    H13   5240 0.10603300   1.008000   ; qtot 191.020042
 5241          c    191    ccc     C8   5241 0.63793300  12.010000   ; qtot 191.657975
 5242          o    191    ccc     O3   5242 -0.48266700  16.000000   ; qtot 191.175308
 5243         oh    191    ccc     O4   5243 -0.53626700  16.000000   ; qtot 190.639041
 5244         ho    191    ccc    H14   5244 0.45283300   1.008000   ; qtot 191.091874
 5245         ho    191    ccc    H15   5245 0.45283300   1.008000   ; qtot 191.544707
 5246         hn    191    ccc    H16   5246 0.45463300   1.008000   ; qtot 191.999340
; residue  192 ccc rtp ccc q 1.0
 5247          n    192    ccc     N1   5247 -0.56206700  14.010000   ; qtot 191.437273
 5248         hn    192    ccc     H1   5248 0.35233300   1.008000   ; qtot 191.789606
 5249         c3    192    ccc     C1   5249 0.10283300  12.010000   ; qtot 191.892439
 5250         h1    192    ccc     H2   5250 0.07153300   1.008000   ; qtot 191.963972
 5251         c3    192    ccc     C2   5251 0.07063300  12.010000   ; qtot 192.034605
 5252         h1    192    ccc     H3   5252 0.07153300   1.008000   ; qtot 192.106138
 5253         hx    192    ccc     H4   5253 0.11303300   1.008000   ; qtot 192.219171
 5254         hx    192    ccc     H5   5254 0.11303300   1.008000   ; qtot 192.332204
 5255         n4    192    ccc     N2   5255 -0.67056700  14.010000   ; qtot 191.661637
 5256         c3    192    ccc     C3   5256 0.10863300  12.010000   ; qtot 191.770270
 5257         c3    192    ccc     C4   5257 0.10863300  12.010000   ; qtot 191.878903
 5258         hx    192    ccc     H6   5258 0.12753300   1.008000   ; qtot 192.006436
 5259         c3    192    ccc     C5   5259 -0.20606700  12.010000   ; qtot 191.800369
 5260         hx    192    ccc     H7   5260 0.12753300   1.008000   ; qtot 191.927902
 5261         hc    192    ccc     H8   5261 0.10603300   1.008000   ; qtot 192.033935
 5262         hc    192    ccc     H9   5262 0.10603300   1.008000   ; qtot 192.139968
 5263          c    192    ccc     C6   5263 0.63793300  12.010000   ; qtot 192.777901
 5264         oh    192    ccc     O1   5264 -0.53626700  16.000000   ; qtot 192.241634
 5265          o    192    ccc     O2   5265 -0.48266700  16.000000   ; qtot 191.758967
 5266         hx    192    ccc    H10   5266 0.12753300   1.008000   ; qtot 191.886500
 5267         hx    192    ccc    H11   5267 0.12753300   1.008000   ; qtot 192.014033
 5268         c3    192    ccc     C7   5268 -0.20606700  12.010000   ; qtot 191.807966
 5269         hc    192    ccc    H12   5269 0.10603300   1.008000   ; qtot 191.913999
 5270         hc    192    ccc    H13   5270 0.10603300   1.008000   ; qtot 192.020032
 5271          c    192    ccc     C8   5271 0.63793300  12.010000   ; qtot 192.657965
 5272          o    192    ccc     O3   5272 -0.48266700  16.000000   ; qtot 192.175298
 5273         oh    192    ccc     O4   5273 -0.53626700  16.000000   ; qtot 191.639031
 5274         ho    192    ccc    H14   5274 0.45283300   1.008000   ; qtot 192.091864
 5275         ho    192    ccc    H15   5275 0.45283300   1.008000   ; qtot 192.544697
 5276         hn    192    ccc    H16   5276 0.45463300   1.008000   ; qtot 192.999330
; residue  193 ccc rtp ccc q 1.0
 5277          n    193    ccc     N1   5277 -0.56206700  14.010000   ; qtot 192.437263
 5278         hn    193    ccc     H1   5278 0.35233300   1.008000   ; qtot 192.789596
 5279         c3    193    ccc     C1   5279 0.10283300  12.010000   ; qtot 192.892429
 5280         h1    193    ccc     H2   5280 0.07153300   1.008000   ; qtot 192.963962
 5281         c3    193    ccc     C2   5281 0.07063300  12.010000   ; qtot 193.034595
 5282         h1    193    ccc     H3   5282 0.07153300   1.008000   ; qtot 193.106128
 5283         hx    193    ccc     H4   5283 0.11303300   1.008000   ; qtot 193.219161
 5284         hx    193    ccc     H5   5284 0.11303300   1.008000   ; qtot 193.332194
 5285         n4    193    ccc     N2   5285 -0.67056700  14.010000   ; qtot 192.661627
 5286         c3    193    ccc     C3   5286 0.10863300  12.010000   ; qtot 192.770260
 5287         c3    193    ccc     C4   5287 0.10863300  12.010000   ; qtot 192.878893
 5288         hx    193    ccc     H6   5288 0.12753300   1.008000   ; qtot 193.006426
 5289         c3    193    ccc     C5   5289 -0.20606700  12.010000   ; qtot 192.800359
 5290         hx    193    ccc     H7   5290 0.12753300   1.008000   ; qtot 192.927892
 5291         hc    193    ccc     H8   5291 0.10603300   1.008000   ; qtot 193.033925
 5292         hc    193    ccc     H9   5292 0.10603300   1.008000   ; qtot 193.139958
 5293          c    193    ccc     C6   5293 0.63793300  12.010000   ; qtot 193.777891
 5294         oh    193    ccc     O1   5294 -0.53626700  16.000000   ; qtot 193.241624
 5295          o    193    ccc     O2   5295 -0.48266700  16.000000   ; qtot 192.758957
 5296         hx    193    ccc    H10   5296 0.12753300   1.008000   ; qtot 192.886490
 5297         hx    193    ccc    H11   5297 0.12753300   1.008000   ; qtot 193.014023
 5298         c3    193    ccc     C7   5298 -0.20606700  12.010000   ; qtot 192.807956
 5299         hc    193    ccc    H12   5299 0.10603300   1.008000   ; qtot 192.913989
 5300         hc    193    ccc    H13   5300 0.10603300   1.008000   ; qtot 193.020022
 5301          c    193    ccc     C8   5301 0.63793300  12.010000   ; qtot 193.657955
 5302          o    193    ccc     O3   5302 -0.48266700  16.000000   ; qtot 193.175288
 5303         oh    193    ccc     O4   5303 -0.53626700  16.000000   ; qtot 192.639021
 5304         ho    193    ccc    H14   5304 0.45283300   1.008000   ; qtot 193.091854
 5305         ho    193    ccc    H15   5305 0.45283300   1.008000   ; qtot 193.544687
 5306         hn    193    ccc    H16   5306 0.45463300   1.008000   ; qtot 193.999320
; residue  194 ccc rtp ccc q 1.0
 5307          n    194    ccc     N1   5307 -0.56206700  14.010000   ; qtot 193.437253
 5308         hn    194    ccc     H1   5308 0.35233300   1.008000   ; qtot 193.789586
 5309         c3    194    ccc     C1   5309 0.10283300  12.010000   ; qtot 193.892419
 5310         h1    194    ccc     H2   5310 0.07153300   1.008000   ; qtot 193.963952
 5311         c3    194    ccc     C2   5311 0.07063300  12.010000   ; qtot 194.034585
 5312         h1    194    ccc     H3   5312 0.07153300   1.008000   ; qtot 194.106118
 5313         hx    194    ccc     H4   5313 0.11303300   1.008000   ; qtot 194.219151
 5314         hx    194    ccc     H5   5314 0.11303300   1.008000   ; qtot 194.332184
 5315         n4    194    ccc     N2   5315 -0.67056700  14.010000   ; qtot 193.661617
 5316         c3    194    ccc     C3   5316 0.10863300  12.010000   ; qtot 193.770250
 5317         c3    194    ccc     C4   5317 0.10863300  12.010000   ; qtot 193.878883
 5318         hx    194    ccc     H6   5318 0.12753300   1.008000   ; qtot 194.006416
 5319         c3    194    ccc     C5   5319 -0.20606700  12.010000   ; qtot 193.800349
 5320         hx    194    ccc     H7   5320 0.12753300   1.008000   ; qtot 193.927882
 5321         hc    194    ccc     H8   5321 0.10603300   1.008000   ; qtot 194.033915
 5322         hc    194    ccc     H9   5322 0.10603300   1.008000   ; qtot 194.139948
 5323          c    194    ccc     C6   5323 0.63793300  12.010000   ; qtot 194.777881
 5324         oh    194    ccc     O1   5324 -0.53626700  16.000000   ; qtot 194.241614
 5325          o    194    ccc     O2   5325 -0.48266700  16.000000   ; qtot 193.758947
 5326         hx    194    ccc    H10   5326 0.12753300   1.008000   ; qtot 193.886480
 5327         hx    194    ccc    H11   5327 0.12753300   1.008000   ; qtot 194.014013
 5328         c3    194    ccc     C7   5328 -0.20606700  12.010000   ; qtot 193.807946
 5329         hc    194    ccc    H12   5329 0.10603300   1.008000   ; qtot 193.913979
 5330         hc    194    ccc    H13   5330 0.10603300   1.008000   ; qtot 194.020012
 5331          c    194    ccc     C8   5331 0.63793300  12.010000   ; qtot 194.657945
 5332          o    194    ccc     O3   5332 -0.48266700  16.000000   ; qtot 194.175278
 5333         oh    194    ccc     O4   5333 -0.53626700  16.000000   ; qtot 193.639011
 5334         ho    194    ccc    H14   5334 0.45283300   1.008000   ; qtot 194.091844
 5335         ho    194    ccc    H15   5335 0.45283300   1.008000   ; qtot 194.544677
 5336         hn    194    ccc    H16   5336 0.45463300   1.008000   ; qtot 194.999310
; residue  195 ccc rtp ccc q 1.0
 5337          n    195    ccc     N1   5337 -0.56206700  14.010000   ; qtot 194.437243
 5338         hn    195    ccc     H1   5338 0.35233300   1.008000   ; qtot 194.789576
 5339         c3    195    ccc     C1   5339 0.10283300  12.010000   ; qtot 194.892409
 5340         h1    195    ccc     H2   5340 0.07153300   1.008000   ; qtot 194.963942
 5341         c3    195    ccc     C2   5341 0.07063300  12.010000   ; qtot 195.034575
 5342         h1    195    ccc     H3   5342 0.07153300   1.008000   ; qtot 195.106108
 5343         hx    195    ccc     H4   5343 0.11303300   1.008000   ; qtot 195.219141
 5344         hx    195    ccc     H5   5344 0.11303300   1.008000   ; qtot 195.332174
 5345         n4    195    ccc     N2   5345 -0.67056700  14.010000   ; qtot 194.661607
 5346         c3    195    ccc     C3   5346 0.10863300  12.010000   ; qtot 194.770240
 5347         c3    195    ccc     C4   5347 0.10863300  12.010000   ; qtot 194.878873
 5348         hx    195    ccc     H6   5348 0.12753300   1.008000   ; qtot 195.006406
 5349         c3    195    ccc     C5   5349 -0.20606700  12.010000   ; qtot 194.800339
 5350         hx    195    ccc     H7   5350 0.12753300   1.008000   ; qtot 194.927872
 5351         hc    195    ccc     H8   5351 0.10603300   1.008000   ; qtot 195.033905
 5352         hc    195    ccc     H9   5352 0.10603300   1.008000   ; qtot 195.139938
 5353          c    195    ccc     C6   5353 0.63793300  12.010000   ; qtot 195.777871
 5354         oh    195    ccc     O1   5354 -0.53626700  16.000000   ; qtot 195.241604
 5355          o    195    ccc     O2   5355 -0.48266700  16.000000   ; qtot 194.758937
 5356         hx    195    ccc    H10   5356 0.12753300   1.008000   ; qtot 194.886470
 5357         hx    195    ccc    H11   5357 0.12753300   1.008000   ; qtot 195.014003
 5358         c3    195    ccc     C7   5358 -0.20606700  12.010000   ; qtot 194.807936
 5359         hc    195    ccc    H12   5359 0.10603300   1.008000   ; qtot 194.913969
 5360         hc    195    ccc    H13   5360 0.10603300   1.008000   ; qtot 195.020002
 5361          c    195    ccc     C8   5361 0.63793300  12.010000   ; qtot 195.657935
 5362          o    195    ccc     O3   5362 -0.48266700  16.000000   ; qtot 195.175268
 5363         oh    195    ccc     O4   5363 -0.53626700  16.000000   ; qtot 194.639001
 5364         ho    195    ccc    H14   5364 0.45283300   1.008000   ; qtot 195.091834
 5365         ho    195    ccc    H15   5365 0.45283300   1.008000   ; qtot 195.544667
 5366         hn    195    ccc    H16   5366 0.45463300   1.008000   ; qtot 195.999300
; residue  196 ccc rtp ccc q 1.0
 5367          n    196    ccc     N1   5367 -0.56206700  14.010000   ; qtot 195.437233
 5368         hn    196    ccc     H1   5368 0.35233300   1.008000   ; qtot 195.789566
 5369         c3    196    ccc     C1   5369 0.10283300  12.010000   ; qtot 195.892399
 5370         h1    196    ccc     H2   5370 0.07153300   1.008000   ; qtot 195.963932
 5371         c3    196    ccc     C2   5371 0.07063300  12.010000   ; qtot 196.034565
 5372         h1    196    ccc     H3   5372 0.07153300   1.008000   ; qtot 196.106098
 5373         hx    196    ccc     H4   5373 0.11303300   1.008000   ; qtot 196.219131
 5374         hx    196    ccc     H5   5374 0.11303300   1.008000   ; qtot 196.332164
 5375         n4    196    ccc     N2   5375 -0.67056700  14.010000   ; qtot 195.661597
 5376         c3    196    ccc     C3   5376 0.10863300  12.010000   ; qtot 195.770230
 5377         c3    196    ccc     C4   5377 0.10863300  12.010000   ; qtot 195.878863
 5378         hx    196    ccc     H6   5378 0.12753300   1.008000   ; qtot 196.006396
 5379         c3    196    ccc     C5   5379 -0.20606700  12.010000   ; qtot 195.800329
 5380         hx    196    ccc     H7   5380 0.12753300   1.008000   ; qtot 195.927862
 5381         hc    196    ccc     H8   5381 0.10603300   1.008000   ; qtot 196.033895
 5382         hc    196    ccc     H9   5382 0.10603300   1.008000   ; qtot 196.139928
 5383          c    196    ccc     C6   5383 0.63793300  12.010000   ; qtot 196.777861
 5384         oh    196    ccc     O1   5384 -0.53626700  16.000000   ; qtot 196.241594
 5385          o    196    ccc     O2   5385 -0.48266700  16.000000   ; qtot 195.758927
 5386         hx    196    ccc    H10   5386 0.12753300   1.008000   ; qtot 195.886460
 5387         hx    196    ccc    H11   5387 0.12753300   1.008000   ; qtot 196.013993
 5388         c3    196    ccc     C7   5388 -0.20606700  12.010000   ; qtot 195.807926
 5389         hc    196    ccc    H12   5389 0.10603300   1.008000   ; qtot 195.913959
 5390         hc    196    ccc    H13   5390 0.10603300   1.008000   ; qtot 196.019992
 5391          c    196    ccc     C8   5391 0.63793300  12.010000   ; qtot 196.657925
 5392          o    196    ccc     O3   5392 -0.48266700  16.000000   ; qtot 196.175258
 5393         oh    196    ccc     O4   5393 -0.53626700  16.000000   ; qtot 195.638991
 5394         ho    196    ccc    H14   5394 0.45283300   1.008000   ; qtot 196.091824
 5395         ho    196    ccc    H15   5395 0.45283300   1.008000   ; qtot 196.544657
 5396         hn    196    ccc    H16   5396 0.45463300   1.008000   ; qtot 196.999290
; residue  197 ccc rtp ccc q 1.0
 5397          n    197    ccc     N1   5397 -0.56206700  14.010000   ; qtot 196.437223
 5398         hn    197    ccc     H1   5398 0.35233300   1.008000   ; qtot 196.789556
 5399         c3    197    ccc     C1   5399 0.10283300  12.010000   ; qtot 196.892389
 5400         h1    197    ccc     H2   5400 0.07153300   1.008000   ; qtot 196.963922
 5401         c3    197    ccc     C2   5401 0.07063300  12.010000   ; qtot 197.034555
 5402         h1    197    ccc     H3   5402 0.07153300   1.008000   ; qtot 197.106088
 5403         hx    197    ccc     H4   5403 0.11303300   1.008000   ; qtot 197.219121
 5404         hx    197    ccc     H5   5404 0.11303300   1.008000   ; qtot 197.332154
 5405         n4    197    ccc     N2   5405 -0.67056700  14.010000   ; qtot 196.661587
 5406         c3    197    ccc     C3   5406 0.10863300  12.010000   ; qtot 196.770220
 5407         c3    197    ccc     C4   5407 0.10863300  12.010000   ; qtot 196.878853
 5408         hx    197    ccc     H6   5408 0.12753300   1.008000   ; qtot 197.006386
 5409         c3    197    ccc     C5   5409 -0.20606700  12.010000   ; qtot 196.800319
 5410         hx    197    ccc     H7   5410 0.12753300   1.008000   ; qtot 196.927852
 5411         hc    197    ccc     H8   5411 0.10603300   1.008000   ; qtot 197.033885
 5412         hc    197    ccc     H9   5412 0.10603300   1.008000   ; qtot 197.139918
 5413          c    197    ccc     C6   5413 0.63793300  12.010000   ; qtot 197.777851
 5414         oh    197    ccc     O1   5414 -0.53626700  16.000000   ; qtot 197.241584
 5415          o    197    ccc     O2   5415 -0.48266700  16.000000   ; qtot 196.758917
 5416         hx    197    ccc    H10   5416 0.12753300   1.008000   ; qtot 196.886450
 5417         hx    197    ccc    H11   5417 0.12753300   1.008000   ; qtot 197.013983
 5418         c3    197    ccc     C7   5418 -0.20606700  12.010000   ; qtot 196.807916
 5419         hc    197    ccc    H12   5419 0.10603300   1.008000   ; qtot 196.913949
 5420         hc    197    ccc    H13   5420 0.10603300   1.008000   ; qtot 197.019982
 5421          c    197    ccc     C8   5421 0.63793300  12.010000   ; qtot 197.657915
 5422          o    197    ccc     O3   5422 -0.48266700  16.000000   ; qtot 197.175248
 5423         oh    197    ccc     O4   5423 -0.53626700  16.000000   ; qtot 196.638981
 5424         ho    197    ccc    H14   5424 0.45283300   1.008000   ; qtot 197.091814
 5425         ho    197    ccc    H15   5425 0.45283300   1.008000   ; qtot 197.544647
 5426         hn    197    ccc    H16   5426 0.45463300   1.008000   ; qtot 197.999280
; residue  198 ccc rtp ccc q 1.0
 5427          n    198    ccc     N1   5427 -0.56206700  14.010000   ; qtot 197.437213
 5428         hn    198    ccc     H1   5428 0.35233300   1.008000   ; qtot 197.789546
 5429         c3    198    ccc     C1   5429 0.10283300  12.010000   ; qtot 197.892379
 5430         h1    198    ccc     H2   5430 0.07153300   1.008000   ; qtot 197.963912
 5431         c3    198    ccc     C2   5431 0.07063300  12.010000   ; qtot 198.034545
 5432         h1    198    ccc     H3   5432 0.07153300   1.008000   ; qtot 198.106078
 5433         hx    198    ccc     H4   5433 0.11303300   1.008000   ; qtot 198.219111
 5434         hx    198    ccc     H5   5434 0.11303300   1.008000   ; qtot 198.332144
 5435         n4    198    ccc     N2   5435 -0.67056700  14.010000   ; qtot 197.661577
 5436         c3    198    ccc     C3   5436 0.10863300  12.010000   ; qtot 197.770210
 5437         c3    198    ccc     C4   5437 0.10863300  12.010000   ; qtot 197.878843
 5438         hx    198    ccc     H6   5438 0.12753300   1.008000   ; qtot 198.006376
 5439         c3    198    ccc     C5   5439 -0.20606700  12.010000   ; qtot 197.800309
 5440         hx    198    ccc     H7   5440 0.12753300   1.008000   ; qtot 197.927842
 5441         hc    198    ccc     H8   5441 0.10603300   1.008000   ; qtot 198.033875
 5442         hc    198    ccc     H9   5442 0.10603300   1.008000   ; qtot 198.139908
 5443          c    198    ccc     C6   5443 0.63793300  12.010000   ; qtot 198.777841
 5444         oh    198    ccc     O1   5444 -0.53626700  16.000000   ; qtot 198.241574
 5445          o    198    ccc     O2   5445 -0.48266700  16.000000   ; qtot 197.758907
 5446         hx    198    ccc    H10   5446 0.12753300   1.008000   ; qtot 197.886440
 5447         hx    198    ccc    H11   5447 0.12753300   1.008000   ; qtot 198.013973
 5448         c3    198    ccc     C7   5448 -0.20606700  12.010000   ; qtot 197.807906
 5449         hc    198    ccc    H12   5449 0.10603300   1.008000   ; qtot 197.913939
 5450         hc    198    ccc    H13   5450 0.10603300   1.008000   ; qtot 198.019972
 5451          c    198    ccc     C8   5451 0.63793300  12.010000   ; qtot 198.657905
 5452          o    198    ccc     O3   5452 -0.48266700  16.000000   ; qtot 198.175238
 5453         oh    198    ccc     O4   5453 -0.53626700  16.000000   ; qtot 197.638971
 5454         ho    198    ccc    H14   5454 0.45283300   1.008000   ; qtot 198.091804
 5455         ho    198    ccc    H15   5455 0.45283300   1.008000   ; qtot 198.544637
 5456         hn    198    ccc    H16   5456 0.45463300   1.008000   ; qtot 198.999270
; residue  199 ccc rtp ccc q 1.0
 5457          n    199    ccc     N1   5457 -0.56206700  14.010000   ; qtot 198.437203
 5458         hn    199    ccc     H1   5458 0.35233300   1.008000   ; qtot 198.789536
 5459         c3    199    ccc     C1   5459 0.10283300  12.010000   ; qtot 198.892369
 5460         h1    199    ccc     H2   5460 0.07153300   1.008000   ; qtot 198.963902
 5461         c3    199    ccc     C2   5461 0.07063300  12.010000   ; qtot 199.034535
 5462         h1    199    ccc     H3   5462 0.07153300   1.008000   ; qtot 199.106068
 5463         hx    199    ccc     H4   5463 0.11303300   1.008000   ; qtot 199.219101
 5464         hx    199    ccc     H5   5464 0.11303300   1.008000   ; qtot 199.332134
 5465         n4    199    ccc     N2   5465 -0.67056700  14.010000   ; qtot 198.661567
 5466         c3    199    ccc     C3   5466 0.10863300  12.010000   ; qtot 198.770200
 5467         c3    199    ccc     C4   5467 0.10863300  12.010000   ; qtot 198.878833
 5468         hx    199    ccc     H6   5468 0.12753300   1.008000   ; qtot 199.006366
 5469         c3    199    ccc     C5   5469 -0.20606700  12.010000   ; qtot 198.800299
 5470         hx    199    ccc     H7   5470 0.12753300   1.008000   ; qtot 198.927832
 5471         hc    199    ccc     H8   5471 0.10603300   1.008000   ; qtot 199.033865
 5472         hc    199    ccc     H9   5472 0.10603300   1.008000   ; qtot 199.139898
 5473          c    199    ccc     C6   5473 0.63793300  12.010000   ; qtot 199.777831
 5474         oh    199    ccc     O1   5474 -0.53626700  16.000000   ; qtot 199.241564
 5475          o    199    ccc     O2   5475 -0.48266700  16.000000   ; qtot 198.758897
 5476         hx    199    ccc    H10   5476 0.12753300   1.008000   ; qtot 198.886430
 5477         hx    199    ccc    H11   5477 0.12753300   1.008000   ; qtot 199.013963
 5478         c3    199    ccc     C7   5478 -0.20606700  12.010000   ; qtot 198.807896
 5479         hc    199    ccc    H12   5479 0.10603300   1.008000   ; qtot 198.913929
 5480         hc    199    ccc    H13   5480 0.10603300   1.008000   ; qtot 199.019962
 5481          c    199    ccc     C8   5481 0.63793300  12.010000   ; qtot 199.657895
 5482          o    199    ccc     O3   5482 -0.48266700  16.000000   ; qtot 199.175228
 5483         oh    199    ccc     O4   5483 -0.53626700  16.000000   ; qtot 198.638961
 5484         ho    199    ccc    H14   5484 0.45283300   1.008000   ; qtot 199.091794
 5485         ho    199    ccc    H15   5485 0.45283300   1.008000   ; qtot 199.544627
 5486         hn    199    ccc    H16   5486 0.45463300   1.008000   ; qtot 199.999260
; residue  200 ccc rtp ccc q 1.0
 5487          n    200    ccc     N1   5487 -0.56206700  14.010000   ; qtot 199.437193
 5488         hn    200    ccc     H1   5488 0.35233300   1.008000   ; qtot 199.789526
 5489         c3    200    ccc     C1   5489 0.10283300  12.010000   ; qtot 199.892359
 5490         h1    200    ccc     H2   5490 0.07153300   1.008000   ; qtot 199.963892
 5491         c3    200    ccc     C2   5491 0.07063300  12.010000   ; qtot 200.034525
 5492         h1    200    ccc     H3   5492 0.07153300   1.008000   ; qtot 200.106058
 5493         hx    200    ccc     H4   5493 0.11303300   1.008000   ; qtot 200.219091
 5494         hx    200    ccc     H5   5494 0.11303300   1.008000   ; qtot 200.332124
 5495         n4    200    ccc     N2   5495 -0.67056700  14.010000   ; qtot 199.661557
 5496         c3    200    ccc     C3   5496 0.10863300  12.010000   ; qtot 199.770190
 5497         c3    200    ccc     C4   5497 0.10863300  12.010000   ; qtot 199.878823
 5498         hx    200    ccc     H6   5498 0.12753300   1.008000   ; qtot 200.006356
 5499         c3    200    ccc     C5   5499 -0.20606700  12.010000   ; qtot 199.800289
 5500         hx    200    ccc     H7   5500 0.12753300   1.008000   ; qtot 199.927822
 5501         hc    200    ccc     H8   5501 0.10603300   1.008000   ; qtot 200.033855
 5502         hc    200    ccc     H9   5502 0.10603300   1.008000   ; qtot 200.139888
 5503          c    200    ccc     C6   5503 0.63793300  12.010000   ; qtot 200.777821
 5504         oh    200    ccc     O1   5504 -0.53626700  16.000000   ; qtot 200.241554
 5505          o    200    ccc     O2   5505 -0.48266700  16.000000   ; qtot 199.758887
 5506         hx    200    ccc    H10   5506 0.12753300   1.008000   ; qtot 199.886420
 5507         hx    200    ccc    H11   5507 0.12753300   1.008000   ; qtot 200.013953
 5508         c3    200    ccc     C7   5508 -0.20606700  12.010000   ; qtot 199.807886
 5509         hc    200    ccc    H12   5509 0.10603300   1.008000   ; qtot 199.913919
 5510         hc    200    ccc    H13   5510 0.10603300   1.008000   ; qtot 200.019952
 5511          c    200    ccc     C8   5511 0.63793300  12.010000   ; qtot 200.657885
 5512          o    200    ccc     O3   5512 -0.48266700  16.000000   ; qtot 200.175218
 5513         oh    200    ccc     O4   5513 -0.53626700  16.000000   ; qtot 199.638951
 5514         ho    200    ccc    H14   5514 0.45283300   1.008000   ; qtot 200.091784
 5515         ho    200    ccc    H15   5515 0.45283300   1.008000   ; qtot 200.544617
 5516         hn    200    ccc    H16   5516 0.45463300   1.008000   ; qtot 200.999250
; residue  201 ccc rtp ccc q 1.0
 5517          n    201    ccc     N1   5517 -0.56206700  14.010000   ; qtot 200.437183
 5518         hn    201    ccc     H1   5518 0.35233300   1.008000   ; qtot 200.789516
 5519         c3    201    ccc     C1   5519 0.10283300  12.010000   ; qtot 200.892349
 5520         h1    201    ccc     H2   5520 0.07153300   1.008000   ; qtot 200.963882
 5521         c3    201    ccc     C2   5521 0.07063300  12.010000   ; qtot 201.034515
 5522         h1    201    ccc     H3   5522 0.07153300   1.008000   ; qtot 201.106048
 5523         hx    201    ccc     H4   5523 0.11303300   1.008000   ; qtot 201.219081
 5524         hx    201    ccc     H5   5524 0.11303300   1.008000   ; qtot 201.332114
 5525         n4    201    ccc     N2   5525 -0.67056700  14.010000   ; qtot 200.661547
 5526         c3    201    ccc     C3   5526 0.10863300  12.010000   ; qtot 200.770180
 5527         c3    201    ccc     C4   5527 0.10863300  12.010000   ; qtot 200.878813
 5528         hx    201    ccc     H6   5528 0.12753300   1.008000   ; qtot 201.006346
 5529         c3    201    ccc     C5   5529 -0.20606700  12.010000   ; qtot 200.800279
 5530         hx    201    ccc     H7   5530 0.12753300   1.008000   ; qtot 200.927812
 5531         hc    201    ccc     H8   5531 0.10603300   1.008000   ; qtot 201.033845
 5532         hc    201    ccc     H9   5532 0.10603300   1.008000   ; qtot 201.139878
 5533          c    201    ccc     C6   5533 0.63793300  12.010000   ; qtot 201.777811
 5534         oh    201    ccc     O1   5534 -0.53626700  16.000000   ; qtot 201.241544
 5535          o    201    ccc     O2   5535 -0.48266700  16.000000   ; qtot 200.758877
 5536         hx    201    ccc    H10   5536 0.12753300   1.008000   ; qtot 200.886410
 5537         hx    201    ccc    H11   5537 0.12753300   1.008000   ; qtot 201.013943
 5538         c3    201    ccc     C7   5538 -0.20606700  12.010000   ; qtot 200.807876
 5539         hc    201    ccc    H12   5539 0.10603300   1.008000   ; qtot 200.913909
 5540         hc    201    ccc    H13   5540 0.10603300   1.008000   ; qtot 201.019942
 5541          c    201    ccc     C8   5541 0.63793300  12.010000   ; qtot 201.657875
 5542          o    201    ccc     O3   5542 -0.48266700  16.000000   ; qtot 201.175208
 5543         oh    201    ccc     O4   5543 -0.53626700  16.000000   ; qtot 200.638941
 5544         ho    201    ccc    H14   5544 0.45283300   1.008000   ; qtot 201.091774
 5545         ho    201    ccc    H15   5545 0.45283300   1.008000   ; qtot 201.544607
 5546         hn    201    ccc    H16   5546 0.45463300   1.008000   ; qtot 201.999240
; residue  202 ccc rtp ccc q 1.0
 5547          n    202    ccc     N1   5547 -0.56206700  14.010000   ; qtot 201.437173
 5548         hn    202    ccc     H1   5548 0.35233300   1.008000   ; qtot 201.789506
 5549         c3    202    ccc     C1   5549 0.10283300  12.010000   ; qtot 201.892339
 5550         h1    202    ccc     H2   5550 0.07153300   1.008000   ; qtot 201.963872
 5551         c3    202    ccc     C2   5551 0.07063300  12.010000   ; qtot 202.034505
 5552         h1    202    ccc     H3   5552 0.07153300   1.008000   ; qtot 202.106038
 5553         hx    202    ccc     H4   5553 0.11303300   1.008000   ; qtot 202.219071
 5554         hx    202    ccc     H5   5554 0.11303300   1.008000   ; qtot 202.332104
 5555         n4    202    ccc     N2   5555 -0.67056700  14.010000   ; qtot 201.661537
 5556         c3    202    ccc     C3   5556 0.10863300  12.010000   ; qtot 201.770170
 5557         c3    202    ccc     C4   5557 0.10863300  12.010000   ; qtot 201.878803
 5558         hx    202    ccc     H6   5558 0.12753300   1.008000   ; qtot 202.006336
 5559         c3    202    ccc     C5   5559 -0.20606700  12.010000   ; qtot 201.800269
 5560         hx    202    ccc     H7   5560 0.12753300   1.008000   ; qtot 201.927802
 5561         hc    202    ccc     H8   5561 0.10603300   1.008000   ; qtot 202.033835
 5562         hc    202    ccc     H9   5562 0.10603300   1.008000   ; qtot 202.139868
 5563          c    202    ccc     C6   5563 0.63793300  12.010000   ; qtot 202.777801
 5564         oh    202    ccc     O1   5564 -0.53626700  16.000000   ; qtot 202.241534
 5565          o    202    ccc     O2   5565 -0.48266700  16.000000   ; qtot 201.758867
 5566         hx    202    ccc    H10   5566 0.12753300   1.008000   ; qtot 201.886400
 5567         hx    202    ccc    H11   5567 0.12753300   1.008000   ; qtot 202.013933
 5568         c3    202    ccc     C7   5568 -0.20606700  12.010000   ; qtot 201.807866
 5569         hc    202    ccc    H12   5569 0.10603300   1.008000   ; qtot 201.913899
 5570         hc    202    ccc    H13   5570 0.10603300   1.008000   ; qtot 202.019932
 5571          c    202    ccc     C8   5571 0.63793300  12.010000   ; qtot 202.657865
 5572          o    202    ccc     O3   5572 -0.48266700  16.000000   ; qtot 202.175198
 5573         oh    202    ccc     O4   5573 -0.53626700  16.000000   ; qtot 201.638931
 5574         ho    202    ccc    H14   5574 0.45283300   1.008000   ; qtot 202.091764
 5575         ho    202    ccc    H15   5575 0.45283300   1.008000   ; qtot 202.544597
 5576         hn    202    ccc    H16   5576 0.45463300   1.008000   ; qtot 202.999230
; residue  203 ccc rtp ccc q 1.0
 5577          n    203    ccc     N1   5577 -0.56206700  14.010000   ; qtot 202.437163
 5578         hn    203    ccc     H1   5578 0.35233300   1.008000   ; qtot 202.789496
 5579         c3    203    ccc     C1   5579 0.10283300  12.010000   ; qtot 202.892329
 5580         h1    203    ccc     H2   5580 0.07153300   1.008000   ; qtot 202.963862
 5581         c3    203    ccc     C2   5581 0.07063300  12.010000   ; qtot 203.034495
 5582         h1    203    ccc     H3   5582 0.07153300   1.008000   ; qtot 203.106028
 5583         hx    203    ccc     H4   5583 0.11303300   1.008000   ; qtot 203.219061
 5584         hx    203    ccc     H5   5584 0.11303300   1.008000   ; qtot 203.332094
 5585         n4    203    ccc     N2   5585 -0.67056700  14.010000   ; qtot 202.661527
 5586         c3    203    ccc     C3   5586 0.10863300  12.010000   ; qtot 202.770160
 5587         c3    203    ccc     C4   5587 0.10863300  12.010000   ; qtot 202.878793
 5588         hx    203    ccc     H6   5588 0.12753300   1.008000   ; qtot 203.006326
 5589         c3    203    ccc     C5   5589 -0.20606700  12.010000   ; qtot 202.800259
 5590         hx    203    ccc     H7   5590 0.12753300   1.008000   ; qtot 202.927792
 5591         hc    203    ccc     H8   5591 0.10603300   1.008000   ; qtot 203.033825
 5592         hc    203    ccc     H9   5592 0.10603300   1.008000   ; qtot 203.139858
 5593          c    203    ccc     C6   5593 0.63793300  12.010000   ; qtot 203.777791
 5594         oh    203    ccc     O1   5594 -0.53626700  16.000000   ; qtot 203.241524
 5595          o    203    ccc     O2   5595 -0.48266700  16.000000   ; qtot 202.758857
 5596         hx    203    ccc    H10   5596 0.12753300   1.008000   ; qtot 202.886390
 5597         hx    203    ccc    H11   5597 0.12753300   1.008000   ; qtot 203.013923
 5598         c3    203    ccc     C7   5598 -0.20606700  12.010000   ; qtot 202.807856
 5599         hc    203    ccc    H12   5599 0.10603300   1.008000   ; qtot 202.913889
 5600         hc    203    ccc    H13   5600 0.10603300   1.008000   ; qtot 203.019922
 5601          c    203    ccc     C8   5601 0.63793300  12.010000   ; qtot 203.657855
 5602          o    203    ccc     O3   5602 -0.48266700  16.000000   ; qtot 203.175188
 5603         oh    203    ccc     O4   5603 -0.53626700  16.000000   ; qtot 202.638921
 5604         ho    203    ccc    H14   5604 0.45283300   1.008000   ; qtot 203.091754
 5605         ho    203    ccc    H15   5605 0.45283300   1.008000   ; qtot 203.544587
 5606         hn    203    ccc    H16   5606 0.45463300   1.008000   ; qtot 203.999220
; residue  204 ccc rtp ccc q 1.0
 5607          n    204    ccc     N1   5607 -0.56206700  14.010000   ; qtot 203.437153
 5608         hn    204    ccc     H1   5608 0.35233300   1.008000   ; qtot 203.789486
 5609         c3    204    ccc     C1   5609 0.10283300  12.010000   ; qtot 203.892319
 5610         h1    204    ccc     H2   5610 0.07153300   1.008000   ; qtot 203.963852
 5611         c3    204    ccc     C2   5611 0.07063300  12.010000   ; qtot 204.034485
 5612         h1    204    ccc     H3   5612 0.07153300   1.008000   ; qtot 204.106018
 5613         hx    204    ccc     H4   5613 0.11303300   1.008000   ; qtot 204.219051
 5614         hx    204    ccc     H5   5614 0.11303300   1.008000   ; qtot 204.332084
 5615         n4    204    ccc     N2   5615 -0.67056700  14.010000   ; qtot 203.661517
 5616         c3    204    ccc     C3   5616 0.10863300  12.010000   ; qtot 203.770150
 5617         c3    204    ccc     C4   5617 0.10863300  12.010000   ; qtot 203.878783
 5618         hx    204    ccc     H6   5618 0.12753300   1.008000   ; qtot 204.006316
 5619         c3    204    ccc     C5   5619 -0.20606700  12.010000   ; qtot 203.800249
 5620         hx    204    ccc     H7   5620 0.12753300   1.008000   ; qtot 203.927782
 5621         hc    204    ccc     H8   5621 0.10603300   1.008000   ; qtot 204.033815
 5622         hc    204    ccc     H9   5622 0.10603300   1.008000   ; qtot 204.139848
 5623          c    204    ccc     C6   5623 0.63793300  12.010000   ; qtot 204.777781
 5624         oh    204    ccc     O1   5624 -0.53626700  16.000000   ; qtot 204.241514
 5625          o    204    ccc     O2   5625 -0.48266700  16.000000   ; qtot 203.758847
 5626         hx    204    ccc    H10   5626 0.12753300   1.008000   ; qtot 203.886380
 5627         hx    204    ccc    H11   5627 0.12753300   1.008000   ; qtot 204.013913
 5628         c3    204    ccc     C7   5628 -0.20606700  12.010000   ; qtot 203.807846
 5629         hc    204    ccc    H12   5629 0.10603300   1.008000   ; qtot 203.913879
 5630         hc    204    ccc    H13   5630 0.10603300   1.008000   ; qtot 204.019912
 5631          c    204    ccc     C8   5631 0.63793300  12.010000   ; qtot 204.657845
 5632          o    204    ccc     O3   5632 -0.48266700  16.000000   ; qtot 204.175178
 5633         oh    204    ccc     O4   5633 -0.53626700  16.000000   ; qtot 203.638911
 5634         ho    204    ccc    H14   5634 0.45283300   1.008000   ; qtot 204.091744
 5635         ho    204    ccc    H15   5635 0.45283300   1.008000   ; qtot 204.544577
 5636         hn    204    ccc    H16   5636 0.45463300   1.008000   ; qtot 204.999210
; residue  205 ccc rtp ccc q 1.0
 5637          n    205    ccc     N1   5637 -0.56206700  14.010000   ; qtot 204.437143
 5638         hn    205    ccc     H1   5638 0.35233300   1.008000   ; qtot 204.789476
 5639         c3    205    ccc     C1   5639 0.10283300  12.010000   ; qtot 204.892309
 5640         h1    205    ccc     H2   5640 0.07153300   1.008000   ; qtot 204.963842
 5641         c3    205    ccc     C2   5641 0.07063300  12.010000   ; qtot 205.034475
 5642         h1    205    ccc     H3   5642 0.07153300   1.008000   ; qtot 205.106008
 5643         hx    205    ccc     H4   5643 0.11303300   1.008000   ; qtot 205.219041
 5644         hx    205    ccc     H5   5644 0.11303300   1.008000   ; qtot 205.332074
 5645         n4    205    ccc     N2   5645 -0.67056700  14.010000   ; qtot 204.661507
 5646         c3    205    ccc     C3   5646 0.10863300  12.010000   ; qtot 204.770140
 5647         c3    205    ccc     C4   5647 0.10863300  12.010000   ; qtot 204.878773
 5648         hx    205    ccc     H6   5648 0.12753300   1.008000   ; qtot 205.006306
 5649         c3    205    ccc     C5   5649 -0.20606700  12.010000   ; qtot 204.800239
 5650         hx    205    ccc     H7   5650 0.12753300   1.008000   ; qtot 204.927772
 5651         hc    205    ccc     H8   5651 0.10603300   1.008000   ; qtot 205.033805
 5652         hc    205    ccc     H9   5652 0.10603300   1.008000   ; qtot 205.139838
 5653          c    205    ccc     C6   5653 0.63793300  12.010000   ; qtot 205.777771
 5654         oh    205    ccc     O1   5654 -0.53626700  16.000000   ; qtot 205.241504
 5655          o    205    ccc     O2   5655 -0.48266700  16.000000   ; qtot 204.758837
 5656         hx    205    ccc    H10   5656 0.12753300   1.008000   ; qtot 204.886370
 5657         hx    205    ccc    H11   5657 0.12753300   1.008000   ; qtot 205.013903
 5658         c3    205    ccc     C7   5658 -0.20606700  12.010000   ; qtot 204.807836
 5659         hc    205    ccc    H12   5659 0.10603300   1.008000   ; qtot 204.913869
 5660         hc    205    ccc    H13   5660 0.10603300   1.008000   ; qtot 205.019902
 5661          c    205    ccc     C8   5661 0.63793300  12.010000   ; qtot 205.657835
 5662          o    205    ccc     O3   5662 -0.48266700  16.000000   ; qtot 205.175168
 5663         oh    205    ccc     O4   5663 -0.53626700  16.000000   ; qtot 204.638901
 5664         ho    205    ccc    H14   5664 0.45283300   1.008000   ; qtot 205.091734
 5665         ho    205    ccc    H15   5665 0.45283300   1.008000   ; qtot 205.544567
 5666         hn    205    ccc    H16   5666 0.45463300   1.008000   ; qtot 205.999200
; residue  206 ccc rtp ccc q 1.0
 5667          n    206    ccc     N1   5667 -0.56206700  14.010000   ; qtot 205.437133
 5668         hn    206    ccc     H1   5668 0.35233300   1.008000   ; qtot 205.789466
 5669         c3    206    ccc     C1   5669 0.10283300  12.010000   ; qtot 205.892299
 5670         h1    206    ccc     H2   5670 0.07153300   1.008000   ; qtot 205.963832
 5671         c3    206    ccc     C2   5671 0.07063300  12.010000   ; qtot 206.034465
 5672         h1    206    ccc     H3   5672 0.07153300   1.008000   ; qtot 206.105998
 5673         hx    206    ccc     H4   5673 0.11303300   1.008000   ; qtot 206.219031
 5674         hx    206    ccc     H5   5674 0.11303300   1.008000   ; qtot 206.332064
 5675         n4    206    ccc     N2   5675 -0.67056700  14.010000   ; qtot 205.661497
 5676         c3    206    ccc     C3   5676 0.10863300  12.010000   ; qtot 205.770130
 5677         c3    206    ccc     C4   5677 0.10863300  12.010000   ; qtot 205.878763
 5678         hx    206    ccc     H6   5678 0.12753300   1.008000   ; qtot 206.006296
 5679         c3    206    ccc     C5   5679 -0.20606700  12.010000   ; qtot 205.800229
 5680         hx    206    ccc     H7   5680 0.12753300   1.008000   ; qtot 205.927762
 5681         hc    206    ccc     H8   5681 0.10603300   1.008000   ; qtot 206.033795
 5682         hc    206    ccc     H9   5682 0.10603300   1.008000   ; qtot 206.139828
 5683          c    206    ccc     C6   5683 0.63793300  12.010000   ; qtot 206.777761
 5684         oh    206    ccc     O1   5684 -0.53626700  16.000000   ; qtot 206.241494
 5685          o    206    ccc     O2   5685 -0.48266700  16.000000   ; qtot 205.758827
 5686         hx    206    ccc    H10   5686 0.12753300   1.008000   ; qtot 205.886360
 5687         hx    206    ccc    H11   5687 0.12753300   1.008000   ; qtot 206.013893
 5688         c3    206    ccc     C7   5688 -0.20606700  12.010000   ; qtot 205.807826
 5689         hc    206    ccc    H12   5689 0.10603300   1.008000   ; qtot 205.913859
 5690         hc    206    ccc    H13   5690 0.10603300   1.008000   ; qtot 206.019892
 5691          c    206    ccc     C8   5691 0.63793300  12.010000   ; qtot 206.657825
 5692          o    206    ccc     O3   5692 -0.48266700  16.000000   ; qtot 206.175158
 5693         oh    206    ccc     O4   5693 -0.53626700  16.000000   ; qtot 205.638891
 5694         ho    206    ccc    H14   5694 0.45283300   1.008000   ; qtot 206.091724
 5695         ho    206    ccc    H15   5695 0.45283300   1.008000   ; qtot 206.544557
 5696         hn    206    ccc    H16   5696 0.45463300   1.008000   ; qtot 206.999190
; residue  207 ccc rtp ccc q 1.0
 5697          n    207    ccc     N1   5697 -0.56206700  14.010000   ; qtot 206.437123
 5698         hn    207    ccc     H1   5698 0.35233300   1.008000   ; qtot 206.789456
 5699         c3    207    ccc     C1   5699 0.10283300  12.010000   ; qtot 206.892289
 5700         h1    207    ccc     H2   5700 0.07153300   1.008000   ; qtot 206.963822
 5701         c3    207    ccc     C2   5701 0.07063300  12.010000   ; qtot 207.034455
 5702         h1    207    ccc     H3   5702 0.07153300   1.008000   ; qtot 207.105988
 5703         hx    207    ccc     H4   5703 0.11303300   1.008000   ; qtot 207.219021
 5704         hx    207    ccc     H5   5704 0.11303300   1.008000   ; qtot 207.332054
 5705         n4    207    ccc     N2   5705 -0.67056700  14.010000   ; qtot 206.661487
 5706         c3    207    ccc     C3   5706 0.10863300  12.010000   ; qtot 206.770120
 5707         c3    207    ccc     C4   5707 0.10863300  12.010000   ; qtot 206.878753
 5708         hx    207    ccc     H6   5708 0.12753300   1.008000   ; qtot 207.006286
 5709         c3    207    ccc     C5   5709 -0.20606700  12.010000   ; qtot 206.800219
 5710         hx    207    ccc     H7   5710 0.12753300   1.008000   ; qtot 206.927752
 5711         hc    207    ccc     H8   5711 0.10603300   1.008000   ; qtot 207.033785
 5712         hc    207    ccc     H9   5712 0.10603300   1.008000   ; qtot 207.139818
 5713          c    207    ccc     C6   5713 0.63793300  12.010000   ; qtot 207.777751
 5714         oh    207    ccc     O1   5714 -0.53626700  16.000000   ; qtot 207.241484
 5715          o    207    ccc     O2   5715 -0.48266700  16.000000   ; qtot 206.758817
 5716         hx    207    ccc    H10   5716 0.12753300   1.008000   ; qtot 206.886350
 5717         hx    207    ccc    H11   5717 0.12753300   1.008000   ; qtot 207.013883
 5718         c3    207    ccc     C7   5718 -0.20606700  12.010000   ; qtot 206.807816
 5719         hc    207    ccc    H12   5719 0.10603300   1.008000   ; qtot 206.913849
 5720         hc    207    ccc    H13   5720 0.10603300   1.008000   ; qtot 207.019882
 5721          c    207    ccc     C8   5721 0.63793300  12.010000   ; qtot 207.657815
 5722          o    207    ccc     O3   5722 -0.48266700  16.000000   ; qtot 207.175148
 5723         oh    207    ccc     O4   5723 -0.53626700  16.000000   ; qtot 206.638881
 5724         ho    207    ccc    H14   5724 0.45283300   1.008000   ; qtot 207.091714
 5725         ho    207    ccc    H15   5725 0.45283300   1.008000   ; qtot 207.544547
 5726         hn    207    ccc    H16   5726 0.45463300   1.008000   ; qtot 207.999180
; residue  208 ccc rtp ccc q 1.0
 5727          n    208    ccc     N1   5727 -0.56206700  14.010000   ; qtot 207.437113
 5728         hn    208    ccc     H1   5728 0.35233300   1.008000   ; qtot 207.789446
 5729         c3    208    ccc     C1   5729 0.10283300  12.010000   ; qtot 207.892279
 5730         h1    208    ccc     H2   5730 0.07153300   1.008000   ; qtot 207.963812
 5731         c3    208    ccc     C2   5731 0.07063300  12.010000   ; qtot 208.034445
 5732         h1    208    ccc     H3   5732 0.07153300   1.008000   ; qtot 208.105978
 5733         hx    208    ccc     H4   5733 0.11303300   1.008000   ; qtot 208.219011
 5734         hx    208    ccc     H5   5734 0.11303300   1.008000   ; qtot 208.332044
 5735         n4    208    ccc     N2   5735 -0.67056700  14.010000   ; qtot 207.661477
 5736         c3    208    ccc     C3   5736 0.10863300  12.010000   ; qtot 207.770110
 5737         c3    208    ccc     C4   5737 0.10863300  12.010000   ; qtot 207.878743
 5738         hx    208    ccc     H6   5738 0.12753300   1.008000   ; qtot 208.006276
 5739         c3    208    ccc     C5   5739 -0.20606700  12.010000   ; qtot 207.800209
 5740         hx    208    ccc     H7   5740 0.12753300   1.008000   ; qtot 207.927742
 5741         hc    208    ccc     H8   5741 0.10603300   1.008000   ; qtot 208.033775
 5742         hc    208    ccc     H9   5742 0.10603300   1.008000   ; qtot 208.139808
 5743          c    208    ccc     C6   5743 0.63793300  12.010000   ; qtot 208.777741
 5744         oh    208    ccc     O1   5744 -0.53626700  16.000000   ; qtot 208.241474
 5745          o    208    ccc     O2   5745 -0.48266700  16.000000   ; qtot 207.758807
 5746         hx    208    ccc    H10   5746 0.12753300   1.008000   ; qtot 207.886340
 5747         hx    208    ccc    H11   5747 0.12753300   1.008000   ; qtot 208.013873
 5748         c3    208    ccc     C7   5748 -0.20606700  12.010000   ; qtot 207.807806
 5749         hc    208    ccc    H12   5749 0.10603300   1.008000   ; qtot 207.913839
 5750         hc    208    ccc    H13   5750 0.10603300   1.008000   ; qtot 208.019872
 5751          c    208    ccc     C8   5751 0.63793300  12.010000   ; qtot 208.657805
 5752          o    208    ccc     O3   5752 -0.48266700  16.000000   ; qtot 208.175138
 5753         oh    208    ccc     O4   5753 -0.53626700  16.000000   ; qtot 207.638871
 5754         ho    208    ccc    H14   5754 0.45283300   1.008000   ; qtot 208.091704
 5755         ho    208    ccc    H15   5755 0.45283300   1.008000   ; qtot 208.544537
 5756         hn    208    ccc    H16   5756 0.45463300   1.008000   ; qtot 208.999170
; residue  209 ccc rtp ccc q 1.0
 5757          n    209    ccc     N1   5757 -0.56206700  14.010000   ; qtot 208.437103
 5758         hn    209    ccc     H1   5758 0.35233300   1.008000   ; qtot 208.789436
 5759         c3    209    ccc     C1   5759 0.10283300  12.010000   ; qtot 208.892269
 5760         h1    209    ccc     H2   5760 0.07153300   1.008000   ; qtot 208.963802
 5761         c3    209    ccc     C2   5761 0.07063300  12.010000   ; qtot 209.034435
 5762         h1    209    ccc     H3   5762 0.07153300   1.008000   ; qtot 209.105968
 5763         hx    209    ccc     H4   5763 0.11303300   1.008000   ; qtot 209.219001
 5764         hx    209    ccc     H5   5764 0.11303300   1.008000   ; qtot 209.332034
 5765         n4    209    ccc     N2   5765 -0.67056700  14.010000   ; qtot 208.661467
 5766         c3    209    ccc     C3   5766 0.10863300  12.010000   ; qtot 208.770100
 5767         c3    209    ccc     C4   5767 0.10863300  12.010000   ; qtot 208.878733
 5768         hx    209    ccc     H6   5768 0.12753300   1.008000   ; qtot 209.006266
 5769         c3    209    ccc     C5   5769 -0.20606700  12.010000   ; qtot 208.800199
 5770         hx    209    ccc     H7   5770 0.12753300   1.008000   ; qtot 208.927732
 5771         hc    209    ccc     H8   5771 0.10603300   1.008000   ; qtot 209.033765
 5772         hc    209    ccc     H9   5772 0.10603300   1.008000   ; qtot 209.139798
 5773          c    209    ccc     C6   5773 0.63793300  12.010000   ; qtot 209.777731
 5774         oh    209    ccc     O1   5774 -0.53626700  16.000000   ; qtot 209.241464
 5775          o    209    ccc     O2   5775 -0.48266700  16.000000   ; qtot 208.758797
 5776         hx    209    ccc    H10   5776 0.12753300   1.008000   ; qtot 208.886330
 5777         hx    209    ccc    H11   5777 0.12753300   1.008000   ; qtot 209.013863
 5778         c3    209    ccc     C7   5778 -0.20606700  12.010000   ; qtot 208.807796
 5779         hc    209    ccc    H12   5779 0.10603300   1.008000   ; qtot 208.913829
 5780         hc    209    ccc    H13   5780 0.10603300   1.008000   ; qtot 209.019862
 5781          c    209    ccc     C8   5781 0.63793300  12.010000   ; qtot 209.657795
 5782          o    209    ccc     O3   5782 -0.48266700  16.000000   ; qtot 209.175128
 5783         oh    209    ccc     O4   5783 -0.53626700  16.000000   ; qtot 208.638861
 5784         ho    209    ccc    H14   5784 0.45283300   1.008000   ; qtot 209.091694
 5785         ho    209    ccc    H15   5785 0.45283300   1.008000   ; qtot 209.544527
 5786         hn    209    ccc    H16   5786 0.45463300   1.008000   ; qtot 209.999160
; residue  210 ccc rtp ccc q 1.0
 5787          n    210    ccc     N1   5787 -0.56206700  14.010000   ; qtot 209.437093
 5788         hn    210    ccc     H1   5788 0.35233300   1.008000   ; qtot 209.789426
 5789         c3    210    ccc     C1   5789 0.10283300  12.010000   ; qtot 209.892259
 5790         h1    210    ccc     H2   5790 0.07153300   1.008000   ; qtot 209.963792
 5791         c3    210    ccc     C2   5791 0.07063300  12.010000   ; qtot 210.034425
 5792         h1    210    ccc     H3   5792 0.07153300   1.008000   ; qtot 210.105958
 5793         hx    210    ccc     H4   5793 0.11303300   1.008000   ; qtot 210.218991
 5794         hx    210    ccc     H5   5794 0.11303300   1.008000   ; qtot 210.332024
 5795         n4    210    ccc     N2   5795 -0.67056700  14.010000   ; qtot 209.661457
 5796         c3    210    ccc     C3   5796 0.10863300  12.010000   ; qtot 209.770090
 5797         c3    210    ccc     C4   5797 0.10863300  12.010000   ; qtot 209.878723
 5798         hx    210    ccc     H6   5798 0.12753300   1.008000   ; qtot 210.006256
 5799         c3    210    ccc     C5   5799 -0.20606700  12.010000   ; qtot 209.800189
 5800         hx    210    ccc     H7   5800 0.12753300   1.008000   ; qtot 209.927722
 5801         hc    210    ccc     H8   5801 0.10603300   1.008000   ; qtot 210.033755
 5802         hc    210    ccc     H9   5802 0.10603300   1.008000   ; qtot 210.139788
 5803          c    210    ccc     C6   5803 0.63793300  12.010000   ; qtot 210.777721
 5804         oh    210    ccc     O1   5804 -0.53626700  16.000000   ; qtot 210.241454
 5805          o    210    ccc     O2   5805 -0.48266700  16.000000   ; qtot 209.758787
 5806         hx    210    ccc    H10   5806 0.12753300   1.008000   ; qtot 209.886320
 5807         hx    210    ccc    H11   5807 0.12753300   1.008000   ; qtot 210.013853
 5808         c3    210    ccc     C7   5808 -0.20606700  12.010000   ; qtot 209.807786
 5809         hc    210    ccc    H12   5809 0.10603300   1.008000   ; qtot 209.913819
 5810         hc    210    ccc    H13   5810 0.10603300   1.008000   ; qtot 210.019852
 5811          c    210    ccc     C8   5811 0.63793300  12.010000   ; qtot 210.657785
 5812          o    210    ccc     O3   5812 -0.48266700  16.000000   ; qtot 210.175118
 5813         oh    210    ccc     O4   5813 -0.53626700  16.000000   ; qtot 209.638851
 5814         ho    210    ccc    H14   5814 0.45283300   1.008000   ; qtot 210.091684
 5815         ho    210    ccc    H15   5815 0.45283300   1.008000   ; qtot 210.544517
 5816         hn    210    ccc    H16   5816 0.45463300   1.008000   ; qtot 210.999150
; residue  211 ccc rtp ccc q 1.0
 5817          n    211    ccc     N1   5817 -0.56206700  14.010000   ; qtot 210.437083
 5818         hn    211    ccc     H1   5818 0.35233300   1.008000   ; qtot 210.789416
 5819         c3    211    ccc     C1   5819 0.10283300  12.010000   ; qtot 210.892249
 5820         h1    211    ccc     H2   5820 0.07153300   1.008000   ; qtot 210.963782
 5821         c3    211    ccc     C2   5821 0.07063300  12.010000   ; qtot 211.034415
 5822         h1    211    ccc     H3   5822 0.07153300   1.008000   ; qtot 211.105948
 5823         hx    211    ccc     H4   5823 0.11303300   1.008000   ; qtot 211.218981
 5824         hx    211    ccc     H5   5824 0.11303300   1.008000   ; qtot 211.332014
 5825         n4    211    ccc     N2   5825 -0.67056700  14.010000   ; qtot 210.661447
 5826         c3    211    ccc     C3   5826 0.10863300  12.010000   ; qtot 210.770080
 5827         c3    211    ccc     C4   5827 0.10863300  12.010000   ; qtot 210.878713
 5828         hx    211    ccc     H6   5828 0.12753300   1.008000   ; qtot 211.006246
 5829         c3    211    ccc     C5   5829 -0.20606700  12.010000   ; qtot 210.800179
 5830         hx    211    ccc     H7   5830 0.12753300   1.008000   ; qtot 210.927712
 5831         hc    211    ccc     H8   5831 0.10603300   1.008000   ; qtot 211.033745
 5832         hc    211    ccc     H9   5832 0.10603300   1.008000   ; qtot 211.139778
 5833          c    211    ccc     C6   5833 0.63793300  12.010000   ; qtot 211.777711
 5834         oh    211    ccc     O1   5834 -0.53626700  16.000000   ; qtot 211.241444
 5835          o    211    ccc     O2   5835 -0.48266700  16.000000   ; qtot 210.758777
 5836         hx    211    ccc    H10   5836 0.12753300   1.008000   ; qtot 210.886310
 5837         hx    211    ccc    H11   5837 0.12753300   1.008000   ; qtot 211.013843
 5838         c3    211    ccc     C7   5838 -0.20606700  12.010000   ; qtot 210.807776
 5839         hc    211    ccc    H12   5839 0.10603300   1.008000   ; qtot 210.913809
 5840         hc    211    ccc    H13   5840 0.10603300   1.008000   ; qtot 211.019842
 5841          c    211    ccc     C8   5841 0.63793300  12.010000   ; qtot 211.657775
 5842          o    211    ccc     O3   5842 -0.48266700  16.000000   ; qtot 211.175108
 5843         oh    211    ccc     O4   5843 -0.53626700  16.000000   ; qtot 210.638841
 5844         ho    211    ccc    H14   5844 0.45283300   1.008000   ; qtot 211.091674
 5845         ho    211    ccc    H15   5845 0.45283300   1.008000   ; qtot 211.544507
 5846         hn    211    ccc    H16   5846 0.45463300   1.008000   ; qtot 211.999140
; residue  212 ccc rtp ccc q 1.0
 5847          n    212    ccc     N1   5847 -0.56206700  14.010000   ; qtot 211.437073
 5848         hn    212    ccc     H1   5848 0.35233300   1.008000   ; qtot 211.789406
 5849         c3    212    ccc     C1   5849 0.10283300  12.010000   ; qtot 211.892239
 5850         h1    212    ccc     H2   5850 0.07153300   1.008000   ; qtot 211.963772
 5851         c3    212    ccc     C2   5851 0.07063300  12.010000   ; qtot 212.034405
 5852         h1    212    ccc     H3   5852 0.07153300   1.008000   ; qtot 212.105938
 5853         hx    212    ccc     H4   5853 0.11303300   1.008000   ; qtot 212.218971
 5854         hx    212    ccc     H5   5854 0.11303300   1.008000   ; qtot 212.332004
 5855         n4    212    ccc     N2   5855 -0.67056700  14.010000   ; qtot 211.661437
 5856         c3    212    ccc     C3   5856 0.10863300  12.010000   ; qtot 211.770070
 5857         c3    212    ccc     C4   5857 0.10863300  12.010000   ; qtot 211.878703
 5858         hx    212    ccc     H6   5858 0.12753300   1.008000   ; qtot 212.006236
 5859         c3    212    ccc     C5   5859 -0.20606700  12.010000   ; qtot 211.800169
 5860         hx    212    ccc     H7   5860 0.12753300   1.008000   ; qtot 211.927702
 5861         hc    212    ccc     H8   5861 0.10603300   1.008000   ; qtot 212.033735
 5862         hc    212    ccc     H9   5862 0.10603300   1.008000   ; qtot 212.139768
 5863          c    212    ccc     C6   5863 0.63793300  12.010000   ; qtot 212.777701
 5864         oh    212    ccc     O1   5864 -0.53626700  16.000000   ; qtot 212.241434
 5865          o    212    ccc     O2   5865 -0.48266700  16.000000   ; qtot 211.758767
 5866         hx    212    ccc    H10   5866 0.12753300   1.008000   ; qtot 211.886300
 5867         hx    212    ccc    H11   5867 0.12753300   1.008000   ; qtot 212.013833
 5868         c3    212    ccc     C7   5868 -0.20606700  12.010000   ; qtot 211.807766
 5869         hc    212    ccc    H12   5869 0.10603300   1.008000   ; qtot 211.913799
 5870         hc    212    ccc    H13   5870 0.10603300   1.008000   ; qtot 212.019832
 5871          c    212    ccc     C8   5871 0.63793300  12.010000   ; qtot 212.657765
 5872          o    212    ccc     O3   5872 -0.48266700  16.000000   ; qtot 212.175098
 5873         oh    212    ccc     O4   5873 -0.53626700  16.000000   ; qtot 211.638831
 5874         ho    212    ccc    H14   5874 0.45283300   1.008000   ; qtot 212.091664
 5875         ho    212    ccc    H15   5875 0.45283300   1.008000   ; qtot 212.544497
 5876         hn    212    ccc    H16   5876 0.45463300   1.008000   ; qtot 212.999130
; residue  213 ccc rtp ccc q 1.0
 5877          n    213    ccc     N1   5877 -0.56206700  14.010000   ; qtot 212.437063
 5878         hn    213    ccc     H1   5878 0.35233300   1.008000   ; qtot 212.789396
 5879         c3    213    ccc     C1   5879 0.10283300  12.010000   ; qtot 212.892229
 5880         h1    213    ccc     H2   5880 0.07153300   1.008000   ; qtot 212.963762
 5881         c3    213    ccc     C2   5881 0.07063300  12.010000   ; qtot 213.034395
 5882         h1    213    ccc     H3   5882 0.07153300   1.008000   ; qtot 213.105928
 5883         hx    213    ccc     H4   5883 0.11303300   1.008000   ; qtot 213.218961
 5884         hx    213    ccc     H5   5884 0.11303300   1.008000   ; qtot 213.331994
 5885         n4    213    ccc     N2   5885 -0.67056700  14.010000   ; qtot 212.661427
 5886         c3    213    ccc     C3   5886 0.10863300  12.010000   ; qtot 212.770060
 5887         c3    213    ccc     C4   5887 0.10863300  12.010000   ; qtot 212.878693
 5888         hx    213    ccc     H6   5888 0.12753300   1.008000   ; qtot 213.006226
 5889         c3    213    ccc     C5   5889 -0.20606700  12.010000   ; qtot 212.800159
 5890         hx    213    ccc     H7   5890 0.12753300   1.008000   ; qtot 212.927692
 5891         hc    213    ccc     H8   5891 0.10603300   1.008000   ; qtot 213.033725
 5892         hc    213    ccc     H9   5892 0.10603300   1.008000   ; qtot 213.139758
 5893          c    213    ccc     C6   5893 0.63793300  12.010000   ; qtot 213.777691
 5894         oh    213    ccc     O1   5894 -0.53626700  16.000000   ; qtot 213.241424
 5895          o    213    ccc     O2   5895 -0.48266700  16.000000   ; qtot 212.758757
 5896         hx    213    ccc    H10   5896 0.12753300   1.008000   ; qtot 212.886290
 5897         hx    213    ccc    H11   5897 0.12753300   1.008000   ; qtot 213.013823
 5898         c3    213    ccc     C7   5898 -0.20606700  12.010000   ; qtot 212.807756
 5899         hc    213    ccc    H12   5899 0.10603300   1.008000   ; qtot 212.913789
 5900         hc    213    ccc    H13   5900 0.10603300   1.008000   ; qtot 213.019822
 5901          c    213    ccc     C8   5901 0.63793300  12.010000   ; qtot 213.657755
 5902          o    213    ccc     O3   5902 -0.48266700  16.000000   ; qtot 213.175088
 5903         oh    213    ccc     O4   5903 -0.53626700  16.000000   ; qtot 212.638821
 5904         ho    213    ccc    H14   5904 0.45283300   1.008000   ; qtot 213.091654
 5905         ho    213    ccc    H15   5905 0.45283300   1.008000   ; qtot 213.544487
 5906         hn    213    ccc    H16   5906 0.45463300   1.008000   ; qtot 213.999120
; residue  214 ccc rtp ccc q 1.0
 5907          n    214    ccc     N1   5907 -0.56206700  14.010000   ; qtot 213.437053
 5908         hn    214    ccc     H1   5908 0.35233300   1.008000   ; qtot 213.789386
 5909         c3    214    ccc     C1   5909 0.10283300  12.010000   ; qtot 213.892219
 5910         h1    214    ccc     H2   5910 0.07153300   1.008000   ; qtot 213.963752
 5911         c3    214    ccc     C2   5911 0.07063300  12.010000   ; qtot 214.034385
 5912         h1    214    ccc     H3   5912 0.07153300   1.008000   ; qtot 214.105918
 5913         hx    214    ccc     H4   5913 0.11303300   1.008000   ; qtot 214.218951
 5914         hx    214    ccc     H5   5914 0.11303300   1.008000   ; qtot 214.331984
 5915         n4    214    ccc     N2   5915 -0.67056700  14.010000   ; qtot 213.661417
 5916         c3    214    ccc     C3   5916 0.10863300  12.010000   ; qtot 213.770050
 5917         c3    214    ccc     C4   5917 0.10863300  12.010000   ; qtot 213.878683
 5918         hx    214    ccc     H6   5918 0.12753300   1.008000   ; qtot 214.006216
 5919         c3    214    ccc     C5   5919 -0.20606700  12.010000   ; qtot 213.800149
 5920         hx    214    ccc     H7   5920 0.12753300   1.008000   ; qtot 213.927682
 5921         hc    214    ccc     H8   5921 0.10603300   1.008000   ; qtot 214.033715
 5922         hc    214    ccc     H9   5922 0.10603300   1.008000   ; qtot 214.139748
 5923          c    214    ccc     C6   5923 0.63793300  12.010000   ; qtot 214.777681
 5924         oh    214    ccc     O1   5924 -0.53626700  16.000000   ; qtot 214.241414
 5925          o    214    ccc     O2   5925 -0.48266700  16.000000   ; qtot 213.758747
 5926         hx    214    ccc    H10   5926 0.12753300   1.008000   ; qtot 213.886280
 5927         hx    214    ccc    H11   5927 0.12753300   1.008000   ; qtot 214.013813
 5928         c3    214    ccc     C7   5928 -0.20606700  12.010000   ; qtot 213.807746
 5929         hc    214    ccc    H12   5929 0.10603300   1.008000   ; qtot 213.913779
 5930         hc    214    ccc    H13   5930 0.10603300   1.008000   ; qtot 214.019812
 5931          c    214    ccc     C8   5931 0.63793300  12.010000   ; qtot 214.657745
 5932          o    214    ccc     O3   5932 -0.48266700  16.000000   ; qtot 214.175078
 5933         oh    214    ccc     O4   5933 -0.53626700  16.000000   ; qtot 213.638811
 5934         ho    214    ccc    H14   5934 0.45283300   1.008000   ; qtot 214.091644
 5935         ho    214    ccc    H15   5935 0.45283300   1.008000   ; qtot 214.544477
 5936         hn    214    ccc    H16   5936 0.45463300   1.008000   ; qtot 214.999110
; residue  215 ccc rtp ccc q 1.0
 5937          n    215    ccc     N1   5937 -0.56206700  14.010000   ; qtot 214.437043
 5938         hn    215    ccc     H1   5938 0.35233300   1.008000   ; qtot 214.789376
 5939         c3    215    ccc     C1   5939 0.10283300  12.010000   ; qtot 214.892209
 5940         h1    215    ccc     H2   5940 0.07153300   1.008000   ; qtot 214.963742
 5941         c3    215    ccc     C2   5941 0.07063300  12.010000   ; qtot 215.034375
 5942         h1    215    ccc     H3   5942 0.07153300   1.008000   ; qtot 215.105908
 5943         hx    215    ccc     H4   5943 0.11303300   1.008000   ; qtot 215.218941
 5944         hx    215    ccc     H5   5944 0.11303300   1.008000   ; qtot 215.331974
 5945         n4    215    ccc     N2   5945 -0.67056700  14.010000   ; qtot 214.661407
 5946         c3    215    ccc     C3   5946 0.10863300  12.010000   ; qtot 214.770040
 5947         c3    215    ccc     C4   5947 0.10863300  12.010000   ; qtot 214.878673
 5948         hx    215    ccc     H6   5948 0.12753300   1.008000   ; qtot 215.006206
 5949         c3    215    ccc     C5   5949 -0.20606700  12.010000   ; qtot 214.800139
 5950         hx    215    ccc     H7   5950 0.12753300   1.008000   ; qtot 214.927672
 5951         hc    215    ccc     H8   5951 0.10603300   1.008000   ; qtot 215.033705
 5952         hc    215    ccc     H9   5952 0.10603300   1.008000   ; qtot 215.139738
 5953          c    215    ccc     C6   5953 0.63793300  12.010000   ; qtot 215.777671
 5954         oh    215    ccc     O1   5954 -0.53626700  16.000000   ; qtot 215.241404
 5955          o    215    ccc     O2   5955 -0.48266700  16.000000   ; qtot 214.758737
 5956         hx    215    ccc    H10   5956 0.12753300   1.008000   ; qtot 214.886270
 5957         hx    215    ccc    H11   5957 0.12753300   1.008000   ; qtot 215.013803
 5958         c3    215    ccc     C7   5958 -0.20606700  12.010000   ; qtot 214.807736
 5959         hc    215    ccc    H12   5959 0.10603300   1.008000   ; qtot 214.913769
 5960         hc    215    ccc    H13   5960 0.10603300   1.008000   ; qtot 215.019802
 5961          c    215    ccc     C8   5961 0.63793300  12.010000   ; qtot 215.657735
 5962          o    215    ccc     O3   5962 -0.48266700  16.000000   ; qtot 215.175068
 5963         oh    215    ccc     O4   5963 -0.53626700  16.000000   ; qtot 214.638801
 5964         ho    215    ccc    H14   5964 0.45283300   1.008000   ; qtot 215.091634
 5965         ho    215    ccc    H15   5965 0.45283300   1.008000   ; qtot 215.544467
 5966         hn    215    ccc    H16   5966 0.45463300   1.008000   ; qtot 215.999100
; residue  216 ccc rtp ccc q 1.0
 5967          n    216    ccc     N1   5967 -0.56206700  14.010000   ; qtot 215.437033
 5968         hn    216    ccc     H1   5968 0.35233300   1.008000   ; qtot 215.789366
 5969         c3    216    ccc     C1   5969 0.10283300  12.010000   ; qtot 215.892199
 5970         h1    216    ccc     H2   5970 0.07153300   1.008000   ; qtot 215.963732
 5971         c3    216    ccc     C2   5971 0.07063300  12.010000   ; qtot 216.034365
 5972         h1    216    ccc     H3   5972 0.07153300   1.008000   ; qtot 216.105898
 5973         hx    216    ccc     H4   5973 0.11303300   1.008000   ; qtot 216.218931
 5974         hx    216    ccc     H5   5974 0.11303300   1.008000   ; qtot 216.331964
 5975         n4    216    ccc     N2   5975 -0.67056700  14.010000   ; qtot 215.661397
 5976         c3    216    ccc     C3   5976 0.10863300  12.010000   ; qtot 215.770030
 5977         c3    216    ccc     C4   5977 0.10863300  12.010000   ; qtot 215.878663
 5978         hx    216    ccc     H6   5978 0.12753300   1.008000   ; qtot 216.006196
 5979         c3    216    ccc     C5   5979 -0.20606700  12.010000   ; qtot 215.800129
 5980         hx    216    ccc     H7   5980 0.12753300   1.008000   ; qtot 215.927662
 5981         hc    216    ccc     H8   5981 0.10603300   1.008000   ; qtot 216.033695
 5982         hc    216    ccc     H9   5982 0.10603300   1.008000   ; qtot 216.139728
 5983          c    216    ccc     C6   5983 0.63793300  12.010000   ; qtot 216.777661
 5984         oh    216    ccc     O1   5984 -0.53626700  16.000000   ; qtot 216.241394
 5985          o    216    ccc     O2   5985 -0.48266700  16.000000   ; qtot 215.758727
 5986         hx    216    ccc    H10   5986 0.12753300   1.008000   ; qtot 215.886260
 5987         hx    216    ccc    H11   5987 0.12753300   1.008000   ; qtot 216.013793
 5988         c3    216    ccc     C7   5988 -0.20606700  12.010000   ; qtot 215.807726
 5989         hc    216    ccc    H12   5989 0.10603300   1.008000   ; qtot 215.913759
 5990         hc    216    ccc    H13   5990 0.10603300   1.008000   ; qtot 216.019792
 5991          c    216    ccc     C8   5991 0.63793300  12.010000   ; qtot 216.657725
 5992          o    216    ccc     O3   5992 -0.48266700  16.000000   ; qtot 216.175058
 5993         oh    216    ccc     O4   5993 -0.53626700  16.000000   ; qtot 215.638791
 5994         ho    216    ccc    H14   5994 0.45283300   1.008000   ; qtot 216.091624
 5995         ho    216    ccc    H15   5995 0.45283300   1.008000   ; qtot 216.544457
 5996         hn    216    ccc    H16   5996 0.45463300   1.008000   ; qtot 216.999090
; residue  217 ccc rtp ccc q 1.0
 5997          n    217    ccc     N1   5997 -0.56206700  14.010000   ; qtot 216.437023
 5998         hn    217    ccc     H1   5998 0.35233300   1.008000   ; qtot 216.789356
 5999         c3    217    ccc     C1   5999 0.10283300  12.010000   ; qtot 216.892189
 6000         h1    217    ccc     H2   6000 0.07153300   1.008000   ; qtot 216.963722
 6001         c3    217    ccc     C2   6001 0.07063300  12.010000   ; qtot 217.034355
 6002         h1    217    ccc     H3   6002 0.07153300   1.008000   ; qtot 217.105888
 6003         hx    217    ccc     H4   6003 0.11303300   1.008000   ; qtot 217.218921
 6004         hx    217    ccc     H5   6004 0.11303300   1.008000   ; qtot 217.331954
 6005         n4    217    ccc     N2   6005 -0.67056700  14.010000   ; qtot 216.661387
 6006         c3    217    ccc     C3   6006 0.10863300  12.010000   ; qtot 216.770020
 6007         c3    217    ccc     C4   6007 0.10863300  12.010000   ; qtot 216.878653
 6008         hx    217    ccc     H6   6008 0.12753300   1.008000   ; qtot 217.006186
 6009         c3    217    ccc     C5   6009 -0.20606700  12.010000   ; qtot 216.800119
 6010         hx    217    ccc     H7   6010 0.12753300   1.008000   ; qtot 216.927652
 6011         hc    217    ccc     H8   6011 0.10603300   1.008000   ; qtot 217.033685
 6012         hc    217    ccc     H9   6012 0.10603300   1.008000   ; qtot 217.139718
 6013          c    217    ccc     C6   6013 0.63793300  12.010000   ; qtot 217.777651
 6014         oh    217    ccc     O1   6014 -0.53626700  16.000000   ; qtot 217.241384
 6015          o    217    ccc     O2   6015 -0.48266700  16.000000   ; qtot 216.758717
 6016         hx    217    ccc    H10   6016 0.12753300   1.008000   ; qtot 216.886250
 6017         hx    217    ccc    H11   6017 0.12753300   1.008000   ; qtot 217.013783
 6018         c3    217    ccc     C7   6018 -0.20606700  12.010000   ; qtot 216.807716
 6019         hc    217    ccc    H12   6019 0.10603300   1.008000   ; qtot 216.913749
 6020         hc    217    ccc    H13   6020 0.10603300   1.008000   ; qtot 217.019782
 6021          c    217    ccc     C8   6021 0.63793300  12.010000   ; qtot 217.657715
 6022          o    217    ccc     O3   6022 -0.48266700  16.000000   ; qtot 217.175048
 6023         oh    217    ccc     O4   6023 -0.53626700  16.000000   ; qtot 216.638781
 6024         ho    217    ccc    H14   6024 0.45283300   1.008000   ; qtot 217.091614
 6025         ho    217    ccc    H15   6025 0.45283300   1.008000   ; qtot 217.544447
 6026         hn    217    ccc    H16   6026 0.45463300   1.008000   ; qtot 217.999080
; residue  218 ccc rtp ccc q 1.0
 6027          n    218    ccc     N1   6027 -0.56206700  14.010000   ; qtot 217.437013
 6028         hn    218    ccc     H1   6028 0.35233300   1.008000   ; qtot 217.789346
 6029         c3    218    ccc     C1   6029 0.10283300  12.010000   ; qtot 217.892179
 6030         h1    218    ccc     H2   6030 0.07153300   1.008000   ; qtot 217.963712
 6031         c3    218    ccc     C2   6031 0.07063300  12.010000   ; qtot 218.034345
 6032         h1    218    ccc     H3   6032 0.07153300   1.008000   ; qtot 218.105878
 6033         hx    218    ccc     H4   6033 0.11303300   1.008000   ; qtot 218.218911
 6034         hx    218    ccc     H5   6034 0.11303300   1.008000   ; qtot 218.331944
 6035         n4    218    ccc     N2   6035 -0.67056700  14.010000   ; qtot 217.661377
 6036         c3    218    ccc     C3   6036 0.10863300  12.010000   ; qtot 217.770010
 6037         c3    218    ccc     C4   6037 0.10863300  12.010000   ; qtot 217.878643
 6038         hx    218    ccc     H6   6038 0.12753300   1.008000   ; qtot 218.006176
 6039         c3    218    ccc     C5   6039 -0.20606700  12.010000   ; qtot 217.800109
 6040         hx    218    ccc     H7   6040 0.12753300   1.008000   ; qtot 217.927642
 6041         hc    218    ccc     H8   6041 0.10603300   1.008000   ; qtot 218.033675
 6042         hc    218    ccc     H9   6042 0.10603300   1.008000   ; qtot 218.139708
 6043          c    218    ccc     C6   6043 0.63793300  12.010000   ; qtot 218.777641
 6044         oh    218    ccc     O1   6044 -0.53626700  16.000000   ; qtot 218.241374
 6045          o    218    ccc     O2   6045 -0.48266700  16.000000   ; qtot 217.758707
 6046         hx    218    ccc    H10   6046 0.12753300   1.008000   ; qtot 217.886240
 6047         hx    218    ccc    H11   6047 0.12753300   1.008000   ; qtot 218.013773
 6048         c3    218    ccc     C7   6048 -0.20606700  12.010000   ; qtot 217.807706
 6049         hc    218    ccc    H12   6049 0.10603300   1.008000   ; qtot 217.913739
 6050         hc    218    ccc    H13   6050 0.10603300   1.008000   ; qtot 218.019772
 6051          c    218    ccc     C8   6051 0.63793300  12.010000   ; qtot 218.657705
 6052          o    218    ccc     O3   6052 -0.48266700  16.000000   ; qtot 218.175038
 6053         oh    218    ccc     O4   6053 -0.53626700  16.000000   ; qtot 217.638771
 6054         ho    218    ccc    H14   6054 0.45283300   1.008000   ; qtot 218.091604
 6055         ho    218    ccc    H15   6055 0.45283300   1.008000   ; qtot 218.544437
 6056         hn    218    ccc    H16   6056 0.45463300   1.008000   ; qtot 218.999070
; residue  219 ccc rtp ccc q 1.0
 6057          n    219    ccc     N1   6057 -0.56206700  14.010000   ; qtot 218.437003
 6058         hn    219    ccc     H1   6058 0.35233300   1.008000   ; qtot 218.789336
 6059         c3    219    ccc     C1   6059 0.10283300  12.010000   ; qtot 218.892169
 6060         h1    219    ccc     H2   6060 0.07153300   1.008000   ; qtot 218.963702
 6061         c3    219    ccc     C2   6061 0.07063300  12.010000   ; qtot 219.034335
 6062         h1    219    ccc     H3   6062 0.07153300   1.008000   ; qtot 219.105868
 6063         hx    219    ccc     H4   6063 0.11303300   1.008000   ; qtot 219.218901
 6064         hx    219    ccc     H5   6064 0.11303300   1.008000   ; qtot 219.331934
 6065         n4    219    ccc     N2   6065 -0.67056700  14.010000   ; qtot 218.661367
 6066         c3    219    ccc     C3   6066 0.10863300  12.010000   ; qtot 218.770000
 6067         c3    219    ccc     C4   6067 0.10863300  12.010000   ; qtot 218.878633
 6068         hx    219    ccc     H6   6068 0.12753300   1.008000   ; qtot 219.006166
 6069         c3    219    ccc     C5   6069 -0.20606700  12.010000   ; qtot 218.800099
 6070         hx    219    ccc     H7   6070 0.12753300   1.008000   ; qtot 218.927632
 6071         hc    219    ccc     H8   6071 0.10603300   1.008000   ; qtot 219.033665
 6072         hc    219    ccc     H9   6072 0.10603300   1.008000   ; qtot 219.139698
 6073          c    219    ccc     C6   6073 0.63793300  12.010000   ; qtot 219.777631
 6074         oh    219    ccc     O1   6074 -0.53626700  16.000000   ; qtot 219.241364
 6075          o    219    ccc     O2   6075 -0.48266700  16.000000   ; qtot 218.758697
 6076         hx    219    ccc    H10   6076 0.12753300   1.008000   ; qtot 218.886230
 6077         hx    219    ccc    H11   6077 0.12753300   1.008000   ; qtot 219.013763
 6078         c3    219    ccc     C7   6078 -0.20606700  12.010000   ; qtot 218.807696
 6079         hc    219    ccc    H12   6079 0.10603300   1.008000   ; qtot 218.913729
 6080         hc    219    ccc    H13   6080 0.10603300   1.008000   ; qtot 219.019762
 6081          c    219    ccc     C8   6081 0.63793300  12.010000   ; qtot 219.657695
 6082          o    219    ccc     O3   6082 -0.48266700  16.000000   ; qtot 219.175028
 6083         oh    219    ccc     O4   6083 -0.53626700  16.000000   ; qtot 218.638761
 6084         ho    219    ccc    H14   6084 0.45283300   1.008000   ; qtot 219.091594
 6085         ho    219    ccc    H15   6085 0.45283300   1.008000   ; qtot 219.544427
 6086         hn    219    ccc    H16   6086 0.45463300   1.008000   ; qtot 219.999060
; residue  220 ccc rtp ccc q 1.0
 6087          n    220    ccc     N1   6087 -0.56206700  14.010000   ; qtot 219.436993
 6088         hn    220    ccc     H1   6088 0.35233300   1.008000   ; qtot 219.789326
 6089         c3    220    ccc     C1   6089 0.10283300  12.010000   ; qtot 219.892159
 6090         h1    220    ccc     H2   6090 0.07153300   1.008000   ; qtot 219.963692
 6091         c3    220    ccc     C2   6091 0.07063300  12.010000   ; qtot 220.034325
 6092         h1    220    ccc     H3   6092 0.07153300   1.008000   ; qtot 220.105858
 6093         hx    220    ccc     H4   6093 0.11303300   1.008000   ; qtot 220.218891
 6094         hx    220    ccc     H5   6094 0.11303300   1.008000   ; qtot 220.331924
 6095         n4    220    ccc     N2   6095 -0.67056700  14.010000   ; qtot 219.661357
 6096         c3    220    ccc     C3   6096 0.10863300  12.010000   ; qtot 219.769990
 6097         c3    220    ccc     C4   6097 0.10863300  12.010000   ; qtot 219.878623
 6098         hx    220    ccc     H6   6098 0.12753300   1.008000   ; qtot 220.006156
 6099         c3    220    ccc     C5   6099 -0.20606700  12.010000   ; qtot 219.800089
 6100         hx    220    ccc     H7   6100 0.12753300   1.008000   ; qtot 219.927622
 6101         hc    220    ccc     H8   6101 0.10603300   1.008000   ; qtot 220.033655
 6102         hc    220    ccc     H9   6102 0.10603300   1.008000   ; qtot 220.139688
 6103          c    220    ccc     C6   6103 0.63793300  12.010000   ; qtot 220.777621
 6104         oh    220    ccc     O1   6104 -0.53626700  16.000000   ; qtot 220.241354
 6105          o    220    ccc     O2   6105 -0.48266700  16.000000   ; qtot 219.758687
 6106         hx    220    ccc    H10   6106 0.12753300   1.008000   ; qtot 219.886220
 6107         hx    220    ccc    H11   6107 0.12753300   1.008000   ; qtot 220.013753
 6108         c3    220    ccc     C7   6108 -0.20606700  12.010000   ; qtot 219.807686
 6109         hc    220    ccc    H12   6109 0.10603300   1.008000   ; qtot 219.913719
 6110         hc    220    ccc    H13   6110 0.10603300   1.008000   ; qtot 220.019752
 6111          c    220    ccc     C8   6111 0.63793300  12.010000   ; qtot 220.657685
 6112          o    220    ccc     O3   6112 -0.48266700  16.000000   ; qtot 220.175018
 6113         oh    220    ccc     O4   6113 -0.53626700  16.000000   ; qtot 219.638751
 6114         ho    220    ccc    H14   6114 0.45283300   1.008000   ; qtot 220.091584
 6115         ho    220    ccc    H15   6115 0.45283300   1.008000   ; qtot 220.544417
 6116         hn    220    ccc    H16   6116 0.45463300   1.008000   ; qtot 220.999050
; residue  221 ccc rtp ccc q 1.0
 6117          n    221    ccc     N1   6117 -0.56206700  14.010000   ; qtot 220.436983
 6118         hn    221    ccc     H1   6118 0.35233300   1.008000   ; qtot 220.789316
 6119         c3    221    ccc     C1   6119 0.10283300  12.010000   ; qtot 220.892149
 6120         h1    221    ccc     H2   6120 0.07153300   1.008000   ; qtot 220.963682
 6121         c3    221    ccc     C2   6121 0.07063300  12.010000   ; qtot 221.034315
 6122         h1    221    ccc     H3   6122 0.07153300   1.008000   ; qtot 221.105848
 6123         hx    221    ccc     H4   6123 0.11303300   1.008000   ; qtot 221.218881
 6124         hx    221    ccc     H5   6124 0.11303300   1.008000   ; qtot 221.331914
 6125         n4    221    ccc     N2   6125 -0.67056700  14.010000   ; qtot 220.661347
 6126         c3    221    ccc     C3   6126 0.10863300  12.010000   ; qtot 220.769980
 6127         c3    221    ccc     C4   6127 0.10863300  12.010000   ; qtot 220.878613
 6128         hx    221    ccc     H6   6128 0.12753300   1.008000   ; qtot 221.006146
 6129         c3    221    ccc     C5   6129 -0.20606700  12.010000   ; qtot 220.800079
 6130         hx    221    ccc     H7   6130 0.12753300   1.008000   ; qtot 220.927612
 6131         hc    221    ccc     H8   6131 0.10603300   1.008000   ; qtot 221.033645
 6132         hc    221    ccc     H9   6132 0.10603300   1.008000   ; qtot 221.139678
 6133          c    221    ccc     C6   6133 0.63793300  12.010000   ; qtot 221.777611
 6134         oh    221    ccc     O1   6134 -0.53626700  16.000000   ; qtot 221.241344
 6135          o    221    ccc     O2   6135 -0.48266700  16.000000   ; qtot 220.758677
 6136         hx    221    ccc    H10   6136 0.12753300   1.008000   ; qtot 220.886210
 6137         hx    221    ccc    H11   6137 0.12753300   1.008000   ; qtot 221.013743
 6138         c3    221    ccc     C7   6138 -0.20606700  12.010000   ; qtot 220.807676
 6139         hc    221    ccc    H12   6139 0.10603300   1.008000   ; qtot 220.913709
 6140         hc    221    ccc    H13   6140 0.10603300   1.008000   ; qtot 221.019742
 6141          c    221    ccc     C8   6141 0.63793300  12.010000   ; qtot 221.657675
 6142          o    221    ccc     O3   6142 -0.48266700  16.000000   ; qtot 221.175008
 6143         oh    221    ccc     O4   6143 -0.53626700  16.000000   ; qtot 220.638741
 6144         ho    221    ccc    H14   6144 0.45283300   1.008000   ; qtot 221.091574
 6145         ho    221    ccc    H15   6145 0.45283300   1.008000   ; qtot 221.544407
 6146         hn    221    ccc    H16   6146 0.45463300   1.008000   ; qtot 221.999040
; residue  222 ccc rtp ccc q 1.0
 6147          n    222    ccc     N1   6147 -0.56206700  14.010000   ; qtot 221.436973
 6148         hn    222    ccc     H1   6148 0.35233300   1.008000   ; qtot 221.789306
 6149         c3    222    ccc     C1   6149 0.10283300  12.010000   ; qtot 221.892139
 6150         h1    222    ccc     H2   6150 0.07153300   1.008000   ; qtot 221.963672
 6151         c3    222    ccc     C2   6151 0.07063300  12.010000   ; qtot 222.034305
 6152         h1    222    ccc     H3   6152 0.07153300   1.008000   ; qtot 222.105838
 6153         hx    222    ccc     H4   6153 0.11303300   1.008000   ; qtot 222.218871
 6154         hx    222    ccc     H5   6154 0.11303300   1.008000   ; qtot 222.331904
 6155         n4    222    ccc     N2   6155 -0.67056700  14.010000   ; qtot 221.661337
 6156         c3    222    ccc     C3   6156 0.10863300  12.010000   ; qtot 221.769970
 6157         c3    222    ccc     C4   6157 0.10863300  12.010000   ; qtot 221.878603
 6158         hx    222    ccc     H6   6158 0.12753300   1.008000   ; qtot 222.006136
 6159         c3    222    ccc     C5   6159 -0.20606700  12.010000   ; qtot 221.800069
 6160         hx    222    ccc     H7   6160 0.12753300   1.008000   ; qtot 221.927602
 6161         hc    222    ccc     H8   6161 0.10603300   1.008000   ; qtot 222.033635
 6162         hc    222    ccc     H9   6162 0.10603300   1.008000   ; qtot 222.139668
 6163          c    222    ccc     C6   6163 0.63793300  12.010000   ; qtot 222.777601
 6164         oh    222    ccc     O1   6164 -0.53626700  16.000000   ; qtot 222.241334
 6165          o    222    ccc     O2   6165 -0.48266700  16.000000   ; qtot 221.758667
 6166         hx    222    ccc    H10   6166 0.12753300   1.008000   ; qtot 221.886200
 6167         hx    222    ccc    H11   6167 0.12753300   1.008000   ; qtot 222.013733
 6168         c3    222    ccc     C7   6168 -0.20606700  12.010000   ; qtot 221.807666
 6169         hc    222    ccc    H12   6169 0.10603300   1.008000   ; qtot 221.913699
 6170         hc    222    ccc    H13   6170 0.10603300   1.008000   ; qtot 222.019732
 6171          c    222    ccc     C8   6171 0.63793300  12.010000   ; qtot 222.657665
 6172          o    222    ccc     O3   6172 -0.48266700  16.000000   ; qtot 222.174998
 6173         oh    222    ccc     O4   6173 -0.53626700  16.000000   ; qtot 221.638731
 6174         ho    222    ccc    H14   6174 0.45283300   1.008000   ; qtot 222.091564
 6175         ho    222    ccc    H15   6175 0.45283300   1.008000   ; qtot 222.544397
 6176         hn    222    ccc    H16   6176 0.45463300   1.008000   ; qtot 222.999030
; residue  223 ccc rtp ccc q 1.0
 6177          n    223    ccc     N1   6177 -0.56206700  14.010000   ; qtot 222.436963
 6178         hn    223    ccc     H1   6178 0.35233300   1.008000   ; qtot 222.789296
 6179         c3    223    ccc     C1   6179 0.10283300  12.010000   ; qtot 222.892129
 6180         h1    223    ccc     H2   6180 0.07153300   1.008000   ; qtot 222.963662
 6181         c3    223    ccc     C2   6181 0.07063300  12.010000   ; qtot 223.034295
 6182         h1    223    ccc     H3   6182 0.07153300   1.008000   ; qtot 223.105828
 6183         hx    223    ccc     H4   6183 0.11303300   1.008000   ; qtot 223.218861
 6184         hx    223    ccc     H5   6184 0.11303300   1.008000   ; qtot 223.331894
 6185         n4    223    ccc     N2   6185 -0.67056700  14.010000   ; qtot 222.661327
 6186         c3    223    ccc     C3   6186 0.10863300  12.010000   ; qtot 222.769960
 6187         c3    223    ccc     C4   6187 0.10863300  12.010000   ; qtot 222.878593
 6188         hx    223    ccc     H6   6188 0.12753300   1.008000   ; qtot 223.006126
 6189         c3    223    ccc     C5   6189 -0.20606700  12.010000   ; qtot 222.800059
 6190         hx    223    ccc     H7   6190 0.12753300   1.008000   ; qtot 222.927592
 6191         hc    223    ccc     H8   6191 0.10603300   1.008000   ; qtot 223.033625
 6192         hc    223    ccc     H9   6192 0.10603300   1.008000   ; qtot 223.139658
 6193          c    223    ccc     C6   6193 0.63793300  12.010000   ; qtot 223.777591
 6194         oh    223    ccc     O1   6194 -0.53626700  16.000000   ; qtot 223.241324
 6195          o    223    ccc     O2   6195 -0.48266700  16.000000   ; qtot 222.758657
 6196         hx    223    ccc    H10   6196 0.12753300   1.008000   ; qtot 222.886190
 6197         hx    223    ccc    H11   6197 0.12753300   1.008000   ; qtot 223.013723
 6198         c3    223    ccc     C7   6198 -0.20606700  12.010000   ; qtot 222.807656
 6199         hc    223    ccc    H12   6199 0.10603300   1.008000   ; qtot 222.913689
 6200         hc    223    ccc    H13   6200 0.10603300   1.008000   ; qtot 223.019722
 6201          c    223    ccc     C8   6201 0.63793300  12.010000   ; qtot 223.657655
 6202          o    223    ccc     O3   6202 -0.48266700  16.000000   ; qtot 223.174988
 6203         oh    223    ccc     O4   6203 -0.53626700  16.000000   ; qtot 222.638721
 6204         ho    223    ccc    H14   6204 0.45283300   1.008000   ; qtot 223.091554
 6205         ho    223    ccc    H15   6205 0.45283300   1.008000   ; qtot 223.544387
 6206         hn    223    ccc    H16   6206 0.45463300   1.008000   ; qtot 223.999020
; residue  224 ccc rtp ccc q 1.0
 6207          n    224    ccc     N1   6207 -0.56206700  14.010000   ; qtot 223.436953
 6208         hn    224    ccc     H1   6208 0.35233300   1.008000   ; qtot 223.789286
 6209         c3    224    ccc     C1   6209 0.10283300  12.010000   ; qtot 223.892119
 6210         h1    224    ccc     H2   6210 0.07153300   1.008000   ; qtot 223.963652
 6211         c3    224    ccc     C2   6211 0.07063300  12.010000   ; qtot 224.034285
 6212         h1    224    ccc     H3   6212 0.07153300   1.008000   ; qtot 224.105818
 6213         hx    224    ccc     H4   6213 0.11303300   1.008000   ; qtot 224.218851
 6214         hx    224    ccc     H5   6214 0.11303300   1.008000   ; qtot 224.331884
 6215         n4    224    ccc     N2   6215 -0.67056700  14.010000   ; qtot 223.661317
 6216         c3    224    ccc     C3   6216 0.10863300  12.010000   ; qtot 223.769950
 6217         c3    224    ccc     C4   6217 0.10863300  12.010000   ; qtot 223.878583
 6218         hx    224    ccc     H6   6218 0.12753300   1.008000   ; qtot 224.006116
 6219         c3    224    ccc     C5   6219 -0.20606700  12.010000   ; qtot 223.800049
 6220         hx    224    ccc     H7   6220 0.12753300   1.008000   ; qtot 223.927582
 6221         hc    224    ccc     H8   6221 0.10603300   1.008000   ; qtot 224.033615
 6222         hc    224    ccc     H9   6222 0.10603300   1.008000   ; qtot 224.139648
 6223          c    224    ccc     C6   6223 0.63793300  12.010000   ; qtot 224.777581
 6224         oh    224    ccc     O1   6224 -0.53626700  16.000000   ; qtot 224.241314
 6225          o    224    ccc     O2   6225 -0.48266700  16.000000   ; qtot 223.758647
 6226         hx    224    ccc    H10   6226 0.12753300   1.008000   ; qtot 223.886180
 6227         hx    224    ccc    H11   6227 0.12753300   1.008000   ; qtot 224.013713
 6228         c3    224    ccc     C7   6228 -0.20606700  12.010000   ; qtot 223.807646
 6229         hc    224    ccc    H12   6229 0.10603300   1.008000   ; qtot 223.913679
 6230         hc    224    ccc    H13   6230 0.10603300   1.008000   ; qtot 224.019712
 6231          c    224    ccc     C8   6231 0.63793300  12.010000   ; qtot 224.657645
 6232          o    224    ccc     O3   6232 -0.48266700  16.000000   ; qtot 224.174978
 6233         oh    224    ccc     O4   6233 -0.53626700  16.000000   ; qtot 223.638711
 6234         ho    224    ccc    H14   6234 0.45283300   1.008000   ; qtot 224.091544
 6235         ho    224    ccc    H15   6235 0.45283300   1.008000   ; qtot 224.544377
 6236         hn    224    ccc    H16   6236 0.45463300   1.008000   ; qtot 224.999010
; residue  225 ccc rtp ccc q 1.0
 6237          n    225    ccc     N1   6237 -0.56206700  14.010000   ; qtot 224.436943
 6238         hn    225    ccc     H1   6238 0.35233300   1.008000   ; qtot 224.789276
 6239         c3    225    ccc     C1   6239 0.10283300  12.010000   ; qtot 224.892109
 6240         h1    225    ccc     H2   6240 0.07153300   1.008000   ; qtot 224.963642
 6241         c3    225    ccc     C2   6241 0.07063300  12.010000   ; qtot 225.034275
 6242         h1    225    ccc     H3   6242 0.07153300   1.008000   ; qtot 225.105808
 6243         hx    225    ccc     H4   6243 0.11303300   1.008000   ; qtot 225.218841
 6244         hx    225    ccc     H5   6244 0.11303300   1.008000   ; qtot 225.331874
 6245         n4    225    ccc     N2   6245 -0.67056700  14.010000   ; qtot 224.661307
 6246         c3    225    ccc     C3   6246 0.10863300  12.010000   ; qtot 224.769940
 6247         c3    225    ccc     C4   6247 0.10863300  12.010000   ; qtot 224.878573
 6248         hx    225    ccc     H6   6248 0.12753300   1.008000   ; qtot 225.006106
 6249         c3    225    ccc     C5   6249 -0.20606700  12.010000   ; qtot 224.800039
 6250         hx    225    ccc     H7   6250 0.12753300   1.008000   ; qtot 224.927572
 6251         hc    225    ccc     H8   6251 0.10603300   1.008000   ; qtot 225.033605
 6252         hc    225    ccc     H9   6252 0.10603300   1.008000   ; qtot 225.139638
 6253          c    225    ccc     C6   6253 0.63793300  12.010000   ; qtot 225.777571
 6254         oh    225    ccc     O1   6254 -0.53626700  16.000000   ; qtot 225.241304
 6255          o    225    ccc     O2   6255 -0.48266700  16.000000   ; qtot 224.758637
 6256         hx    225    ccc    H10   6256 0.12753300   1.008000   ; qtot 224.886170
 6257         hx    225    ccc    H11   6257 0.12753300   1.008000   ; qtot 225.013703
 6258         c3    225    ccc     C7   6258 -0.20606700  12.010000   ; qtot 224.807636
 6259         hc    225    ccc    H12   6259 0.10603300   1.008000   ; qtot 224.913669
 6260         hc    225    ccc    H13   6260 0.10603300   1.008000   ; qtot 225.019702
 6261          c    225    ccc     C8   6261 0.63793300  12.010000   ; qtot 225.657635
 6262          o    225    ccc     O3   6262 -0.48266700  16.000000   ; qtot 225.174968
 6263         oh    225    ccc     O4   6263 -0.53626700  16.000000   ; qtot 224.638701
 6264         ho    225    ccc    H14   6264 0.45283300   1.008000   ; qtot 225.091534
 6265         ho    225    ccc    H15   6265 0.45283300   1.008000   ; qtot 225.544367
 6266         hn    225    ccc    H16   6266 0.45463300   1.008000   ; qtot 225.999000
; residue  226 ccc rtp ccc q 1.0
 6267          n    226    ccc     N1   6267 -0.56206700  14.010000   ; qtot 225.436933
 6268         hn    226    ccc     H1   6268 0.35233300   1.008000   ; qtot 225.789266
 6269         c3    226    ccc     C1   6269 0.10283300  12.010000   ; qtot 225.892099
 6270         h1    226    ccc     H2   6270 0.07153300   1.008000   ; qtot 225.963632
 6271         c3    226    ccc     C2   6271 0.07063300  12.010000   ; qtot 226.034265
 6272         h1    226    ccc     H3   6272 0.07153300   1.008000   ; qtot 226.105798
 6273         hx    226    ccc     H4   6273 0.11303300   1.008000   ; qtot 226.218831
 6274         hx    226    ccc     H5   6274 0.11303300   1.008000   ; qtot 226.331864
 6275         n4    226    ccc     N2   6275 -0.67056700  14.010000   ; qtot 225.661297
 6276         c3    226    ccc     C3   6276 0.10863300  12.010000   ; qtot 225.769930
 6277         c3    226    ccc     C4   6277 0.10863300  12.010000   ; qtot 225.878563
 6278         hx    226    ccc     H6   6278 0.12753300   1.008000   ; qtot 226.006096
 6279         c3    226    ccc     C5   6279 -0.20606700  12.010000   ; qtot 225.800029
 6280         hx    226    ccc     H7   6280 0.12753300   1.008000   ; qtot 225.927562
 6281         hc    226    ccc     H8   6281 0.10603300   1.008000   ; qtot 226.033595
 6282         hc    226    ccc     H9   6282 0.10603300   1.008000   ; qtot 226.139628
 6283          c    226    ccc     C6   6283 0.63793300  12.010000   ; qtot 226.777561
 6284         oh    226    ccc     O1   6284 -0.53626700  16.000000   ; qtot 226.241294
 6285          o    226    ccc     O2   6285 -0.48266700  16.000000   ; qtot 225.758627
 6286         hx    226    ccc    H10   6286 0.12753300   1.008000   ; qtot 225.886160
 6287         hx    226    ccc    H11   6287 0.12753300   1.008000   ; qtot 226.013693
 6288         c3    226    ccc     C7   6288 -0.20606700  12.010000   ; qtot 225.807626
 6289         hc    226    ccc    H12   6289 0.10603300   1.008000   ; qtot 225.913659
 6290         hc    226    ccc    H13   6290 0.10603300   1.008000   ; qtot 226.019692
 6291          c    226    ccc     C8   6291 0.63793300  12.010000   ; qtot 226.657625
 6292          o    226    ccc     O3   6292 -0.48266700  16.000000   ; qtot 226.174958
 6293         oh    226    ccc     O4   6293 -0.53626700  16.000000   ; qtot 225.638691
 6294         ho    226    ccc    H14   6294 0.45283300   1.008000   ; qtot 226.091524
 6295         ho    226    ccc    H15   6295 0.45283300   1.008000   ; qtot 226.544357
 6296         hn    226    ccc    H16   6296 0.45463300   1.008000   ; qtot 226.998990
; residue  227 ccc rtp ccc q 1.0
 6297          n    227    ccc     N1   6297 -0.56206700  14.010000   ; qtot 226.436923
 6298         hn    227    ccc     H1   6298 0.35233300   1.008000   ; qtot 226.789256
 6299         c3    227    ccc     C1   6299 0.10283300  12.010000   ; qtot 226.892089
 6300         h1    227    ccc     H2   6300 0.07153300   1.008000   ; qtot 226.963622
 6301         c3    227    ccc     C2   6301 0.07063300  12.010000   ; qtot 227.034255
 6302         h1    227    ccc     H3   6302 0.07153300   1.008000   ; qtot 227.105788
 6303         hx    227    ccc     H4   6303 0.11303300   1.008000   ; qtot 227.218821
 6304         hx    227    ccc     H5   6304 0.11303300   1.008000   ; qtot 227.331854
 6305         n4    227    ccc     N2   6305 -0.67056700  14.010000   ; qtot 226.661287
 6306         c3    227    ccc     C3   6306 0.10863300  12.010000   ; qtot 226.769920
 6307         c3    227    ccc     C4   6307 0.10863300  12.010000   ; qtot 226.878553
 6308         hx    227    ccc     H6   6308 0.12753300   1.008000   ; qtot 227.006086
 6309         c3    227    ccc     C5   6309 -0.20606700  12.010000   ; qtot 226.800019
 6310         hx    227    ccc     H7   6310 0.12753300   1.008000   ; qtot 226.927552
 6311         hc    227    ccc     H8   6311 0.10603300   1.008000   ; qtot 227.033585
 6312         hc    227    ccc     H9   6312 0.10603300   1.008000   ; qtot 227.139618
 6313          c    227    ccc     C6   6313 0.63793300  12.010000   ; qtot 227.777551
 6314         oh    227    ccc     O1   6314 -0.53626700  16.000000   ; qtot 227.241284
 6315          o    227    ccc     O2   6315 -0.48266700  16.000000   ; qtot 226.758617
 6316         hx    227    ccc    H10   6316 0.12753300   1.008000   ; qtot 226.886150
 6317         hx    227    ccc    H11   6317 0.12753300   1.008000   ; qtot 227.013683
 6318         c3    227    ccc     C7   6318 -0.20606700  12.010000   ; qtot 226.807616
 6319         hc    227    ccc    H12   6319 0.10603300   1.008000   ; qtot 226.913649
 6320         hc    227    ccc    H13   6320 0.10603300   1.008000   ; qtot 227.019682
 6321          c    227    ccc     C8   6321 0.63793300  12.010000   ; qtot 227.657615
 6322          o    227    ccc     O3   6322 -0.48266700  16.000000   ; qtot 227.174948
 6323         oh    227    ccc     O4   6323 -0.53626700  16.000000   ; qtot 226.638681
 6324         ho    227    ccc    H14   6324 0.45283300   1.008000   ; qtot 227.091514
 6325         ho    227    ccc    H15   6325 0.45283300   1.008000   ; qtot 227.544347
 6326         hn    227    ccc    H16   6326 0.45463300   1.008000   ; qtot 227.998980
; residue  228 ccc rtp ccc q 1.0
 6327          n    228    ccc     N1   6327 -0.56206700  14.010000   ; qtot 227.436913
 6328         hn    228    ccc     H1   6328 0.35233300   1.008000   ; qtot 227.789246
 6329         c3    228    ccc     C1   6329 0.10283300  12.010000   ; qtot 227.892079
 6330         h1    228    ccc     H2   6330 0.07153300   1.008000   ; qtot 227.963612
 6331         c3    228    ccc     C2   6331 0.07063300  12.010000   ; qtot 228.034245
 6332         h1    228    ccc     H3   6332 0.07153300   1.008000   ; qtot 228.105778
 6333         hx    228    ccc     H4   6333 0.11303300   1.008000   ; qtot 228.218811
 6334         hx    228    ccc     H5   6334 0.11303300   1.008000   ; qtot 228.331844
 6335         n4    228    ccc     N2   6335 -0.67056700  14.010000   ; qtot 227.661277
 6336         c3    228    ccc     C3   6336 0.10863300  12.010000   ; qtot 227.769910
 6337         c3    228    ccc     C4   6337 0.10863300  12.010000   ; qtot 227.878543
 6338         hx    228    ccc     H6   6338 0.12753300   1.008000   ; qtot 228.006076
 6339         c3    228    ccc     C5   6339 -0.20606700  12.010000   ; qtot 227.800009
 6340         hx    228    ccc     H7   6340 0.12753300   1.008000   ; qtot 227.927542
 6341         hc    228    ccc     H8   6341 0.10603300   1.008000   ; qtot 228.033575
 6342         hc    228    ccc     H9   6342 0.10603300   1.008000   ; qtot 228.139608
 6343          c    228    ccc     C6   6343 0.63793300  12.010000   ; qtot 228.777541
 6344         oh    228    ccc     O1   6344 -0.53626700  16.000000   ; qtot 228.241274
 6345          o    228    ccc     O2   6345 -0.48266700  16.000000   ; qtot 227.758607
 6346         hx    228    ccc    H10   6346 0.12753300   1.008000   ; qtot 227.886140
 6347         hx    228    ccc    H11   6347 0.12753300   1.008000   ; qtot 228.013673
 6348         c3    228    ccc     C7   6348 -0.20606700  12.010000   ; qtot 227.807606
 6349         hc    228    ccc    H12   6349 0.10603300   1.008000   ; qtot 227.913639
 6350         hc    228    ccc    H13   6350 0.10603300   1.008000   ; qtot 228.019672
 6351          c    228    ccc     C8   6351 0.63793300  12.010000   ; qtot 228.657605
 6352          o    228    ccc     O3   6352 -0.48266700  16.000000   ; qtot 228.174938
 6353         oh    228    ccc     O4   6353 -0.53626700  16.000000   ; qtot 227.638671
 6354         ho    228    ccc    H14   6354 0.45283300   1.008000   ; qtot 228.091504
 6355         ho    228    ccc    H15   6355 0.45283300   1.008000   ; qtot 228.544337
 6356         hn    228    ccc    H16   6356 0.45463300   1.008000   ; qtot 228.998970
; residue  229 ccc rtp ccc q 1.0
 6357          n    229    ccc     N1   6357 -0.56206700  14.010000   ; qtot 228.436903
 6358         hn    229    ccc     H1   6358 0.35233300   1.008000   ; qtot 228.789236
 6359         c3    229    ccc     C1   6359 0.10283300  12.010000   ; qtot 228.892069
 6360         h1    229    ccc     H2   6360 0.07153300   1.008000   ; qtot 228.963602
 6361         c3    229    ccc     C2   6361 0.07063300  12.010000   ; qtot 229.034235
 6362         h1    229    ccc     H3   6362 0.07153300   1.008000   ; qtot 229.105768
 6363         hx    229    ccc     H4   6363 0.11303300   1.008000   ; qtot 229.218801
 6364         hx    229    ccc     H5   6364 0.11303300   1.008000   ; qtot 229.331834
 6365         n4    229    ccc     N2   6365 -0.67056700  14.010000   ; qtot 228.661267
 6366         c3    229    ccc     C3   6366 0.10863300  12.010000   ; qtot 228.769900
 6367         c3    229    ccc     C4   6367 0.10863300  12.010000   ; qtot 228.878533
 6368         hx    229    ccc     H6   6368 0.12753300   1.008000   ; qtot 229.006066
 6369         c3    229    ccc     C5   6369 -0.20606700  12.010000   ; qtot 228.799999
 6370         hx    229    ccc     H7   6370 0.12753300   1.008000   ; qtot 228.927532
 6371         hc    229    ccc     H8   6371 0.10603300   1.008000   ; qtot 229.033565
 6372         hc    229    ccc     H9   6372 0.10603300   1.008000   ; qtot 229.139598
 6373          c    229    ccc     C6   6373 0.63793300  12.010000   ; qtot 229.777531
 6374         oh    229    ccc     O1   6374 -0.53626700  16.000000   ; qtot 229.241264
 6375          o    229    ccc     O2   6375 -0.48266700  16.000000   ; qtot 228.758597
 6376         hx    229    ccc    H10   6376 0.12753300   1.008000   ; qtot 228.886130
 6377         hx    229    ccc    H11   6377 0.12753300   1.008000   ; qtot 229.013663
 6378         c3    229    ccc     C7   6378 -0.20606700  12.010000   ; qtot 228.807596
 6379         hc    229    ccc    H12   6379 0.10603300   1.008000   ; qtot 228.913629
 6380         hc    229    ccc    H13   6380 0.10603300   1.008000   ; qtot 229.019662
 6381          c    229    ccc     C8   6381 0.63793300  12.010000   ; qtot 229.657595
 6382          o    229    ccc     O3   6382 -0.48266700  16.000000   ; qtot 229.174928
 6383         oh    229    ccc     O4   6383 -0.53626700  16.000000   ; qtot 228.638661
 6384         ho    229    ccc    H14   6384 0.45283300   1.008000   ; qtot 229.091494
 6385         ho    229    ccc    H15   6385 0.45283300   1.008000   ; qtot 229.544327
 6386         hn    229    ccc    H16   6386 0.45463300   1.008000   ; qtot 229.998960
; residue  230 ccc rtp ccc q 1.0
 6387          n    230    ccc     N1   6387 -0.56206700  14.010000   ; qtot 229.436893
 6388         hn    230    ccc     H1   6388 0.35233300   1.008000   ; qtot 229.789226
 6389         c3    230    ccc     C1   6389 0.10283300  12.010000   ; qtot 229.892059
 6390         h1    230    ccc     H2   6390 0.07153300   1.008000   ; qtot 229.963592
 6391         c3    230    ccc     C2   6391 0.07063300  12.010000   ; qtot 230.034225
 6392         h1    230    ccc     H3   6392 0.07153300   1.008000   ; qtot 230.105758
 6393         hx    230    ccc     H4   6393 0.11303300   1.008000   ; qtot 230.218791
 6394         hx    230    ccc     H5   6394 0.11303300   1.008000   ; qtot 230.331824
 6395         n4    230    ccc     N2   6395 -0.67056700  14.010000   ; qtot 229.661257
 6396         c3    230    ccc     C3   6396 0.10863300  12.010000   ; qtot 229.769890
 6397         c3    230    ccc     C4   6397 0.10863300  12.010000   ; qtot 229.878523
 6398         hx    230    ccc     H6   6398 0.12753300   1.008000   ; qtot 230.006056
 6399         c3    230    ccc     C5   6399 -0.20606700  12.010000   ; qtot 229.799989
 6400         hx    230    ccc     H7   6400 0.12753300   1.008000   ; qtot 229.927522
 6401         hc    230    ccc     H8   6401 0.10603300   1.008000   ; qtot 230.033555
 6402         hc    230    ccc     H9   6402 0.10603300   1.008000   ; qtot 230.139588
 6403          c    230    ccc     C6   6403 0.63793300  12.010000   ; qtot 230.777521
 6404         oh    230    ccc     O1   6404 -0.53626700  16.000000   ; qtot 230.241254
 6405          o    230    ccc     O2   6405 -0.48266700  16.000000   ; qtot 229.758587
 6406         hx    230    ccc    H10   6406 0.12753300   1.008000   ; qtot 229.886120
 6407         hx    230    ccc    H11   6407 0.12753300   1.008000   ; qtot 230.013653
 6408         c3    230    ccc     C7   6408 -0.20606700  12.010000   ; qtot 229.807586
 6409         hc    230    ccc    H12   6409 0.10603300   1.008000   ; qtot 229.913619
 6410         hc    230    ccc    H13   6410 0.10603300   1.008000   ; qtot 230.019652
 6411          c    230    ccc     C8   6411 0.63793300  12.010000   ; qtot 230.657585
 6412          o    230    ccc     O3   6412 -0.48266700  16.000000   ; qtot 230.174918
 6413         oh    230    ccc     O4   6413 -0.53626700  16.000000   ; qtot 229.638651
 6414         ho    230    ccc    H14   6414 0.45283300   1.008000   ; qtot 230.091484
 6415         ho    230    ccc    H15   6415 0.45283300   1.008000   ; qtot 230.544317
 6416         hn    230    ccc    H16   6416 0.45463300   1.008000   ; qtot 230.998950
; residue  231 ccc rtp ccc q 1.0
 6417          n    231    ccc     N1   6417 -0.56206700  14.010000   ; qtot 230.436883
 6418         hn    231    ccc     H1   6418 0.35233300   1.008000   ; qtot 230.789216
 6419         c3    231    ccc     C1   6419 0.10283300  12.010000   ; qtot 230.892049
 6420         h1    231    ccc     H2   6420 0.07153300   1.008000   ; qtot 230.963582
 6421         c3    231    ccc     C2   6421 0.07063300  12.010000   ; qtot 231.034215
 6422         h1    231    ccc     H3   6422 0.07153300   1.008000   ; qtot 231.105748
 6423         hx    231    ccc     H4   6423 0.11303300   1.008000   ; qtot 231.218781
 6424         hx    231    ccc     H5   6424 0.11303300   1.008000   ; qtot 231.331814
 6425         n4    231    ccc     N2   6425 -0.67056700  14.010000   ; qtot 230.661247
 6426         c3    231    ccc     C3   6426 0.10863300  12.010000   ; qtot 230.769880
 6427         c3    231    ccc     C4   6427 0.10863300  12.010000   ; qtot 230.878513
 6428         hx    231    ccc     H6   6428 0.12753300   1.008000   ; qtot 231.006046
 6429         c3    231    ccc     C5   6429 -0.20606700  12.010000   ; qtot 230.799979
 6430         hx    231    ccc     H7   6430 0.12753300   1.008000   ; qtot 230.927512
 6431         hc    231    ccc     H8   6431 0.10603300   1.008000   ; qtot 231.033545
 6432         hc    231    ccc     H9   6432 0.10603300   1.008000   ; qtot 231.139578
 6433          c    231    ccc     C6   6433 0.63793300  12.010000   ; qtot 231.777511
 6434         oh    231    ccc     O1   6434 -0.53626700  16.000000   ; qtot 231.241244
 6435          o    231    ccc     O2   6435 -0.48266700  16.000000   ; qtot 230.758577
 6436         hx    231    ccc    H10   6436 0.12753300   1.008000   ; qtot 230.886110
 6437         hx    231    ccc    H11   6437 0.12753300   1.008000   ; qtot 231.013643
 6438         c3    231    ccc     C7   6438 -0.20606700  12.010000   ; qtot 230.807576
 6439         hc    231    ccc    H12   6439 0.10603300   1.008000   ; qtot 230.913609
 6440         hc    231    ccc    H13   6440 0.10603300   1.008000   ; qtot 231.019642
 6441          c    231    ccc     C8   6441 0.63793300  12.010000   ; qtot 231.657575
 6442          o    231    ccc     O3   6442 -0.48266700  16.000000   ; qtot 231.174908
 6443         oh    231    ccc     O4   6443 -0.53626700  16.000000   ; qtot 230.638641
 6444         ho    231    ccc    H14   6444 0.45283300   1.008000   ; qtot 231.091474
 6445         ho    231    ccc    H15   6445 0.45283300   1.008000   ; qtot 231.544307
 6446         hn    231    ccc    H16   6446 0.45463300   1.008000   ; qtot 231.998940
; residue  232 ccc rtp ccc q 1.0
 6447          n    232    ccc     N1   6447 -0.56206700  14.010000   ; qtot 231.436873
 6448         hn    232    ccc     H1   6448 0.35233300   1.008000   ; qtot 231.789206
 6449         c3    232    ccc     C1   6449 0.10283300  12.010000   ; qtot 231.892039
 6450         h1    232    ccc     H2   6450 0.07153300   1.008000   ; qtot 231.963572
 6451         c3    232    ccc     C2   6451 0.07063300  12.010000   ; qtot 232.034205
 6452         h1    232    ccc     H3   6452 0.07153300   1.008000   ; qtot 232.105738
 6453         hx    232    ccc     H4   6453 0.11303300   1.008000   ; qtot 232.218771
 6454         hx    232    ccc     H5   6454 0.11303300   1.008000   ; qtot 232.331804
 6455         n4    232    ccc     N2   6455 -0.67056700  14.010000   ; qtot 231.661237
 6456         c3    232    ccc     C3   6456 0.10863300  12.010000   ; qtot 231.769870
 6457         c3    232    ccc     C4   6457 0.10863300  12.010000   ; qtot 231.878503
 6458         hx    232    ccc     H6   6458 0.12753300   1.008000   ; qtot 232.006036
 6459         c3    232    ccc     C5   6459 -0.20606700  12.010000   ; qtot 231.799969
 6460         hx    232    ccc     H7   6460 0.12753300   1.008000   ; qtot 231.927502
 6461         hc    232    ccc     H8   6461 0.10603300   1.008000   ; qtot 232.033535
 6462         hc    232    ccc     H9   6462 0.10603300   1.008000   ; qtot 232.139568
 6463          c    232    ccc     C6   6463 0.63793300  12.010000   ; qtot 232.777501
 6464         oh    232    ccc     O1   6464 -0.53626700  16.000000   ; qtot 232.241234
 6465          o    232    ccc     O2   6465 -0.48266700  16.000000   ; qtot 231.758567
 6466         hx    232    ccc    H10   6466 0.12753300   1.008000   ; qtot 231.886100
 6467         hx    232    ccc    H11   6467 0.12753300   1.008000   ; qtot 232.013633
 6468         c3    232    ccc     C7   6468 -0.20606700  12.010000   ; qtot 231.807566
 6469         hc    232    ccc    H12   6469 0.10603300   1.008000   ; qtot 231.913599
 6470         hc    232    ccc    H13   6470 0.10603300   1.008000   ; qtot 232.019632
 6471          c    232    ccc     C8   6471 0.63793300  12.010000   ; qtot 232.657565
 6472          o    232    ccc     O3   6472 -0.48266700  16.000000   ; qtot 232.174898
 6473         oh    232    ccc     O4   6473 -0.53626700  16.000000   ; qtot 231.638631
 6474         ho    232    ccc    H14   6474 0.45283300   1.008000   ; qtot 232.091464
 6475         ho    232    ccc    H15   6475 0.45283300   1.008000   ; qtot 232.544297
 6476         hn    232    ccc    H16   6476 0.45463300   1.008000   ; qtot 232.998930
; residue  233 ccc rtp ccc q 1.0
 6477          n    233    ccc     N1   6477 -0.56206700  14.010000   ; qtot 232.436863
 6478         hn    233    ccc     H1   6478 0.35233300   1.008000   ; qtot 232.789196
 6479         c3    233    ccc     C1   6479 0.10283300  12.010000   ; qtot 232.892029
 6480         h1    233    ccc     H2   6480 0.07153300   1.008000   ; qtot 232.963562
 6481         c3    233    ccc     C2   6481 0.07063300  12.010000   ; qtot 233.034195
 6482         h1    233    ccc     H3   6482 0.07153300   1.008000   ; qtot 233.105728
 6483         hx    233    ccc     H4   6483 0.11303300   1.008000   ; qtot 233.218761
 6484         hx    233    ccc     H5   6484 0.11303300   1.008000   ; qtot 233.331794
 6485         n4    233    ccc     N2   6485 -0.67056700  14.010000   ; qtot 232.661227
 6486         c3    233    ccc     C3   6486 0.10863300  12.010000   ; qtot 232.769860
 6487         c3    233    ccc     C4   6487 0.10863300  12.010000   ; qtot 232.878493
 6488         hx    233    ccc     H6   6488 0.12753300   1.008000   ; qtot 233.006026
 6489         c3    233    ccc     C5   6489 -0.20606700  12.010000   ; qtot 232.799959
 6490         hx    233    ccc     H7   6490 0.12753300   1.008000   ; qtot 232.927492
 6491         hc    233    ccc     H8   6491 0.10603300   1.008000   ; qtot 233.033525
 6492         hc    233    ccc     H9   6492 0.10603300   1.008000   ; qtot 233.139558
 6493          c    233    ccc     C6   6493 0.63793300  12.010000   ; qtot 233.777491
 6494         oh    233    ccc     O1   6494 -0.53626700  16.000000   ; qtot 233.241224
 6495          o    233    ccc     O2   6495 -0.48266700  16.000000   ; qtot 232.758557
 6496         hx    233    ccc    H10   6496 0.12753300   1.008000   ; qtot 232.886090
 6497         hx    233    ccc    H11   6497 0.12753300   1.008000   ; qtot 233.013623
 6498         c3    233    ccc     C7   6498 -0.20606700  12.010000   ; qtot 232.807556
 6499         hc    233    ccc    H12   6499 0.10603300   1.008000   ; qtot 232.913589
 6500         hc    233    ccc    H13   6500 0.10603300   1.008000   ; qtot 233.019622
 6501          c    233    ccc     C8   6501 0.63793300  12.010000   ; qtot 233.657555
 6502          o    233    ccc     O3   6502 -0.48266700  16.000000   ; qtot 233.174888
 6503         oh    233    ccc     O4   6503 -0.53626700  16.000000   ; qtot 232.638621
 6504         ho    233    ccc    H14   6504 0.45283300   1.008000   ; qtot 233.091454
 6505         ho    233    ccc    H15   6505 0.45283300   1.008000   ; qtot 233.544287
 6506         hn    233    ccc    H16   6506 0.45463300   1.008000   ; qtot 233.998920
; residue  234 ccc rtp ccc q 1.0
 6507          n    234    ccc     N1   6507 -0.56206700  14.010000   ; qtot 233.436853
 6508         hn    234    ccc     H1   6508 0.35233300   1.008000   ; qtot 233.789186
 6509         c3    234    ccc     C1   6509 0.10283300  12.010000   ; qtot 233.892019
 6510         h1    234    ccc     H2   6510 0.07153300   1.008000   ; qtot 233.963552
 6511         c3    234    ccc     C2   6511 0.07063300  12.010000   ; qtot 234.034185
 6512         h1    234    ccc     H3   6512 0.07153300   1.008000   ; qtot 234.105718
 6513         hx    234    ccc     H4   6513 0.11303300   1.008000   ; qtot 234.218751
 6514         hx    234    ccc     H5   6514 0.11303300   1.008000   ; qtot 234.331784
 6515         n4    234    ccc     N2   6515 -0.67056700  14.010000   ; qtot 233.661217
 6516         c3    234    ccc     C3   6516 0.10863300  12.010000   ; qtot 233.769850
 6517         c3    234    ccc     C4   6517 0.10863300  12.010000   ; qtot 233.878483
 6518         hx    234    ccc     H6   6518 0.12753300   1.008000   ; qtot 234.006016
 6519         c3    234    ccc     C5   6519 -0.20606700  12.010000   ; qtot 233.799949
 6520         hx    234    ccc     H7   6520 0.12753300   1.008000   ; qtot 233.927482
 6521         hc    234    ccc     H8   6521 0.10603300   1.008000   ; qtot 234.033515
 6522         hc    234    ccc     H9   6522 0.10603300   1.008000   ; qtot 234.139548
 6523          c    234    ccc     C6   6523 0.63793300  12.010000   ; qtot 234.777481
 6524         oh    234    ccc     O1   6524 -0.53626700  16.000000   ; qtot 234.241214
 6525          o    234    ccc     O2   6525 -0.48266700  16.000000   ; qtot 233.758547
 6526         hx    234    ccc    H10   6526 0.12753300   1.008000   ; qtot 233.886080
 6527         hx    234    ccc    H11   6527 0.12753300   1.008000   ; qtot 234.013613
 6528         c3    234    ccc     C7   6528 -0.20606700  12.010000   ; qtot 233.807546
 6529         hc    234    ccc    H12   6529 0.10603300   1.008000   ; qtot 233.913579
 6530         hc    234    ccc    H13   6530 0.10603300   1.008000   ; qtot 234.019612
 6531          c    234    ccc     C8   6531 0.63793300  12.010000   ; qtot 234.657545
 6532          o    234    ccc     O3   6532 -0.48266700  16.000000   ; qtot 234.174878
 6533         oh    234    ccc     O4   6533 -0.53626700  16.000000   ; qtot 233.638611
 6534         ho    234    ccc    H14   6534 0.45283300   1.008000   ; qtot 234.091444
 6535         ho    234    ccc    H15   6535 0.45283300   1.008000   ; qtot 234.544277
 6536         hn    234    ccc    H16   6536 0.45463300   1.008000   ; qtot 234.998910
; residue  235 ccc rtp ccc q 1.0
 6537          n    235    ccc     N1   6537 -0.56206700  14.010000   ; qtot 234.436843
 6538         hn    235    ccc     H1   6538 0.35233300   1.008000   ; qtot 234.789176
 6539         c3    235    ccc     C1   6539 0.10283300  12.010000   ; qtot 234.892009
 6540         h1    235    ccc     H2   6540 0.07153300   1.008000   ; qtot 234.963542
 6541         c3    235    ccc     C2   6541 0.07063300  12.010000   ; qtot 235.034175
 6542         h1    235    ccc     H3   6542 0.07153300   1.008000   ; qtot 235.105708
 6543         hx    235    ccc     H4   6543 0.11303300   1.008000   ; qtot 235.218741
 6544         hx    235    ccc     H5   6544 0.11303300   1.008000   ; qtot 235.331774
 6545         n4    235    ccc     N2   6545 -0.67056700  14.010000   ; qtot 234.661207
 6546         c3    235    ccc     C3   6546 0.10863300  12.010000   ; qtot 234.769840
 6547         c3    235    ccc     C4   6547 0.10863300  12.010000   ; qtot 234.878473
 6548         hx    235    ccc     H6   6548 0.12753300   1.008000   ; qtot 235.006006
 6549         c3    235    ccc     C5   6549 -0.20606700  12.010000   ; qtot 234.799939
 6550         hx    235    ccc     H7   6550 0.12753300   1.008000   ; qtot 234.927472
 6551         hc    235    ccc     H8   6551 0.10603300   1.008000   ; qtot 235.033505
 6552         hc    235    ccc     H9   6552 0.10603300   1.008000   ; qtot 235.139538
 6553          c    235    ccc     C6   6553 0.63793300  12.010000   ; qtot 235.777471
 6554         oh    235    ccc     O1   6554 -0.53626700  16.000000   ; qtot 235.241204
 6555          o    235    ccc     O2   6555 -0.48266700  16.000000   ; qtot 234.758537
 6556         hx    235    ccc    H10   6556 0.12753300   1.008000   ; qtot 234.886070
 6557         hx    235    ccc    H11   6557 0.12753300   1.008000   ; qtot 235.013603
 6558         c3    235    ccc     C7   6558 -0.20606700  12.010000   ; qtot 234.807536
 6559         hc    235    ccc    H12   6559 0.10603300   1.008000   ; qtot 234.913569
 6560         hc    235    ccc    H13   6560 0.10603300   1.008000   ; qtot 235.019602
 6561          c    235    ccc     C8   6561 0.63793300  12.010000   ; qtot 235.657535
 6562          o    235    ccc     O3   6562 -0.48266700  16.000000   ; qtot 235.174868
 6563         oh    235    ccc     O4   6563 -0.53626700  16.000000   ; qtot 234.638601
 6564         ho    235    ccc    H14   6564 0.45283300   1.008000   ; qtot 235.091434
 6565         ho    235    ccc    H15   6565 0.45283300   1.008000   ; qtot 235.544267
 6566         hn    235    ccc    H16   6566 0.45463300   1.008000   ; qtot 235.998900
; residue  236 ccc rtp ccc q 1.0
 6567          n    236    ccc     N1   6567 -0.56206700  14.010000   ; qtot 235.436833
 6568         hn    236    ccc     H1   6568 0.35233300   1.008000   ; qtot 235.789166
 6569         c3    236    ccc     C1   6569 0.10283300  12.010000   ; qtot 235.891999
 6570         h1    236    ccc     H2   6570 0.07153300   1.008000   ; qtot 235.963532
 6571         c3    236    ccc     C2   6571 0.07063300  12.010000   ; qtot 236.034165
 6572         h1    236    ccc     H3   6572 0.07153300   1.008000   ; qtot 236.105698
 6573         hx    236    ccc     H4   6573 0.11303300   1.008000   ; qtot 236.218731
 6574         hx    236    ccc     H5   6574 0.11303300   1.008000   ; qtot 236.331764
 6575         n4    236    ccc     N2   6575 -0.67056700  14.010000   ; qtot 235.661197
 6576         c3    236    ccc     C3   6576 0.10863300  12.010000   ; qtot 235.769830
 6577         c3    236    ccc     C4   6577 0.10863300  12.010000   ; qtot 235.878463
 6578         hx    236    ccc     H6   6578 0.12753300   1.008000   ; qtot 236.005996
 6579         c3    236    ccc     C5   6579 -0.20606700  12.010000   ; qtot 235.799929
 6580         hx    236    ccc     H7   6580 0.12753300   1.008000   ; qtot 235.927462
 6581         hc    236    ccc     H8   6581 0.10603300   1.008000   ; qtot 236.033495
 6582         hc    236    ccc     H9   6582 0.10603300   1.008000   ; qtot 236.139528
 6583          c    236    ccc     C6   6583 0.63793300  12.010000   ; qtot 236.777461
 6584         oh    236    ccc     O1   6584 -0.53626700  16.000000   ; qtot 236.241194
 6585          o    236    ccc     O2   6585 -0.48266700  16.000000   ; qtot 235.758527
 6586         hx    236    ccc    H10   6586 0.12753300   1.008000   ; qtot 235.886060
 6587         hx    236    ccc    H11   6587 0.12753300   1.008000   ; qtot 236.013593
 6588         c3    236    ccc     C7   6588 -0.20606700  12.010000   ; qtot 235.807526
 6589         hc    236    ccc    H12   6589 0.10603300   1.008000   ; qtot 235.913559
 6590         hc    236    ccc    H13   6590 0.10603300   1.008000   ; qtot 236.019592
 6591          c    236    ccc     C8   6591 0.63793300  12.010000   ; qtot 236.657525
 6592          o    236    ccc     O3   6592 -0.48266700  16.000000   ; qtot 236.174858
 6593         oh    236    ccc     O4   6593 -0.53626700  16.000000   ; qtot 235.638591
 6594         ho    236    ccc    H14   6594 0.45283300   1.008000   ; qtot 236.091424
 6595         ho    236    ccc    H15   6595 0.45283300   1.008000   ; qtot 236.544257
 6596         hn    236    ccc    H16   6596 0.45463300   1.008000   ; qtot 236.998890
; residue  237 ccc rtp ccc q 1.0
 6597          n    237    ccc     N1   6597 -0.56206700  14.010000   ; qtot 236.436823
 6598         hn    237    ccc     H1   6598 0.35233300   1.008000   ; qtot 236.789156
 6599         c3    237    ccc     C1   6599 0.10283300  12.010000   ; qtot 236.891989
 6600         h1    237    ccc     H2   6600 0.07153300   1.008000   ; qtot 236.963522
 6601         c3    237    ccc     C2   6601 0.07063300  12.010000   ; qtot 237.034155
 6602         h1    237    ccc     H3   6602 0.07153300   1.008000   ; qtot 237.105688
 6603         hx    237    ccc     H4   6603 0.11303300   1.008000   ; qtot 237.218721
 6604         hx    237    ccc     H5   6604 0.11303300   1.008000   ; qtot 237.331754
 6605         n4    237    ccc     N2   6605 -0.67056700  14.010000   ; qtot 236.661187
 6606         c3    237    ccc     C3   6606 0.10863300  12.010000   ; qtot 236.769820
 6607         c3    237    ccc     C4   6607 0.10863300  12.010000   ; qtot 236.878453
 6608         hx    237    ccc     H6   6608 0.12753300   1.008000   ; qtot 237.005986
 6609         c3    237    ccc     C5   6609 -0.20606700  12.010000   ; qtot 236.799919
 6610         hx    237    ccc     H7   6610 0.12753300   1.008000   ; qtot 236.927452
 6611         hc    237    ccc     H8   6611 0.10603300   1.008000   ; qtot 237.033485
 6612         hc    237    ccc     H9   6612 0.10603300   1.008000   ; qtot 237.139518
 6613          c    237    ccc     C6   6613 0.63793300  12.010000   ; qtot 237.777451
 6614         oh    237    ccc     O1   6614 -0.53626700  16.000000   ; qtot 237.241184
 6615          o    237    ccc     O2   6615 -0.48266700  16.000000   ; qtot 236.758517
 6616         hx    237    ccc    H10   6616 0.12753300   1.008000   ; qtot 236.886050
 6617         hx    237    ccc    H11   6617 0.12753300   1.008000   ; qtot 237.013583
 6618         c3    237    ccc     C7   6618 -0.20606700  12.010000   ; qtot 236.807516
 6619         hc    237    ccc    H12   6619 0.10603300   1.008000   ; qtot 236.913549
 6620         hc    237    ccc    H13   6620 0.10603300   1.008000   ; qtot 237.019582
 6621          c    237    ccc     C8   6621 0.63793300  12.010000   ; qtot 237.657515
 6622          o    237    ccc     O3   6622 -0.48266700  16.000000   ; qtot 237.174848
 6623         oh    237    ccc     O4   6623 -0.53626700  16.000000   ; qtot 236.638581
 6624         ho    237    ccc    H14   6624 0.45283300   1.008000   ; qtot 237.091414
 6625         ho    237    ccc    H15   6625 0.45283300   1.008000   ; qtot 237.544247
 6626         hn    237    ccc    H16   6626 0.45463300   1.008000   ; qtot 237.998880
; residue  238 ccc rtp ccc q 1.0
 6627          n    238    ccc     N1   6627 -0.56206700  14.010000   ; qtot 237.436813
 6628         hn    238    ccc     H1   6628 0.35233300   1.008000   ; qtot 237.789146
 6629         c3    238    ccc     C1   6629 0.10283300  12.010000   ; qtot 237.891979
 6630         h1    238    ccc     H2   6630 0.07153300   1.008000   ; qtot 237.963512
 6631         c3    238    ccc     C2   6631 0.07063300  12.010000   ; qtot 238.034145
 6632         h1    238    ccc     H3   6632 0.07153300   1.008000   ; qtot 238.105678
 6633         hx    238    ccc     H4   6633 0.11303300   1.008000   ; qtot 238.218711
 6634         hx    238    ccc     H5   6634 0.11303300   1.008000   ; qtot 238.331744
 6635         n4    238    ccc     N2   6635 -0.67056700  14.010000   ; qtot 237.661177
 6636         c3    238    ccc     C3   6636 0.10863300  12.010000   ; qtot 237.769810
 6637         c3    238    ccc     C4   6637 0.10863300  12.010000   ; qtot 237.878443
 6638         hx    238    ccc     H6   6638 0.12753300   1.008000   ; qtot 238.005976
 6639         c3    238    ccc     C5   6639 -0.20606700  12.010000   ; qtot 237.799909
 6640         hx    238    ccc     H7   6640 0.12753300   1.008000   ; qtot 237.927442
 6641         hc    238    ccc     H8   6641 0.10603300   1.008000   ; qtot 238.033475
 6642         hc    238    ccc     H9   6642 0.10603300   1.008000   ; qtot 238.139508
 6643          c    238    ccc     C6   6643 0.63793300  12.010000   ; qtot 238.777441
 6644         oh    238    ccc     O1   6644 -0.53626700  16.000000   ; qtot 238.241174
 6645          o    238    ccc     O2   6645 -0.48266700  16.000000   ; qtot 237.758507
 6646         hx    238    ccc    H10   6646 0.12753300   1.008000   ; qtot 237.886040
 6647         hx    238    ccc    H11   6647 0.12753300   1.008000   ; qtot 238.013573
 6648         c3    238    ccc     C7   6648 -0.20606700  12.010000   ; qtot 237.807506
 6649         hc    238    ccc    H12   6649 0.10603300   1.008000   ; qtot 237.913539
 6650         hc    238    ccc    H13   6650 0.10603300   1.008000   ; qtot 238.019572
 6651          c    238    ccc     C8   6651 0.63793300  12.010000   ; qtot 238.657505
 6652          o    238    ccc     O3   6652 -0.48266700  16.000000   ; qtot 238.174838
 6653         oh    238    ccc     O4   6653 -0.53626700  16.000000   ; qtot 237.638571
 6654         ho    238    ccc    H14   6654 0.45283300   1.008000   ; qtot 238.091404
 6655         ho    238    ccc    H15   6655 0.45283300   1.008000   ; qtot 238.544237
 6656         hn    238    ccc    H16   6656 0.45463300   1.008000   ; qtot 238.998870
; residue  239 ccc rtp ccc q 1.0
 6657          n    239    ccc     N1   6657 -0.56206700  14.010000   ; qtot 238.436803
 6658         hn    239    ccc     H1   6658 0.35233300   1.008000   ; qtot 238.789136
 6659         c3    239    ccc     C1   6659 0.10283300  12.010000   ; qtot 238.891969
 6660         h1    239    ccc     H2   6660 0.07153300   1.008000   ; qtot 238.963502
 6661         c3    239    ccc     C2   6661 0.07063300  12.010000   ; qtot 239.034135
 6662         h1    239    ccc     H3   6662 0.07153300   1.008000   ; qtot 239.105668
 6663         hx    239    ccc     H4   6663 0.11303300   1.008000   ; qtot 239.218701
 6664         hx    239    ccc     H5   6664 0.11303300   1.008000   ; qtot 239.331734
 6665         n4    239    ccc     N2   6665 -0.67056700  14.010000   ; qtot 238.661167
 6666         c3    239    ccc     C3   6666 0.10863300  12.010000   ; qtot 238.769800
 6667         c3    239    ccc     C4   6667 0.10863300  12.010000   ; qtot 238.878433
 6668         hx    239    ccc     H6   6668 0.12753300   1.008000   ; qtot 239.005966
 6669         c3    239    ccc     C5   6669 -0.20606700  12.010000   ; qtot 238.799899
 6670         hx    239    ccc     H7   6670 0.12753300   1.008000   ; qtot 238.927432
 6671         hc    239    ccc     H8   6671 0.10603300   1.008000   ; qtot 239.033465
 6672         hc    239    ccc     H9   6672 0.10603300   1.008000   ; qtot 239.139498
 6673          c    239    ccc     C6   6673 0.63793300  12.010000   ; qtot 239.777431
 6674         oh    239    ccc     O1   6674 -0.53626700  16.000000   ; qtot 239.241164
 6675          o    239    ccc     O2   6675 -0.48266700  16.000000   ; qtot 238.758497
 6676         hx    239    ccc    H10   6676 0.12753300   1.008000   ; qtot 238.886030
 6677         hx    239    ccc    H11   6677 0.12753300   1.008000   ; qtot 239.013563
 6678         c3    239    ccc     C7   6678 -0.20606700  12.010000   ; qtot 238.807496
 6679         hc    239    ccc    H12   6679 0.10603300   1.008000   ; qtot 238.913529
 6680         hc    239    ccc    H13   6680 0.10603300   1.008000   ; qtot 239.019562
 6681          c    239    ccc     C8   6681 0.63793300  12.010000   ; qtot 239.657495
 6682          o    239    ccc     O3   6682 -0.48266700  16.000000   ; qtot 239.174828
 6683         oh    239    ccc     O4   6683 -0.53626700  16.000000   ; qtot 238.638561
 6684         ho    239    ccc    H14   6684 0.45283300   1.008000   ; qtot 239.091394
 6685         ho    239    ccc    H15   6685 0.45283300   1.008000   ; qtot 239.544227
 6686         hn    239    ccc    H16   6686 0.45463300   1.008000   ; qtot 239.998860
; residue  240 ccc rtp ccc q 1.0
 6687          n    240    ccc     N1   6687 -0.56206700  14.010000   ; qtot 239.436793
 6688         hn    240    ccc     H1   6688 0.35233300   1.008000   ; qtot 239.789126
 6689         c3    240    ccc     C1   6689 0.10283300  12.010000   ; qtot 239.891959
 6690         h1    240    ccc     H2   6690 0.07153300   1.008000   ; qtot 239.963492
 6691         c3    240    ccc     C2   6691 0.07063300  12.010000   ; qtot 240.034125
 6692         h1    240    ccc     H3   6692 0.07153300   1.008000   ; qtot 240.105658
 6693         hx    240    ccc     H4   6693 0.11303300   1.008000   ; qtot 240.218691
 6694         hx    240    ccc     H5   6694 0.11303300   1.008000   ; qtot 240.331724
 6695         n4    240    ccc     N2   6695 -0.67056700  14.010000   ; qtot 239.661157
 6696         c3    240    ccc     C3   6696 0.10863300  12.010000   ; qtot 239.769790
 6697         c3    240    ccc     C4   6697 0.10863300  12.010000   ; qtot 239.878423
 6698         hx    240    ccc     H6   6698 0.12753300   1.008000   ; qtot 240.005956
 6699         c3    240    ccc     C5   6699 -0.20606700  12.010000   ; qtot 239.799889
 6700         hx    240    ccc     H7   6700 0.12753300   1.008000   ; qtot 239.927422
 6701         hc    240    ccc     H8   6701 0.10603300   1.008000   ; qtot 240.033455
 6702         hc    240    ccc     H9   6702 0.10603300   1.008000   ; qtot 240.139488
 6703          c    240    ccc     C6   6703 0.63793300  12.010000   ; qtot 240.777421
 6704         oh    240    ccc     O1   6704 -0.53626700  16.000000   ; qtot 240.241154
 6705          o    240    ccc     O2   6705 -0.48266700  16.000000   ; qtot 239.758487
 6706         hx    240    ccc    H10   6706 0.12753300   1.008000   ; qtot 239.886020
 6707         hx    240    ccc    H11   6707 0.12753300   1.008000   ; qtot 240.013553
 6708         c3    240    ccc     C7   6708 -0.20606700  12.010000   ; qtot 239.807486
 6709         hc    240    ccc    H12   6709 0.10603300   1.008000   ; qtot 239.913519
 6710         hc    240    ccc    H13   6710 0.10603300   1.008000   ; qtot 240.019552
 6711          c    240    ccc     C8   6711 0.63793300  12.010000   ; qtot 240.657485
 6712          o    240    ccc     O3   6712 -0.48266700  16.000000   ; qtot 240.174818
 6713         oh    240    ccc     O4   6713 -0.53626700  16.000000   ; qtot 239.638551
 6714         ho    240    ccc    H14   6714 0.45283300   1.008000   ; qtot 240.091384
 6715         ho    240    ccc    H15   6715 0.45283300   1.008000   ; qtot 240.544217
 6716         hn    240    ccc    H16   6716 0.45463300   1.008000   ; qtot 240.998850
; residue  241 ccc rtp ccc q 1.0
 6717          n    241    ccc     N1   6717 -0.56206700  14.010000   ; qtot 240.436783
 6718         hn    241    ccc     H1   6718 0.35233300   1.008000   ; qtot 240.789116
 6719         c3    241    ccc     C1   6719 0.10283300  12.010000   ; qtot 240.891949
 6720         h1    241    ccc     H2   6720 0.07153300   1.008000   ; qtot 240.963482
 6721         c3    241    ccc     C2   6721 0.07063300  12.010000   ; qtot 241.034115
 6722         h1    241    ccc     H3   6722 0.07153300   1.008000   ; qtot 241.105648
 6723         hx    241    ccc     H4   6723 0.11303300   1.008000   ; qtot 241.218681
 6724         hx    241    ccc     H5   6724 0.11303300   1.008000   ; qtot 241.331714
 6725         n4    241    ccc     N2   6725 -0.67056700  14.010000   ; qtot 240.661147
 6726         c3    241    ccc     C3   6726 0.10863300  12.010000   ; qtot 240.769780
 6727         c3    241    ccc     C4   6727 0.10863300  12.010000   ; qtot 240.878413
 6728         hx    241    ccc     H6   6728 0.12753300   1.008000   ; qtot 241.005946
 6729         c3    241    ccc     C5   6729 -0.20606700  12.010000   ; qtot 240.799879
 6730         hx    241    ccc     H7   6730 0.12753300   1.008000   ; qtot 240.927412
 6731         hc    241    ccc     H8   6731 0.10603300   1.008000   ; qtot 241.033445
 6732         hc    241    ccc     H9   6732 0.10603300   1.008000   ; qtot 241.139478
 6733          c    241    ccc     C6   6733 0.63793300  12.010000   ; qtot 241.777411
 6734         oh    241    ccc     O1   6734 -0.53626700  16.000000   ; qtot 241.241144
 6735          o    241    ccc     O2   6735 -0.48266700  16.000000   ; qtot 240.758477
 6736         hx    241    ccc    H10   6736 0.12753300   1.008000   ; qtot 240.886010
 6737         hx    241    ccc    H11   6737 0.12753300   1.008000   ; qtot 241.013543
 6738         c3    241    ccc     C7   6738 -0.20606700  12.010000   ; qtot 240.807476
 6739         hc    241    ccc    H12   6739 0.10603300   1.008000   ; qtot 240.913509
 6740         hc    241    ccc    H13   6740 0.10603300   1.008000   ; qtot 241.019542
 6741          c    241    ccc     C8   6741 0.63793300  12.010000   ; qtot 241.657475
 6742          o    241    ccc     O3   6742 -0.48266700  16.000000   ; qtot 241.174808
 6743         oh    241    ccc     O4   6743 -0.53626700  16.000000   ; qtot 240.638541
 6744         ho    241    ccc    H14   6744 0.45283300   1.008000   ; qtot 241.091374
 6745         ho    241    ccc    H15   6745 0.45283300   1.008000   ; qtot 241.544207
 6746         hn    241    ccc    H16   6746 0.45463300   1.008000   ; qtot 241.998840
; residue  242 ccc rtp ccc q 1.0
 6747          n    242    ccc     N1   6747 -0.56206700  14.010000   ; qtot 241.436773
 6748         hn    242    ccc     H1   6748 0.35233300   1.008000   ; qtot 241.789106
 6749         c3    242    ccc     C1   6749 0.10283300  12.010000   ; qtot 241.891939
 6750         h1    242    ccc     H2   6750 0.07153300   1.008000   ; qtot 241.963472
 6751         c3    242    ccc     C2   6751 0.07063300  12.010000   ; qtot 242.034105
 6752         h1    242    ccc     H3   6752 0.07153300   1.008000   ; qtot 242.105638
 6753         hx    242    ccc     H4   6753 0.11303300   1.008000   ; qtot 242.218671
 6754         hx    242    ccc     H5   6754 0.11303300   1.008000   ; qtot 242.331704
 6755         n4    242    ccc     N2   6755 -0.67056700  14.010000   ; qtot 241.661137
 6756         c3    242    ccc     C3   6756 0.10863300  12.010000   ; qtot 241.769770
 6757         c3    242    ccc     C4   6757 0.10863300  12.010000   ; qtot 241.878403
 6758         hx    242    ccc     H6   6758 0.12753300   1.008000   ; qtot 242.005936
 6759         c3    242    ccc     C5   6759 -0.20606700  12.010000   ; qtot 241.799869
 6760         hx    242    ccc     H7   6760 0.12753300   1.008000   ; qtot 241.927402
 6761         hc    242    ccc     H8   6761 0.10603300   1.008000   ; qtot 242.033435
 6762         hc    242    ccc     H9   6762 0.10603300   1.008000   ; qtot 242.139468
 6763          c    242    ccc     C6   6763 0.63793300  12.010000   ; qtot 242.777401
 6764         oh    242    ccc     O1   6764 -0.53626700  16.000000   ; qtot 242.241134
 6765          o    242    ccc     O2   6765 -0.48266700  16.000000   ; qtot 241.758467
 6766         hx    242    ccc    H10   6766 0.12753300   1.008000   ; qtot 241.886000
 6767         hx    242    ccc    H11   6767 0.12753300   1.008000   ; qtot 242.013533
 6768         c3    242    ccc     C7   6768 -0.20606700  12.010000   ; qtot 241.807466
 6769         hc    242    ccc    H12   6769 0.10603300   1.008000   ; qtot 241.913499
 6770         hc    242    ccc    H13   6770 0.10603300   1.008000   ; qtot 242.019532
 6771          c    242    ccc     C8   6771 0.63793300  12.010000   ; qtot 242.657465
 6772          o    242    ccc     O3   6772 -0.48266700  16.000000   ; qtot 242.174798
 6773         oh    242    ccc     O4   6773 -0.53626700  16.000000   ; qtot 241.638531
 6774         ho    242    ccc    H14   6774 0.45283300   1.008000   ; qtot 242.091364
 6775         ho    242    ccc    H15   6775 0.45283300   1.008000   ; qtot 242.544197
 6776         hn    242    ccc    H16   6776 0.45463300   1.008000   ; qtot 242.998830
; residue  243 ccc rtp ccc q 1.0
 6777          n    243    ccc     N1   6777 -0.56206700  14.010000   ; qtot 242.436763
 6778         hn    243    ccc     H1   6778 0.35233300   1.008000   ; qtot 242.789096
 6779         c3    243    ccc     C1   6779 0.10283300  12.010000   ; qtot 242.891929
 6780         h1    243    ccc     H2   6780 0.07153300   1.008000   ; qtot 242.963462
 6781         c3    243    ccc     C2   6781 0.07063300  12.010000   ; qtot 243.034095
 6782         h1    243    ccc     H3   6782 0.07153300   1.008000   ; qtot 243.105628
 6783         hx    243    ccc     H4   6783 0.11303300   1.008000   ; qtot 243.218661
 6784         hx    243    ccc     H5   6784 0.11303300   1.008000   ; qtot 243.331694
 6785         n4    243    ccc     N2   6785 -0.67056700  14.010000   ; qtot 242.661127
 6786         c3    243    ccc     C3   6786 0.10863300  12.010000   ; qtot 242.769760
 6787         c3    243    ccc     C4   6787 0.10863300  12.010000   ; qtot 242.878393
 6788         hx    243    ccc     H6   6788 0.12753300   1.008000   ; qtot 243.005926
 6789         c3    243    ccc     C5   6789 -0.20606700  12.010000   ; qtot 242.799859
 6790         hx    243    ccc     H7   6790 0.12753300   1.008000   ; qtot 242.927392
 6791         hc    243    ccc     H8   6791 0.10603300   1.008000   ; qtot 243.033425
 6792         hc    243    ccc     H9   6792 0.10603300   1.008000   ; qtot 243.139458
 6793          c    243    ccc     C6   6793 0.63793300  12.010000   ; qtot 243.777391
 6794         oh    243    ccc     O1   6794 -0.53626700  16.000000   ; qtot 243.241124
 6795          o    243    ccc     O2   6795 -0.48266700  16.000000   ; qtot 242.758457
 6796         hx    243    ccc    H10   6796 0.12753300   1.008000   ; qtot 242.885990
 6797         hx    243    ccc    H11   6797 0.12753300   1.008000   ; qtot 243.013523
 6798         c3    243    ccc     C7   6798 -0.20606700  12.010000   ; qtot 242.807456
 6799         hc    243    ccc    H12   6799 0.10603300   1.008000   ; qtot 242.913489
 6800         hc    243    ccc    H13   6800 0.10603300   1.008000   ; qtot 243.019522
 6801          c    243    ccc     C8   6801 0.63793300  12.010000   ; qtot 243.657455
 6802          o    243    ccc     O3   6802 -0.48266700  16.000000   ; qtot 243.174788
 6803         oh    243    ccc     O4   6803 -0.53626700  16.000000   ; qtot 242.638521
 6804         ho    243    ccc    H14   6804 0.45283300   1.008000   ; qtot 243.091354
 6805         ho    243    ccc    H15   6805 0.45283300   1.008000   ; qtot 243.544187
 6806         hn    243    ccc    H16   6806 0.45463300   1.008000   ; qtot 243.998820
; residue  244 ccc rtp ccc q 1.0
 6807          n    244    ccc     N1   6807 -0.56206700  14.010000   ; qtot 243.436753
 6808         hn    244    ccc     H1   6808 0.35233300   1.008000   ; qtot 243.789086
 6809         c3    244    ccc     C1   6809 0.10283300  12.010000   ; qtot 243.891919
 6810         h1    244    ccc     H2   6810 0.07153300   1.008000   ; qtot 243.963452
 6811         c3    244    ccc     C2   6811 0.07063300  12.010000   ; qtot 244.034085
 6812         h1    244    ccc     H3   6812 0.07153300   1.008000   ; qtot 244.105618
 6813         hx    244    ccc     H4   6813 0.11303300   1.008000   ; qtot 244.218651
 6814         hx    244    ccc     H5   6814 0.11303300   1.008000   ; qtot 244.331684
 6815         n4    244    ccc     N2   6815 -0.67056700  14.010000   ; qtot 243.661117
 6816         c3    244    ccc     C3   6816 0.10863300  12.010000   ; qtot 243.769750
 6817         c3    244    ccc     C4   6817 0.10863300  12.010000   ; qtot 243.878383
 6818         hx    244    ccc     H6   6818 0.12753300   1.008000   ; qtot 244.005916
 6819         c3    244    ccc     C5   6819 -0.20606700  12.010000   ; qtot 243.799849
 6820         hx    244    ccc     H7   6820 0.12753300   1.008000   ; qtot 243.927382
 6821         hc    244    ccc     H8   6821 0.10603300   1.008000   ; qtot 244.033415
 6822         hc    244    ccc     H9   6822 0.10603300   1.008000   ; qtot 244.139448
 6823          c    244    ccc     C6   6823 0.63793300  12.010000   ; qtot 244.777381
 6824         oh    244    ccc     O1   6824 -0.53626700  16.000000   ; qtot 244.241114
 6825          o    244    ccc     O2   6825 -0.48266700  16.000000   ; qtot 243.758447
 6826         hx    244    ccc    H10   6826 0.12753300   1.008000   ; qtot 243.885980
 6827         hx    244    ccc    H11   6827 0.12753300   1.008000   ; qtot 244.013513
 6828         c3    244    ccc     C7   6828 -0.20606700  12.010000   ; qtot 243.807446
 6829         hc    244    ccc    H12   6829 0.10603300   1.008000   ; qtot 243.913479
 6830         hc    244    ccc    H13   6830 0.10603300   1.008000   ; qtot 244.019512
 6831          c    244    ccc     C8   6831 0.63793300  12.010000   ; qtot 244.657445
 6832          o    244    ccc     O3   6832 -0.48266700  16.000000   ; qtot 244.174778
 6833         oh    244    ccc     O4   6833 -0.53626700  16.000000   ; qtot 243.638511
 6834         ho    244    ccc    H14   6834 0.45283300   1.008000   ; qtot 244.091344
 6835         ho    244    ccc    H15   6835 0.45283300   1.008000   ; qtot 244.544177
 6836         hn    244    ccc    H16   6836 0.45463300   1.008000   ; qtot 244.998810
; residue  245 ccc rtp ccc q 1.0
 6837          n    245    ccc     N1   6837 -0.56206700  14.010000   ; qtot 244.436743
 6838         hn    245    ccc     H1   6838 0.35233300   1.008000   ; qtot 244.789076
 6839         c3    245    ccc     C1   6839 0.10283300  12.010000   ; qtot 244.891909
 6840         h1    245    ccc     H2   6840 0.07153300   1.008000   ; qtot 244.963442
 6841         c3    245    ccc     C2   6841 0.07063300  12.010000   ; qtot 245.034075
 6842         h1    245    ccc     H3   6842 0.07153300   1.008000   ; qtot 245.105608
 6843         hx    245    ccc     H4   6843 0.11303300   1.008000   ; qtot 245.218641
 6844         hx    245    ccc     H5   6844 0.11303300   1.008000   ; qtot 245.331674
 6845         n4    245    ccc     N2   6845 -0.67056700  14.010000   ; qtot 244.661107
 6846         c3    245    ccc     C3   6846 0.10863300  12.010000   ; qtot 244.769740
 6847         c3    245    ccc     C4   6847 0.10863300  12.010000   ; qtot 244.878373
 6848         hx    245    ccc     H6   6848 0.12753300   1.008000   ; qtot 245.005906
 6849         c3    245    ccc     C5   6849 -0.20606700  12.010000   ; qtot 244.799839
 6850         hx    245    ccc     H7   6850 0.12753300   1.008000   ; qtot 244.927372
 6851         hc    245    ccc     H8   6851 0.10603300   1.008000   ; qtot 245.033405
 6852         hc    245    ccc     H9   6852 0.10603300   1.008000   ; qtot 245.139438
 6853          c    245    ccc     C6   6853 0.63793300  12.010000   ; qtot 245.777371
 6854         oh    245    ccc     O1   6854 -0.53626700  16.000000   ; qtot 245.241104
 6855          o    245    ccc     O2   6855 -0.48266700  16.000000   ; qtot 244.758437
 6856         hx    245    ccc    H10   6856 0.12753300   1.008000   ; qtot 244.885970
 6857         hx    245    ccc    H11   6857 0.12753300   1.008000   ; qtot 245.013503
 6858         c3    245    ccc     C7   6858 -0.20606700  12.010000   ; qtot 244.807436
 6859         hc    245    ccc    H12   6859 0.10603300   1.008000   ; qtot 244.913469
 6860         hc    245    ccc    H13   6860 0.10603300   1.008000   ; qtot 245.019502
 6861          c    245    ccc     C8   6861 0.63793300  12.010000   ; qtot 245.657435
 6862          o    245    ccc     O3   6862 -0.48266700  16.000000   ; qtot 245.174768
 6863         oh    245    ccc     O4   6863 -0.53626700  16.000000   ; qtot 244.638501
 6864         ho    245    ccc    H14   6864 0.45283300   1.008000   ; qtot 245.091334
 6865         ho    245    ccc    H15   6865 0.45283300   1.008000   ; qtot 245.544167
 6866         hn    245    ccc    H16   6866 0.45463300   1.008000   ; qtot 245.998800
; residue  246 ccc rtp ccc q 1.0
 6867          n    246    ccc     N1   6867 -0.56206700  14.010000   ; qtot 245.436733
 6868         hn    246    ccc     H1   6868 0.35233300   1.008000   ; qtot 245.789066
 6869         c3    246    ccc     C1   6869 0.10283300  12.010000   ; qtot 245.891899
 6870         h1    246    ccc     H2   6870 0.07153300   1.008000   ; qtot 245.963432
 6871         c3    246    ccc     C2   6871 0.07063300  12.010000   ; qtot 246.034065
 6872         h1    246    ccc     H3   6872 0.07153300   1.008000   ; qtot 246.105598
 6873         hx    246    ccc     H4   6873 0.11303300   1.008000   ; qtot 246.218631
 6874         hx    246    ccc     H5   6874 0.11303300   1.008000   ; qtot 246.331664
 6875         n4    246    ccc     N2   6875 -0.67056700  14.010000   ; qtot 245.661097
 6876         c3    246    ccc     C3   6876 0.10863300  12.010000   ; qtot 245.769730
 6877         c3    246    ccc     C4   6877 0.10863300  12.010000   ; qtot 245.878363
 6878         hx    246    ccc     H6   6878 0.12753300   1.008000   ; qtot 246.005896
 6879         c3    246    ccc     C5   6879 -0.20606700  12.010000   ; qtot 245.799829
 6880         hx    246    ccc     H7   6880 0.12753300   1.008000   ; qtot 245.927362
 6881         hc    246    ccc     H8   6881 0.10603300   1.008000   ; qtot 246.033395
 6882         hc    246    ccc     H9   6882 0.10603300   1.008000   ; qtot 246.139428
 6883          c    246    ccc     C6   6883 0.63793300  12.010000   ; qtot 246.777361
 6884         oh    246    ccc     O1   6884 -0.53626700  16.000000   ; qtot 246.241094
 6885          o    246    ccc     O2   6885 -0.48266700  16.000000   ; qtot 245.758427
 6886         hx    246    ccc    H10   6886 0.12753300   1.008000   ; qtot 245.885960
 6887         hx    246    ccc    H11   6887 0.12753300   1.008000   ; qtot 246.013493
 6888         c3    246    ccc     C7   6888 -0.20606700  12.010000   ; qtot 245.807426
 6889         hc    246    ccc    H12   6889 0.10603300   1.008000   ; qtot 245.913459
 6890         hc    246    ccc    H13   6890 0.10603300   1.008000   ; qtot 246.019492
 6891          c    246    ccc     C8   6891 0.63793300  12.010000   ; qtot 246.657425
 6892          o    246    ccc     O3   6892 -0.48266700  16.000000   ; qtot 246.174758
 6893         oh    246    ccc     O4   6893 -0.53626700  16.000000   ; qtot 245.638491
 6894         ho    246    ccc    H14   6894 0.45283300   1.008000   ; qtot 246.091324
 6895         ho    246    ccc    H15   6895 0.45283300   1.008000   ; qtot 246.544157
 6896         hn    246    ccc    H16   6896 0.45463300   1.008000   ; qtot 246.998790
; residue  247 ccc rtp ccc q 1.0
 6897          n    247    ccc     N1   6897 -0.56206700  14.010000   ; qtot 246.436723
 6898         hn    247    ccc     H1   6898 0.35233300   1.008000   ; qtot 246.789056
 6899         c3    247    ccc     C1   6899 0.10283300  12.010000   ; qtot 246.891889
 6900         h1    247    ccc     H2   6900 0.07153300   1.008000   ; qtot 246.963422
 6901         c3    247    ccc     C2   6901 0.07063300  12.010000   ; qtot 247.034055
 6902         h1    247    ccc     H3   6902 0.07153300   1.008000   ; qtot 247.105588
 6903         hx    247    ccc     H4   6903 0.11303300   1.008000   ; qtot 247.218621
 6904         hx    247    ccc     H5   6904 0.11303300   1.008000   ; qtot 247.331654
 6905         n4    247    ccc     N2   6905 -0.67056700  14.010000   ; qtot 246.661087
 6906         c3    247    ccc     C3   6906 0.10863300  12.010000   ; qtot 246.769720
 6907         c3    247    ccc     C4   6907 0.10863300  12.010000   ; qtot 246.878353
 6908         hx    247    ccc     H6   6908 0.12753300   1.008000   ; qtot 247.005886
 6909         c3    247    ccc     C5   6909 -0.20606700  12.010000   ; qtot 246.799819
 6910         hx    247    ccc     H7   6910 0.12753300   1.008000   ; qtot 246.927352
 6911         hc    247    ccc     H8   6911 0.10603300   1.008000   ; qtot 247.033385
 6912         hc    247    ccc     H9   6912 0.10603300   1.008000   ; qtot 247.139418
 6913          c    247    ccc     C6   6913 0.63793300  12.010000   ; qtot 247.777351
 6914         oh    247    ccc     O1   6914 -0.53626700  16.000000   ; qtot 247.241084
 6915          o    247    ccc     O2   6915 -0.48266700  16.000000   ; qtot 246.758417
 6916         hx    247    ccc    H10   6916 0.12753300   1.008000   ; qtot 246.885950
 6917         hx    247    ccc    H11   6917 0.12753300   1.008000   ; qtot 247.013483
 6918         c3    247    ccc     C7   6918 -0.20606700  12.010000   ; qtot 246.807416
 6919         hc    247    ccc    H12   6919 0.10603300   1.008000   ; qtot 246.913449
 6920         hc    247    ccc    H13   6920 0.10603300   1.008000   ; qtot 247.019482
 6921          c    247    ccc     C8   6921 0.63793300  12.010000   ; qtot 247.657415
 6922          o    247    ccc     O3   6922 -0.48266700  16.000000   ; qtot 247.174748
 6923         oh    247    ccc     O4   6923 -0.53626700  16.000000   ; qtot 246.638481
 6924         ho    247    ccc    H14   6924 0.45283300   1.008000   ; qtot 247.091314
 6925         ho    247    ccc    H15   6925 0.45283300   1.008000   ; qtot 247.544147
 6926         hn    247    ccc    H16   6926 0.45463300   1.008000   ; qtot 247.998780
; residue  248 ccc rtp ccc q 1.0
 6927          n    248    ccc     N1   6927 -0.56206700  14.010000   ; qtot 247.436713
 6928         hn    248    ccc     H1   6928 0.35233300   1.008000   ; qtot 247.789046
 6929         c3    248    ccc     C1   6929 0.10283300  12.010000   ; qtot 247.891879
 6930         h1    248    ccc     H2   6930 0.07153300   1.008000   ; qtot 247.963412
 6931         c3    248    ccc     C2   6931 0.07063300  12.010000   ; qtot 248.034045
 6932         h1    248    ccc     H3   6932 0.07153300   1.008000   ; qtot 248.105578
 6933         hx    248    ccc     H4   6933 0.11303300   1.008000   ; qtot 248.218611
 6934         hx    248    ccc     H5   6934 0.11303300   1.008000   ; qtot 248.331644
 6935         n4    248    ccc     N2   6935 -0.67056700  14.010000   ; qtot 247.661077
 6936         c3    248    ccc     C3   6936 0.10863300  12.010000   ; qtot 247.769710
 6937         c3    248    ccc     C4   6937 0.10863300  12.010000   ; qtot 247.878343
 6938         hx    248    ccc     H6   6938 0.12753300   1.008000   ; qtot 248.005876
 6939         c3    248    ccc     C5   6939 -0.20606700  12.010000   ; qtot 247.799809
 6940         hx    248    ccc     H7   6940 0.12753300   1.008000   ; qtot 247.927342
 6941         hc    248    ccc     H8   6941 0.10603300   1.008000   ; qtot 248.033375
 6942         hc    248    ccc     H9   6942 0.10603300   1.008000   ; qtot 248.139408
 6943          c    248    ccc     C6   6943 0.63793300  12.010000   ; qtot 248.777341
 6944         oh    248    ccc     O1   6944 -0.53626700  16.000000   ; qtot 248.241074
 6945          o    248    ccc     O2   6945 -0.48266700  16.000000   ; qtot 247.758407
 6946         hx    248    ccc    H10   6946 0.12753300   1.008000   ; qtot 247.885940
 6947         hx    248    ccc    H11   6947 0.12753300   1.008000   ; qtot 248.013473
 6948         c3    248    ccc     C7   6948 -0.20606700  12.010000   ; qtot 247.807406
 6949         hc    248    ccc    H12   6949 0.10603300   1.008000   ; qtot 247.913439
 6950         hc    248    ccc    H13   6950 0.10603300   1.008000   ; qtot 248.019472
 6951          c    248    ccc     C8   6951 0.63793300  12.010000   ; qtot 248.657405
 6952          o    248    ccc     O3   6952 -0.48266700  16.000000   ; qtot 248.174738
 6953         oh    248    ccc     O4   6953 -0.53626700  16.000000   ; qtot 247.638471
 6954         ho    248    ccc    H14   6954 0.45283300   1.008000   ; qtot 248.091304
 6955         ho    248    ccc    H15   6955 0.45283300   1.008000   ; qtot 248.544137
 6956         hn    248    ccc    H16   6956 0.45463300   1.008000   ; qtot 248.998770
; residue  249 ccc rtp ccc q 1.0
 6957          n    249    ccc     N1   6957 -0.56206700  14.010000   ; qtot 248.436703
 6958         hn    249    ccc     H1   6958 0.35233300   1.008000   ; qtot 248.789036
 6959         c3    249    ccc     C1   6959 0.10283300  12.010000   ; qtot 248.891869
 6960         h1    249    ccc     H2   6960 0.07153300   1.008000   ; qtot 248.963402
 6961         c3    249    ccc     C2   6961 0.07063300  12.010000   ; qtot 249.034035
 6962         h1    249    ccc     H3   6962 0.07153300   1.008000   ; qtot 249.105568
 6963         hx    249    ccc     H4   6963 0.11303300   1.008000   ; qtot 249.218601
 6964         hx    249    ccc     H5   6964 0.11303300   1.008000   ; qtot 249.331634
 6965         n4    249    ccc     N2   6965 -0.67056700  14.010000   ; qtot 248.661067
 6966         c3    249    ccc     C3   6966 0.10863300  12.010000   ; qtot 248.769700
 6967         c3    249    ccc     C4   6967 0.10863300  12.010000   ; qtot 248.878334
 6968         hx    249    ccc     H6   6968 0.12753300   1.008000   ; qtot 249.005867
 6969         c3    249    ccc     C5   6969 -0.20606700  12.010000   ; qtot 248.799800
 6970         hx    249    ccc     H7   6970 0.12753300   1.008000   ; qtot 248.927333
 6971         hc    249    ccc     H8   6971 0.10603300   1.008000   ; qtot 249.033366
 6972         hc    249    ccc     H9   6972 0.10603300   1.008000   ; qtot 249.139399
 6973          c    249    ccc     C6   6973 0.63793300  12.010000   ; qtot 249.777332
 6974         oh    249    ccc     O1   6974 -0.53626700  16.000000   ; qtot 249.241065
 6975          o    249    ccc     O2   6975 -0.48266700  16.000000   ; qtot 248.758398
 6976         hx    249    ccc    H10   6976 0.12753300   1.008000   ; qtot 248.885931
 6977         hx    249    ccc    H11   6977 0.12753300   1.008000   ; qtot 249.013464
 6978         c3    249    ccc     C7   6978 -0.20606700  12.010000   ; qtot 248.807397
 6979         hc    249    ccc    H12   6979 0.10603300   1.008000   ; qtot 248.913430
 6980         hc    249    ccc    H13   6980 0.10603300   1.008000   ; qtot 249.019463
 6981          c    249    ccc     C8   6981 0.63793300  12.010000   ; qtot 249.657396
 6982          o    249    ccc     O3   6982 -0.48266700  16.000000   ; qtot 249.174729
 6983         oh    249    ccc     O4   6983 -0.53626700  16.000000   ; qtot 248.638462
 6984         ho    249    ccc    H14   6984 0.45283300   1.008000   ; qtot 249.091295
 6985         ho    249    ccc    H15   6985 0.45283300   1.008000   ; qtot 249.544128
 6986         hn    249    ccc    H16   6986 0.45463300   1.008000   ; qtot 249.998761
; residue  250 ccc rtp ccc q 1.0
 6987          n    250    ccc     N1   6987 -0.56206700  14.010000   ; qtot 249.436694
 6988         hn    250    ccc     H1   6988 0.35233300   1.008000   ; qtot 249.789027
 6989         c3    250    ccc     C1   6989 0.10283300  12.010000   ; qtot 249.891860
 6990         h1    250    ccc     H2   6990 0.07153300   1.008000   ; qtot 249.963393
 6991         c3    250    ccc     C2   6991 0.07063300  12.010000   ; qtot 250.034026
 6992         h1    250    ccc     H3   6992 0.07153300   1.008000   ; qtot 250.105559
 6993         hx    250    ccc     H4   6993 0.11303300   1.008000   ; qtot 250.218592
 6994         hx    250    ccc     H5   6994 0.11303300   1.008000   ; qtot 250.331625
 6995         n4    250    ccc     N2   6995 -0.67056700  14.010000   ; qtot 249.661058
 6996         c3    250    ccc     C3   6996 0.10863300  12.010000   ; qtot 249.769691
 6997         c3    250    ccc     C4   6997 0.10863300  12.010000   ; qtot 249.878324
 6998         hx    250    ccc     H6   6998 0.12753300   1.008000   ; qtot 250.005857
 6999         c3    250    ccc     C5   6999 -0.20606700  12.010000   ; qtot 249.799790
 7000         hx    250    ccc     H7   7000 0.12753300   1.008000   ; qtot 249.927323
 7001         hc    250    ccc     H8   7001 0.10603300   1.008000   ; qtot 250.033356
 7002         hc    250    ccc     H9   7002 0.10603300   1.008000   ; qtot 250.139389
 7003          c    250    ccc     C6   7003 0.63793300  12.010000   ; qtot 250.777322
 7004         oh    250    ccc     O1   7004 -0.53626700  16.000000   ; qtot 250.241055
 7005          o    250    ccc     O2   7005 -0.48266700  16.000000   ; qtot 249.758388
 7006         hx    250    ccc    H10   7006 0.12753300   1.008000   ; qtot 249.885921
 7007         hx    250    ccc    H11   7007 0.12753300   1.008000   ; qtot 250.013454
 7008         c3    250    ccc     C7   7008 -0.20606700  12.010000   ; qtot 249.807387
 7009         hc    250    ccc    H12   7009 0.10603300   1.008000   ; qtot 249.913420
 7010         hc    250    ccc    H13   7010 0.10603300   1.008000   ; qtot 250.019453
 7011          c    250    ccc     C8   7011 0.63793300  12.010000   ; qtot 250.657386
 7012          o    250    ccc     O3   7012 -0.48266700  16.000000   ; qtot 250.174719
 7013         oh    250    ccc     O4   7013 -0.53626700  16.000000   ; qtot 249.638452
 7014         ho    250    ccc    H14   7014 0.45283300   1.008000   ; qtot 250.091285
 7015         ho    250    ccc    H15   7015 0.45283300   1.008000   ; qtot 250.544118
 7016         hn    250    ccc    H16   7016 0.45463300   1.008000   ; qtot 250.998751
; residue  251 ccc rtp ccc q 1.0
 7017          n    251    ccc     N1   7017 -0.56206700  14.010000   ; qtot 250.436684
 7018         hn    251    ccc     H1   7018 0.35233300   1.008000   ; qtot 250.789017
 7019         c3    251    ccc     C1   7019 0.10283300  12.010000   ; qtot 250.891850
 7020         h1    251    ccc     H2   7020 0.07153300   1.008000   ; qtot 250.963383
 7021         c3    251    ccc     C2   7021 0.07063300  12.010000   ; qtot 251.034016
 7022         h1    251    ccc     H3   7022 0.07153300   1.008000   ; qtot 251.105549
 7023         hx    251    ccc     H4   7023 0.11303300   1.008000   ; qtot 251.218582
 7024         hx    251    ccc     H5   7024 0.11303300   1.008000   ; qtot 251.331615
 7025         n4    251    ccc     N2   7025 -0.67056700  14.010000   ; qtot 250.661048
 7026         c3    251    ccc     C3   7026 0.10863300  12.010000   ; qtot 250.769681
 7027         c3    251    ccc     C4   7027 0.10863300  12.010000   ; qtot 250.878314
 7028         hx    251    ccc     H6   7028 0.12753300   1.008000   ; qtot 251.005847
 7029         c3    251    ccc     C5   7029 -0.20606700  12.010000   ; qtot 250.799780
 7030         hx    251    ccc     H7   7030 0.12753300   1.008000   ; qtot 250.927313
 7031         hc    251    ccc     H8   7031 0.10603300   1.008000   ; qtot 251.033346
 7032         hc    251    ccc     H9   7032 0.10603300   1.008000   ; qtot 251.139379
 7033          c    251    ccc     C6   7033 0.63793300  12.010000   ; qtot 251.777312
 7034         oh    251    ccc     O1   7034 -0.53626700  16.000000   ; qtot 251.241045
 7035          o    251    ccc     O2   7035 -0.48266700  16.000000   ; qtot 250.758378
 7036         hx    251    ccc    H10   7036 0.12753300   1.008000   ; qtot 250.885911
 7037         hx    251    ccc    H11   7037 0.12753300   1.008000   ; qtot 251.013444
 7038         c3    251    ccc     C7   7038 -0.20606700  12.010000   ; qtot 250.807377
 7039         hc    251    ccc    H12   7039 0.10603300   1.008000   ; qtot 250.913410
 7040         hc    251    ccc    H13   7040 0.10603300   1.008000   ; qtot 251.019443
 7041          c    251    ccc     C8   7041 0.63793300  12.010000   ; qtot 251.657376
 7042          o    251    ccc     O3   7042 -0.48266700  16.000000   ; qtot 251.174709
 7043         oh    251    ccc     O4   7043 -0.53626700  16.000000   ; qtot 250.638442
 7044         ho    251    ccc    H14   7044 0.45283300   1.008000   ; qtot 251.091275
 7045         ho    251    ccc    H15   7045 0.45283300   1.008000   ; qtot 251.544108
 7046         hn    251    ccc    H16   7046 0.45463300   1.008000   ; qtot 251.998741
; residue  252 ccc rtp ccc q 1.0
 7047          n    252    ccc     N1   7047 -0.56206700  14.010000   ; qtot 251.436674
 7048         hn    252    ccc     H1   7048 0.35233300   1.008000   ; qtot 251.789007
 7049         c3    252    ccc     C1   7049 0.10283300  12.010000   ; qtot 251.891840
 7050         h1    252    ccc     H2   7050 0.07153300   1.008000   ; qtot 251.963373
 7051         c3    252    ccc     C2   7051 0.07063300  12.010000   ; qtot 252.034006
 7052         h1    252    ccc     H3   7052 0.07153300   1.008000   ; qtot 252.105539
 7053         hx    252    ccc     H4   7053 0.11303300   1.008000   ; qtot 252.218572
 7054         hx    252    ccc     H5   7054 0.11303300   1.008000   ; qtot 252.331605
 7055         n4    252    ccc     N2   7055 -0.67056700  14.010000   ; qtot 251.661038
 7056         c3    252    ccc     C3   7056 0.10863300  12.010000   ; qtot 251.769671
 7057         c3    252    ccc     C4   7057 0.10863300  12.010000   ; qtot 251.878304
 7058         hx    252    ccc     H6   7058 0.12753300   1.008000   ; qtot 252.005837
 7059         c3    252    ccc     C5   7059 -0.20606700  12.010000   ; qtot 251.799770
 7060         hx    252    ccc     H7   7060 0.12753300   1.008000   ; qtot 251.927303
 7061         hc    252    ccc     H8   7061 0.10603300   1.008000   ; qtot 252.033336
 7062         hc    252    ccc     H9   7062 0.10603300   1.008000   ; qtot 252.139369
 7063          c    252    ccc     C6   7063 0.63793300  12.010000   ; qtot 252.777302
 7064         oh    252    ccc     O1   7064 -0.53626700  16.000000   ; qtot 252.241035
 7065          o    252    ccc     O2   7065 -0.48266700  16.000000   ; qtot 251.758368
 7066         hx    252    ccc    H10   7066 0.12753300   1.008000   ; qtot 251.885901
 7067         hx    252    ccc    H11   7067 0.12753300   1.008000   ; qtot 252.013434
 7068         c3    252    ccc     C7   7068 -0.20606700  12.010000   ; qtot 251.807367
 7069         hc    252    ccc    H12   7069 0.10603300   1.008000   ; qtot 251.913400
 7070         hc    252    ccc    H13   7070 0.10603300   1.008000   ; qtot 252.019433
 7071          c    252    ccc     C8   7071 0.63793300  12.010000   ; qtot 252.657366
 7072          o    252    ccc     O3   7072 -0.48266700  16.000000   ; qtot 252.174699
 7073         oh    252    ccc     O4   7073 -0.53626700  16.000000   ; qtot 251.638432
 7074         ho    252    ccc    H14   7074 0.45283300   1.008000   ; qtot 252.091265
 7075         ho    252    ccc    H15   7075 0.45283300   1.008000   ; qtot 252.544098
 7076         hn    252    ccc    H16   7076 0.45463300   1.008000   ; qtot 252.998731
; residue  253 ccc rtp ccc q 1.0
 7077          n    253    ccc     N1   7077 -0.56206700  14.010000   ; qtot 252.436664
 7078         hn    253    ccc     H1   7078 0.35233300   1.008000   ; qtot 252.788997
 7079         c3    253    ccc     C1   7079 0.10283300  12.010000   ; qtot 252.891830
 7080         h1    253    ccc     H2   7080 0.07153300   1.008000   ; qtot 252.963363
 7081         c3    253    ccc     C2   7081 0.07063300  12.010000   ; qtot 253.033996
 7082         h1    253    ccc     H3   7082 0.07153300   1.008000   ; qtot 253.105529
 7083         hx    253    ccc     H4   7083 0.11303300   1.008000   ; qtot 253.218562
 7084         hx    253    ccc     H5   7084 0.11303300   1.008000   ; qtot 253.331595
 7085         n4    253    ccc     N2   7085 -0.67056700  14.010000   ; qtot 252.661028
 7086         c3    253    ccc     C3   7086 0.10863300  12.010000   ; qtot 252.769661
 7087         c3    253    ccc     C4   7087 0.10863300  12.010000   ; qtot 252.878294
 7088         hx    253    ccc     H6   7088 0.12753300   1.008000   ; qtot 253.005827
 7089         c3    253    ccc     C5   7089 -0.20606700  12.010000   ; qtot 252.799760
 7090         hx    253    ccc     H7   7090 0.12753300   1.008000   ; qtot 252.927293
 7091         hc    253    ccc     H8   7091 0.10603300   1.008000   ; qtot 253.033326
 7092         hc    253    ccc     H9   7092 0.10603300   1.008000   ; qtot 253.139359
 7093          c    253    ccc     C6   7093 0.63793300  12.010000   ; qtot 253.777292
 7094         oh    253    ccc     O1   7094 -0.53626700  16.000000   ; qtot 253.241025
 7095          o    253    ccc     O2   7095 -0.48266700  16.000000   ; qtot 252.758358
 7096         hx    253    ccc    H10   7096 0.12753300   1.008000   ; qtot 252.885891
 7097         hx    253    ccc    H11   7097 0.12753300   1.008000   ; qtot 253.013424
 7098         c3    253    ccc     C7   7098 -0.20606700  12.010000   ; qtot 252.807357
 7099         hc    253    ccc    H12   7099 0.10603300   1.008000   ; qtot 252.913390
 7100         hc    253    ccc    H13   7100 0.10603300   1.008000   ; qtot 253.019423
 7101          c    253    ccc     C8   7101 0.63793300  12.010000   ; qtot 253.657356
 7102          o    253    ccc     O3   7102 -0.48266700  16.000000   ; qtot 253.174689
 7103         oh    253    ccc     O4   7103 -0.53626700  16.000000   ; qtot 252.638422
 7104         ho    253    ccc    H14   7104 0.45283300   1.008000   ; qtot 253.091255
 7105         ho    253    ccc    H15   7105 0.45283300   1.008000   ; qtot 253.544088
 7106         hn    253    ccc    H16   7106 0.45463300   1.008000   ; qtot 253.998721

[ bonds ]
;    ai     aj funct         c0         c1         c2         c3
      1      2     1   0.15110 237065.440000
      1      7     1   0.15110 237065.440000
      1      8     1   0.15110 237065.440000
      2      3     1   0.15375 251793.120000
      3      4     1   0.15110 237065.440000
      4      5     1   0.15110 237065.440000
      4      6     1   0.15110 237065.440000
      5     11     1   0.15375 251793.120000
      6      9     1   0.15375 251793.120000
      7     13     1   0.15375 251793.120000
      8     15     1   0.15375 251793.120000
      9     10     1   0.15241 261918.400000
     10     18     1   0.12183 533627.360000
     10     52     1   0.13789 357815.680000
     11     12     1   0.15241 261918.400000
     12     17     1   0.12183 533627.360000
     12     78     1   0.13789 357815.680000
     13     14     1   0.15241 261918.400000
     14     20     1   0.12183 533627.360000
     14    104     1   0.13789 357815.680000
     15     16     1   0.15241 261918.400000
     16     19     1   0.12183 533627.360000
     16    130     1   0.13789 357815.680000
     43     44     1   0.15110 237065.440000
     43     45     1   0.15110 237065.440000
     43     50     1   0.15110 237065.440000
     44     46     1   0.15375 251793.120000
     45     48     1   0.15375 251793.120000
     46     47     1   0.15241 261918.400000
     47     53     1   0.12183 533627.360000
     47    156     1   0.13789 357815.680000
     48     49     1   0.15241 261918.400000
     49     54     1   0.12183 533627.360000
     49    182     1   0.13789 357815.680000
     50     51     1   0.15375 251793.120000
     51     52     1   0.14619 275056.160000
     69     70     1   0.15110 237065.440000
     69     71     1   0.15110 237065.440000
     69     76     1   0.15110 237065.440000
     70     72     1   0.15375 251793.120000
     71     74     1   0.15375 251793.120000
     72     73     1   0.15241 261918.400000
     73     79     1   0.12183 533627.360000
     73    208     1   0.13789 357815.680000
     74     75     1   0.15241 261918.400000
     75     80     1   0.12183 533627.360000
     75    234     1   0.13789 357815.680000
     76     77     1   0.15375 251793.120000
     77     78     1   0.14619 275056.160000
     95     96     1   0.15110 237065.440000
     95     97     1   0.15110 237065.440000
     95    102     1   0.15110 237065.440000
     96     98     1   0.15375 251793.120000
     97    100     1   0.15375 251793.120000
     98     99     1   0.15241 261918.400000
     99    105     1   0.12183 533627.360000
     99    260     1   0.13789 357815.680000
    100    101     1   0.15241 261918.400000
    101    106     1   0.12183 533627.360000
    101    286     1   0.13789 357815.680000
    102    103     1   0.15375 251793.120000
    103    104     1   0.14619 275056.160000
    121    122     1   0.15110 237065.440000
    121    123     1   0.15110 237065.440000
    121    128     1   0.15110 237065.440000
    122    124     1   0.15375 251793.120000
    123    126     1   0.15375 251793.120000
    124    125     1   0.15241 261918.400000
    125    131     1   0.12183 533627.360000
    125    312     1   0.13789 357815.680000
    126    127     1   0.15241 261918.400000
    127    132     1   0.12183 533627.360000
    127    338     1   0.13789 357815.680000
    128    129     1   0.15375 251793.120000
    129    130     1   0.14619 275056.160000
    147    148     1   0.15110 237065.440000
    147    149     1   0.15110 237065.440000
    147    154     1   0.15110 237065.440000
    148    150     1   0.15375 251793.120000
    149    152     1   0.15375 251793.120000
    150    151     1   0.15241 261918.400000
    151    157     1   0.12183 533627.360000
    151    364     1   0.13789 357815.680000
    152    153     1   0.15241 261918.400000
    153    158     1   0.12183 533627.360000
    153    390     1   0.13789 357815.680000
    154    155     1   0.15375 251793.120000
    155    156     1   0.14619 275056.160000
    173    174     1   0.15110 237065.440000
    173    175     1   0.15110 237065.440000
    173    180     1   0.15110 237065.440000
    174    176     1   0.15375 251793.120000
    175    178     1   0.15375 251793.120000
    176    177     1   0.15241 261918.400000
    177    183     1   0.12183 533627.360000
    177    416     1   0.13789 357815.680000
    178    179     1   0.15241 261918.400000
    179    184     1   0.12183 533627.360000
    179    442     1   0.13789 357815.680000
    180    181     1   0.15375 251793.120000
    181    182     1   0.14619 275056.160000
    199    200     1   0.15110 237065.440000
    199    201     1   0.15110 237065.440000
    199    206     1   0.15110 237065.440000
    200    202     1   0.15375 251793.120000
    201    204     1   0.15375 251793.120000
    202    203     1   0.15241 261918.400000
    203    209     1   0.12183 533627.360000
    203    468     1   0.13789 357815.680000
    204    205     1   0.15241 261918.400000
    205    210     1   0.12183 533627.360000
    205    494     1   0.13789 357815.680000
    206    207     1   0.15375 251793.120000
    207    208     1   0.14619 275056.160000
    225    226     1   0.15110 237065.440000
    225    227     1   0.15110 237065.440000
    225    232     1   0.15110 237065.440000
    226    228     1   0.15375 251793.120000
    227    230     1   0.15375 251793.120000
    228    229     1   0.15241 261918.400000
    229    235     1   0.12183 533627.360000
    229    520     1   0.13789 357815.680000
    230    231     1   0.15241 261918.400000
    231    236     1   0.12183 533627.360000
    231    546     1   0.13789 357815.680000
    232    233     1   0.15375 251793.120000
    233    234     1   0.14619 275056.160000
    251    252     1   0.15110 237065.440000
    251    253     1   0.15110 237065.440000
    251    258     1   0.15110 237065.440000
    252    254     1   0.15375 251793.120000
    253    256     1   0.15375 251793.120000
    254    255     1   0.15241 261918.400000
    255    261     1   0.12183 533627.360000
    255    572     1   0.13789 357815.680000
    256    257     1   0.15241 261918.400000
    257    262     1   0.12183 533627.360000
    257    598     1   0.13789 357815.680000
    258    259     1   0.15375 251793.120000
    259    260     1   0.14619 275056.160000
    277    278     1   0.15110 237065.440000
    277    279     1   0.15110 237065.440000
    277    284     1   0.15110 237065.440000
    278    280     1   0.15375 251793.120000
    279    282     1   0.15375 251793.120000
    280    281     1   0.15241 261918.400000
    281    287     1   0.12183 533627.360000
    281    624     1   0.13789 357815.680000
    282    283     1   0.15241 261918.400000
    283    288     1   0.12183 533627.360000
    283    650     1   0.13789 357815.680000
    284    285     1   0.15375 251793.120000
    285    286     1   0.14619 275056.160000
    303    304     1   0.15110 237065.440000
    303    305     1   0.15110 237065.440000
    303    310     1   0.15110 237065.440000
    304    306     1   0.15375 251793.120000
    305    308     1   0.15375 251793.120000
    306    307     1   0.15241 261918.400000
    307    313     1   0.12183 533627.360000
    307    676     1   0.13789 357815.680000
    308    309     1   0.15241 261918.400000
    309    314     1   0.12183 533627.360000
    309    702     1   0.13789 357815.680000
    310    311     1   0.15375 251793.120000
    311    312     1   0.14619 275056.160000
    329    330     1   0.15110 237065.440000
    329    331     1   0.15110 237065.440000
    329    336     1   0.15110 237065.440000
    330    332     1   0.15375 251793.120000
    331    334     1   0.15375 251793.120000
    332    333     1   0.15241 261918.400000
    333    339     1   0.12183 533627.360000
    333    728     1   0.13789 357815.680000
    334    335     1   0.15241 261918.400000
    335    340     1   0.12183 533627.360000
    335    754     1   0.13789 357815.680000
    336    337     1   0.15375 251793.120000
    337    338     1   0.14619 275056.160000
    355    356     1   0.15110 237065.440000
    355    357     1   0.15110 237065.440000
    355    362     1   0.15110 237065.440000
    356    358     1   0.15375 251793.120000
    357    360     1   0.15375 251793.120000
    358    359     1   0.15241 261918.400000
    359    365     1   0.12183 533627.360000
    359    780     1   0.13789 357815.680000
    360    361     1   0.15241 261918.400000
    361    366     1   0.12183 533627.360000
    361    806     1   0.13789 357815.680000
    362    363     1   0.15375 251793.120000
    363    364     1   0.14619 275056.160000
    381    382     1   0.15110 237065.440000
    381    383     1   0.15110 237065.440000
    381    388     1   0.15110 237065.440000
    382    384     1   0.15375 251793.120000
    383    386     1   0.15375 251793.120000
    384    385     1   0.15241 261918.400000
    385    391     1   0.12183 533627.360000
    385    832     1   0.13789 357815.680000
    386    387     1   0.15241 261918.400000
    387    392     1   0.12183 533627.360000
    387    858     1   0.13789 357815.680000
    388    389     1   0.15375 251793.120000
    389    390     1   0.14619 275056.160000
    407    408     1   0.15110 237065.440000
    407    409     1   0.15110 237065.440000
    407    414     1   0.15110 237065.440000
    408    410     1   0.15375 251793.120000
    409    412     1   0.15375 251793.120000
    410    411     1   0.15241 261918.400000
    411    417     1   0.12183 533627.360000
    411    884     1   0.13789 357815.680000
    412    413     1   0.15241 261918.400000
    413    418     1   0.12183 533627.360000
    413    910     1   0.13789 357815.680000
    414    415     1   0.15375 251793.120000
    415    416     1   0.14619 275056.160000
    433    434     1   0.15110 237065.440000
    433    435     1   0.15110 237065.440000
    433    440     1   0.15110 237065.440000
    434    436     1   0.15375 251793.120000
    435    438     1   0.15375 251793.120000
    436    437     1   0.15241 261918.400000
    437    443     1   0.12183 533627.360000
    437    936     1   0.13789 357815.680000
    438    439     1   0.15241 261918.400000
    439    444     1   0.12183 533627.360000
    439    962     1   0.13789 357815.680000
    440    441     1   0.15375 251793.120000
    441    442     1   0.14619 275056.160000
    459    460     1   0.15110 237065.440000
    459    461     1   0.15110 237065.440000
    459    466     1   0.15110 237065.440000
    460    462     1   0.15375 251793.120000
    461    464     1   0.15375 251793.120000
    462    463     1   0.15241 261918.400000
    463    469     1   0.12183 533627.360000
    463    988     1   0.13789 357815.680000
    464    465     1   0.15241 261918.400000
    465    470     1   0.12183 533627.360000
    465   1014     1   0.13789 357815.680000
    466    467     1   0.15375 251793.120000
    467    468     1   0.14619 275056.160000
    485    486     1   0.15110 237065.440000
    485    487     1   0.15110 237065.440000
    485    492     1   0.15110 237065.440000
    486    488     1   0.15375 251793.120000
    487    490     1   0.15375 251793.120000
    488    489     1   0.15241 261918.400000
    489    495     1   0.12183 533627.360000
    489   1040     1   0.13789 357815.680000
    490    491     1   0.15241 261918.400000
    491    496     1   0.12183 533627.360000
    491   1066     1   0.13789 357815.680000
    492    493     1   0.15375 251793.120000
    493    494     1   0.14619 275056.160000
    511    512     1   0.15110 237065.440000
    511    513     1   0.15110 237065.440000
    511    518     1   0.15110 237065.440000
    512    514     1   0.15375 251793.120000
    513    516     1   0.15375 251793.120000
    514    515     1   0.15241 261918.400000
    515    521     1   0.12183 533627.360000
    515   1092     1   0.13789 357815.680000
    516    517     1   0.15241 261918.400000
    517    522     1   0.12183 533627.360000
    517   1118     1   0.13789 357815.680000
    518    519     1   0.15375 251793.120000
    519    520     1   0.14619 275056.160000
    537    538     1   0.15110 237065.440000
    537    539     1   0.15110 237065.440000
    537    544     1   0.15110 237065.440000
    538    540     1   0.15375 251793.120000
    539    542     1   0.15375 251793.120000
    540    541     1   0.15241 261918.400000
    541    547     1   0.12183 533627.360000
    541   1144     1   0.13789 357815.680000
    542    543     1   0.15241 261918.400000
    543    548     1   0.12183 533627.360000
    543   1170     1   0.13789 357815.680000
    544    545     1   0.15375 251793.120000
    545    546     1   0.14619 275056.160000
    563    564     1   0.15110 237065.440000
    563    565     1   0.15110 237065.440000
    563    570     1   0.15110 237065.440000
    564    566     1   0.15375 251793.120000
    565    568     1   0.15375 251793.120000
    566    567     1   0.15241 261918.400000
    567    573     1   0.12183 533627.360000
    567   1196     1   0.13789 357815.680000
    568    569     1   0.15241 261918.400000
    569    574     1   0.12183 533627.360000
    569   1222     1   0.13789 357815.680000
    570    571     1   0.15375 251793.120000
    571    572     1   0.14619 275056.160000
    589    590     1   0.15110 237065.440000
    589    591     1   0.15110 237065.440000
    589    596     1   0.15110 237065.440000
    590    592     1   0.15375 251793.120000
    591    594     1   0.15375 251793.120000
    592    593     1   0.15241 261918.400000
    593    599     1   0.12183 533627.360000
    593   1248     1   0.13789 357815.680000
    594    595     1   0.15241 261918.400000
    595    600     1   0.12183 533627.360000
    595   1274     1   0.13789 357815.680000
    596    597     1   0.15375 251793.120000
    597    598     1   0.14619 275056.160000
    615    616     1   0.15110 237065.440000
    615    617     1   0.15110 237065.440000
    615    622     1   0.15110 237065.440000
    616    618     1   0.15375 251793.120000
    617    620     1   0.15375 251793.120000
    618    619     1   0.15241 261918.400000
    619    625     1   0.12183 533627.360000
    619   1300     1   0.13789 357815.680000
    620    621     1   0.15241 261918.400000
    621    626     1   0.12183 533627.360000
    621   1326     1   0.13789 357815.680000
    622    623     1   0.15375 251793.120000
    623    624     1   0.14619 275056.160000
    641    642     1   0.15110 237065.440000
    641    643     1   0.15110 237065.440000
    641    648     1   0.15110 237065.440000
    642    644     1   0.15375 251793.120000
    643    646     1   0.15375 251793.120000
    644    645     1   0.15241 261918.400000
    645    651     1   0.12183 533627.360000
    645   1352     1   0.13789 357815.680000
    646    647     1   0.15241 261918.400000
    647    652     1   0.12183 533627.360000
    647   1378     1   0.13789 357815.680000
    648    649     1   0.15375 251793.120000
    649    650     1   0.14619 275056.160000
    667    668     1   0.15110 237065.440000
    667    669     1   0.15110 237065.440000
    667    674     1   0.15110 237065.440000
    668    670     1   0.15375 251793.120000
    669    672     1   0.15375 251793.120000
    670    671     1   0.15241 261918.400000
    671    677     1   0.12183 533627.360000
    671   1404     1   0.13789 357815.680000
    672    673     1   0.15241 261918.400000
    673    678     1   0.12183 533627.360000
    673   1430     1   0.13789 357815.680000
    674    675     1   0.15375 251793.120000
    675    676     1   0.14619 275056.160000
    693    694     1   0.15110 237065.440000
    693    695     1   0.15110 237065.440000
    693    700     1   0.15110 237065.440000
    694    696     1   0.15375 251793.120000
    695    698     1   0.15375 251793.120000
    696    697     1   0.15241 261918.400000
    697    703     1   0.12183 533627.360000
    697   1456     1   0.13789 357815.680000
    698    699     1   0.15241 261918.400000
    699    704     1   0.12183 533627.360000
    699   1482     1   0.13789 357815.680000
    700    701     1   0.15375 251793.120000
    701    702     1   0.14619 275056.160000
    719    720     1   0.15110 237065.440000
    719    721     1   0.15110 237065.440000
    719    726     1   0.15110 237065.440000
    720    722     1   0.15375 251793.120000
    721    724     1   0.15375 251793.120000
    722    723     1   0.15241 261918.400000
    723    729     1   0.12183 533627.360000
    723   1508     1   0.13789 357815.680000
    724    725     1   0.15241 261918.400000
    725    730     1   0.12183 533627.360000
    725   1534     1   0.13789 357815.680000
    726    727     1   0.15375 251793.120000
    727    728     1   0.14619 275056.160000
    745    746     1   0.15110 237065.440000
    745    747     1   0.15110 237065.440000
    745    752     1   0.15110 237065.440000
    746    748     1   0.15375 251793.120000
    747    750     1   0.15375 251793.120000
    748    749     1   0.15241 261918.400000
    749    755     1   0.12183 533627.360000
    749   1560     1   0.13789 357815.680000
    750    751     1   0.15241 261918.400000
    751    756     1   0.12183 533627.360000
    751   1586     1   0.13789 357815.680000
    752    753     1   0.15375 251793.120000
    753    754     1   0.14619 275056.160000
    771    772     1   0.15110 237065.440000
    771    773     1   0.15110 237065.440000
    771    778     1   0.15110 237065.440000
    772    774     1   0.15375 251793.120000
    773    776     1   0.15375 251793.120000
    774    775     1   0.15241 261918.400000
    775    781     1   0.12183 533627.360000
    775   1612     1   0.13789 357815.680000
    776    777     1   0.15241 261918.400000
    777    782     1   0.12183 533627.360000
    777   1638     1   0.13789 357815.680000
    778    779     1   0.15375 251793.120000
    779    780     1   0.14619 275056.160000
    797    798     1   0.15110 237065.440000
    797    799     1   0.15110 237065.440000
    797    804     1   0.15110 237065.440000
    798    800     1   0.15375 251793.120000
    799    802     1   0.15375 251793.120000
    800    801     1   0.15241 261918.400000
    801    807     1   0.12183 533627.360000
    801   1664     1   0.13789 357815.680000
    802    803     1   0.15241 261918.400000
    803    808     1   0.12183 533627.360000
    803   1690     1   0.13789 357815.680000
    804    805     1   0.15375 251793.120000
    805    806     1   0.14619 275056.160000
    823    824     1   0.15110 237065.440000
    823    825     1   0.15110 237065.440000
    823    830     1   0.15110 237065.440000
    824    826     1   0.15375 251793.120000
    825    828     1   0.15375 251793.120000
    826    827     1   0.15241 261918.400000
    827    833     1   0.12183 533627.360000
    827   1716     1   0.13789 357815.680000
    828    829     1   0.15241 261918.400000
    829    834     1   0.12183 533627.360000
    829   1742     1   0.13789 357815.680000
    830    831     1   0.15375 251793.120000
    831    832     1   0.14619 275056.160000
    849    850     1   0.15110 237065.440000
    849    851     1   0.15110 237065.440000
    849    856     1   0.15110 237065.440000
    850    852     1   0.15375 251793.120000
    851    854     1   0.15375 251793.120000
    852    853     1   0.15241 261918.400000
    853    859     1   0.12183 533627.360000
    853   1768     1   0.13789 357815.680000
    854    855     1   0.15241 261918.400000
    855    860     1   0.12183 533627.360000
    855   1794     1   0.13789 357815.680000
    856    857     1   0.15375 251793.120000
    857    858     1   0.14619 275056.160000
    875    876     1   0.15110 237065.440000
    875    877     1   0.15110 237065.440000
    875    882     1   0.15110 237065.440000
    876    878     1   0.15375 251793.120000
    877    880     1   0.15375 251793.120000
    878    879     1   0.15241 261918.400000
    879    885     1   0.12183 533627.360000
    879   1820     1   0.13789 357815.680000
    880    881     1   0.15241 261918.400000
    881    886     1   0.12183 533627.360000
    881   1846     1   0.13789 357815.680000
    882    883     1   0.15375 251793.120000
    883    884     1   0.14619 275056.160000
    901    902     1   0.15110 237065.440000
    901    903     1   0.15110 237065.440000
    901    908     1   0.15110 237065.440000
    902    904     1   0.15375 251793.120000
    903    906     1   0.15375 251793.120000
    904    905     1   0.15241 261918.400000
    905    911     1   0.12183 533627.360000
    905   1872     1   0.13789 357815.680000
    906    907     1   0.15241 261918.400000
    907    912     1   0.12183 533627.360000
    907   1898     1   0.13789 357815.680000
    908    909     1   0.15375 251793.120000
    909    910     1   0.14619 275056.160000
    927    928     1   0.15110 237065.440000
    927    929     1   0.15110 237065.440000
    927    934     1   0.15110 237065.440000
    928    930     1   0.15375 251793.120000
    929    932     1   0.15375 251793.120000
    930    931     1   0.15241 261918.400000
    931    937     1   0.12183 533627.360000
    931   1924     1   0.13789 357815.680000
    932    933     1   0.15241 261918.400000
    933    938     1   0.12183 533627.360000
    933   1950     1   0.13789 357815.680000
    934    935     1   0.15375 251793.120000
    935    936     1   0.14619 275056.160000
    953    954     1   0.15110 237065.440000
    953    955     1   0.15110 237065.440000
    953    960     1   0.15110 237065.440000
    954    956     1   0.15375 251793.120000
    955    958     1   0.15375 251793.120000
    956    957     1   0.15241 261918.400000
    957    963     1   0.12183 533627.360000
    957   1976     1   0.13789 357815.680000
    958    959     1   0.15241 261918.400000
    959    964     1   0.12183 533627.360000
    959   2002     1   0.13789 357815.680000
    960    961     1   0.15375 251793.120000
    961    962     1   0.14619 275056.160000
    979    980     1   0.15110 237065.440000
    979    981     1   0.15110 237065.440000
    979    986     1   0.15110 237065.440000
    980    982     1   0.15375 251793.120000
    981    984     1   0.15375 251793.120000
    982    983     1   0.15241 261918.400000
    983    989     1   0.12183 533627.360000
    983   2028     1   0.13789 357815.680000
    984    985     1   0.15241 261918.400000
    985    990     1   0.12183 533627.360000
    985   2054     1   0.13789 357815.680000
    986    987     1   0.15375 251793.120000
    987    988     1   0.14619 275056.160000
   1005   1006     1   0.15110 237065.440000
   1005   1007     1   0.15110 237065.440000
   1005   1012     1   0.15110 237065.440000
   1006   1008     1   0.15375 251793.120000
   1007   1010     1   0.15375 251793.120000
   1008   1009     1   0.15241 261918.400000
   1009   1015     1   0.12183 533627.360000
   1009   2080     1   0.13789 357815.680000
   1010   1011     1   0.15241 261918.400000
   1011   1016     1   0.12183 533627.360000
   1011   2106     1   0.13789 357815.680000
   1012   1013     1   0.15375 251793.120000
   1013   1014     1   0.14619 275056.160000
   1031   1032     1   0.15110 237065.440000
   1031   1033     1   0.15110 237065.440000
   1031   1038     1   0.15110 237065.440000
   1032   1034     1   0.15375 251793.120000
   1033   1036     1   0.15375 251793.120000
   1034   1035     1   0.15241 261918.400000
   1035   1041     1   0.12183 533627.360000
   1035   2132     1   0.13789 357815.680000
   1036   1037     1   0.15241 261918.400000
   1037   1042     1   0.12183 533627.360000
   1037   2158     1   0.13789 357815.680000
   1038   1039     1   0.15375 251793.120000
   1039   1040     1   0.14619 275056.160000
   1057   1058     1   0.15110 237065.440000
   1057   1059     1   0.15110 237065.440000
   1057   1064     1   0.15110 237065.440000
   1058   1060     1   0.15375 251793.120000
   1059   1062     1   0.15375 251793.120000
   1060   1061     1   0.15241 261918.400000
   1061   1067     1   0.12183 533627.360000
   1061   2184     1   0.13789 357815.680000
   1062   1063     1   0.15241 261918.400000
   1063   1068     1   0.12183 533627.360000
   1063   2210     1   0.13789 357815.680000
   1064   1065     1   0.15375 251793.120000
   1065   1066     1   0.14619 275056.160000
   1083   1084     1   0.15110 237065.440000
   1083   1085     1   0.15110 237065.440000
   1083   1090     1   0.15110 237065.440000
   1084   1086     1   0.15375 251793.120000
   1085   1088     1   0.15375 251793.120000
   1086   1087     1   0.15241 261918.400000
   1087   1093     1   0.12183 533627.360000
   1087   2236     1   0.13789 357815.680000
   1088   1089     1   0.15241 261918.400000
   1089   1094     1   0.12183 533627.360000
   1089   2262     1   0.13789 357815.680000
   1090   1091     1   0.15375 251793.120000
   1091   1092     1   0.14619 275056.160000
   1109   1110     1   0.15110 237065.440000
   1109   1111     1   0.15110 237065.440000
   1109   1116     1   0.15110 237065.440000
   1110   1112     1   0.15375 251793.120000
   1111   1114     1   0.15375 251793.120000
   1112   1113     1   0.15241 261918.400000
   1113   1119     1   0.12183 533627.360000
   1113   2288     1   0.13789 357815.680000
   1114   1115     1   0.15241 261918.400000
   1115   1120     1   0.12183 533627.360000
   1115   2314     1   0.13789 357815.680000
   1116   1117     1   0.15375 251793.120000
   1117   1118     1   0.14619 275056.160000
   1135   1136     1   0.15110 237065.440000
   1135   1137     1   0.15110 237065.440000
   1135   1142     1   0.15110 237065.440000
   1136   1138     1   0.15375 251793.120000
   1137   1140     1   0.15375 251793.120000
   1138   1139     1   0.15241 261918.400000
   1139   1145     1   0.12183 533627.360000
   1139   2340     1   0.13789 357815.680000
   1140   1141     1   0.15241 261918.400000
   1141   1146     1   0.12183 533627.360000
   1141   2366     1   0.13789 357815.680000
   1142   1143     1   0.15375 251793.120000
   1143   1144     1   0.14619 275056.160000
   1161   1162     1   0.15110 237065.440000
   1161   1163     1   0.15110 237065.440000
   1161   1168     1   0.15110 237065.440000
   1162   1164     1   0.15375 251793.120000
   1163   1166     1   0.15375 251793.120000
   1164   1165     1   0.15241 261918.400000
   1165   1171     1   0.12183 533627.360000
   1165   2392     1   0.13789 357815.680000
   1166   1167     1   0.15241 261918.400000
   1167   1172     1   0.12183 533627.360000
   1167   2418     1   0.13789 357815.680000
   1168   1169     1   0.15375 251793.120000
   1169   1170     1   0.14619 275056.160000
   1187   1188     1   0.15110 237065.440000
   1187   1189     1   0.15110 237065.440000
   1187   1194     1   0.15110 237065.440000
   1188   1190     1   0.15375 251793.120000
   1189   1192     1   0.15375 251793.120000
   1190   1191     1   0.15241 261918.400000
   1191   1197     1   0.12183 533627.360000
   1191   2444     1   0.13789 357815.680000
   1192   1193     1   0.15241 261918.400000
   1193   1198     1   0.12183 533627.360000
   1193   2470     1   0.13789 357815.680000
   1194   1195     1   0.15375 251793.120000
   1195   1196     1   0.14619 275056.160000
   1213   1214     1   0.15110 237065.440000
   1213   1215     1   0.15110 237065.440000
   1213   1220     1   0.15110 237065.440000
   1214   1216     1   0.15375 251793.120000
   1215   1218     1   0.15375 251793.120000
   1216   1217     1   0.15241 261918.400000
   1217   1223     1   0.12183 533627.360000
   1217   2496     1   0.13789 357815.680000
   1218   1219     1   0.15241 261918.400000
   1219   1224     1   0.12183 533627.360000
   1219   2522     1   0.13789 357815.680000
   1220   1221     1   0.15375 251793.120000
   1221   1222     1   0.14619 275056.160000
   1239   1240     1   0.15110 237065.440000
   1239   1241     1   0.15110 237065.440000
   1239   1246     1   0.15110 237065.440000
   1240   1242     1   0.15375 251793.120000
   1241   1244     1   0.15375 251793.120000
   1242   1243     1   0.15241 261918.400000
   1243   1249     1   0.12183 533627.360000
   1243   2548     1   0.13789 357815.680000
   1244   1245     1   0.15241 261918.400000
   1245   1250     1   0.12183 533627.360000
   1245   2574     1   0.13789 357815.680000
   1246   1247     1   0.15375 251793.120000
   1247   1248     1   0.14619 275056.160000
   1265   1266     1   0.15110 237065.440000
   1265   1267     1   0.15110 237065.440000
   1265   1272     1   0.15110 237065.440000
   1266   1268     1   0.15375 251793.120000
   1267   1270     1   0.15375 251793.120000
   1268   1269     1   0.15241 261918.400000
   1269   1275     1   0.12183 533627.360000
   1269   2600     1   0.13789 357815.680000
   1270   1271     1   0.15241 261918.400000
   1271   1276     1   0.12183 533627.360000
   1271   2626     1   0.13789 357815.680000
   1272   1273     1   0.15375 251793.120000
   1273   1274     1   0.14619 275056.160000
   1291   1292     1   0.15110 237065.440000
   1291   1293     1   0.15110 237065.440000
   1291   1298     1   0.15110 237065.440000
   1292   1294     1   0.15375 251793.120000
   1293   1296     1   0.15375 251793.120000
   1294   1295     1   0.15241 261918.400000
   1295   1301     1   0.12183 533627.360000
   1295   2652     1   0.13789 357815.680000
   1296   1297     1   0.15241 261918.400000
   1297   1302     1   0.12183 533627.360000
   1297   2678     1   0.13789 357815.680000
   1298   1299     1   0.15375 251793.120000
   1299   1300     1   0.14619 275056.160000
   1317   1318     1   0.15110 237065.440000
   1317   1319     1   0.15110 237065.440000
   1317   1324     1   0.15110 237065.440000
   1318   1320     1   0.15375 251793.120000
   1319   1322     1   0.15375 251793.120000
   1320   1321     1   0.15241 261918.400000
   1321   1327     1   0.12183 533627.360000
   1321   2704     1   0.13789 357815.680000
   1322   1323     1   0.15241 261918.400000
   1323   1328     1   0.12183 533627.360000
   1323   2730     1   0.13789 357815.680000
   1324   1325     1   0.15375 251793.120000
   1325   1326     1   0.14619 275056.160000
   1343   1344     1   0.15110 237065.440000
   1343   1345     1   0.15110 237065.440000
   1343   1350     1   0.15110 237065.440000
   1344   1346     1   0.15375 251793.120000
   1345   1348     1   0.15375 251793.120000
   1346   1347     1   0.15241 261918.400000
   1347   1353     1   0.12183 533627.360000
   1347   2756     1   0.13789 357815.680000
   1348   1349     1   0.15241 261918.400000
   1349   1354     1   0.12183 533627.360000
   1349   2782     1   0.13789 357815.680000
   1350   1351     1   0.15375 251793.120000
   1351   1352     1   0.14619 275056.160000
   1369   1370     1   0.15110 237065.440000
   1369   1371     1   0.15110 237065.440000
   1369   1376     1   0.15110 237065.440000
   1370   1372     1   0.15375 251793.120000
   1371   1374     1   0.15375 251793.120000
   1372   1373     1   0.15241 261918.400000
   1373   1379     1   0.12183 533627.360000
   1373   2808     1   0.13789 357815.680000
   1374   1375     1   0.15241 261918.400000
   1375   1380     1   0.12183 533627.360000
   1375   2834     1   0.13789 357815.680000
   1376   1377     1   0.15375 251793.120000
   1377   1378     1   0.14619 275056.160000
   1395   1396     1   0.15110 237065.440000
   1395   1397     1   0.15110 237065.440000
   1395   1402     1   0.15110 237065.440000
   1396   1398     1   0.15375 251793.120000
   1397   1400     1   0.15375 251793.120000
   1398   1399     1   0.15241 261918.400000
   1399   1405     1   0.12183 533627.360000
   1399   2860     1   0.13789 357815.680000
   1400   1401     1   0.15241 261918.400000
   1401   1406     1   0.12183 533627.360000
   1401   2886     1   0.13789 357815.680000
   1402   1403     1   0.15375 251793.120000
   1403   1404     1   0.14619 275056.160000
   1421   1422     1   0.15110 237065.440000
   1421   1423     1   0.15110 237065.440000
   1421   1428     1   0.15110 237065.440000
   1422   1424     1   0.15375 251793.120000
   1423   1426     1   0.15375 251793.120000
   1424   1425     1   0.15241 261918.400000
   1425   1431     1   0.12183 533627.360000
   1425   2912     1   0.13789 357815.680000
   1426   1427     1   0.15241 261918.400000
   1427   1432     1   0.12183 533627.360000
   1427   2938     1   0.13789 357815.680000
   1428   1429     1   0.15375 251793.120000
   1429   1430     1   0.14619 275056.160000
   1447   1448     1   0.15110 237065.440000
   1447   1449     1   0.15110 237065.440000
   1447   1454     1   0.15110 237065.440000
   1448   1450     1   0.15375 251793.120000
   1449   1452     1   0.15375 251793.120000
   1450   1451     1   0.15241 261918.400000
   1451   1457     1   0.12183 533627.360000
   1451   2964     1   0.13789 357815.680000
   1452   1453     1   0.15241 261918.400000
   1453   1458     1   0.12183 533627.360000
   1453   2990     1   0.13789 357815.680000
   1454   1455     1   0.15375 251793.120000
   1455   1456     1   0.14619 275056.160000
   1473   1474     1   0.15110 237065.440000
   1473   1475     1   0.15110 237065.440000
   1473   1480     1   0.15110 237065.440000
   1474   1476     1   0.15375 251793.120000
   1475   1478     1   0.15375 251793.120000
   1476   1477     1   0.15241 261918.400000
   1477   1483     1   0.12183 533627.360000
   1477   3016     1   0.13789 357815.680000
   1478   1479     1   0.15241 261918.400000
   1479   1484     1   0.12183 533627.360000
   1479   3042     1   0.13789 357815.680000
   1480   1481     1   0.15375 251793.120000
   1481   1482     1   0.14619 275056.160000
   1499   1500     1   0.15110 237065.440000
   1499   1501     1   0.15110 237065.440000
   1499   1506     1   0.15110 237065.440000
   1500   1502     1   0.15375 251793.120000
   1501   1504     1   0.15375 251793.120000
   1502   1503     1   0.15241 261918.400000
   1503   1509     1   0.12183 533627.360000
   1503   3068     1   0.13789 357815.680000
   1504   1505     1   0.15241 261918.400000
   1505   1510     1   0.12183 533627.360000
   1505   3094     1   0.13789 357815.680000
   1506   1507     1   0.15375 251793.120000
   1507   1508     1   0.14619 275056.160000
   1525   1526     1   0.15110 237065.440000
   1525   1527     1   0.15110 237065.440000
   1525   1532     1   0.15110 237065.440000
   1526   1528     1   0.15375 251793.120000
   1527   1530     1   0.15375 251793.120000
   1528   1529     1   0.15241 261918.400000
   1529   1535     1   0.12183 533627.360000
   1529   3120     1   0.13789 357815.680000
   1530   1531     1   0.15241 261918.400000
   1531   1536     1   0.12183 533627.360000
   1531   3146     1   0.13789 357815.680000
   1532   1533     1   0.15375 251793.120000
   1533   1534     1   0.14619 275056.160000
   1551   1552     1   0.15110 237065.440000
   1551   1553     1   0.15110 237065.440000
   1551   1558     1   0.15110 237065.440000
   1552   1554     1   0.15375 251793.120000
   1553   1556     1   0.15375 251793.120000
   1554   1555     1   0.15241 261918.400000
   1555   1561     1   0.12183 533627.360000
   1555   3172     1   0.13789 357815.680000
   1556   1557     1   0.15241 261918.400000
   1557   1562     1   0.12183 533627.360000
   1557   3198     1   0.13789 357815.680000
   1558   1559     1   0.15375 251793.120000
   1559   1560     1   0.14619 275056.160000
   1577   1578     1   0.15110 237065.440000
   1577   1579     1   0.15110 237065.440000
   1577   1584     1   0.15110 237065.440000
   1578   1580     1   0.15375 251793.120000
   1579   1582     1   0.15375 251793.120000
   1580   1581     1   0.15241 261918.400000
   1581   1587     1   0.12183 533627.360000
   1581   3224     1   0.13789 357815.680000
   1582   1583     1   0.15241 261918.400000
   1583   1588     1   0.12183 533627.360000
   1583   3250     1   0.13789 357815.680000
   1584   1585     1   0.15375 251793.120000
   1585   1586     1   0.14619 275056.160000
   1603   1604     1   0.15110 237065.440000
   1603   1605     1   0.15110 237065.440000
   1603   1610     1   0.15110 237065.440000
   1604   1606     1   0.15375 251793.120000
   1605   1608     1   0.15375 251793.120000
   1606   1607     1   0.15241 261918.400000
   1607   3267     1   0.13789 357815.680000
   1607   1613     1   0.12183 533627.360000
   1608   1609     1   0.15241 261918.400000
   1609   1614     1   0.12183 533627.360000
   1609   3297     1   0.13789 357815.680000
   1610   1611     1   0.15375 251793.120000
   1611   1612     1   0.14619 275056.160000
   1629   1630     1   0.15110 237065.440000
   1629   1631     1   0.15110 237065.440000
   1629   1636     1   0.15110 237065.440000
   1630   1632     1   0.15375 251793.120000
   1631   1634     1   0.15375 251793.120000
   1632   1633     1   0.15241 261918.400000
   1633   3327     1   0.13789 357815.680000
   1633   1639     1   0.12183 533627.360000
   1634   1635     1   0.15241 261918.400000
   1635   1640     1   0.12183 533627.360000
   1635   3357     1   0.13789 357815.680000
   1636   1637     1   0.15375 251793.120000
   1637   1638     1   0.14619 275056.160000
   1655   1656     1   0.15110 237065.440000
   1655   1657     1   0.15110 237065.440000
   1655   1662     1   0.15110 237065.440000
   1656   1658     1   0.15375 251793.120000
   1657   1660     1   0.15375 251793.120000
   1658   1659     1   0.15241 261918.400000
   1659   3387     1   0.13789 357815.680000
   1659   1665     1   0.12183 533627.360000
   1660   1661     1   0.15241 261918.400000
   1661   1666     1   0.12183 533627.360000
   1661   3417     1   0.13789 357815.680000
   1662   1663     1   0.15375 251793.120000
   1663   1664     1   0.14619 275056.160000
   1681   1682     1   0.15110 237065.440000
   1681   1683     1   0.15110 237065.440000
   1681   1688     1   0.15110 237065.440000
   1682   1684     1   0.15375 251793.120000
   1683   1686     1   0.15375 251793.120000
   1684   1685     1   0.15241 261918.400000
   1685   3447     1   0.13789 357815.680000
   1685   1691     1   0.12183 533627.360000
   1686   1687     1   0.15241 261918.400000
   1687   1692     1   0.12183 533627.360000
   1687   3477     1   0.13789 357815.680000
   1688   1689     1   0.15375 251793.120000
   1689   1690     1   0.14619 275056.160000
   1707   1708     1   0.15110 237065.440000
   1707   1709     1   0.15110 237065.440000
   1707   1714     1   0.15110 237065.440000
   1708   1710     1   0.15375 251793.120000
   1709   1712     1   0.15375 251793.120000
   1710   1711     1   0.15241 261918.400000
   1711   3507     1   0.13789 357815.680000
   1711   1717     1   0.12183 533627.360000
   1712   1713     1   0.15241 261918.400000
   1713   1718     1   0.12183 533627.360000
   1713   3537     1   0.13789 357815.680000
   1714   1715     1   0.15375 251793.120000
   1715   1716     1   0.14619 275056.160000
   1733   1734     1   0.15110 237065.440000
   1733   1735     1   0.15110 237065.440000
   1733   1740     1   0.15110 237065.440000
   1734   1736     1   0.15375 251793.120000
   1735   1738     1   0.15375 251793.120000
   1736   1737     1   0.15241 261918.400000
   1737   3567     1   0.13789 357815.680000
   1737   1743     1   0.12183 533627.360000
   1738   1739     1   0.15241 261918.400000
   1739   1744     1   0.12183 533627.360000
   1739   3597     1   0.13789 357815.680000
   1740   1741     1   0.15375 251793.120000
   1741   1742     1   0.14619 275056.160000
   1759   1760     1   0.15110 237065.440000
   1759   1761     1   0.15110 237065.440000
   1759   1766     1   0.15110 237065.440000
   1760   1762     1   0.15375 251793.120000
   1761   1764     1   0.15375 251793.120000
   1762   1763     1   0.15241 261918.400000
   1763   3627     1   0.13789 357815.680000
   1763   1769     1   0.12183 533627.360000
   1764   1765     1   0.15241 261918.400000
   1765   1770     1   0.12183 533627.360000
   1765   3657     1   0.13789 357815.680000
   1766   1767     1   0.15375 251793.120000
   1767   1768     1   0.14619 275056.160000
   1785   1786     1   0.15110 237065.440000
   1785   1787     1   0.15110 237065.440000
   1785   1792     1   0.15110 237065.440000
   1786   1788     1   0.15375 251793.120000
   1787   1790     1   0.15375 251793.120000
   1788   1789     1   0.15241 261918.400000
   1789   3687     1   0.13789 357815.680000
   1789   1795     1   0.12183 533627.360000
   1790   1791     1   0.15241 261918.400000
   1791   1796     1   0.12183 533627.360000
   1791   3717     1   0.13789 357815.680000
   1792   1793     1   0.15375 251793.120000
   1793   1794     1   0.14619 275056.160000
   1811   1812     1   0.15110 237065.440000
   1811   1813     1   0.15110 237065.440000
   1811   1818     1   0.15110 237065.440000
   1812   1814     1   0.15375 251793.120000
   1813   1816     1   0.15375 251793.120000
   1814   1815     1   0.15241 261918.400000
   1815   3747     1   0.13789 357815.680000
   1815   1821     1   0.12183 533627.360000
   1816   1817     1   0.15241 261918.400000
   1817   1822     1   0.12183 533627.360000
   1817   3777     1   0.13789 357815.680000
   1818   1819     1   0.15375 251793.120000
   1819   1820     1   0.14619 275056.160000
   1837   1838     1   0.15110 237065.440000
   1837   1839     1   0.15110 237065.440000
   1837   1844     1   0.15110 237065.440000
   1838   1840     1   0.15375 251793.120000
   1839   1842     1   0.15375 251793.120000
   1840   1841     1   0.15241 261918.400000
   1841   3807     1   0.13789 357815.680000
   1841   1847     1   0.12183 533627.360000
   1842   1843     1   0.15241 261918.400000
   1843   1848     1   0.12183 533627.360000
   1843   3837     1   0.13789 357815.680000
   1844   1845     1   0.15375 251793.120000
   1845   1846     1   0.14619 275056.160000
   1863   1864     1   0.15110 237065.440000
   1863   1865     1   0.15110 237065.440000
   1863   1870     1   0.15110 237065.440000
   1864   1866     1   0.15375 251793.120000
   1865   1868     1   0.15375 251793.120000
   1866   1867     1   0.15241 261918.400000
   1867   3867     1   0.13789 357815.680000
   1867   1873     1   0.12183 533627.360000
   1868   1869     1   0.15241 261918.400000
   1869   1874     1   0.12183 533627.360000
   1869   3897     1   0.13789 357815.680000
   1870   1871     1   0.15375 251793.120000
   1871   1872     1   0.14619 275056.160000
   1889   1890     1   0.15110 237065.440000
   1889   1891     1   0.15110 237065.440000
   1889   1896     1   0.15110 237065.440000
   1890   1892     1   0.15375 251793.120000
   1891   1894     1   0.15375 251793.120000
   1892   1893     1   0.15241 261918.400000
   1893   3927     1   0.13789 357815.680000
   1893   1899     1   0.12183 533627.360000
   1894   1895     1   0.15241 261918.400000
   1895   1900     1   0.12183 533627.360000
   1895   3957     1   0.13789 357815.680000
   1896   1897     1   0.15375 251793.120000
   1897   1898     1   0.14619 275056.160000
   1915   1916     1   0.15110 237065.440000
   1915   1917     1   0.15110 237065.440000
   1915   1922     1   0.15110 237065.440000
   1916   1918     1   0.15375 251793.120000
   1917   1920     1   0.15375 251793.120000
   1918   1919     1   0.15241 261918.400000
   1919   3987     1   0.13789 357815.680000
   1919   1925     1   0.12183 533627.360000
   1920   1921     1   0.15241 261918.400000
   1921   1926     1   0.12183 533627.360000
   1921   4017     1   0.13789 357815.680000
   1922   1923     1   0.15375 251793.120000
   1923   1924     1   0.14619 275056.160000
   1941   1942     1   0.15110 237065.440000
   1941   1943     1   0.15110 237065.440000
   1941   1948     1   0.15110 237065.440000
   1942   1944     1   0.15375 251793.120000
   1943   1946     1   0.15375 251793.120000
   1944   1945     1   0.15241 261918.400000
   1945   4047     1   0.13789 357815.680000
   1945   1951     1   0.12183 533627.360000
   1946   1947     1   0.15241 261918.400000
   1947   1952     1   0.12183 533627.360000
   1947   4077     1   0.13789 357815.680000
   1948   1949     1   0.15375 251793.120000
   1949   1950     1   0.14619 275056.160000
   1967   1968     1   0.15110 237065.440000
   1967   1969     1   0.15110 237065.440000
   1967   1974     1   0.15110 237065.440000
   1968   1970     1   0.15375 251793.120000
   1969   1972     1   0.15375 251793.120000
   1970   1971     1   0.15241 261918.400000
   1971   4107     1   0.13789 357815.680000
   1971   1977     1   0.12183 533627.360000
   1972   1973     1   0.15241 261918.400000
   1973   1978     1   0.12183 533627.360000
   1973   4137     1   0.13789 357815.680000
   1974   1975     1   0.15375 251793.120000
   1975   1976     1   0.14619 275056.160000
   1993   1994     1   0.15110 237065.440000
   1993   1995     1   0.15110 237065.440000
   1993   2000     1   0.15110 237065.440000
   1994   1996     1   0.15375 251793.120000
   1995   1998     1   0.15375 251793.120000
   1996   1997     1   0.15241 261918.400000
   1997   4167     1   0.13789 357815.680000
   1997   2003     1   0.12183 533627.360000
   1998   1999     1   0.15241 261918.400000
   1999   2004     1   0.12183 533627.360000
   1999   4197     1   0.13789 357815.680000
   2000   2001     1   0.15375 251793.120000
   2001   2002     1   0.14619 275056.160000
   2019   2020     1   0.15110 237065.440000
   2019   2021     1   0.15110 237065.440000
   2019   2026     1   0.15110 237065.440000
   2020   2022     1   0.15375 251793.120000
   2021   2024     1   0.15375 251793.120000
   2022   2023     1   0.15241 261918.400000
   2023   4227     1   0.13789 357815.680000
   2023   2029     1   0.12183 533627.360000
   2024   2025     1   0.15241 261918.400000
   2025   2030     1   0.12183 533627.360000
   2025   4257     1   0.13789 357815.680000
   2026   2027     1   0.15375 251793.120000
   2027   2028     1   0.14619 275056.160000
   2045   2046     1   0.15110 237065.440000
   2045   2047     1   0.15110 237065.440000
   2045   2052     1   0.15110 237065.440000
   2046   2048     1   0.15375 251793.120000
   2047   2050     1   0.15375 251793.120000
   2048   2049     1   0.15241 261918.400000
   2049   4287     1   0.13789 357815.680000
   2049   2055     1   0.12183 533627.360000
   2050   2051     1   0.15241 261918.400000
   2051   2056     1   0.12183 533627.360000
   2051   4317     1   0.13789 357815.680000
   2052   2053     1   0.15375 251793.120000
   2053   2054     1   0.14619 275056.160000
   2071   2072     1   0.15110 237065.440000
   2071   2073     1   0.15110 237065.440000
   2071   2078     1   0.15110 237065.440000
   2072   2074     1   0.15375 251793.120000
   2073   2076     1   0.15375 251793.120000
   2074   2075     1   0.15241 261918.400000
   2075   4347     1   0.13789 357815.680000
   2075   2081     1   0.12183 533627.360000
   2076   2077     1   0.15241 261918.400000
   2077   2082     1   0.12183 533627.360000
   2077   4377     1   0.13789 357815.680000
   2078   2079     1   0.15375 251793.120000
   2079   2080     1   0.14619 275056.160000
   2097   2098     1   0.15110 237065.440000
   2097   2099     1   0.15110 237065.440000
   2097   2104     1   0.15110 237065.440000
   2098   2100     1   0.15375 251793.120000
   2099   2102     1   0.15375 251793.120000
   2100   2101     1   0.15241 261918.400000
   2101   4407     1   0.13789 357815.680000
   2101   2107     1   0.12183 533627.360000
   2102   2103     1   0.15241 261918.400000
   2103   2108     1   0.12183 533627.360000
   2103   4437     1   0.13789 357815.680000
   2104   2105     1   0.15375 251793.120000
   2105   2106     1   0.14619 275056.160000
   2123   2124     1   0.15110 237065.440000
   2123   2125     1   0.15110 237065.440000
   2123   2130     1   0.15110 237065.440000
   2124   2126     1   0.15375 251793.120000
   2125   2128     1   0.15375 251793.120000
   2126   2127     1   0.15241 261918.400000
   2127   4467     1   0.13789 357815.680000
   2127   2133     1   0.12183 533627.360000
   2128   2129     1   0.15241 261918.400000
   2129   2134     1   0.12183 533627.360000
   2129   4497     1   0.13789 357815.680000
   2130   2131     1   0.15375 251793.120000
   2131   2132     1   0.14619 275056.160000
   2149   2150     1   0.15110 237065.440000
   2149   2151     1   0.15110 237065.440000
   2149   2156     1   0.15110 237065.440000
   2150   2152     1   0.15375 251793.120000
   2151   2154     1   0.15375 251793.120000
   2152   2153     1   0.15241 261918.400000
   2153   4527     1   0.13789 357815.680000
   2153   2159     1   0.12183 533627.360000
   2154   2155     1   0.15241 261918.400000
   2155   2160     1   0.12183 533627.360000
   2155   4557     1   0.13789 357815.680000
   2156   2157     1   0.15375 251793.120000
   2157   2158     1   0.14619 275056.160000
   2175   2176     1   0.15110 237065.440000
   2175   2177     1   0.15110 237065.440000
   2175   2182     1   0.15110 237065.440000
   2176   2178     1   0.15375 251793.120000
   2177   2180     1   0.15375 251793.120000
   2178   2179     1   0.15241 261918.400000
   2179   4587     1   0.13789 357815.680000
   2179   2185     1   0.12183 533627.360000
   2180   2181     1   0.15241 261918.400000
   2181   2186     1   0.12183 533627.360000
   2181   4617     1   0.13789 357815.680000
   2182   2183     1   0.15375 251793.120000
   2183   2184     1   0.14619 275056.160000
   2201   2202     1   0.15110 237065.440000
   2201   2203     1   0.15110 237065.440000
   2201   2208     1   0.15110 237065.440000
   2202   2204     1   0.15375 251793.120000
   2203   2206     1   0.15375 251793.120000
   2204   2205     1   0.15241 261918.400000
   2205   4647     1   0.13789 357815.680000
   2205   2211     1   0.12183 533627.360000
   2206   2207     1   0.15241 261918.400000
   2207   2212     1   0.12183 533627.360000
   2207   4677     1   0.13789 357815.680000
   2208   2209     1   0.15375 251793.120000
   2209   2210     1   0.14619 275056.160000
   2227   2228     1   0.15110 237065.440000
   2227   2229     1   0.15110 237065.440000
   2227   2234     1   0.15110 237065.440000
   2228   2230     1   0.15375 251793.120000
   2229   2232     1   0.15375 251793.120000
   2230   2231     1   0.15241 261918.400000
   2231   4707     1   0.13789 357815.680000
   2231   2237     1   0.12183 533627.360000
   2232   2233     1   0.15241 261918.400000
   2233   2238     1   0.12183 533627.360000
   2233   4737     1   0.13789 357815.680000
   2234   2235     1   0.15375 251793.120000
   2235   2236     1   0.14619 275056.160000
   2253   2254     1   0.15110 237065.440000
   2253   2255     1   0.15110 237065.440000
   2253   2260     1   0.15110 237065.440000
   2254   2256     1   0.15375 251793.120000
   2255   2258     1   0.15375 251793.120000
   2256   2257     1   0.15241 261918.400000
   2257   4767     1   0.13789 357815.680000
   2257   2263     1   0.12183 533627.360000
   2258   2259     1   0.15241 261918.400000
   2259   2264     1   0.12183 533627.360000
   2259   4797     1   0.13789 357815.680000
   2260   2261     1   0.15375 251793.120000
   2261   2262     1   0.14619 275056.160000
   2279   2280     1   0.15110 237065.440000
   2279   2281     1   0.15110 237065.440000
   2279   2286     1   0.15110 237065.440000
   2280   2282     1   0.15375 251793.120000
   2281   2284     1   0.15375 251793.120000
   2282   2283     1   0.15241 261918.400000
   2283   4827     1   0.13789 357815.680000
   2283   2289     1   0.12183 533627.360000
   2284   2285     1   0.15241 261918.400000
   2285   2290     1   0.12183 533627.360000
   2285   4857     1   0.13789 357815.680000
   2286   2287     1   0.15375 251793.120000
   2287   2288     1   0.14619 275056.160000
   2305   2306     1   0.15110 237065.440000
   2305   2307     1   0.15110 237065.440000
   2305   2312     1   0.15110 237065.440000
   2306   2308     1   0.15375 251793.120000
   2307   2310     1   0.15375 251793.120000
   2308   2309     1   0.15241 261918.400000
   2309   4887     1   0.13789 357815.680000
   2309   2315     1   0.12183 533627.360000
   2310   2311     1   0.15241 261918.400000
   2311   2316     1   0.12183 533627.360000
   2311   4917     1   0.13789 357815.680000
   2312   2313     1   0.15375 251793.120000
   2313   2314     1   0.14619 275056.160000
   2331   2332     1   0.15110 237065.440000
   2331   2333     1   0.15110 237065.440000
   2331   2338     1   0.15110 237065.440000
   2332   2334     1   0.15375 251793.120000
   2333   2336     1   0.15375 251793.120000
   2334   2335     1   0.15241 261918.400000
   2335   4947     1   0.13789 357815.680000
   2335   2341     1   0.12183 533627.360000
   2336   2337     1   0.15241 261918.400000
   2337   2342     1   0.12183 533627.360000
   2337   4977     1   0.13789 357815.680000
   2338   2339     1   0.15375 251793.120000
   2339   2340     1   0.14619 275056.160000
   2357   2358     1   0.15110 237065.440000
   2357   2359     1   0.15110 237065.440000
   2357   2364     1   0.15110 237065.440000
   2358   2360     1   0.15375 251793.120000
   2359   2362     1   0.15375 251793.120000
   2360   2361     1   0.15241 261918.400000
   2361   5007     1   0.13789 357815.680000
   2361   2367     1   0.12183 533627.360000
   2362   2363     1   0.15241 261918.400000
   2363   2368     1   0.12183 533627.360000
   2363   5037     1   0.13789 357815.680000
   2364   2365     1   0.15375 251793.120000
   2365   2366     1   0.14619 275056.160000
   2383   2384     1   0.15110 237065.440000
   2383   2385     1   0.15110 237065.440000
   2383   2390     1   0.15110 237065.440000
   2384   2386     1   0.15375 251793.120000
   2385   2388     1   0.15375 251793.120000
   2386   2387     1   0.15241 261918.400000
   2387   5067     1   0.13789 357815.680000
   2387   2393     1   0.12183 533627.360000
   2388   2389     1   0.15241 261918.400000
   2389   2394     1   0.12183 533627.360000
   2389   5097     1   0.13789 357815.680000
   2390   2391     1   0.15375 251793.120000
   2391   2392     1   0.14619 275056.160000
   2409   2410     1   0.15110 237065.440000
   2409   2411     1   0.15110 237065.440000
   2409   2416     1   0.15110 237065.440000
   2410   2412     1   0.15375 251793.120000
   2411   2414     1   0.15375 251793.120000
   2412   2413     1   0.15241 261918.400000
   2413   5127     1   0.13789 357815.680000
   2413   2419     1   0.12183 533627.360000
   2414   2415     1   0.15241 261918.400000
   2415   2420     1   0.12183 533627.360000
   2415   5157     1   0.13789 357815.680000
   2416   2417     1   0.15375 251793.120000
   2417   2418     1   0.14619 275056.160000
   2435   2436     1   0.15110 237065.440000
   2435   2437     1   0.15110 237065.440000
   2435   2442     1   0.15110 237065.440000
   2436   2438     1   0.15375 251793.120000
   2437   2440     1   0.15375 251793.120000
   2438   2439     1   0.15241 261918.400000
   2439   5187     1   0.13789 357815.680000
   2439   2445     1   0.12183 533627.360000
   2440   2441     1   0.15241 261918.400000
   2441   2446     1   0.12183 533627.360000
   2441   5217     1   0.13789 357815.680000
   2442   2443     1   0.15375 251793.120000
   2443   2444     1   0.14619 275056.160000
   2461   2462     1   0.15110 237065.440000
   2461   2463     1   0.15110 237065.440000
   2461   2468     1   0.15110 237065.440000
   2462   2464     1   0.15375 251793.120000
   2463   2466     1   0.15375 251793.120000
   2464   2465     1   0.15241 261918.400000
   2465   5247     1   0.13789 357815.680000
   2465   2471     1   0.12183 533627.360000
   2466   2467     1   0.15241 261918.400000
   2467   2472     1   0.12183 533627.360000
   2467   5277     1   0.13789 357815.680000
   2468   2469     1   0.15375 251793.120000
   2469   2470     1   0.14619 275056.160000
   2487   2488     1   0.15110 237065.440000
   2487   2489     1   0.15110 237065.440000
   2487   2494     1   0.15110 237065.440000
   2488   2490     1   0.15375 251793.120000
   2489   2492     1   0.15375 251793.120000
   2490   2491     1   0.15241 261918.400000
   2491   5307     1   0.13789 357815.680000
   2491   2497     1   0.12183 533627.360000
   2492   2493     1   0.15241 261918.400000
   2493   2498     1   0.12183 533627.360000
   2493   5337     1   0.13789 357815.680000
   2494   2495     1   0.15375 251793.120000
   2495   2496     1   0.14619 275056.160000
   2513   2514     1   0.15110 237065.440000
   2513   2515     1   0.15110 237065.440000
   2513   2520     1   0.15110 237065.440000
   2514   2516     1   0.15375 251793.120000
   2515   2518     1   0.15375 251793.120000
   2516   2517     1   0.15241 261918.400000
   2517   5367     1   0.13789 357815.680000
   2517   2523     1   0.12183 533627.360000
   2518   2519     1   0.15241 261918.400000
   2519   2524     1   0.12183 533627.360000
   2519   5397     1   0.13789 357815.680000
   2520   2521     1   0.15375 251793.120000
   2521   2522     1   0.14619 275056.160000
   2539   2540     1   0.15110 237065.440000
   2539   2541     1   0.15110 237065.440000
   2539   2546     1   0.15110 237065.440000
   2540   2542     1   0.15375 251793.120000
   2541   2544     1   0.15375 251793.120000
   2542   2543     1   0.15241 261918.400000
   2543   5427     1   0.13789 357815.680000
   2543   2549     1   0.12183 533627.360000
   2544   2545     1   0.15241 261918.400000
   2545   2550     1   0.12183 533627.360000
   2545   5457     1   0.13789 357815.680000
   2546   2547     1   0.15375 251793.120000
   2547   2548     1   0.14619 275056.160000
   2565   2566     1   0.15110 237065.440000
   2565   2567     1   0.15110 237065.440000
   2565   2572     1   0.15110 237065.440000
   2566   2568     1   0.15375 251793.120000
   2567   2570     1   0.15375 251793.120000
   2568   2569     1   0.15241 261918.400000
   2569   5487     1   0.13789 357815.680000
   2569   2575     1   0.12183 533627.360000
   2570   2571     1   0.15241 261918.400000
   2571   2576     1   0.12183 533627.360000
   2571   5517     1   0.13789 357815.680000
   2572   2573     1   0.15375 251793.120000
   2573   2574     1   0.14619 275056.160000
   2591   2592     1   0.15110 237065.440000
   2591   2593     1   0.15110 237065.440000
   2591   2598     1   0.15110 237065.440000
   2592   2594     1   0.15375 251793.120000
   2593   2596     1   0.15375 251793.120000
   2594   2595     1   0.15241 261918.400000
   2595   5547     1   0.13789 357815.680000
   2595   2601     1   0.12183 533627.360000
   2596   2597     1   0.15241 261918.400000
   2597   2602     1   0.12183 533627.360000
   2597   5577     1   0.13789 357815.680000
   2598   2599     1   0.15375 251793.120000
   2599   2600     1   0.14619 275056.160000
   2617   2618     1   0.15110 237065.440000
   2617   2619     1   0.15110 237065.440000
   2617   2624     1   0.15110 237065.440000
   2618   2620     1   0.15375 251793.120000
   2619   2622     1   0.15375 251793.120000
   2620   2621     1   0.15241 261918.400000
   2621   5607     1   0.13789 357815.680000
   2621   2627     1   0.12183 533627.360000
   2622   2623     1   0.15241 261918.400000
   2623   2628     1   0.12183 533627.360000
   2623   5637     1   0.13789 357815.680000
   2624   2625     1   0.15375 251793.120000
   2625   2626     1   0.14619 275056.160000
   2643   2644     1   0.15110 237065.440000
   2643   2645     1   0.15110 237065.440000
   2643   2650     1   0.15110 237065.440000
   2644   2646     1   0.15375 251793.120000
   2645   2648     1   0.15375 251793.120000
   2646   2647     1   0.15241 261918.400000
   2647   5667     1   0.13789 357815.680000
   2647   2653     1   0.12183 533627.360000
   2648   2649     1   0.15241 261918.400000
   2649   2654     1   0.12183 533627.360000
   2649   5697     1   0.13789 357815.680000
   2650   2651     1   0.15375 251793.120000
   2651   2652     1   0.14619 275056.160000
   2669   2670     1   0.15110 237065.440000
   2669   2671     1   0.15110 237065.440000
   2669   2676     1   0.15110 237065.440000
   2670   2672     1   0.15375 251793.120000
   2671   2674     1   0.15375 251793.120000
   2672   2673     1   0.15241 261918.400000
   2673   5727     1   0.13789 357815.680000
   2673   2679     1   0.12183 533627.360000
   2674   2675     1   0.15241 261918.400000
   2675   2680     1   0.12183 533627.360000
   2675   5757     1   0.13789 357815.680000
   2676   2677     1   0.15375 251793.120000
   2677   2678     1   0.14619 275056.160000
   2695   2696     1   0.15110 237065.440000
   2695   2697     1   0.15110 237065.440000
   2695   2702     1   0.15110 237065.440000
   2696   2698     1   0.15375 251793.120000
   2697   2700     1   0.15375 251793.120000
   2698   2699     1   0.15241 261918.400000
   2699   5787     1   0.13789 357815.680000
   2699   2705     1   0.12183 533627.360000
   2700   2701     1   0.15241 261918.400000
   2701   2706     1   0.12183 533627.360000
   2701   5817     1   0.13789 357815.680000
   2702   2703     1   0.15375 251793.120000
   2703   2704     1   0.14619 275056.160000
   2721   2722     1   0.15110 237065.440000
   2721   2723     1   0.15110 237065.440000
   2721   2728     1   0.15110 237065.440000
   2722   2724     1   0.15375 251793.120000
   2723   2726     1   0.15375 251793.120000
   2724   2725     1   0.15241 261918.400000
   2725   5847     1   0.13789 357815.680000
   2725   2731     1   0.12183 533627.360000
   2726   2727     1   0.15241 261918.400000
   2727   2732     1   0.12183 533627.360000
   2727   5877     1   0.13789 357815.680000
   2728   2729     1   0.15375 251793.120000
   2729   2730     1   0.14619 275056.160000
   2747   2748     1   0.15110 237065.440000
   2747   2749     1   0.15110 237065.440000
   2747   2754     1   0.15110 237065.440000
   2748   2750     1   0.15375 251793.120000
   2749   2752     1   0.15375 251793.120000
   2750   2751     1   0.15241 261918.400000
   2751   5907     1   0.13789 357815.680000
   2751   2757     1   0.12183 533627.360000
   2752   2753     1   0.15241 261918.400000
   2753   2758     1   0.12183 533627.360000
   2753   5937     1   0.13789 357815.680000
   2754   2755     1   0.15375 251793.120000
   2755   2756     1   0.14619 275056.160000
   2773   2774     1   0.15110 237065.440000
   2773   2775     1   0.15110 237065.440000
   2773   2780     1   0.15110 237065.440000
   2774   2776     1   0.15375 251793.120000
   2775   2778     1   0.15375 251793.120000
   2776   2777     1   0.15241 261918.400000
   2777   5967     1   0.13789 357815.680000
   2777   2783     1   0.12183 533627.360000
   2778   2779     1   0.15241 261918.400000
   2779   2784     1   0.12183 533627.360000
   2779   5997     1   0.13789 357815.680000
   2780   2781     1   0.15375 251793.120000
   2781   2782     1   0.14619 275056.160000
   2799   2800     1   0.15110 237065.440000
   2799   2801     1   0.15110 237065.440000
   2799   2806     1   0.15110 237065.440000
   2800   2802     1   0.15375 251793.120000
   2801   2804     1   0.15375 251793.120000
   2802   2803     1   0.15241 261918.400000
   2803   6027     1   0.13789 357815.680000
   2803   2809     1   0.12183 533627.360000
   2804   2805     1   0.15241 261918.400000
   2805   2810     1   0.12183 533627.360000
   2805   6057     1   0.13789 357815.680000
   2806   2807     1   0.15375 251793.120000
   2807   2808     1   0.14619 275056.160000
   2825   2826     1   0.15110 237065.440000
   2825   2827     1   0.15110 237065.440000
   2825   2832     1   0.15110 237065.440000
   2826   2828     1   0.15375 251793.120000
   2827   2830     1   0.15375 251793.120000
   2828   2829     1   0.15241 261918.400000
   2829   6087     1   0.13789 357815.680000
   2829   2835     1   0.12183 533627.360000
   2830   2831     1   0.15241 261918.400000
   2831   2836     1   0.12183 533627.360000
   2831   6117     1   0.13789 357815.680000
   2832   2833     1   0.15375 251793.120000
   2833   2834     1   0.14619 275056.160000
   2851   2852     1   0.15110 237065.440000
   2851   2853     1   0.15110 237065.440000
   2851   2858     1   0.15110 237065.440000
   2852   2854     1   0.15375 251793.120000
   2853   2856     1   0.15375 251793.120000
   2854   2855     1   0.15241 261918.400000
   2855   6147     1   0.13789 357815.680000
   2855   2861     1   0.12183 533627.360000
   2856   2857     1   0.15241 261918.400000
   2857   2862     1   0.12183 533627.360000
   2857   6177     1   0.13789 357815.680000
   2858   2859     1   0.15375 251793.120000
   2859   2860     1   0.14619 275056.160000
   2877   2878     1   0.15110 237065.440000
   2877   2879     1   0.15110 237065.440000
   2877   2884     1   0.15110 237065.440000
   2878   2880     1   0.15375 251793.120000
   2879   2882     1   0.15375 251793.120000
   2880   2881     1   0.15241 261918.400000
   2881   6207     1   0.13789 357815.680000
   2881   2887     1   0.12183 533627.360000
   2882   2883     1   0.15241 261918.400000
   2883   2888     1   0.12183 533627.360000
   2883   6237     1   0.13789 357815.680000
   2884   2885     1   0.15375 251793.120000
   2885   2886     1   0.14619 275056.160000
   2903   2904     1   0.15110 237065.440000
   2903   2905     1   0.15110 237065.440000
   2903   2910     1   0.15110 237065.440000
   2904   2906     1   0.15375 251793.120000
   2905   2908     1   0.15375 251793.120000
   2906   2907     1   0.15241 261918.400000
   2907   6267     1   0.13789 357815.680000
   2907   2913     1   0.12183 533627.360000
   2908   2909     1   0.15241 261918.400000
   2909   2914     1   0.12183 533627.360000
   2909   6297     1   0.13789 357815.680000
   2910   2911     1   0.15375 251793.120000
   2911   2912     1   0.14619 275056.160000
   2929   2930     1   0.15110 237065.440000
   2929   2931     1   0.15110 237065.440000
   2929   2936     1   0.15110 237065.440000
   2930   2932     1   0.15375 251793.120000
   2931   2934     1   0.15375 251793.120000
   2932   2933     1   0.15241 261918.400000
   2933   6327     1   0.13789 357815.680000
   2933   2939     1   0.12183 533627.360000
   2934   2935     1   0.15241 261918.400000
   2935   2940     1   0.12183 533627.360000
   2935   6357     1   0.13789 357815.680000
   2936   2937     1   0.15375 251793.120000
   2937   2938     1   0.14619 275056.160000
   2955   2956     1   0.15110 237065.440000
   2955   2957     1   0.15110 237065.440000
   2955   2962     1   0.15110 237065.440000
   2956   2958     1   0.15375 251793.120000
   2957   2960     1   0.15375 251793.120000
   2958   2959     1   0.15241 261918.400000
   2959   6387     1   0.13789 357815.680000
   2959   2965     1   0.12183 533627.360000
   2960   2961     1   0.15241 261918.400000
   2961   2966     1   0.12183 533627.360000
   2961   6417     1   0.13789 357815.680000
   2962   2963     1   0.15375 251793.120000
   2963   2964     1   0.14619 275056.160000
   2981   2982     1   0.15110 237065.440000
   2981   2983     1   0.15110 237065.440000
   2981   2988     1   0.15110 237065.440000
   2982   2984     1   0.15375 251793.120000
   2983   2986     1   0.15375 251793.120000
   2984   2985     1   0.15241 261918.400000
   2985   6447     1   0.13789 357815.680000
   2985   2991     1   0.12183 533627.360000
   2986   2987     1   0.15241 261918.400000
   2987   2992     1   0.12183 533627.360000
   2987   6477     1   0.13789 357815.680000
   2988   2989     1   0.15375 251793.120000
   2989   2990     1   0.14619 275056.160000
   3007   3008     1   0.15110 237065.440000
   3007   3009     1   0.15110 237065.440000
   3007   3014     1   0.15110 237065.440000
   3008   3010     1   0.15375 251793.120000
   3009   3012     1   0.15375 251793.120000
   3010   3011     1   0.15241 261918.400000
   3011   6507     1   0.13789 357815.680000
   3011   3017     1   0.12183 533627.360000
   3012   3013     1   0.15241 261918.400000
   3013   3018     1   0.12183 533627.360000
   3013   6537     1   0.13789 357815.680000
   3014   3015     1   0.15375 251793.120000
   3015   3016     1   0.14619 275056.160000
   3033   3034     1   0.15110 237065.440000
   3033   3035     1   0.15110 237065.440000
   3033   3040     1   0.15110 237065.440000
   3034   3036     1   0.15375 251793.120000
   3035   3038     1   0.15375 251793.120000
   3036   3037     1   0.15241 261918.400000
   3037   6567     1   0.13789 357815.680000
   3037   3043     1   0.12183 533627.360000
   3038   3039     1   0.15241 261918.400000
   3039   3044     1   0.12183 533627.360000
   3039   6597     1   0.13789 357815.680000
   3040   3041     1   0.15375 251793.120000
   3041   3042     1   0.14619 275056.160000
   3059   3060     1   0.15110 237065.440000
   3059   3061     1   0.15110 237065.440000
   3059   3066     1   0.15110 237065.440000
   3060   3062     1   0.15375 251793.120000
   3061   3064     1   0.15375 251793.120000
   3062   3063     1   0.15241 261918.400000
   3063   6627     1   0.13789 357815.680000
   3063   3069     1   0.12183 533627.360000
   3064   3065     1   0.15241 261918.400000
   3065   3070     1   0.12183 533627.360000
   3065   6657     1   0.13789 357815.680000
   3066   3067     1   0.15375 251793.120000
   3067   3068     1   0.14619 275056.160000
   3085   3086     1   0.15110 237065.440000
   3085   3087     1   0.15110 237065.440000
   3085   3092     1   0.15110 237065.440000
   3086   3088     1   0.15375 251793.120000
   3087   3090     1   0.15375 251793.120000
   3088   3089     1   0.15241 261918.400000
   3089   6687     1   0.13789 357815.680000
   3089   3095     1   0.12183 533627.360000
   3090   3091     1   0.15241 261918.400000
   3091   3096     1   0.12183 533627.360000
   3091   6717     1   0.13789 357815.680000
   3092   3093     1   0.15375 251793.120000
   3093   3094     1   0.14619 275056.160000
   3111   3112     1   0.15110 237065.440000
   3111   3113     1   0.15110 237065.440000
   3111   3118     1   0.15110 237065.440000
   3112   3114     1   0.15375 251793.120000
   3113   3116     1   0.15375 251793.120000
   3114   3115     1   0.15241 261918.400000
   3115   6747     1   0.13789 357815.680000
   3115   3121     1   0.12183 533627.360000
   3116   3117     1   0.15241 261918.400000
   3117   3122     1   0.12183 533627.360000
   3117   6777     1   0.13789 357815.680000
   3118   3119     1   0.15375 251793.120000
   3119   3120     1   0.14619 275056.160000
   3137   3138     1   0.15110 237065.440000
   3137   3139     1   0.15110 237065.440000
   3137   3144     1   0.15110 237065.440000
   3138   3140     1   0.15375 251793.120000
   3139   3142     1   0.15375 251793.120000
   3140   3141     1   0.15241 261918.400000
   3141   6807     1   0.13789 357815.680000
   3141   3147     1   0.12183 533627.360000
   3142   3143     1   0.15241 261918.400000
   3143   3148     1   0.12183 533627.360000
   3143   6837     1   0.13789 357815.680000
   3144   3145     1   0.15375 251793.120000
   3145   3146     1   0.14619 275056.160000
   3163   3164     1   0.15110 237065.440000
   3163   3165     1   0.15110 237065.440000
   3163   3170     1   0.15110 237065.440000
   3164   3166     1   0.15375 251793.120000
   3165   3168     1   0.15375 251793.120000
   3166   3167     1   0.15241 261918.400000
   3167   6867     1   0.13789 357815.680000
   3167   3173     1   0.12183 533627.360000
   3168   3169     1   0.15241 261918.400000
   3169   3174     1   0.12183 533627.360000
   3169   6897     1   0.13789 357815.680000
   3170   3171     1   0.15375 251793.120000
   3171   3172     1   0.14619 275056.160000
   3189   3190     1   0.15110 237065.440000
   3189   3191     1   0.15110 237065.440000
   3189   3196     1   0.15110 237065.440000
   3190   3192     1   0.15375 251793.120000
   3191   3194     1   0.15375 251793.120000
   3192   3193     1   0.15241 261918.400000
   3193   6927     1   0.13789 357815.680000
   3193   3199     1   0.12183 533627.360000
   3194   3195     1   0.15241 261918.400000
   3195   3200     1   0.12183 533627.360000
   3195   6957     1   0.13789 357815.680000
   3196   3197     1   0.15375 251793.120000
   3197   3198     1   0.14619 275056.160000
   3215   3216     1   0.15110 237065.440000
   3215   3217     1   0.15110 237065.440000
   3215   3222     1   0.15110 237065.440000
   3216   3218     1   0.15375 251793.120000
   3217   3220     1   0.15375 251793.120000
   3218   3219     1   0.15241 261918.400000
   3219   6987     1   0.13789 357815.680000
   3219   3225     1   0.12183 533627.360000
   3220   3221     1   0.15241 261918.400000
   3221   3226     1   0.12183 533627.360000
   3221   7017     1   0.13789 357815.680000
   3222   3223     1   0.15375 251793.120000
   3223   3224     1   0.14619 275056.160000
   3241   3242     1   0.15110 237065.440000
   3241   3243     1   0.15110 237065.440000
   3241   3248     1   0.15110 237065.440000
   3242   3244     1   0.15375 251793.120000
   3243   3246     1   0.15375 251793.120000
   3244   3245     1   0.15241 261918.400000
   3245   7047     1   0.13789 357815.680000
   3245   3251     1   0.12183 533627.360000
   3246   3247     1   0.15241 261918.400000
   3247   7077     1   0.13789 357815.680000
   3247   3252     1   0.12183 533627.360000
   3248   3249     1   0.15375 251793.120000
   3249   3250     1   0.14619 275056.160000
   3267   3269     1   0.14619 275056.160000
   3269   3271     1   0.15375 251793.120000
   3271   3275     1   0.15110 237065.440000
   3275   3276     1   0.15110 237065.440000
   3275   3277     1   0.15110 237065.440000
   3276   3288     1   0.15375 251793.120000
   3277   3279     1   0.15375 251793.120000
   3279   3283     1   0.15241 261918.400000
   3283   3284     1   0.13513 334803.680000
   3283   3285     1   0.12183 533627.360000
   3288   3291     1   0.15241 261918.400000
   3291   3292     1   0.12183 533627.360000
   3291   3293     1   0.13513 334803.680000
   3297   3299     1   0.14619 275056.160000
   3299   3301     1   0.15375 251793.120000
   3301   3305     1   0.15110 237065.440000
   3305   3306     1   0.15110 237065.440000
   3305   3307     1   0.15110 237065.440000
   3306   3318     1   0.15375 251793.120000
   3307   3309     1   0.15375 251793.120000
   3309   3313     1   0.15241 261918.400000
   3313   3314     1   0.13513 334803.680000
   3313   3315     1   0.12183 533627.360000
   3318   3321     1   0.15241 261918.400000
   3321   3322     1   0.12183 533627.360000
   3321   3323     1   0.13513 334803.680000
   3327   3329     1   0.14619 275056.160000
   3329   3331     1   0.15375 251793.120000
   3331   3335     1   0.15110 237065.440000
   3335   3336     1   0.15110 237065.440000
   3335   3337     1   0.15110 237065.440000
   3336   3348     1   0.15375 251793.120000
   3337   3339     1   0.15375 251793.120000
   3339   3343     1   0.15241 261918.400000
   3343   3344     1   0.13513 334803.680000
   3343   3345     1   0.12183 533627.360000
   3348   3351     1   0.15241 261918.400000
   3351   3352     1   0.12183 533627.360000
   3351   3353     1   0.13513 334803.680000
   3357   3359     1   0.14619 275056.160000
   3359   3361     1   0.15375 251793.120000
   3361   3365     1   0.15110 237065.440000
   3365   3366     1   0.15110 237065.440000
   3365   3367     1   0.15110 237065.440000
   3366   3378     1   0.15375 251793.120000
   3367   3369     1   0.15375 251793.120000
   3369   3373     1   0.15241 261918.400000
   3373   3374     1   0.13513 334803.680000
   3373   3375     1   0.12183 533627.360000
   3378   3381     1   0.15241 261918.400000
   3381   3382     1   0.12183 533627.360000
   3381   3383     1   0.13513 334803.680000
   3387   3389     1   0.14619 275056.160000
   3389   3391     1   0.15375 251793.120000
   3391   3395     1   0.15110 237065.440000
   3395   3396     1   0.15110 237065.440000
   3395   3397     1   0.15110 237065.440000
   3396   3408     1   0.15375 251793.120000
   3397   3399     1   0.15375 251793.120000
   3399   3403     1   0.15241 261918.400000
   3403   3404     1   0.13513 334803.680000
   3403   3405     1   0.12183 533627.360000
   3408   3411     1   0.15241 261918.400000
   3411   3412     1   0.12183 533627.360000
   3411   3413     1   0.13513 334803.680000
   3417   3419     1   0.14619 275056.160000
   3419   3421     1   0.15375 251793.120000
   3421   3425     1   0.15110 237065.440000
   3425   3426     1   0.15110 237065.440000
   3425   3427     1   0.15110 237065.440000
   3426   3438     1   0.15375 251793.120000
   3427   3429     1   0.15375 251793.120000
   3429   3433     1   0.15241 261918.400000
   3433   3434     1   0.13513 334803.680000
   3433   3435     1   0.12183 533627.360000
   3438   3441     1   0.15241 261918.400000
   3441   3442     1   0.12183 533627.360000
   3441   3443     1   0.13513 334803.680000
   3447   3449     1   0.14619 275056.160000
   3449   3451     1   0.15375 251793.120000
   3451   3455     1   0.15110 237065.440000
   3455   3456     1   0.15110 237065.440000
   3455   3457     1   0.15110 237065.440000
   3456   3468     1   0.15375 251793.120000
   3457   3459     1   0.15375 251793.120000
   3459   3463     1   0.15241 261918.400000
   3463   3464     1   0.13513 334803.680000
   3463   3465     1   0.12183 533627.360000
   3468   3471     1   0.15241 261918.400000
   3471   3472     1   0.12183 533627.360000
   3471   3473     1   0.13513 334803.680000
   3477   3479     1   0.14619 275056.160000
   3479   3481     1   0.15375 251793.120000
   3481   3485     1   0.15110 237065.440000
   3485   3486     1   0.15110 237065.440000
   3485   3487     1   0.15110 237065.440000
   3486   3498     1   0.15375 251793.120000
   3487   3489     1   0.15375 251793.120000
   3489   3493     1   0.15241 261918.400000
   3493   3494     1   0.13513 334803.680000
   3493   3495     1   0.12183 533627.360000
   3498   3501     1   0.15241 261918.400000
   3501   3502     1   0.12183 533627.360000
   3501   3503     1   0.13513 334803.680000
   3507   3509     1   0.14619 275056.160000
   3509   3511     1   0.15375 251793.120000
   3511   3515     1   0.15110 237065.440000
   3515   3516     1   0.15110 237065.440000
   3515   3517     1   0.15110 237065.440000
   3516   3528     1   0.15375 251793.120000
   3517   3519     1   0.15375 251793.120000
   3519   3523     1   0.15241 261918.400000
   3523   3524     1   0.13513 334803.680000
   3523   3525     1   0.12183 533627.360000
   3528   3531     1   0.15241 261918.400000
   3531   3532     1   0.12183 533627.360000
   3531   3533     1   0.13513 334803.680000
   3537   3539     1   0.14619 275056.160000
   3539   3541     1   0.15375 251793.120000
   3541   3545     1   0.15110 237065.440000
   3545   3546     1   0.15110 237065.440000
   3545   3547     1   0.15110 237065.440000
   3546   3558     1   0.15375 251793.120000
   3547   3549     1   0.15375 251793.120000
   3549   3553     1   0.15241 261918.400000
   3553   3554     1   0.13513 334803.680000
   3553   3555     1   0.12183 533627.360000
   3558   3561     1   0.15241 261918.400000
   3561   3562     1   0.12183 533627.360000
   3561   3563     1   0.13513 334803.680000
   3567   3569     1   0.14619 275056.160000
   3569   3571     1   0.15375 251793.120000
   3571   3575     1   0.15110 237065.440000
   3575   3576     1   0.15110 237065.440000
   3575   3577     1   0.15110 237065.440000
   3576   3588     1   0.15375 251793.120000
   3577   3579     1   0.15375 251793.120000
   3579   3583     1   0.15241 261918.400000
   3583   3584     1   0.13513 334803.680000
   3583   3585     1   0.12183 533627.360000
   3588   3591     1   0.15241 261918.400000
   3591   3592     1   0.12183 533627.360000
   3591   3593     1   0.13513 334803.680000
   3597   3599     1   0.14619 275056.160000
   3599   3601     1   0.15375 251793.120000
   3601   3605     1   0.15110 237065.440000
   3605   3606     1   0.15110 237065.440000
   3605   3607     1   0.15110 237065.440000
   3606   3618     1   0.15375 251793.120000
   3607   3609     1   0.15375 251793.120000
   3609   3613     1   0.15241 261918.400000
   3613   3614     1   0.13513 334803.680000
   3613   3615     1   0.12183 533627.360000
   3618   3621     1   0.15241 261918.400000
   3621   3622     1   0.12183 533627.360000
   3621   3623     1   0.13513 334803.680000
   3627   3629     1   0.14619 275056.160000
   3629   3631     1   0.15375 251793.120000
   3631   3635     1   0.15110 237065.440000
   3635   3636     1   0.15110 237065.440000
   3635   3637     1   0.15110 237065.440000
   3636   3648     1   0.15375 251793.120000
   3637   3639     1   0.15375 251793.120000
   3639   3643     1   0.15241 261918.400000
   3643   3644     1   0.13513 334803.680000
   3643   3645     1   0.12183 533627.360000
   3648   3651     1   0.15241 261918.400000
   3651   3652     1   0.12183 533627.360000
   3651   3653     1   0.13513 334803.680000
   3657   3659     1   0.14619 275056.160000
   3659   3661     1   0.15375 251793.120000
   3661   3665     1   0.15110 237065.440000
   3665   3666     1   0.15110 237065.440000
   3665   3667     1   0.15110 237065.440000
   3666   3678     1   0.15375 251793.120000
   3667   3669     1   0.15375 251793.120000
   3669   3673     1   0.15241 261918.400000
   3673   3674     1   0.13513 334803.680000
   3673   3675     1   0.12183 533627.360000
   3678   3681     1   0.15241 261918.400000
   3681   3682     1   0.12183 533627.360000
   3681   3683     1   0.13513 334803.680000
   3687   3689     1   0.14619 275056.160000
   3689   3691     1   0.15375 251793.120000
   3691   3695     1   0.15110 237065.440000
   3695   3696     1   0.15110 237065.440000
   3695   3697     1   0.15110 237065.440000
   3696   3708     1   0.15375 251793.120000
   3697   3699     1   0.15375 251793.120000
   3699   3703     1   0.15241 261918.400000
   3703   3704     1   0.13513 334803.680000
   3703   3705     1   0.12183 533627.360000
   3708   3711     1   0.15241 261918.400000
   3711   3712     1   0.12183 533627.360000
   3711   3713     1   0.13513 334803.680000
   3717   3719     1   0.14619 275056.160000
   3719   3721     1   0.15375 251793.120000
   3721   3725     1   0.15110 237065.440000
   3725   3726     1   0.15110 237065.440000
   3725   3727     1   0.15110 237065.440000
   3726   3738     1   0.15375 251793.120000
   3727   3729     1   0.15375 251793.120000
   3729   3733     1   0.15241 261918.400000
   3733   3734     1   0.13513 334803.680000
   3733   3735     1   0.12183 533627.360000
   3738   3741     1   0.15241 261918.400000
   3741   3742     1   0.12183 533627.360000
   3741   3743     1   0.13513 334803.680000
   3747   3749     1   0.14619 275056.160000
   3749   3751     1   0.15375 251793.120000
   3751   3755     1   0.15110 237065.440000
   3755   3756     1   0.15110 237065.440000
   3755   3757     1   0.15110 237065.440000
   3756   3768     1   0.15375 251793.120000
   3757   3759     1   0.15375 251793.120000
   3759   3763     1   0.15241 261918.400000
   3763   3764     1   0.13513 334803.680000
   3763   3765     1   0.12183 533627.360000
   3768   3771     1   0.15241 261918.400000
   3771   3772     1   0.12183 533627.360000
   3771   3773     1   0.13513 334803.680000
   3777   3779     1   0.14619 275056.160000
   3779   3781     1   0.15375 251793.120000
   3781   3785     1   0.15110 237065.440000
   3785   3786     1   0.15110 237065.440000
   3785   3787     1   0.15110 237065.440000
   3786   3798     1   0.15375 251793.120000
   3787   3789     1   0.15375 251793.120000
   3789   3793     1   0.15241 261918.400000
   3793   3794     1   0.13513 334803.680000
   3793   3795     1   0.12183 533627.360000
   3798   3801     1   0.15241 261918.400000
   3801   3802     1   0.12183 533627.360000
   3801   3803     1   0.13513 334803.680000
   3807   3809     1   0.14619 275056.160000
   3809   3811     1   0.15375 251793.120000
   3811   3815     1   0.15110 237065.440000
   3815   3816     1   0.15110 237065.440000
   3815   3817     1   0.15110 237065.440000
   3816   3828     1   0.15375 251793.120000
   3817   3819     1   0.15375 251793.120000
   3819   3823     1   0.15241 261918.400000
   3823   3824     1   0.13513 334803.680000
   3823   3825     1   0.12183 533627.360000
   3828   3831     1   0.15241 261918.400000
   3831   3832     1   0.12183 533627.360000
   3831   3833     1   0.13513 334803.680000
   3837   3839     1   0.14619 275056.160000
   3839   3841     1   0.15375 251793.120000
   3841   3845     1   0.15110 237065.440000
   3845   3846     1   0.15110 237065.440000
   3845   3847     1   0.15110 237065.440000
   3846   3858     1   0.15375 251793.120000
   3847   3849     1   0.15375 251793.120000
   3849   3853     1   0.15241 261918.400000
   3853   3854     1   0.13513 334803.680000
   3853   3855     1   0.12183 533627.360000
   3858   3861     1   0.15241 261918.400000
   3861   3862     1   0.12183 533627.360000
   3861   3863     1   0.13513 334803.680000
   3867   3869     1   0.14619 275056.160000
   3869   3871     1   0.15375 251793.120000
   3871   3875     1   0.15110 237065.440000
   3875   3876     1   0.15110 237065.440000
   3875   3877     1   0.15110 237065.440000
   3876   3888     1   0.15375 251793.120000
   3877   3879     1   0.15375 251793.120000
   3879   3883     1   0.15241 261918.400000
   3883   3884     1   0.13513 334803.680000
   3883   3885     1   0.12183 533627.360000
   3888   3891     1   0.15241 261918.400000
   3891   3892     1   0.12183 533627.360000
   3891   3893     1   0.13513 334803.680000
   3897   3899     1   0.14619 275056.160000
   3899   3901     1   0.15375 251793.120000
   3901   3905     1   0.15110 237065.440000
   3905   3906     1   0.15110 237065.440000
   3905   3907     1   0.15110 237065.440000
   3906   3918     1   0.15375 251793.120000
   3907   3909     1   0.15375 251793.120000
   3909   3913     1   0.15241 261918.400000
   3913   3914     1   0.13513 334803.680000
   3913   3915     1   0.12183 533627.360000
   3918   3921     1   0.15241 261918.400000
   3921   3922     1   0.12183 533627.360000
   3921   3923     1   0.13513 334803.680000
   3927   3929     1   0.14619 275056.160000
   3929   3931     1   0.15375 251793.120000
   3931   3935     1   0.15110 237065.440000
   3935   3936     1   0.15110 237065.440000
   3935   3937     1   0.15110 237065.440000
   3936   3948     1   0.15375 251793.120000
   3937   3939     1   0.15375 251793.120000
   3939   3943     1   0.15241 261918.400000
   3943   3944     1   0.13513 334803.680000
   3943   3945     1   0.12183 533627.360000
   3948   3951     1   0.15241 261918.400000
   3951   3952     1   0.12183 533627.360000
   3951   3953     1   0.13513 334803.680000
   3957   3959     1   0.14619 275056.160000
   3959   3961     1   0.15375 251793.120000
   3961   3965     1   0.15110 237065.440000
   3965   3966     1   0.15110 237065.440000
   3965   3967     1   0.15110 237065.440000
   3966   3978     1   0.15375 251793.120000
   3967   3969     1   0.15375 251793.120000
   3969   3973     1   0.15241 261918.400000
   3973   3974     1   0.13513 334803.680000
   3973   3975     1   0.12183 533627.360000
   3978   3981     1   0.15241 261918.400000
   3981   3982     1   0.12183 533627.360000
   3981   3983     1   0.13513 334803.680000
   3987   3989     1   0.14619 275056.160000
   3989   3991     1   0.15375 251793.120000
   3991   3995     1   0.15110 237065.440000
   3995   3996     1   0.15110 237065.440000
   3995   3997     1   0.15110 237065.440000
   3996   4008     1   0.15375 251793.120000
   3997   3999     1   0.15375 251793.120000
   3999   4003     1   0.15241 261918.400000
   4003   4004     1   0.13513 334803.680000
   4003   4005     1   0.12183 533627.360000
   4008   4011     1   0.15241 261918.400000
   4011   4012     1   0.12183 533627.360000
   4011   4013     1   0.13513 334803.680000
   4017   4019     1   0.14619 275056.160000
   4019   4021     1   0.15375 251793.120000
   4021   4025     1   0.15110 237065.440000
   4025   4026     1   0.15110 237065.440000
   4025   4027     1   0.15110 237065.440000
   4026   4038     1   0.15375 251793.120000
   4027   4029     1   0.15375 251793.120000
   4029   4033     1   0.15241 261918.400000
   4033   4034     1   0.13513 334803.680000
   4033   4035     1   0.12183 533627.360000
   4038   4041     1   0.15241 261918.400000
   4041   4042     1   0.12183 533627.360000
   4041   4043     1   0.13513 334803.680000
   4047   4049     1   0.14619 275056.160000
   4049   4051     1   0.15375 251793.120000
   4051   4055     1   0.15110 237065.440000
   4055   4056     1   0.15110 237065.440000
   4055   4057     1   0.15110 237065.440000
   4056   4068     1   0.15375 251793.120000
   4057   4059     1   0.15375 251793.120000
   4059   4063     1   0.15241 261918.400000
   4063   4064     1   0.13513 334803.680000
   4063   4065     1   0.12183 533627.360000
   4068   4071     1   0.15241 261918.400000
   4071   4072     1   0.12183 533627.360000
   4071   4073     1   0.13513 334803.680000
   4077   4079     1   0.14619 275056.160000
   4079   4081     1   0.15375 251793.120000
   4081   4085     1   0.15110 237065.440000
   4085   4086     1   0.15110 237065.440000
   4085   4087     1   0.15110 237065.440000
   4086   4098     1   0.15375 251793.120000
   4087   4089     1   0.15375 251793.120000
   4089   4093     1   0.15241 261918.400000
   4093   4094     1   0.13513 334803.680000
   4093   4095     1   0.12183 533627.360000
   4098   4101     1   0.15241 261918.400000
   4101   4102     1   0.12183 533627.360000
   4101   4103     1   0.13513 334803.680000
   4107   4109     1   0.14619 275056.160000
   4109   4111     1   0.15375 251793.120000
   4111   4115     1   0.15110 237065.440000
   4115   4116     1   0.15110 237065.440000
   4115   4117     1   0.15110 237065.440000
   4116   4128     1   0.15375 251793.120000
   4117   4119     1   0.15375 251793.120000
   4119   4123     1   0.15241 261918.400000
   4123   4124     1   0.13513 334803.680000
   4123   4125     1   0.12183 533627.360000
   4128   4131     1   0.15241 261918.400000
   4131   4132     1   0.12183 533627.360000
   4131   4133     1   0.13513 334803.680000
   4137   4139     1   0.14619 275056.160000
   4139   4141     1   0.15375 251793.120000
   4141   4145     1   0.15110 237065.440000
   4145   4146     1   0.15110 237065.440000
   4145   4147     1   0.15110 237065.440000
   4146   4158     1   0.15375 251793.120000
   4147   4149     1   0.15375 251793.120000
   4149   4153     1   0.15241 261918.400000
   4153   4154     1   0.13513 334803.680000
   4153   4155     1   0.12183 533627.360000
   4158   4161     1   0.15241 261918.400000
   4161   4162     1   0.12183 533627.360000
   4161   4163     1   0.13513 334803.680000
   4167   4169     1   0.14619 275056.160000
   4169   4171     1   0.15375 251793.120000
   4171   4175     1   0.15110 237065.440000
   4175   4176     1   0.15110 237065.440000
   4175   4177     1   0.15110 237065.440000
   4176   4188     1   0.15375 251793.120000
   4177   4179     1   0.15375 251793.120000
   4179   4183     1   0.15241 261918.400000
   4183   4184     1   0.13513 334803.680000
   4183   4185     1   0.12183 533627.360000
   4188   4191     1   0.15241 261918.400000
   4191   4192     1   0.12183 533627.360000
   4191   4193     1   0.13513 334803.680000
   4197   4199     1   0.14619 275056.160000
   4199   4201     1   0.15375 251793.120000
   4201   4205     1   0.15110 237065.440000
   4205   4206     1   0.15110 237065.440000
   4205   4207     1   0.15110 237065.440000
   4206   4218     1   0.15375 251793.120000
   4207   4209     1   0.15375 251793.120000
   4209   4213     1   0.15241 261918.400000
   4213   4214     1   0.13513 334803.680000
   4213   4215     1   0.12183 533627.360000
   4218   4221     1   0.15241 261918.400000
   4221   4222     1   0.12183 533627.360000
   4221   4223     1   0.13513 334803.680000
   4227   4229     1   0.14619 275056.160000
   4229   4231     1   0.15375 251793.120000
   4231   4235     1   0.15110 237065.440000
   4235   4236     1   0.15110 237065.440000
   4235   4237     1   0.15110 237065.440000
   4236   4248     1   0.15375 251793.120000
   4237   4239     1   0.15375 251793.120000
   4239   4243     1   0.15241 261918.400000
   4243   4244     1   0.13513 334803.680000
   4243   4245     1   0.12183 533627.360000
   4248   4251     1   0.15241 261918.400000
   4251   4252     1   0.12183 533627.360000
   4251   4253     1   0.13513 334803.680000
   4257   4259     1   0.14619 275056.160000
   4259   4261     1   0.15375 251793.120000
   4261   4265     1   0.15110 237065.440000
   4265   4266     1   0.15110 237065.440000
   4265   4267     1   0.15110 237065.440000
   4266   4278     1   0.15375 251793.120000
   4267   4269     1   0.15375 251793.120000
   4269   4273     1   0.15241 261918.400000
   4273   4274     1   0.13513 334803.680000
   4273   4275     1   0.12183 533627.360000
   4278   4281     1   0.15241 261918.400000
   4281   4282     1   0.12183 533627.360000
   4281   4283     1   0.13513 334803.680000
   4287   4289     1   0.14619 275056.160000
   4289   4291     1   0.15375 251793.120000
   4291   4295     1   0.15110 237065.440000
   4295   4296     1   0.15110 237065.440000
   4295   4297     1   0.15110 237065.440000
   4296   4308     1   0.15375 251793.120000
   4297   4299     1   0.15375 251793.120000
   4299   4303     1   0.15241 261918.400000
   4303   4304     1   0.13513 334803.680000
   4303   4305     1   0.12183 533627.360000
   4308   4311     1   0.15241 261918.400000
   4311   4312     1   0.12183 533627.360000
   4311   4313     1   0.13513 334803.680000
   4317   4319     1   0.14619 275056.160000
   4319   4321     1   0.15375 251793.120000
   4321   4325     1   0.15110 237065.440000
   4325   4326     1   0.15110 237065.440000
   4325   4327     1   0.15110 237065.440000
   4326   4338     1   0.15375 251793.120000
   4327   4329     1   0.15375 251793.120000
   4329   4333     1   0.15241 261918.400000
   4333   4334     1   0.13513 334803.680000
   4333   4335     1   0.12183 533627.360000
   4338   4341     1   0.15241 261918.400000
   4341   4342     1   0.12183 533627.360000
   4341   4343     1   0.13513 334803.680000
   4347   4349     1   0.14619 275056.160000
   4349   4351     1   0.15375 251793.120000
   4351   4355     1   0.15110 237065.440000
   4355   4356     1   0.15110 237065.440000
   4355   4357     1   0.15110 237065.440000
   4356   4368     1   0.15375 251793.120000
   4357   4359     1   0.15375 251793.120000
   4359   4363     1   0.15241 261918.400000
   4363   4364     1   0.13513 334803.680000
   4363   4365     1   0.12183 533627.360000
   4368   4371     1   0.15241 261918.400000
   4371   4372     1   0.12183 533627.360000
   4371   4373     1   0.13513 334803.680000
   4377   4379     1   0.14619 275056.160000
   4379   4381     1   0.15375 251793.120000
   4381   4385     1   0.15110 237065.440000
   4385   4386     1   0.15110 237065.440000
   4385   4387     1   0.15110 237065.440000
   4386   4398     1   0.15375 251793.120000
   4387   4389     1   0.15375 251793.120000
   4389   4393     1   0.15241 261918.400000
   4393   4394     1   0.13513 334803.680000
   4393   4395     1   0.12183 533627.360000
   4398   4401     1   0.15241 261918.400000
   4401   4402     1   0.12183 533627.360000
   4401   4403     1   0.13513 334803.680000
   4407   4409     1   0.14619 275056.160000
   4409   4411     1   0.15375 251793.120000
   4411   4415     1   0.15110 237065.440000
   4415   4416     1   0.15110 237065.440000
   4415   4417     1   0.15110 237065.440000
   4416   4428     1   0.15375 251793.120000
   4417   4419     1   0.15375 251793.120000
   4419   4423     1   0.15241 261918.400000
   4423   4424     1   0.13513 334803.680000
   4423   4425     1   0.12183 533627.360000
   4428   4431     1   0.15241 261918.400000
   4431   4432     1   0.12183 533627.360000
   4431   4433     1   0.13513 334803.680000
   4437   4439     1   0.14619 275056.160000
   4439   4441     1   0.15375 251793.120000
   4441   4445     1   0.15110 237065.440000
   4445   4446     1   0.15110 237065.440000
   4445   4447     1   0.15110 237065.440000
   4446   4458     1   0.15375 251793.120000
   4447   4449     1   0.15375 251793.120000
   4449   4453     1   0.15241 261918.400000
   4453   4454     1   0.13513 334803.680000
   4453   4455     1   0.12183 533627.360000
   4458   4461     1   0.15241 261918.400000
   4461   4462     1   0.12183 533627.360000
   4461   4463     1   0.13513 334803.680000
   4467   4469     1   0.14619 275056.160000
   4469   4471     1   0.15375 251793.120000
   4471   4475     1   0.15110 237065.440000
   4475   4476     1   0.15110 237065.440000
   4475   4477     1   0.15110 237065.440000
   4476   4488     1   0.15375 251793.120000
   4477   4479     1   0.15375 251793.120000
   4479   4483     1   0.15241 261918.400000
   4483   4484     1   0.13513 334803.680000
   4483   4485     1   0.12183 533627.360000
   4488   4491     1   0.15241 261918.400000
   4491   4492     1   0.12183 533627.360000
   4491   4493     1   0.13513 334803.680000
   4497   4499     1   0.14619 275056.160000
   4499   4501     1   0.15375 251793.120000
   4501   4505     1   0.15110 237065.440000
   4505   4506     1   0.15110 237065.440000
   4505   4507     1   0.15110 237065.440000
   4506   4518     1   0.15375 251793.120000
   4507   4509     1   0.15375 251793.120000
   4509   4513     1   0.15241 261918.400000
   4513   4514     1   0.13513 334803.680000
   4513   4515     1   0.12183 533627.360000
   4518   4521     1   0.15241 261918.400000
   4521   4522     1   0.12183 533627.360000
   4521   4523     1   0.13513 334803.680000
   4527   4529     1   0.14619 275056.160000
   4529   4531     1   0.15375 251793.120000
   4531   4535     1   0.15110 237065.440000
   4535   4536     1   0.15110 237065.440000
   4535   4537     1   0.15110 237065.440000
   4536   4548     1   0.15375 251793.120000
   4537   4539     1   0.15375 251793.120000
   4539   4543     1   0.15241 261918.400000
   4543   4544     1   0.13513 334803.680000
   4543   4545     1   0.12183 533627.360000
   4548   4551     1   0.15241 261918.400000
   4551   4552     1   0.12183 533627.360000
   4551   4553     1   0.13513 334803.680000
   4557   4559     1   0.14619 275056.160000
   4559   4561     1   0.15375 251793.120000
   4561   4565     1   0.15110 237065.440000
   4565   4566     1   0.15110 237065.440000
   4565   4567     1   0.15110 237065.440000
   4566   4578     1   0.15375 251793.120000
   4567   4569     1   0.15375 251793.120000
   4569   4573     1   0.15241 261918.400000
   4573   4574     1   0.13513 334803.680000
   4573   4575     1   0.12183 533627.360000
   4578   4581     1   0.15241 261918.400000
   4581   4582     1   0.12183 533627.360000
   4581   4583     1   0.13513 334803.680000
   4587   4589     1   0.14619 275056.160000
   4589   4591     1   0.15375 251793.120000
   4591   4595     1   0.15110 237065.440000
   4595   4596     1   0.15110 237065.440000
   4595   4597     1   0.15110 237065.440000
   4596   4608     1   0.15375 251793.120000
   4597   4599     1   0.15375 251793.120000
   4599   4603     1   0.15241 261918.400000
   4603   4604     1   0.13513 334803.680000
   4603   4605     1   0.12183 533627.360000
   4608   4611     1   0.15241 261918.400000
   4611   4612     1   0.12183 533627.360000
   4611   4613     1   0.13513 334803.680000
   4617   4619     1   0.14619 275056.160000
   4619   4621     1   0.15375 251793.120000
   4621   4625     1   0.15110 237065.440000
   4625   4626     1   0.15110 237065.440000
   4625   4627     1   0.15110 237065.440000
   4626   4638     1   0.15375 251793.120000
   4627   4629     1   0.15375 251793.120000
   4629   4633     1   0.15241 261918.400000
   4633   4634     1   0.13513 334803.680000
   4633   4635     1   0.12183 533627.360000
   4638   4641     1   0.15241 261918.400000
   4641   4642     1   0.12183 533627.360000
   4641   4643     1   0.13513 334803.680000
   4647   4649     1   0.14619 275056.160000
   4649   4651     1   0.15375 251793.120000
   4651   4655     1   0.15110 237065.440000
   4655   4656     1   0.15110 237065.440000
   4655   4657     1   0.15110 237065.440000
   4656   4668     1   0.15375 251793.120000
   4657   4659     1   0.15375 251793.120000
   4659   4663     1   0.15241 261918.400000
   4663   4664     1   0.13513 334803.680000
   4663   4665     1   0.12183 533627.360000
   4668   4671     1   0.15241 261918.400000
   4671   4672     1   0.12183 533627.360000
   4671   4673     1   0.13513 334803.680000
   4677   4679     1   0.14619 275056.160000
   4679   4681     1   0.15375 251793.120000
   4681   4685     1   0.15110 237065.440000
   4685   4686     1   0.15110 237065.440000
   4685   4687     1   0.15110 237065.440000
   4686   4698     1   0.15375 251793.120000
   4687   4689     1   0.15375 251793.120000
   4689   4693     1   0.15241 261918.400000
   4693   4694     1   0.13513 334803.680000
   4693   4695     1   0.12183 533627.360000
   4698   4701     1   0.15241 261918.400000
   4701   4702     1   0.12183 533627.360000
   4701   4703     1   0.13513 334803.680000
   4707   4709     1   0.14619 275056.160000
   4709   4711     1   0.15375 251793.120000
   4711   4715     1   0.15110 237065.440000
   4715   4716     1   0.15110 237065.440000
   4715   4717     1   0.15110 237065.440000
   4716   4728     1   0.15375 251793.120000
   4717   4719     1   0.15375 251793.120000
   4719   4723     1   0.15241 261918.400000
   4723   4724     1   0.13513 334803.680000
   4723   4725     1   0.12183 533627.360000
   4728   4731     1   0.15241 261918.400000
   4731   4732     1   0.12183 533627.360000
   4731   4733     1   0.13513 334803.680000
   4737   4739     1   0.14619 275056.160000
   4739   4741     1   0.15375 251793.120000
   4741   4745     1   0.15110 237065.440000
   4745   4746     1   0.15110 237065.440000
   4745   4747     1   0.15110 237065.440000
   4746   4758     1   0.15375 251793.120000
   4747   4749     1   0.15375 251793.120000
   4749   4753     1   0.15241 261918.400000
   4753   4754     1   0.13513 334803.680000
   4753   4755     1   0.12183 533627.360000
   4758   4761     1   0.15241 261918.400000
   4761   4762     1   0.12183 533627.360000
   4761   4763     1   0.13513 334803.680000
   4767   4769     1   0.14619 275056.160000
   4769   4771     1   0.15375 251793.120000
   4771   4775     1   0.15110 237065.440000
   4775   4776     1   0.15110 237065.440000
   4775   4777     1   0.15110 237065.440000
   4776   4788     1   0.15375 251793.120000
   4777   4779     1   0.15375 251793.120000
   4779   4783     1   0.15241 261918.400000
   4783   4784     1   0.13513 334803.680000
   4783   4785     1   0.12183 533627.360000
   4788   4791     1   0.15241 261918.400000
   4791   4792     1   0.12183 533627.360000
   4791   4793     1   0.13513 334803.680000
   4797   4799     1   0.14619 275056.160000
   4799   4801     1   0.15375 251793.120000
   4801   4805     1   0.15110 237065.440000
   4805   4806     1   0.15110 237065.440000
   4805   4807     1   0.15110 237065.440000
   4806   4818     1   0.15375 251793.120000
   4807   4809     1   0.15375 251793.120000
   4809   4813     1   0.15241 261918.400000
   4813   4814     1   0.13513 334803.680000
   4813   4815     1   0.12183 533627.360000
   4818   4821     1   0.15241 261918.400000
   4821   4822     1   0.12183 533627.360000
   4821   4823     1   0.13513 334803.680000
   4827   4829     1   0.14619 275056.160000
   4829   4831     1   0.15375 251793.120000
   4831   4835     1   0.15110 237065.440000
   4835   4836     1   0.15110 237065.440000
   4835   4837     1   0.15110 237065.440000
   4836   4848     1   0.15375 251793.120000
   4837   4839     1   0.15375 251793.120000
   4839   4843     1   0.15241 261918.400000
   4843   4844     1   0.13513 334803.680000
   4843   4845     1   0.12183 533627.360000
   4848   4851     1   0.15241 261918.400000
   4851   4852     1   0.12183 533627.360000
   4851   4853     1   0.13513 334803.680000
   4857   4859     1   0.14619 275056.160000
   4859   4861     1   0.15375 251793.120000
   4861   4865     1   0.15110 237065.440000
   4865   4866     1   0.15110 237065.440000
   4865   4867     1   0.15110 237065.440000
   4866   4878     1   0.15375 251793.120000
   4867   4869     1   0.15375 251793.120000
   4869   4873     1   0.15241 261918.400000
   4873   4874     1   0.13513 334803.680000
   4873   4875     1   0.12183 533627.360000
   4878   4881     1   0.15241 261918.400000
   4881   4882     1   0.12183 533627.360000
   4881   4883     1   0.13513 334803.680000
   4887   4889     1   0.14619 275056.160000
   4889   4891     1   0.15375 251793.120000
   4891   4895     1   0.15110 237065.440000
   4895   4896     1   0.15110 237065.440000
   4895   4897     1   0.15110 237065.440000
   4896   4908     1   0.15375 251793.120000
   4897   4899     1   0.15375 251793.120000
   4899   4903     1   0.15241 261918.400000
   4903   4904     1   0.13513 334803.680000
   4903   4905     1   0.12183 533627.360000
   4908   4911     1   0.15241 261918.400000
   4911   4912     1   0.12183 533627.360000
   4911   4913     1   0.13513 334803.680000
   4917   4919     1   0.14619 275056.160000
   4919   4921     1   0.15375 251793.120000
   4921   4925     1   0.15110 237065.440000
   4925   4926     1   0.15110 237065.440000
   4925   4927     1   0.15110 237065.440000
   4926   4938     1   0.15375 251793.120000
   4927   4929     1   0.15375 251793.120000
   4929   4933     1   0.15241 261918.400000
   4933   4934     1   0.13513 334803.680000
   4933   4935     1   0.12183 533627.360000
   4938   4941     1   0.15241 261918.400000
   4941   4942     1   0.12183 533627.360000
   4941   4943     1   0.13513 334803.680000
   4947   4949     1   0.14619 275056.160000
   4949   4951     1   0.15375 251793.120000
   4951   4955     1   0.15110 237065.440000
   4955   4956     1   0.15110 237065.440000
   4955   4957     1   0.15110 237065.440000
   4956   4968     1   0.15375 251793.120000
   4957   4959     1   0.15375 251793.120000
   4959   4963     1   0.15241 261918.400000
   4963   4964     1   0.13513 334803.680000
   4963   4965     1   0.12183 533627.360000
   4968   4971     1   0.15241 261918.400000
   4971   4972     1   0.12183 533627.360000
   4971   4973     1   0.13513 334803.680000
   4977   4979     1   0.14619 275056.160000
   4979   4981     1   0.15375 251793.120000
   4981   4985     1   0.15110 237065.440000
   4985   4986     1   0.15110 237065.440000
   4985   4987     1   0.15110 237065.440000
   4986   4998     1   0.15375 251793.120000
   4987   4989     1   0.15375 251793.120000
   4989   4993     1   0.15241 261918.400000
   4993   4994     1   0.13513 334803.680000
   4993   4995     1   0.12183 533627.360000
   4998   5001     1   0.15241 261918.400000
   5001   5002     1   0.12183 533627.360000
   5001   5003     1   0.13513 334803.680000
   5007   5009     1   0.14619 275056.160000
   5009   5011     1   0.15375 251793.120000
   5011   5015     1   0.15110 237065.440000
   5015   5016     1   0.15110 237065.440000
   5015   5017     1   0.15110 237065.440000
   5016   5028     1   0.15375 251793.120000
   5017   5019     1   0.15375 251793.120000
   5019   5023     1   0.15241 261918.400000
   5023   5024     1   0.13513 334803.680000
   5023   5025     1   0.12183 533627.360000
   5028   5031     1   0.15241 261918.400000
   5031   5032     1   0.12183 533627.360000
   5031   5033     1   0.13513 334803.680000
   5037   5039     1   0.14619 275056.160000
   5039   5041     1   0.15375 251793.120000
   5041   5045     1   0.15110 237065.440000
   5045   5046     1   0.15110 237065.440000
   5045   5047     1   0.15110 237065.440000
   5046   5058     1   0.15375 251793.120000
   5047   5049     1   0.15375 251793.120000
   5049   5053     1   0.15241 261918.400000
   5053   5054     1   0.13513 334803.680000
   5053   5055     1   0.12183 533627.360000
   5058   5061     1   0.15241 261918.400000
   5061   5062     1   0.12183 533627.360000
   5061   5063     1   0.13513 334803.680000
   5067   5069     1   0.14619 275056.160000
   5069   5071     1   0.15375 251793.120000
   5071   5075     1   0.15110 237065.440000
   5075   5076     1   0.15110 237065.440000
   5075   5077     1   0.15110 237065.440000
   5076   5088     1   0.15375 251793.120000
   5077   5079     1   0.15375 251793.120000
   5079   5083     1   0.15241 261918.400000
   5083   5084     1   0.13513 334803.680000
   5083   5085     1   0.12183 533627.360000
   5088   5091     1   0.15241 261918.400000
   5091   5092     1   0.12183 533627.360000
   5091   5093     1   0.13513 334803.680000
   5097   5099     1   0.14619 275056.160000
   5099   5101     1   0.15375 251793.120000
   5101   5105     1   0.15110 237065.440000
   5105   5106     1   0.15110 237065.440000
   5105   5107     1   0.15110 237065.440000
   5106   5118     1   0.15375 251793.120000
   5107   5109     1   0.15375 251793.120000
   5109   5113     1   0.15241 261918.400000
   5113   5114     1   0.13513 334803.680000
   5113   5115     1   0.12183 533627.360000
   5118   5121     1   0.15241 261918.400000
   5121   5122     1   0.12183 533627.360000
   5121   5123     1   0.13513 334803.680000
   5127   5129     1   0.14619 275056.160000
   5129   5131     1   0.15375 251793.120000
   5131   5135     1   0.15110 237065.440000
   5135   5136     1   0.15110 237065.440000
   5135   5137     1   0.15110 237065.440000
   5136   5148     1   0.15375 251793.120000
   5137   5139     1   0.15375 251793.120000
   5139   5143     1   0.15241 261918.400000
   5143   5144     1   0.13513 334803.680000
   5143   5145     1   0.12183 533627.360000
   5148   5151     1   0.15241 261918.400000
   5151   5152     1   0.12183 533627.360000
   5151   5153     1   0.13513 334803.680000
   5157   5159     1   0.14619 275056.160000
   5159   5161     1   0.15375 251793.120000
   5161   5165     1   0.15110 237065.440000
   5165   5166     1   0.15110 237065.440000
   5165   5167     1   0.15110 237065.440000
   5166   5178     1   0.15375 251793.120000
   5167   5169     1   0.15375 251793.120000
   5169   5173     1   0.15241 261918.400000
   5173   5174     1   0.13513 334803.680000
   5173   5175     1   0.12183 533627.360000
   5178   5181     1   0.15241 261918.400000
   5181   5182     1   0.12183 533627.360000
   5181   5183     1   0.13513 334803.680000
   5187   5189     1   0.14619 275056.160000
   5189   5191     1   0.15375 251793.120000
   5191   5195     1   0.15110 237065.440000
   5195   5196     1   0.15110 237065.440000
   5195   5197     1   0.15110 237065.440000
   5196   5208     1   0.15375 251793.120000
   5197   5199     1   0.15375 251793.120000
   5199   5203     1   0.15241 261918.400000
   5203   5204     1   0.13513 334803.680000
   5203   5205     1   0.12183 533627.360000
   5208   5211     1   0.15241 261918.400000
   5211   5212     1   0.12183 533627.360000
   5211   5213     1   0.13513 334803.680000
   5217   5219     1   0.14619 275056.160000
   5219   5221     1   0.15375 251793.120000
   5221   5225     1   0.15110 237065.440000
   5225   5226     1   0.15110 237065.440000
   5225   5227     1   0.15110 237065.440000
   5226   5238     1   0.15375 251793.120000
   5227   5229     1   0.15375 251793.120000
   5229   5233     1   0.15241 261918.400000
   5233   5234     1   0.13513 334803.680000
   5233   5235     1   0.12183 533627.360000
   5238   5241     1   0.15241 261918.400000
   5241   5242     1   0.12183 533627.360000
   5241   5243     1   0.13513 334803.680000
   5247   5249     1   0.14619 275056.160000
   5249   5251     1   0.15375 251793.120000
   5251   5255     1   0.15110 237065.440000
   5255   5256     1   0.15110 237065.440000
   5255   5257     1   0.15110 237065.440000
   5256   5268     1   0.15375 251793.120000
   5257   5259     1   0.15375 251793.120000
   5259   5263     1   0.15241 261918.400000
   5263   5264     1   0.13513 334803.680000
   5263   5265     1   0.12183 533627.360000
   5268   5271     1   0.15241 261918.400000
   5271   5272     1   0.12183 533627.360000
   5271   5273     1   0.13513 334803.680000
   5277   5279     1   0.14619 275056.160000
   5279   5281     1   0.15375 251793.120000
   5281   5285     1   0.15110 237065.440000
   5285   5286     1   0.15110 237065.440000
   5285   5287     1   0.15110 237065.440000
   5286   5298     1   0.15375 251793.120000
   5287   5289     1   0.15375 251793.120000
   5289   5293     1   0.15241 261918.400000
   5293   5294     1   0.13513 334803.680000
   5293   5295     1   0.12183 533627.360000
   5298   5301     1   0.15241 261918.400000
   5301   5302     1   0.12183 533627.360000
   5301   5303     1   0.13513 334803.680000
   5307   5309     1   0.14619 275056.160000
   5309   5311     1   0.15375 251793.120000
   5311   5315     1   0.15110 237065.440000
   5315   5316     1   0.15110 237065.440000
   5315   5317     1   0.15110 237065.440000
   5316   5328     1   0.15375 251793.120000
   5317   5319     1   0.15375 251793.120000
   5319   5323     1   0.15241 261918.400000
   5323   5324     1   0.13513 334803.680000
   5323   5325     1   0.12183 533627.360000
   5328   5331     1   0.15241 261918.400000
   5331   5332     1   0.12183 533627.360000
   5331   5333     1   0.13513 334803.680000
   5337   5339     1   0.14619 275056.160000
   5339   5341     1   0.15375 251793.120000
   5341   5345     1   0.15110 237065.440000
   5345   5346     1   0.15110 237065.440000
   5345   5347     1   0.15110 237065.440000
   5346   5358     1   0.15375 251793.120000
   5347   5349     1   0.15375 251793.120000
   5349   5353     1   0.15241 261918.400000
   5353   5354     1   0.13513 334803.680000
   5353   5355     1   0.12183 533627.360000
   5358   5361     1   0.15241 261918.400000
   5361   5362     1   0.12183 533627.360000
   5361   5363     1   0.13513 334803.680000
   5367   5369     1   0.14619 275056.160000
   5369   5371     1   0.15375 251793.120000
   5371   5375     1   0.15110 237065.440000
   5375   5376     1   0.15110 237065.440000
   5375   5377     1   0.15110 237065.440000
   5376   5388     1   0.15375 251793.120000
   5377   5379     1   0.15375 251793.120000
   5379   5383     1   0.15241 261918.400000
   5383   5384     1   0.13513 334803.680000
   5383   5385     1   0.12183 533627.360000
   5388   5391     1   0.15241 261918.400000
   5391   5392     1   0.12183 533627.360000
   5391   5393     1   0.13513 334803.680000
   5397   5399     1   0.14619 275056.160000
   5399   5401     1   0.15375 251793.120000
   5401   5405     1   0.15110 237065.440000
   5405   5406     1   0.15110 237065.440000
   5405   5407     1   0.15110 237065.440000
   5406   5418     1   0.15375 251793.120000
   5407   5409     1   0.15375 251793.120000
   5409   5413     1   0.15241 261918.400000
   5413   5414     1   0.13513 334803.680000
   5413   5415     1   0.12183 533627.360000
   5418   5421     1   0.15241 261918.400000
   5421   5422     1   0.12183 533627.360000
   5421   5423     1   0.13513 334803.680000
   5427   5429     1   0.14619 275056.160000
   5429   5431     1   0.15375 251793.120000
   5431   5435     1   0.15110 237065.440000
   5435   5436     1   0.15110 237065.440000
   5435   5437     1   0.15110 237065.440000
   5436   5448     1   0.15375 251793.120000
   5437   5439     1   0.15375 251793.120000
   5439   5443     1   0.15241 261918.400000
   5443   5444     1   0.13513 334803.680000
   5443   5445     1   0.12183 533627.360000
   5448   5451     1   0.15241 261918.400000
   5451   5452     1   0.12183 533627.360000
   5451   5453     1   0.13513 334803.680000
   5457   5459     1   0.14619 275056.160000
   5459   5461     1   0.15375 251793.120000
   5461   5465     1   0.15110 237065.440000
   5465   5466     1   0.15110 237065.440000
   5465   5467     1   0.15110 237065.440000
   5466   5478     1   0.15375 251793.120000
   5467   5469     1   0.15375 251793.120000
   5469   5473     1   0.15241 261918.400000
   5473   5474     1   0.13513 334803.680000
   5473   5475     1   0.12183 533627.360000
   5478   5481     1   0.15241 261918.400000
   5481   5482     1   0.12183 533627.360000
   5481   5483     1   0.13513 334803.680000
   5487   5489     1   0.14619 275056.160000
   5489   5491     1   0.15375 251793.120000
   5491   5495     1   0.15110 237065.440000
   5495   5496     1   0.15110 237065.440000
   5495   5497     1   0.15110 237065.440000
   5496   5508     1   0.15375 251793.120000
   5497   5499     1   0.15375 251793.120000
   5499   5503     1   0.15241 261918.400000
   5503   5504     1   0.13513 334803.680000
   5503   5505     1   0.12183 533627.360000
   5508   5511     1   0.15241 261918.400000
   5511   5512     1   0.12183 533627.360000
   5511   5513     1   0.13513 334803.680000
   5517   5519     1   0.14619 275056.160000
   5519   5521     1   0.15375 251793.120000
   5521   5525     1   0.15110 237065.440000
   5525   5526     1   0.15110 237065.440000
   5525   5527     1   0.15110 237065.440000
   5526   5538     1   0.15375 251793.120000
   5527   5529     1   0.15375 251793.120000
   5529   5533     1   0.15241 261918.400000
   5533   5534     1   0.13513 334803.680000
   5533   5535     1   0.12183 533627.360000
   5538   5541     1   0.15241 261918.400000
   5541   5542     1   0.12183 533627.360000
   5541   5543     1   0.13513 334803.680000
   5547   5549     1   0.14619 275056.160000
   5549   5551     1   0.15375 251793.120000
   5551   5555     1   0.15110 237065.440000
   5555   5556     1   0.15110 237065.440000
   5555   5557     1   0.15110 237065.440000
   5556   5568     1   0.15375 251793.120000
   5557   5559     1   0.15375 251793.120000
   5559   5563     1   0.15241 261918.400000
   5563   5564     1   0.13513 334803.680000
   5563   5565     1   0.12183 533627.360000
   5568   5571     1   0.15241 261918.400000
   5571   5572     1   0.12183 533627.360000
   5571   5573     1   0.13513 334803.680000
   5577   5579     1   0.14619 275056.160000
   5579   5581     1   0.15375 251793.120000
   5581   5585     1   0.15110 237065.440000
   5585   5586     1   0.15110 237065.440000
   5585   5587     1   0.15110 237065.440000
   5586   5598     1   0.15375 251793.120000
   5587   5589     1   0.15375 251793.120000
   5589   5593     1   0.15241 261918.400000
   5593   5594     1   0.13513 334803.680000
   5593   5595     1   0.12183 533627.360000
   5598   5601     1   0.15241 261918.400000
   5601   5602     1   0.12183 533627.360000
   5601   5603     1   0.13513 334803.680000
   5607   5609     1   0.14619 275056.160000
   5609   5611     1   0.15375 251793.120000
   5611   5615     1   0.15110 237065.440000
   5615   5616     1   0.15110 237065.440000
   5615   5617     1   0.15110 237065.440000
   5616   5628     1   0.15375 251793.120000
   5617   5619     1   0.15375 251793.120000
   5619   5623     1   0.15241 261918.400000
   5623   5624     1   0.13513 334803.680000
   5623   5625     1   0.12183 533627.360000
   5628   5631     1   0.15241 261918.400000
   5631   5632     1   0.12183 533627.360000
   5631   5633     1   0.13513 334803.680000
   5637   5639     1   0.14619 275056.160000
   5639   5641     1   0.15375 251793.120000
   5641   5645     1   0.15110 237065.440000
   5645   5646     1   0.15110 237065.440000
   5645   5647     1   0.15110 237065.440000
   5646   5658     1   0.15375 251793.120000
   5647   5649     1   0.15375 251793.120000
   5649   5653     1   0.15241 261918.400000
   5653   5654     1   0.13513 334803.680000
   5653   5655     1   0.12183 533627.360000
   5658   5661     1   0.15241 261918.400000
   5661   5662     1   0.12183 533627.360000
   5661   5663     1   0.13513 334803.680000
   5667   5669     1   0.14619 275056.160000
   5669   5671     1   0.15375 251793.120000
   5671   5675     1   0.15110 237065.440000
   5675   5676     1   0.15110 237065.440000
   5675   5677     1   0.15110 237065.440000
   5676   5688     1   0.15375 251793.120000
   5677   5679     1   0.15375 251793.120000
   5679   5683     1   0.15241 261918.400000
   5683   5684     1   0.13513 334803.680000
   5683   5685     1   0.12183 533627.360000
   5688   5691     1   0.15241 261918.400000
   5691   5692     1   0.12183 533627.360000
   5691   5693     1   0.13513 334803.680000
   5697   5699     1   0.14619 275056.160000
   5699   5701     1   0.15375 251793.120000
   5701   5705     1   0.15110 237065.440000
   5705   5706     1   0.15110 237065.440000
   5705   5707     1   0.15110 237065.440000
   5706   5718     1   0.15375 251793.120000
   5707   5709     1   0.15375 251793.120000
   5709   5713     1   0.15241 261918.400000
   5713   5714     1   0.13513 334803.680000
   5713   5715     1   0.12183 533627.360000
   5718   5721     1   0.15241 261918.400000
   5721   5722     1   0.12183 533627.360000
   5721   5723     1   0.13513 334803.680000
   5727   5729     1   0.14619 275056.160000
   5729   5731     1   0.15375 251793.120000
   5731   5735     1   0.15110 237065.440000
   5735   5736     1   0.15110 237065.440000
   5735   5737     1   0.15110 237065.440000
   5736   5748     1   0.15375 251793.120000
   5737   5739     1   0.15375 251793.120000
   5739   5743     1   0.15241 261918.400000
   5743   5744     1   0.13513 334803.680000
   5743   5745     1   0.12183 533627.360000
   5748   5751     1   0.15241 261918.400000
   5751   5752     1   0.12183 533627.360000
   5751   5753     1   0.13513 334803.680000
   5757   5759     1   0.14619 275056.160000
   5759   5761     1   0.15375 251793.120000
   5761   5765     1   0.15110 237065.440000
   5765   5766     1   0.15110 237065.440000
   5765   5767     1   0.15110 237065.440000
   5766   5778     1   0.15375 251793.120000
   5767   5769     1   0.15375 251793.120000
   5769   5773     1   0.15241 261918.400000
   5773   5774     1   0.13513 334803.680000
   5773   5775     1   0.12183 533627.360000
   5778   5781     1   0.15241 261918.400000
   5781   5782     1   0.12183 533627.360000
   5781   5783     1   0.13513 334803.680000
   5787   5789     1   0.14619 275056.160000
   5789   5791     1   0.15375 251793.120000
   5791   5795     1   0.15110 237065.440000
   5795   5796     1   0.15110 237065.440000
   5795   5797     1   0.15110 237065.440000
   5796   5808     1   0.15375 251793.120000
   5797   5799     1   0.15375 251793.120000
   5799   5803     1   0.15241 261918.400000
   5803   5804     1   0.13513 334803.680000
   5803   5805     1   0.12183 533627.360000
   5808   5811     1   0.15241 261918.400000
   5811   5812     1   0.12183 533627.360000
   5811   5813     1   0.13513 334803.680000
   5817   5819     1   0.14619 275056.160000
   5819   5821     1   0.15375 251793.120000
   5821   5825     1   0.15110 237065.440000
   5825   5826     1   0.15110 237065.440000
   5825   5827     1   0.15110 237065.440000
   5826   5838     1   0.15375 251793.120000
   5827   5829     1   0.15375 251793.120000
   5829   5833     1   0.15241 261918.400000
   5833   5834     1   0.13513 334803.680000
   5833   5835     1   0.12183 533627.360000
   5838   5841     1   0.15241 261918.400000
   5841   5842     1   0.12183 533627.360000
   5841   5843     1   0.13513 334803.680000
   5847   5849     1   0.14619 275056.160000
   5849   5851     1   0.15375 251793.120000
   5851   5855     1   0.15110 237065.440000
   5855   5856     1   0.15110 237065.440000
   5855   5857     1   0.15110 237065.440000
   5856   5868     1   0.15375 251793.120000
   5857   5859     1   0.15375 251793.120000
   5859   5863     1   0.15241 261918.400000
   5863   5864     1   0.13513 334803.680000
   5863   5865     1   0.12183 533627.360000
   5868   5871     1   0.15241 261918.400000
   5871   5872     1   0.12183 533627.360000
   5871   5873     1   0.13513 334803.680000
   5877   5879     1   0.14619 275056.160000
   5879   5881     1   0.15375 251793.120000
   5881   5885     1   0.15110 237065.440000
   5885   5886     1   0.15110 237065.440000
   5885   5887     1   0.15110 237065.440000
   5886   5898     1   0.15375 251793.120000
   5887   5889     1   0.15375 251793.120000
   5889   5893     1   0.15241 261918.400000
   5893   5894     1   0.13513 334803.680000
   5893   5895     1   0.12183 533627.360000
   5898   5901     1   0.15241 261918.400000
   5901   5902     1   0.12183 533627.360000
   5901   5903     1   0.13513 334803.680000
   5907   5909     1   0.14619 275056.160000
   5909   5911     1   0.15375 251793.120000
   5911   5915     1   0.15110 237065.440000
   5915   5916     1   0.15110 237065.440000
   5915   5917     1   0.15110 237065.440000
   5916   5928     1   0.15375 251793.120000
   5917   5919     1   0.15375 251793.120000
   5919   5923     1   0.15241 261918.400000
   5923   5924     1   0.13513 334803.680000
   5923   5925     1   0.12183 533627.360000
   5928   5931     1   0.15241 261918.400000
   5931   5932     1   0.12183 533627.360000
   5931   5933     1   0.13513 334803.680000
   5937   5939     1   0.14619 275056.160000
   5939   5941     1   0.15375 251793.120000
   5941   5945     1   0.15110 237065.440000
   5945   5946     1   0.15110 237065.440000
   5945   5947     1   0.15110 237065.440000
   5946   5958     1   0.15375 251793.120000
   5947   5949     1   0.15375 251793.120000
   5949   5953     1   0.15241 261918.400000
   5953   5954     1   0.13513 334803.680000
   5953   5955     1   0.12183 533627.360000
   5958   5961     1   0.15241 261918.400000
   5961   5962     1   0.12183 533627.360000
   5961   5963     1   0.13513 334803.680000
   5967   5969     1   0.14619 275056.160000
   5969   5971     1   0.15375 251793.120000
   5971   5975     1   0.15110 237065.440000
   5975   5976     1   0.15110 237065.440000
   5975   5977     1   0.15110 237065.440000
   5976   5988     1   0.15375 251793.120000
   5977   5979     1   0.15375 251793.120000
   5979   5983     1   0.15241 261918.400000
   5983   5984     1   0.13513 334803.680000
   5983   5985     1   0.12183 533627.360000
   5988   5991     1   0.15241 261918.400000
   5991   5992     1   0.12183 533627.360000
   5991   5993     1   0.13513 334803.680000
   5997   5999     1   0.14619 275056.160000
   5999   6001     1   0.15375 251793.120000
   6001   6005     1   0.15110 237065.440000
   6005   6006     1   0.15110 237065.440000
   6005   6007     1   0.15110 237065.440000
   6006   6018     1   0.15375 251793.120000
   6007   6009     1   0.15375 251793.120000
   6009   6013     1   0.15241 261918.400000
   6013   6014     1   0.13513 334803.680000
   6013   6015     1   0.12183 533627.360000
   6018   6021     1   0.15241 261918.400000
   6021   6022     1   0.12183 533627.360000
   6021   6023     1   0.13513 334803.680000
   6027   6029     1   0.14619 275056.160000
   6029   6031     1   0.15375 251793.120000
   6031   6035     1   0.15110 237065.440000
   6035   6036     1   0.15110 237065.440000
   6035   6037     1   0.15110 237065.440000
   6036   6048     1   0.15375 251793.120000
   6037   6039     1   0.15375 251793.120000
   6039   6043     1   0.15241 261918.400000
   6043   6044     1   0.13513 334803.680000
   6043   6045     1   0.12183 533627.360000
   6048   6051     1   0.15241 261918.400000
   6051   6052     1   0.12183 533627.360000
   6051   6053     1   0.13513 334803.680000
   6057   6059     1   0.14619 275056.160000
   6059   6061     1   0.15375 251793.120000
   6061   6065     1   0.15110 237065.440000
   6065   6066     1   0.15110 237065.440000
   6065   6067     1   0.15110 237065.440000
   6066   6078     1   0.15375 251793.120000
   6067   6069     1   0.15375 251793.120000
   6069   6073     1   0.15241 261918.400000
   6073   6074     1   0.13513 334803.680000
   6073   6075     1   0.12183 533627.360000
   6078   6081     1   0.15241 261918.400000
   6081   6082     1   0.12183 533627.360000
   6081   6083     1   0.13513 334803.680000
   6087   6089     1   0.14619 275056.160000
   6089   6091     1   0.15375 251793.120000
   6091   6095     1   0.15110 237065.440000
   6095   6096     1   0.15110 237065.440000
   6095   6097     1   0.15110 237065.440000
   6096   6108     1   0.15375 251793.120000
   6097   6099     1   0.15375 251793.120000
   6099   6103     1   0.15241 261918.400000
   6103   6104     1   0.13513 334803.680000
   6103   6105     1   0.12183 533627.360000
   6108   6111     1   0.15241 261918.400000
   6111   6112     1   0.12183 533627.360000
   6111   6113     1   0.13513 334803.680000
   6117   6119     1   0.14619 275056.160000
   6119   6121     1   0.15375 251793.120000
   6121   6125     1   0.15110 237065.440000
   6125   6126     1   0.15110 237065.440000
   6125   6127     1   0.15110 237065.440000
   6126   6138     1   0.15375 251793.120000
   6127   6129     1   0.15375 251793.120000
   6129   6133     1   0.15241 261918.400000
   6133   6134     1   0.13513 334803.680000
   6133   6135     1   0.12183 533627.360000
   6138   6141     1   0.15241 261918.400000
   6141   6142     1   0.12183 533627.360000
   6141   6143     1   0.13513 334803.680000
   6147   6149     1   0.14619 275056.160000
   6149   6151     1   0.15375 251793.120000
   6151   6155     1   0.15110 237065.440000
   6155   6156     1   0.15110 237065.440000
   6155   6157     1   0.15110 237065.440000
   6156   6168     1   0.15375 251793.120000
   6157   6159     1   0.15375 251793.120000
   6159   6163     1   0.15241 261918.400000
   6163   6164     1   0.13513 334803.680000
   6163   6165     1   0.12183 533627.360000
   6168   6171     1   0.15241 261918.400000
   6171   6172     1   0.12183 533627.360000
   6171   6173     1   0.13513 334803.680000
   6177   6179     1   0.14619 275056.160000
   6179   6181     1   0.15375 251793.120000
   6181   6185     1   0.15110 237065.440000
   6185   6186     1   0.15110 237065.440000
   6185   6187     1   0.15110 237065.440000
   6186   6198     1   0.15375 251793.120000
   6187   6189     1   0.15375 251793.120000
   6189   6193     1   0.15241 261918.400000
   6193   6194     1   0.13513 334803.680000
   6193   6195     1   0.12183 533627.360000
   6198   6201     1   0.15241 261918.400000
   6201   6202     1   0.12183 533627.360000
   6201   6203     1   0.13513 334803.680000
   6207   6209     1   0.14619 275056.160000
   6209   6211     1   0.15375 251793.120000
   6211   6215     1   0.15110 237065.440000
   6215   6216     1   0.15110 237065.440000
   6215   6217     1   0.15110 237065.440000
   6216   6228     1   0.15375 251793.120000
   6217   6219     1   0.15375 251793.120000
   6219   6223     1   0.15241 261918.400000
   6223   6224     1   0.13513 334803.680000
   6223   6225     1   0.12183 533627.360000
   6228   6231     1   0.15241 261918.400000
   6231   6232     1   0.12183 533627.360000
   6231   6233     1   0.13513 334803.680000
   6237   6239     1   0.14619 275056.160000
   6239   6241     1   0.15375 251793.120000
   6241   6245     1   0.15110 237065.440000
   6245   6246     1   0.15110 237065.440000
   6245   6247     1   0.15110 237065.440000
   6246   6258     1   0.15375 251793.120000
   6247   6249     1   0.15375 251793.120000
   6249   6253     1   0.15241 261918.400000
   6253   6254     1   0.13513 334803.680000
   6253   6255     1   0.12183 533627.360000
   6258   6261     1   0.15241 261918.400000
   6261   6262     1   0.12183 533627.360000
   6261   6263     1   0.13513 334803.680000
   6267   6269     1   0.14619 275056.160000
   6269   6271     1   0.15375 251793.120000
   6271   6275     1   0.15110 237065.440000
   6275   6276     1   0.15110 237065.440000
   6275   6277     1   0.15110 237065.440000
   6276   6288     1   0.15375 251793.120000
   6277   6279     1   0.15375 251793.120000
   6279   6283     1   0.15241 261918.400000
   6283   6284     1   0.13513 334803.680000
   6283   6285     1   0.12183 533627.360000
   6288   6291     1   0.15241 261918.400000
   6291   6292     1   0.12183 533627.360000
   6291   6293     1   0.13513 334803.680000
   6297   6299     1   0.14619 275056.160000
   6299   6301     1   0.15375 251793.120000
   6301   6305     1   0.15110 237065.440000
   6305   6306     1   0.15110 237065.440000
   6305   6307     1   0.15110 237065.440000
   6306   6318     1   0.15375 251793.120000
   6307   6309     1   0.15375 251793.120000
   6309   6313     1   0.15241 261918.400000
   6313   6314     1   0.13513 334803.680000
   6313   6315     1   0.12183 533627.360000
   6318   6321     1   0.15241 261918.400000
   6321   6322     1   0.12183 533627.360000
   6321   6323     1   0.13513 334803.680000
   6327   6329     1   0.14619 275056.160000
   6329   6331     1   0.15375 251793.120000
   6331   6335     1   0.15110 237065.440000
   6335   6336     1   0.15110 237065.440000
   6335   6337     1   0.15110 237065.440000
   6336   6348     1   0.15375 251793.120000
   6337   6339     1   0.15375 251793.120000
   6339   6343     1   0.15241 261918.400000
   6343   6344     1   0.13513 334803.680000
   6343   6345     1   0.12183 533627.360000
   6348   6351     1   0.15241 261918.400000
   6351   6352     1   0.12183 533627.360000
   6351   6353     1   0.13513 334803.680000
   6357   6359     1   0.14619 275056.160000
   6359   6361     1   0.15375 251793.120000
   6361   6365     1   0.15110 237065.440000
   6365   6366     1   0.15110 237065.440000
   6365   6367     1   0.15110 237065.440000
   6366   6378     1   0.15375 251793.120000
   6367   6369     1   0.15375 251793.120000
   6369   6373     1   0.15241 261918.400000
   6373   6374     1   0.13513 334803.680000
   6373   6375     1   0.12183 533627.360000
   6378   6381     1   0.15241 261918.400000
   6381   6382     1   0.12183 533627.360000
   6381   6383     1   0.13513 334803.680000
   6387   6389     1   0.14619 275056.160000
   6389   6391     1   0.15375 251793.120000
   6391   6395     1   0.15110 237065.440000
   6395   6396     1   0.15110 237065.440000
   6395   6397     1   0.15110 237065.440000
   6396   6408     1   0.15375 251793.120000
   6397   6399     1   0.15375 251793.120000
   6399   6403     1   0.15241 261918.400000
   6403   6404     1   0.13513 334803.680000
   6403   6405     1   0.12183 533627.360000
   6408   6411     1   0.15241 261918.400000
   6411   6412     1   0.12183 533627.360000
   6411   6413     1   0.13513 334803.680000
   6417   6419     1   0.14619 275056.160000
   6419   6421     1   0.15375 251793.120000
   6421   6425     1   0.15110 237065.440000
   6425   6426     1   0.15110 237065.440000
   6425   6427     1   0.15110 237065.440000
   6426   6438     1   0.15375 251793.120000
   6427   6429     1   0.15375 251793.120000
   6429   6433     1   0.15241 261918.400000
   6433   6434     1   0.13513 334803.680000
   6433   6435     1   0.12183 533627.360000
   6438   6441     1   0.15241 261918.400000
   6441   6442     1   0.12183 533627.360000
   6441   6443     1   0.13513 334803.680000
   6447   6449     1   0.14619 275056.160000
   6449   6451     1   0.15375 251793.120000
   6451   6455     1   0.15110 237065.440000
   6455   6456     1   0.15110 237065.440000
   6455   6457     1   0.15110 237065.440000
   6456   6468     1   0.15375 251793.120000
   6457   6459     1   0.15375 251793.120000
   6459   6463     1   0.15241 261918.400000
   6463   6464     1   0.13513 334803.680000
   6463   6465     1   0.12183 533627.360000
   6468   6471     1   0.15241 261918.400000
   6471   6472     1   0.12183 533627.360000
   6471   6473     1   0.13513 334803.680000
   6477   6479     1   0.14619 275056.160000
   6479   6481     1   0.15375 251793.120000
   6481   6485     1   0.15110 237065.440000
   6485   6486     1   0.15110 237065.440000
   6485   6487     1   0.15110 237065.440000
   6486   6498     1   0.15375 251793.120000
   6487   6489     1   0.15375 251793.120000
   6489   6493     1   0.15241 261918.400000
   6493   6494     1   0.13513 334803.680000
   6493   6495     1   0.12183 533627.360000
   6498   6501     1   0.15241 261918.400000
   6501   6502     1   0.12183 533627.360000
   6501   6503     1   0.13513 334803.680000
   6507   6509     1   0.14619 275056.160000
   6509   6511     1   0.15375 251793.120000
   6511   6515     1   0.15110 237065.440000
   6515   6516     1   0.15110 237065.440000
   6515   6517     1   0.15110 237065.440000
   6516   6528     1   0.15375 251793.120000
   6517   6519     1   0.15375 251793.120000
   6519   6523     1   0.15241 261918.400000
   6523   6524     1   0.13513 334803.680000
   6523   6525     1   0.12183 533627.360000
   6528   6531     1   0.15241 261918.400000
   6531   6532     1   0.12183 533627.360000
   6531   6533     1   0.13513 334803.680000
   6537   6539     1   0.14619 275056.160000
   6539   6541     1   0.15375 251793.120000
   6541   6545     1   0.15110 237065.440000
   6545   6546     1   0.15110 237065.440000
   6545   6547     1   0.15110 237065.440000
   6546   6558     1   0.15375 251793.120000
   6547   6549     1   0.15375 251793.120000
   6549   6553     1   0.15241 261918.400000
   6553   6554     1   0.13513 334803.680000
   6553   6555     1   0.12183 533627.360000
   6558   6561     1   0.15241 261918.400000
   6561   6562     1   0.12183 533627.360000
   6561   6563     1   0.13513 334803.680000
   6567   6569     1   0.14619 275056.160000
   6569   6571     1   0.15375 251793.120000
   6571   6575     1   0.15110 237065.440000
   6575   6576     1   0.15110 237065.440000
   6575   6577     1   0.15110 237065.440000
   6576   6588     1   0.15375 251793.120000
   6577   6579     1   0.15375 251793.120000
   6579   6583     1   0.15241 261918.400000
   6583   6584     1   0.13513 334803.680000
   6583   6585     1   0.12183 533627.360000
   6588   6591     1   0.15241 261918.400000
   6591   6592     1   0.12183 533627.360000
   6591   6593     1   0.13513 334803.680000
   6597   6599     1   0.14619 275056.160000
   6599   6601     1   0.15375 251793.120000
   6601   6605     1   0.15110 237065.440000
   6605   6606     1   0.15110 237065.440000
   6605   6607     1   0.15110 237065.440000
   6606   6618     1   0.15375 251793.120000
   6607   6609     1   0.15375 251793.120000
   6609   6613     1   0.15241 261918.400000
   6613   6614     1   0.13513 334803.680000
   6613   6615     1   0.12183 533627.360000
   6618   6621     1   0.15241 261918.400000
   6621   6622     1   0.12183 533627.360000
   6621   6623     1   0.13513 334803.680000
   6627   6629     1   0.14619 275056.160000
   6629   6631     1   0.15375 251793.120000
   6631   6635     1   0.15110 237065.440000
   6635   6636     1   0.15110 237065.440000
   6635   6637     1   0.15110 237065.440000
   6636   6648     1   0.15375 251793.120000
   6637   6639     1   0.15375 251793.120000
   6639   6643     1   0.15241 261918.400000
   6643   6644     1   0.13513 334803.680000
   6643   6645     1   0.12183 533627.360000
   6648   6651     1   0.15241 261918.400000
   6651   6652     1   0.12183 533627.360000
   6651   6653     1   0.13513 334803.680000
   6657   6659     1   0.14619 275056.160000
   6659   6661     1   0.15375 251793.120000
   6661   6665     1   0.15110 237065.440000
   6665   6666     1   0.15110 237065.440000
   6665   6667     1   0.15110 237065.440000
   6666   6678     1   0.15375 251793.120000
   6667   6669     1   0.15375 251793.120000
   6669   6673     1   0.15241 261918.400000
   6673   6674     1   0.13513 334803.680000
   6673   6675     1   0.12183 533627.360000
   6678   6681     1   0.15241 261918.400000
   6681   6682     1   0.12183 533627.360000
   6681   6683     1   0.13513 334803.680000
   6687   6689     1   0.14619 275056.160000
   6689   6691     1   0.15375 251793.120000
   6691   6695     1   0.15110 237065.440000
   6695   6696     1   0.15110 237065.440000
   6695   6697     1   0.15110 237065.440000
   6696   6708     1   0.15375 251793.120000
   6697   6699     1   0.15375 251793.120000
   6699   6703     1   0.15241 261918.400000
   6703   6704     1   0.13513 334803.680000
   6703   6705     1   0.12183 533627.360000
   6708   6711     1   0.15241 261918.400000
   6711   6712     1   0.12183 533627.360000
   6711   6713     1   0.13513 334803.680000
   6717   6719     1   0.14619 275056.160000
   6719   6721     1   0.15375 251793.120000
   6721   6725     1   0.15110 237065.440000
   6725   6726     1   0.15110 237065.440000
   6725   6727     1   0.15110 237065.440000
   6726   6738     1   0.15375 251793.120000
   6727   6729     1   0.15375 251793.120000
   6729   6733     1   0.15241 261918.400000
   6733   6734     1   0.13513 334803.680000
   6733   6735     1   0.12183 533627.360000
   6738   6741     1   0.15241 261918.400000
   6741   6742     1   0.12183 533627.360000
   6741   6743     1   0.13513 334803.680000
   6747   6749     1   0.14619 275056.160000
   6749   6751     1   0.15375 251793.120000
   6751   6755     1   0.15110 237065.440000
   6755   6756     1   0.15110 237065.440000
   6755   6757     1   0.15110 237065.440000
   6756   6768     1   0.15375 251793.120000
   6757   6759     1   0.15375 251793.120000
   6759   6763     1   0.15241 261918.400000
   6763   6764     1   0.13513 334803.680000
   6763   6765     1   0.12183 533627.360000
   6768   6771     1   0.15241 261918.400000
   6771   6772     1   0.12183 533627.360000
   6771   6773     1   0.13513 334803.680000
   6777   6779     1   0.14619 275056.160000
   6779   6781     1   0.15375 251793.120000
   6781   6785     1   0.15110 237065.440000
   6785   6786     1   0.15110 237065.440000
   6785   6787     1   0.15110 237065.440000
   6786   6798     1   0.15375 251793.120000
   6787   6789     1   0.15375 251793.120000
   6789   6793     1   0.15241 261918.400000
   6793   6794     1   0.13513 334803.680000
   6793   6795     1   0.12183 533627.360000
   6798   6801     1   0.15241 261918.400000
   6801   6802     1   0.12183 533627.360000
   6801   6803     1   0.13513 334803.680000
   6807   6809     1   0.14619 275056.160000
   6809   6811     1   0.15375 251793.120000
   6811   6815     1   0.15110 237065.440000
   6815   6816     1   0.15110 237065.440000
   6815   6817     1   0.15110 237065.440000
   6816   6828     1   0.15375 251793.120000
   6817   6819     1   0.15375 251793.120000
   6819   6823     1   0.15241 261918.400000
   6823   6824     1   0.13513 334803.680000
   6823   6825     1   0.12183 533627.360000
   6828   6831     1   0.15241 261918.400000
   6831   6832     1   0.12183 533627.360000
   6831   6833     1   0.13513 334803.680000
   6837   6839     1   0.14619 275056.160000
   6839   6841     1   0.15375 251793.120000
   6841   6845     1   0.15110 237065.440000
   6845   6846     1   0.15110 237065.440000
   6845   6847     1   0.15110 237065.440000
   6846   6858     1   0.15375 251793.120000
   6847   6849     1   0.15375 251793.120000
   6849   6853     1   0.15241 261918.400000
   6853   6854     1   0.13513 334803.680000
   6853   6855     1   0.12183 533627.360000
   6858   6861     1   0.15241 261918.400000
   6861   6862     1   0.12183 533627.360000
   6861   6863     1   0.13513 334803.680000
   6867   6869     1   0.14619 275056.160000
   6869   6871     1   0.15375 251793.120000
   6871   6875     1   0.15110 237065.440000
   6875   6876     1   0.15110 237065.440000
   6875   6877     1   0.15110 237065.440000
   6876   6888     1   0.15375 251793.120000
   6877   6879     1   0.15375 251793.120000
   6879   6883     1   0.15241 261918.400000
   6883   6884     1   0.13513 334803.680000
   6883   6885     1   0.12183 533627.360000
   6888   6891     1   0.15241 261918.400000
   6891   6892     1   0.12183 533627.360000
   6891   6893     1   0.13513 334803.680000
   6897   6899     1   0.14619 275056.160000
   6899   6901     1   0.15375 251793.120000
   6901   6905     1   0.15110 237065.440000
   6905   6906     1   0.15110 237065.440000
   6905   6907     1   0.15110 237065.440000
   6906   6918     1   0.15375 251793.120000
   6907   6909     1   0.15375 251793.120000
   6909   6913     1   0.15241 261918.400000
   6913   6914     1   0.13513 334803.680000
   6913   6915     1   0.12183 533627.360000
   6918   6921     1   0.15241 261918.400000
   6921   6922     1   0.12183 533627.360000
   6921   6923     1   0.13513 334803.680000
   6927   6929     1   0.14619 275056.160000
   6929   6931     1   0.15375 251793.120000
   6931   6935     1   0.15110 237065.440000
   6935   6936     1   0.15110 237065.440000
   6935   6937     1   0.15110 237065.440000
   6936   6948     1   0.15375 251793.120000
   6937   6939     1   0.15375 251793.120000
   6939   6943     1   0.15241 261918.400000
   6943   6944     1   0.13513 334803.680000
   6943   6945     1   0.12183 533627.360000
   6948   6951     1   0.15241 261918.400000
   6951   6952     1   0.12183 533627.360000
   6951   6953     1   0.13513 334803.680000
   6957   6959     1   0.14619 275056.160000
   6959   6961     1   0.15375 251793.120000
   6961   6965     1   0.15110 237065.440000
   6965   6966     1   0.15110 237065.440000
   6965   6967     1   0.15110 237065.440000
   6966   6978     1   0.15375 251793.120000
   6967   6969     1   0.15375 251793.120000
   6969   6973     1   0.15241 261918.400000
   6973   6974     1   0.13513 334803.680000
   6973   6975     1   0.12183 533627.360000
   6978   6981     1   0.15241 261918.400000
   6981   6982     1   0.12183 533627.360000
   6981   6983     1   0.13513 334803.680000
   6987   6989     1   0.14619 275056.160000
   6989   6991     1   0.15375 251793.120000
   6991   6995     1   0.15110 237065.440000
   6995   6996     1   0.15110 237065.440000
   6995   6997     1   0.15110 237065.440000
   6996   7008     1   0.15375 251793.120000
   6997   6999     1   0.15375 251793.120000
   6999   7003     1   0.15241 261918.400000
   7003   7004     1   0.13513 334803.680000
   7003   7005     1   0.12183 533627.360000
   7008   7011     1   0.15241 261918.400000
   7011   7012     1   0.12183 533627.360000
   7011   7013     1   0.13513 334803.680000
   7017   7019     1   0.14619 275056.160000
   7019   7021     1   0.15375 251793.120000
   7021   7025     1   0.15110 237065.440000
   7025   7026     1   0.15110 237065.440000
   7025   7027     1   0.15110 237065.440000
   7026   7038     1   0.15375 251793.120000
   7027   7029     1   0.15375 251793.120000
   7029   7033     1   0.15241 261918.400000
   7033   7034     1   0.13513 334803.680000
   7033   7035     1   0.12183 533627.360000
   7038   7041     1   0.15241 261918.400000
   7041   7042     1   0.12183 533627.360000
   7041   7043     1   0.13513 334803.680000
   7047   7049     1   0.14619 275056.160000
   7049   7051     1   0.15375 251793.120000
   7051   7055     1   0.15110 237065.440000
   7055   7056     1   0.15110 237065.440000
   7055   7057     1   0.15110 237065.440000
   7056   7068     1   0.15375 251793.120000
   7057   7059     1   0.15375 251793.120000
   7059   7063     1   0.15241 261918.400000
   7063   7064     1   0.13513 334803.680000
   7063   7065     1   0.12183 533627.360000
   7068   7071     1   0.15241 261918.400000
   7071   7072     1   0.12183 533627.360000
   7071   7073     1   0.13513 334803.680000
   7077   7079     1   0.14619 275056.160000
   7079   7081     1   0.15375 251793.120000
   7081   7085     1   0.15110 237065.440000
   7085   7086     1   0.15110 237065.440000
   7085   7087     1   0.15110 237065.440000
   7086   7098     1   0.15375 251793.120000
   7087   7089     1   0.15375 251793.120000
   7089   7093     1   0.15241 261918.400000
   7093   7094     1   0.13513 334803.680000
   7093   7095     1   0.12183 533627.360000
   7098   7101     1   0.15241 261918.400000
   7101   7102     1   0.12183 533627.360000
   7101   7103     1   0.13513 334803.680000
      1     41     1   0.10304 312293.760000
      2     21     1   0.10910 283424.160000
      2     22     1   0.10910 283424.160000
      3     23     1   0.10910 283424.160000
      3     24     1   0.10910 283424.160000
      4     42     1   0.10304 312293.760000
      5     25     1   0.10910 283424.160000
      5     26     1   0.10910 283424.160000
      6     27     1   0.10910 283424.160000
      6     28     1   0.10910 283424.160000
      7     29     1   0.10910 283424.160000
      7     30     1   0.10910 283424.160000
      8     31     1   0.10910 283424.160000
      8     32     1   0.10910 283424.160000
      9     33     1   0.10969 276646.080000
      9     34     1   0.10969 276646.080000
     11     35     1   0.10969 276646.080000
     11     36     1   0.10969 276646.080000
     13     37     1   0.10969 276646.080000
     13     38     1   0.10969 276646.080000
     15     39     1   0.10969 276646.080000
     15     40     1   0.10969 276646.080000
     43     68     1   0.10304 312293.760000
     44     55     1   0.10910 283424.160000
     44     56     1   0.10910 283424.160000
     45     57     1   0.10910 283424.160000
     45     58     1   0.10910 283424.160000
     46     59     1   0.10969 276646.080000
     46     60     1   0.10969 276646.080000
     48     61     1   0.10969 276646.080000
     48     62     1   0.10969 276646.080000
     50     63     1   0.10910 283424.160000
     50     64     1   0.10910 283424.160000
     51     65     1   0.10969 276646.080000
     51     66     1   0.10969 276646.080000
     52     67     1   0.10129 337397.760000
     69     94     1   0.10304 312293.760000
     70     81     1   0.10910 283424.160000
     70     82     1   0.10910 283424.160000
     71     83     1   0.10910 283424.160000
     71     84     1   0.10910 283424.160000
     72     85     1   0.10969 276646.080000
     72     86     1   0.10969 276646.080000
     74     87     1   0.10969 276646.080000
     74     88     1   0.10969 276646.080000
     76     89     1   0.10910 283424.160000
     76     90     1   0.10910 283424.160000
     77     91     1   0.10969 276646.080000
     77     92     1   0.10969 276646.080000
     78     93     1   0.10129 337397.760000
     95    120     1   0.10304 312293.760000
     96    107     1   0.10910 283424.160000
     96    108     1   0.10910 283424.160000
     97    109     1   0.10910 283424.160000
     97    110     1   0.10910 283424.160000
     98    111     1   0.10969 276646.080000
     98    112     1   0.10969 276646.080000
    100    113     1   0.10969 276646.080000
    100    114     1   0.10969 276646.080000
    102    115     1   0.10910 283424.160000
    102    116     1   0.10910 283424.160000
    103    117     1   0.10969 276646.080000
    103    118     1   0.10969 276646.080000
    104    119     1   0.10129 337397.760000
    121    146     1   0.10304 312293.760000
    122    133     1   0.10910 283424.160000
    122    134     1   0.10910 283424.160000
    123    135     1   0.10910 283424.160000
    123    136     1   0.10910 283424.160000
    124    137     1   0.10969 276646.080000
    124    138     1   0.10969 276646.080000
    126    139     1   0.10969 276646.080000
    126    140     1   0.10969 276646.080000
    128    141     1   0.10910 283424.160000
    128    142     1   0.10910 283424.160000
    129    143     1   0.10969 276646.080000
    129    144     1   0.10969 276646.080000
    130    145     1   0.10129 337397.760000
    147    172     1   0.10304 312293.760000
    148    159     1   0.10910 283424.160000
    148    160     1   0.10910 283424.160000
    149    161     1   0.10910 283424.160000
    149    162     1   0.10910 283424.160000
    150    163     1   0.10969 276646.080000
    150    164     1   0.10969 276646.080000
    152    165     1   0.10969 276646.080000
    152    166     1   0.10969 276646.080000
    154    167     1   0.10910 283424.160000
    154    168     1   0.10910 283424.160000
    155    169     1   0.10969 276646.080000
    155    170     1   0.10969 276646.080000
    156    171     1   0.10129 337397.760000
    173    198     1   0.10304 312293.760000
    174    185     1   0.10910 283424.160000
    174    186     1   0.10910 283424.160000
    175    187     1   0.10910 283424.160000
    175    188     1   0.10910 283424.160000
    176    189     1   0.10969 276646.080000
    176    190     1   0.10969 276646.080000
    178    191     1   0.10969 276646.080000
    178    192     1   0.10969 276646.080000
    180    193     1   0.10910 283424.160000
    180    194     1   0.10910 283424.160000
    181    195     1   0.10969 276646.080000
    181    196     1   0.10969 276646.080000
    182    197     1   0.10129 337397.760000
    199    224     1   0.10304 312293.760000
    200    211     1   0.10910 283424.160000
    200    212     1   0.10910 283424.160000
    201    213     1   0.10910 283424.160000
    201    214     1   0.10910 283424.160000
    202    215     1   0.10969 276646.080000
    202    216     1   0.10969 276646.080000
    204    217     1   0.10969 276646.080000
    204    218     1   0.10969 276646.080000
    206    219     1   0.10910 283424.160000
    206    220     1   0.10910 283424.160000
    207    221     1   0.10969 276646.080000
    207    222     1   0.10969 276646.080000
    208    223     1   0.10129 337397.760000
    225    250     1   0.10304 312293.760000
    226    237     1   0.10910 283424.160000
    226    238     1   0.10910 283424.160000
    227    239     1   0.10910 283424.160000
    227    240     1   0.10910 283424.160000
    228    241     1   0.10969 276646.080000
    228    242     1   0.10969 276646.080000
    230    243     1   0.10969 276646.080000
    230    244     1   0.10969 276646.080000
    232    245     1   0.10910 283424.160000
    232    246     1   0.10910 283424.160000
    233    247     1   0.10969 276646.080000
    233    248     1   0.10969 276646.080000
    234    249     1   0.10129 337397.760000
    251    276     1   0.10304 312293.760000
    252    263     1   0.10910 283424.160000
    252    264     1   0.10910 283424.160000
    253    265     1   0.10910 283424.160000
    253    266     1   0.10910 283424.160000
    254    267     1   0.10969 276646.080000
    254    268     1   0.10969 276646.080000
    256    269     1   0.10969 276646.080000
    256    270     1   0.10969 276646.080000
    258    271     1   0.10910 283424.160000
    258    272     1   0.10910 283424.160000
    259    273     1   0.10969 276646.080000
    259    274     1   0.10969 276646.080000
    260    275     1   0.10129 337397.760000
    277    302     1   0.10304 312293.760000
    278    289     1   0.10910 283424.160000
    278    290     1   0.10910 283424.160000
    279    291     1   0.10910 283424.160000
    279    292     1   0.10910 283424.160000
    280    293     1   0.10969 276646.080000
    280    294     1   0.10969 276646.080000
    282    295     1   0.10969 276646.080000
    282    296     1   0.10969 276646.080000
    284    297     1   0.10910 283424.160000
    284    298     1   0.10910 283424.160000
    285    299     1   0.10969 276646.080000
    285    300     1   0.10969 276646.080000
    286    301     1   0.10129 337397.760000
    303    328     1   0.10304 312293.760000
    304    315     1   0.10910 283424.160000
    304    316     1   0.10910 283424.160000
    305    317     1   0.10910 283424.160000
    305    318     1   0.10910 283424.160000
    306    319     1   0.10969 276646.080000
    306    320     1   0.10969 276646.080000
    308    321     1   0.10969 276646.080000
    308    322     1   0.10969 276646.080000
    310    323     1   0.10910 283424.160000
    310    324     1   0.10910 283424.160000
    311    325     1   0.10969 276646.080000
    311    326     1   0.10969 276646.080000
    312    327     1   0.10129 337397.760000
    329    354     1   0.10304 312293.760000
    330    341     1   0.10910 283424.160000
    330    342     1   0.10910 283424.160000
    331    343     1   0.10910 283424.160000
    331    344     1   0.10910 283424.160000
    332    345     1   0.10969 276646.080000
    332    346     1   0.10969 276646.080000
    334    347     1   0.10969 276646.080000
    334    348     1   0.10969 276646.080000
    336    349     1   0.10910 283424.160000
    336    350     1   0.10910 283424.160000
    337    351     1   0.10969 276646.080000
    337    352     1   0.10969 276646.080000
    338    353     1   0.10129 337397.760000
    355    380     1   0.10304 312293.760000
    356    367     1   0.10910 283424.160000
    356    368     1   0.10910 283424.160000
    357    369     1   0.10910 283424.160000
    357    370     1   0.10910 283424.160000
    358    371     1   0.10969 276646.080000
    358    372     1   0.10969 276646.080000
    360    373     1   0.10969 276646.080000
    360    374     1   0.10969 276646.080000
    362    375     1   0.10910 283424.160000
    362    376     1   0.10910 283424.160000
    363    377     1   0.10969 276646.080000
    363    378     1   0.10969 276646.080000
    364    379     1   0.10129 337397.760000
    381    406     1   0.10304 312293.760000
    382    393     1   0.10910 283424.160000
    382    394     1   0.10910 283424.160000
    383    395     1   0.10910 283424.160000
    383    396     1   0.10910 283424.160000
    384    397     1   0.10969 276646.080000
    384    398     1   0.10969 276646.080000
    386    399     1   0.10969 276646.080000
    386    400     1   0.10969 276646.080000
    388    401     1   0.10910 283424.160000
    388    402     1   0.10910 283424.160000
    389    403     1   0.10969 276646.080000
    389    404     1   0.10969 276646.080000
    390    405     1   0.10129 337397.760000
    407    432     1   0.10304 312293.760000
    408    419     1   0.10910 283424.160000
    408    420     1   0.10910 283424.160000
    409    421     1   0.10910 283424.160000
    409    422     1   0.10910 283424.160000
    410    423     1   0.10969 276646.080000
    410    424     1   0.10969 276646.080000
    412    425     1   0.10969 276646.080000
    412    426     1   0.10969 276646.080000
    414    427     1   0.10910 283424.160000
    414    428     1   0.10910 283424.160000
    415    429     1   0.10969 276646.080000
    415    430     1   0.10969 276646.080000
    416    431     1   0.10129 337397.760000
    433    458     1   0.10304 312293.760000
    434    445     1   0.10910 283424.160000
    434    446     1   0.10910 283424.160000
    435    447     1   0.10910 283424.160000
    435    448     1   0.10910 283424.160000
    436    449     1   0.10969 276646.080000
    436    450     1   0.10969 276646.080000
    438    451     1   0.10969 276646.080000
    438    452     1   0.10969 276646.080000
    440    453     1   0.10910 283424.160000
    440    454     1   0.10910 283424.160000
    441    455     1   0.10969 276646.080000
    441    456     1   0.10969 276646.080000
    442    457     1   0.10129 337397.760000
    459    484     1   0.10304 312293.760000
    460    471     1   0.10910 283424.160000
    460    472     1   0.10910 283424.160000
    461    473     1   0.10910 283424.160000
    461    474     1   0.10910 283424.160000
    462    475     1   0.10969 276646.080000
    462    476     1   0.10969 276646.080000
    464    477     1   0.10969 276646.080000
    464    478     1   0.10969 276646.080000
    466    479     1   0.10910 283424.160000
    466    480     1   0.10910 283424.160000
    467    481     1   0.10969 276646.080000
    467    482     1   0.10969 276646.080000
    468    483     1   0.10129 337397.760000
    485    510     1   0.10304 312293.760000
    486    497     1   0.10910 283424.160000
    486    498     1   0.10910 283424.160000
    487    499     1   0.10910 283424.160000
    487    500     1   0.10910 283424.160000
    488    501     1   0.10969 276646.080000
    488    502     1   0.10969 276646.080000
    490    503     1   0.10969 276646.080000
    490    504     1   0.10969 276646.080000
    492    505     1   0.10910 283424.160000
    492    506     1   0.10910 283424.160000
    493    507     1   0.10969 276646.080000
    493    508     1   0.10969 276646.080000
    494    509     1   0.10129 337397.760000
    511    536     1   0.10304 312293.760000
    512    523     1   0.10910 283424.160000
    512    524     1   0.10910 283424.160000
    513    525     1   0.10910 283424.160000
    513    526     1   0.10910 283424.160000
    514    527     1   0.10969 276646.080000
    514    528     1   0.10969 276646.080000
    516    529     1   0.10969 276646.080000
    516    530     1   0.10969 276646.080000
    518    531     1   0.10910 283424.160000
    518    532     1   0.10910 283424.160000
    519    533     1   0.10969 276646.080000
    519    534     1   0.10969 276646.080000
    520    535     1   0.10129 337397.760000
    537    562     1   0.10304 312293.760000
    538    549     1   0.10910 283424.160000
    538    550     1   0.10910 283424.160000
    539    551     1   0.10910 283424.160000
    539    552     1   0.10910 283424.160000
    540    553     1   0.10969 276646.080000
    540    554     1   0.10969 276646.080000
    542    555     1   0.10969 276646.080000
    542    556     1   0.10969 276646.080000
    544    557     1   0.10910 283424.160000
    544    558     1   0.10910 283424.160000
    545    559     1   0.10969 276646.080000
    545    560     1   0.10969 276646.080000
    546    561     1   0.10129 337397.760000
    563    588     1   0.10304 312293.760000
    564    575     1   0.10910 283424.160000
    564    576     1   0.10910 283424.160000
    565    577     1   0.10910 283424.160000
    565    578     1   0.10910 283424.160000
    566    579     1   0.10969 276646.080000
    566    580     1   0.10969 276646.080000
    568    581     1   0.10969 276646.080000
    568    582     1   0.10969 276646.080000
    570    583     1   0.10910 283424.160000
    570    584     1   0.10910 283424.160000
    571    585     1   0.10969 276646.080000
    571    586     1   0.10969 276646.080000
    572    587     1   0.10129 337397.760000
    589    614     1   0.10304 312293.760000
    590    601     1   0.10910 283424.160000
    590    602     1   0.10910 283424.160000
    591    603     1   0.10910 283424.160000
    591    604     1   0.10910 283424.160000
    592    605     1   0.10969 276646.080000
    592    606     1   0.10969 276646.080000
    594    607     1   0.10969 276646.080000
    594    608     1   0.10969 276646.080000
    596    609     1   0.10910 283424.160000
    596    610     1   0.10910 283424.160000
    597    611     1   0.10969 276646.080000
    597    612     1   0.10969 276646.080000
    598    613     1   0.10129 337397.760000
    615    640     1   0.10304 312293.760000
    616    627     1   0.10910 283424.160000
    616    628     1   0.10910 283424.160000
    617    629     1   0.10910 283424.160000
    617    630     1   0.10910 283424.160000
    618    631     1   0.10969 276646.080000
    618    632     1   0.10969 276646.080000
    620    633     1   0.10969 276646.080000
    620    634     1   0.10969 276646.080000
    622    635     1   0.10910 283424.160000
    622    636     1   0.10910 283424.160000
    623    637     1   0.10969 276646.080000
    623    638     1   0.10969 276646.080000
    624    639     1   0.10129 337397.760000
    641    666     1   0.10304 312293.760000
    642    653     1   0.10910 283424.160000
    642    654     1   0.10910 283424.160000
    643    655     1   0.10910 283424.160000
    643    656     1   0.10910 283424.160000
    644    657     1   0.10969 276646.080000
    644    658     1   0.10969 276646.080000
    646    659     1   0.10969 276646.080000
    646    660     1   0.10969 276646.080000
    648    661     1   0.10910 283424.160000
    648    662     1   0.10910 283424.160000
    649    663     1   0.10969 276646.080000
    649    664     1   0.10969 276646.080000
    650    665     1   0.10129 337397.760000
    667    692     1   0.10304 312293.760000
    668    679     1   0.10910 283424.160000
    668    680     1   0.10910 283424.160000
    669    681     1   0.10910 283424.160000
    669    682     1   0.10910 283424.160000
    670    683     1   0.10969 276646.080000
    670    684     1   0.10969 276646.080000
    672    685     1   0.10969 276646.080000
    672    686     1   0.10969 276646.080000
    674    687     1   0.10910 283424.160000
    674    688     1   0.10910 283424.160000
    675    689     1   0.10969 276646.080000
    675    690     1   0.10969 276646.080000
    676    691     1   0.10129 337397.760000
    693    718     1   0.10304 312293.760000
    694    705     1   0.10910 283424.160000
    694    706     1   0.10910 283424.160000
    695    707     1   0.10910 283424.160000
    695    708     1   0.10910 283424.160000
    696    709     1   0.10969 276646.080000
    696    710     1   0.10969 276646.080000
    698    711     1   0.10969 276646.080000
    698    712     1   0.10969 276646.080000
    700    713     1   0.10910 283424.160000
    700    714     1   0.10910 283424.160000
    701    715     1   0.10969 276646.080000
    701    716     1   0.10969 276646.080000
    702    717     1   0.10129 337397.760000
    719    744     1   0.10304 312293.760000
    720    731     1   0.10910 283424.160000
    720    732     1   0.10910 283424.160000
    721    733     1   0.10910 283424.160000
    721    734     1   0.10910 283424.160000
    722    735     1   0.10969 276646.080000
    722    736     1   0.10969 276646.080000
    724    737     1   0.10969 276646.080000
    724    738     1   0.10969 276646.080000
    726    739     1   0.10910 283424.160000
    726    740     1   0.10910 283424.160000
    727    741     1   0.10969 276646.080000
    727    742     1   0.10969 276646.080000
    728    743     1   0.10129 337397.760000
    745    770     1   0.10304 312293.760000
    746    757     1   0.10910 283424.160000
    746    758     1   0.10910 283424.160000
    747    759     1   0.10910 283424.160000
    747    760     1   0.10910 283424.160000
    748    761     1   0.10969 276646.080000
    748    762     1   0.10969 276646.080000
    750    763     1   0.10969 276646.080000
    750    764     1   0.10969 276646.080000
    752    765     1   0.10910 283424.160000
    752    766     1   0.10910 283424.160000
    753    767     1   0.10969 276646.080000
    753    768     1   0.10969 276646.080000
    754    769     1   0.10129 337397.760000
    771    796     1   0.10304 312293.760000
    772    783     1   0.10910 283424.160000
    772    784     1   0.10910 283424.160000
    773    785     1   0.10910 283424.160000
    773    786     1   0.10910 283424.160000
    774    787     1   0.10969 276646.080000
    774    788     1   0.10969 276646.080000
    776    789     1   0.10969 276646.080000
    776    790     1   0.10969 276646.080000
    778    791     1   0.10910 283424.160000
    778    792     1   0.10910 283424.160000
    779    793     1   0.10969 276646.080000
    779    794     1   0.10969 276646.080000
    780    795     1   0.10129 337397.760000
    797    822     1   0.10304 312293.760000
    798    809     1   0.10910 283424.160000
    798    810     1   0.10910 283424.160000
    799    811     1   0.10910 283424.160000
    799    812     1   0.10910 283424.160000
    800    813     1   0.10969 276646.080000
    800    814     1   0.10969 276646.080000
    802    815     1   0.10969 276646.080000
    802    816     1   0.10969 276646.080000
    804    817     1   0.10910 283424.160000
    804    818     1   0.10910 283424.160000
    805    819     1   0.10969 276646.080000
    805    820     1   0.10969 276646.080000
    806    821     1   0.10129 337397.760000
    823    848     1   0.10304 312293.760000
    824    835     1   0.10910 283424.160000
    824    836     1   0.10910 283424.160000
    825    837     1   0.10910 283424.160000
    825    838     1   0.10910 283424.160000
    826    839     1   0.10969 276646.080000
    826    840     1   0.10969 276646.080000
    828    841     1   0.10969 276646.080000
    828    842     1   0.10969 276646.080000
    830    843     1   0.10910 283424.160000
    830    844     1   0.10910 283424.160000
    831    845     1   0.10969 276646.080000
    831    846     1   0.10969 276646.080000
    832    847     1   0.10129 337397.760000
    849    874     1   0.10304 312293.760000
    850    861     1   0.10910 283424.160000
    850    862     1   0.10910 283424.160000
    851    863     1   0.10910 283424.160000
    851    864     1   0.10910 283424.160000
    852    865     1   0.10969 276646.080000
    852    866     1   0.10969 276646.080000
    854    867     1   0.10969 276646.080000
    854    868     1   0.10969 276646.080000
    856    869     1   0.10910 283424.160000
    856    870     1   0.10910 283424.160000
    857    871     1   0.10969 276646.080000
    857    872     1   0.10969 276646.080000
    858    873     1   0.10129 337397.760000
    875    900     1   0.10304 312293.760000
    876    887     1   0.10910 283424.160000
    876    888     1   0.10910 283424.160000
    877    889     1   0.10910 283424.160000
    877    890     1   0.10910 283424.160000
    878    891     1   0.10969 276646.080000
    878    892     1   0.10969 276646.080000
    880    893     1   0.10969 276646.080000
    880    894     1   0.10969 276646.080000
    882    895     1   0.10910 283424.160000
    882    896     1   0.10910 283424.160000
    883    897     1   0.10969 276646.080000
    883    898     1   0.10969 276646.080000
    884    899     1   0.10129 337397.760000
    901    926     1   0.10304 312293.760000
    902    913     1   0.10910 283424.160000
    902    914     1   0.10910 283424.160000
    903    915     1   0.10910 283424.160000
    903    916     1   0.10910 283424.160000
    904    917     1   0.10969 276646.080000
    904    918     1   0.10969 276646.080000
    906    919     1   0.10969 276646.080000
    906    920     1   0.10969 276646.080000
    908    921     1   0.10910 283424.160000
    908    922     1   0.10910 283424.160000
    909    923     1   0.10969 276646.080000
    909    924     1   0.10969 276646.080000
    910    925     1   0.10129 337397.760000
    927    952     1   0.10304 312293.760000
    928    939     1   0.10910 283424.160000
    928    940     1   0.10910 283424.160000
    929    941     1   0.10910 283424.160000
    929    942     1   0.10910 283424.160000
    930    943     1   0.10969 276646.080000
    930    944     1   0.10969 276646.080000
    932    945     1   0.10969 276646.080000
    932    946     1   0.10969 276646.080000
    934    947     1   0.10910 283424.160000
    934    948     1   0.10910 283424.160000
    935    949     1   0.10969 276646.080000
    935    950     1   0.10969 276646.080000
    936    951     1   0.10129 337397.760000
    953    978     1   0.10304 312293.760000
    954    965     1   0.10910 283424.160000
    954    966     1   0.10910 283424.160000
    955    967     1   0.10910 283424.160000
    955    968     1   0.10910 283424.160000
    956    969     1   0.10969 276646.080000
    956    970     1   0.10969 276646.080000
    958    971     1   0.10969 276646.080000
    958    972     1   0.10969 276646.080000
    960    973     1   0.10910 283424.160000
    960    974     1   0.10910 283424.160000
    961    975     1   0.10969 276646.080000
    961    976     1   0.10969 276646.080000
    962    977     1   0.10129 337397.760000
    979   1004     1   0.10304 312293.760000
    980    991     1   0.10910 283424.160000
    980    992     1   0.10910 283424.160000
    981    993     1   0.10910 283424.160000
    981    994     1   0.10910 283424.160000
    982    995     1   0.10969 276646.080000
    982    996     1   0.10969 276646.080000
    984    997     1   0.10969 276646.080000
    984    998     1   0.10969 276646.080000
    986    999     1   0.10910 283424.160000
    986   1000     1   0.10910 283424.160000
    987   1001     1   0.10969 276646.080000
    987   1002     1   0.10969 276646.080000
    988   1003     1   0.10129 337397.760000
   1005   1030     1   0.10304 312293.760000
   1006   1017     1   0.10910 283424.160000
   1006   1018     1   0.10910 283424.160000
   1007   1019     1   0.10910 283424.160000
   1007   1020     1   0.10910 283424.160000
   1008   1021     1   0.10969 276646.080000
   1008   1022     1   0.10969 276646.080000
   1010   1023     1   0.10969 276646.080000
   1010   1024     1   0.10969 276646.080000
   1012   1025     1   0.10910 283424.160000
   1012   1026     1   0.10910 283424.160000
   1013   1027     1   0.10969 276646.080000
   1013   1028     1   0.10969 276646.080000
   1014   1029     1   0.10129 337397.760000
   1031   1056     1   0.10304 312293.760000
   1032   1043     1   0.10910 283424.160000
   1032   1044     1   0.10910 283424.160000
   1033   1045     1   0.10910 283424.160000
   1033   1046     1   0.10910 283424.160000
   1034   1047     1   0.10969 276646.080000
   1034   1048     1   0.10969 276646.080000
   1036   1049     1   0.10969 276646.080000
   1036   1050     1   0.10969 276646.080000
   1038   1051     1   0.10910 283424.160000
   1038   1052     1   0.10910 283424.160000
   1039   1053     1   0.10969 276646.080000
   1039   1054     1   0.10969 276646.080000
   1040   1055     1   0.10129 337397.760000
   1057   1082     1   0.10304 312293.760000
   1058   1069     1   0.10910 283424.160000
   1058   1070     1   0.10910 283424.160000
   1059   1071     1   0.10910 283424.160000
   1059   1072     1   0.10910 283424.160000
   1060   1073     1   0.10969 276646.080000
   1060   1074     1   0.10969 276646.080000
   1062   1075     1   0.10969 276646.080000
   1062   1076     1   0.10969 276646.080000
   1064   1077     1   0.10910 283424.160000
   1064   1078     1   0.10910 283424.160000
   1065   1079     1   0.10969 276646.080000
   1065   1080     1   0.10969 276646.080000
   1066   1081     1   0.10129 337397.760000
   1083   1108     1   0.10304 312293.760000
   1084   1095     1   0.10910 283424.160000
   1084   1096     1   0.10910 283424.160000
   1085   1097     1   0.10910 283424.160000
   1085   1098     1   0.10910 283424.160000
   1086   1099     1   0.10969 276646.080000
   1086   1100     1   0.10969 276646.080000
   1088   1101     1   0.10969 276646.080000
   1088   1102     1   0.10969 276646.080000
   1090   1103     1   0.10910 283424.160000
   1090   1104     1   0.10910 283424.160000
   1091   1105     1   0.10969 276646.080000
   1091   1106     1   0.10969 276646.080000
   1092   1107     1   0.10129 337397.760000
   1109   1134     1   0.10304 312293.760000
   1110   1121     1   0.10910 283424.160000
   1110   1122     1   0.10910 283424.160000
   1111   1123     1   0.10910 283424.160000
   1111   1124     1   0.10910 283424.160000
   1112   1125     1   0.10969 276646.080000
   1112   1126     1   0.10969 276646.080000
   1114   1127     1   0.10969 276646.080000
   1114   1128     1   0.10969 276646.080000
   1116   1129     1   0.10910 283424.160000
   1116   1130     1   0.10910 283424.160000
   1117   1131     1   0.10969 276646.080000
   1117   1132     1   0.10969 276646.080000
   1118   1133     1   0.10129 337397.760000
   1135   1160     1   0.10304 312293.760000
   1136   1147     1   0.10910 283424.160000
   1136   1148     1   0.10910 283424.160000
   1137   1149     1   0.10910 283424.160000
   1137   1150     1   0.10910 283424.160000
   1138   1151     1   0.10969 276646.080000
   1138   1152     1   0.10969 276646.080000
   1140   1153     1   0.10969 276646.080000
   1140   1154     1   0.10969 276646.080000
   1142   1155     1   0.10910 283424.160000
   1142   1156     1   0.10910 283424.160000
   1143   1157     1   0.10969 276646.080000
   1143   1158     1   0.10969 276646.080000
   1144   1159     1   0.10129 337397.760000
   1161   1186     1   0.10304 312293.760000
   1162   1173     1   0.10910 283424.160000
   1162   1174     1   0.10910 283424.160000
   1163   1175     1   0.10910 283424.160000
   1163   1176     1   0.10910 283424.160000
   1164   1177     1   0.10969 276646.080000
   1164   1178     1   0.10969 276646.080000
   1166   1179     1   0.10969 276646.080000
   1166   1180     1   0.10969 276646.080000
   1168   1181     1   0.10910 283424.160000
   1168   1182     1   0.10910 283424.160000
   1169   1183     1   0.10969 276646.080000
   1169   1184     1   0.10969 276646.080000
   1170   1185     1   0.10129 337397.760000
   1187   1212     1   0.10304 312293.760000
   1188   1199     1   0.10910 283424.160000
   1188   1200     1   0.10910 283424.160000
   1189   1201     1   0.10910 283424.160000
   1189   1202     1   0.10910 283424.160000
   1190   1203     1   0.10969 276646.080000
   1190   1204     1   0.10969 276646.080000
   1192   1205     1   0.10969 276646.080000
   1192   1206     1   0.10969 276646.080000
   1194   1207     1   0.10910 283424.160000
   1194   1208     1   0.10910 283424.160000
   1195   1209     1   0.10969 276646.080000
   1195   1210     1   0.10969 276646.080000
   1196   1211     1   0.10129 337397.760000
   1213   1238     1   0.10304 312293.760000
   1214   1225     1   0.10910 283424.160000
   1214   1226     1   0.10910 283424.160000
   1215   1227     1   0.10910 283424.160000
   1215   1228     1   0.10910 283424.160000
   1216   1229     1   0.10969 276646.080000
   1216   1230     1   0.10969 276646.080000
   1218   1231     1   0.10969 276646.080000
   1218   1232     1   0.10969 276646.080000
   1220   1233     1   0.10910 283424.160000
   1220   1234     1   0.10910 283424.160000
   1221   1235     1   0.10969 276646.080000
   1221   1236     1   0.10969 276646.080000
   1222   1237     1   0.10129 337397.760000
   1239   1264     1   0.10304 312293.760000
   1240   1251     1   0.10910 283424.160000
   1240   1252     1   0.10910 283424.160000
   1241   1253     1   0.10910 283424.160000
   1241   1254     1   0.10910 283424.160000
   1242   1255     1   0.10969 276646.080000
   1242   1256     1   0.10969 276646.080000
   1244   1257     1   0.10969 276646.080000
   1244   1258     1   0.10969 276646.080000
   1246   1259     1   0.10910 283424.160000
   1246   1260     1   0.10910 283424.160000
   1247   1261     1   0.10969 276646.080000
   1247   1262     1   0.10969 276646.080000
   1248   1263     1   0.10129 337397.760000
   1265   1290     1   0.10304 312293.760000
   1266   1277     1   0.10910 283424.160000
   1266   1278     1   0.10910 283424.160000
   1267   1279     1   0.10910 283424.160000
   1267   1280     1   0.10910 283424.160000
   1268   1281     1   0.10969 276646.080000
   1268   1282     1   0.10969 276646.080000
   1270   1283     1   0.10969 276646.080000
   1270   1284     1   0.10969 276646.080000
   1272   1285     1   0.10910 283424.160000
   1272   1286     1   0.10910 283424.160000
   1273   1287     1   0.10969 276646.080000
   1273   1288     1   0.10969 276646.080000
   1274   1289     1   0.10129 337397.760000
   1291   1316     1   0.10304 312293.760000
   1292   1303     1   0.10910 283424.160000
   1292   1304     1   0.10910 283424.160000
   1293   1305     1   0.10910 283424.160000
   1293   1306     1   0.10910 283424.160000
   1294   1307     1   0.10969 276646.080000
   1294   1308     1   0.10969 276646.080000
   1296   1309     1   0.10969 276646.080000
   1296   1310     1   0.10969 276646.080000
   1298   1311     1   0.10910 283424.160000
   1298   1312     1   0.10910 283424.160000
   1299   1313     1   0.10969 276646.080000
   1299   1314     1   0.10969 276646.080000
   1300   1315     1   0.10129 337397.760000
   1317   1342     1   0.10304 312293.760000
   1318   1329     1   0.10910 283424.160000
   1318   1330     1   0.10910 283424.160000
   1319   1331     1   0.10910 283424.160000
   1319   1332     1   0.10910 283424.160000
   1320   1333     1   0.10969 276646.080000
   1320   1334     1   0.10969 276646.080000
   1322   1335     1   0.10969 276646.080000
   1322   1336     1   0.10969 276646.080000
   1324   1337     1   0.10910 283424.160000
   1324   1338     1   0.10910 283424.160000
   1325   1339     1   0.10969 276646.080000
   1325   1340     1   0.10969 276646.080000
   1326   1341     1   0.10129 337397.760000
   1343   1368     1   0.10304 312293.760000
   1344   1355     1   0.10910 283424.160000
   1344   1356     1   0.10910 283424.160000
   1345   1357     1   0.10910 283424.160000
   1345   1358     1   0.10910 283424.160000
   1346   1359     1   0.10969 276646.080000
   1346   1360     1   0.10969 276646.080000
   1348   1361     1   0.10969 276646.080000
   1348   1362     1   0.10969 276646.080000
   1350   1363     1   0.10910 283424.160000
   1350   1364     1   0.10910 283424.160000
   1351   1365     1   0.10969 276646.080000
   1351   1366     1   0.10969 276646.080000
   1352   1367     1   0.10129 337397.760000
   1369   1394     1   0.10304 312293.760000
   1370   1381     1   0.10910 283424.160000
   1370   1382     1   0.10910 283424.160000
   1371   1383     1   0.10910 283424.160000
   1371   1384     1   0.10910 283424.160000
   1372   1385     1   0.10969 276646.080000
   1372   1386     1   0.10969 276646.080000
   1374   1387     1   0.10969 276646.080000
   1374   1388     1   0.10969 276646.080000
   1376   1389     1   0.10910 283424.160000
   1376   1390     1   0.10910 283424.160000
   1377   1391     1   0.10969 276646.080000
   1377   1392     1   0.10969 276646.080000
   1378   1393     1   0.10129 337397.760000
   1395   1420     1   0.10304 312293.760000
   1396   1407     1   0.10910 283424.160000
   1396   1408     1   0.10910 283424.160000
   1397   1409     1   0.10910 283424.160000
   1397   1410     1   0.10910 283424.160000
   1398   1411     1   0.10969 276646.080000
   1398   1412     1   0.10969 276646.080000
   1400   1413     1   0.10969 276646.080000
   1400   1414     1   0.10969 276646.080000
   1402   1415     1   0.10910 283424.160000
   1402   1416     1   0.10910 283424.160000
   1403   1417     1   0.10969 276646.080000
   1403   1418     1   0.10969 276646.080000
   1404   1419     1   0.10129 337397.760000
   1421   1446     1   0.10304 312293.760000
   1422   1433     1   0.10910 283424.160000
   1422   1434     1   0.10910 283424.160000
   1423   1435     1   0.10910 283424.160000
   1423   1436     1   0.10910 283424.160000
   1424   1437     1   0.10969 276646.080000
   1424   1438     1   0.10969 276646.080000
   1426   1439     1   0.10969 276646.080000
   1426   1440     1   0.10969 276646.080000
   1428   1441     1   0.10910 283424.160000
   1428   1442     1   0.10910 283424.160000
   1429   1443     1   0.10969 276646.080000
   1429   1444     1   0.10969 276646.080000
   1430   1445     1   0.10129 337397.760000
   1447   1472     1   0.10304 312293.760000
   1448   1459     1   0.10910 283424.160000
   1448   1460     1   0.10910 283424.160000
   1449   1461     1   0.10910 283424.160000
   1449   1462     1   0.10910 283424.160000
   1450   1463     1   0.10969 276646.080000
   1450   1464     1   0.10969 276646.080000
   1452   1465     1   0.10969 276646.080000
   1452   1466     1   0.10969 276646.080000
   1454   1467     1   0.10910 283424.160000
   1454   1468     1   0.10910 283424.160000
   1455   1469     1   0.10969 276646.080000
   1455   1470     1   0.10969 276646.080000
   1456   1471     1   0.10129 337397.760000
   1473   1498     1   0.10304 312293.760000
   1474   1485     1   0.10910 283424.160000
   1474   1486     1   0.10910 283424.160000
   1475   1487     1   0.10910 283424.160000
   1475   1488     1   0.10910 283424.160000
   1476   1489     1   0.10969 276646.080000
   1476   1490     1   0.10969 276646.080000
   1478   1491     1   0.10969 276646.080000
   1478   1492     1   0.10969 276646.080000
   1480   1493     1   0.10910 283424.160000
   1480   1494     1   0.10910 283424.160000
   1481   1495     1   0.10969 276646.080000
   1481   1496     1   0.10969 276646.080000
   1482   1497     1   0.10129 337397.760000
   1499   1524     1   0.10304 312293.760000
   1500   1511     1   0.10910 283424.160000
   1500   1512     1   0.10910 283424.160000
   1501   1513     1   0.10910 283424.160000
   1501   1514     1   0.10910 283424.160000
   1502   1515     1   0.10969 276646.080000
   1502   1516     1   0.10969 276646.080000
   1504   1517     1   0.10969 276646.080000
   1504   1518     1   0.10969 276646.080000
   1506   1519     1   0.10910 283424.160000
   1506   1520     1   0.10910 283424.160000
   1507   1521     1   0.10969 276646.080000
   1507   1522     1   0.10969 276646.080000
   1508   1523     1   0.10129 337397.760000
   1525   1550     1   0.10304 312293.760000
   1526   1537     1   0.10910 283424.160000
   1526   1538     1   0.10910 283424.160000
   1527   1539     1   0.10910 283424.160000
   1527   1540     1   0.10910 283424.160000
   1528   1541     1   0.10969 276646.080000
   1528   1542     1   0.10969 276646.080000
   1530   1543     1   0.10969 276646.080000
   1530   1544     1   0.10969 276646.080000
   1532   1545     1   0.10910 283424.160000
   1532   1546     1   0.10910 283424.160000
   1533   1547     1   0.10969 276646.080000
   1533   1548     1   0.10969 276646.080000
   1534   1549     1   0.10129 337397.760000
   1551   1576     1   0.10304 312293.760000
   1552   1563     1   0.10910 283424.160000
   1552   1564     1   0.10910 283424.160000
   1553   1565     1   0.10910 283424.160000
   1553   1566     1   0.10910 283424.160000
   1554   1567     1   0.10969 276646.080000
   1554   1568     1   0.10969 276646.080000
   1556   1569     1   0.10969 276646.080000
   1556   1570     1   0.10969 276646.080000
   1558   1571     1   0.10910 283424.160000
   1558   1572     1   0.10910 283424.160000
   1559   1573     1   0.10969 276646.080000
   1559   1574     1   0.10969 276646.080000
   1560   1575     1   0.10129 337397.760000
   1577   1602     1   0.10304 312293.760000
   1578   1589     1   0.10910 283424.160000
   1578   1590     1   0.10910 283424.160000
   1579   1591     1   0.10910 283424.160000
   1579   1592     1   0.10910 283424.160000
   1580   1593     1   0.10969 276646.080000
   1580   1594     1   0.10969 276646.080000
   1582   1595     1   0.10969 276646.080000
   1582   1596     1   0.10969 276646.080000
   1584   1597     1   0.10910 283424.160000
   1584   1598     1   0.10910 283424.160000
   1585   1599     1   0.10969 276646.080000
   1585   1600     1   0.10969 276646.080000
   1586   1601     1   0.10129 337397.760000
   1603   1628     1   0.10304 312293.760000
   1604   1615     1   0.10910 283424.160000
   1604   1616     1   0.10910 283424.160000
   1605   1617     1   0.10910 283424.160000
   1605   1618     1   0.10910 283424.160000
   1606   1619     1   0.10969 276646.080000
   1606   1620     1   0.10969 276646.080000
   1608   1621     1   0.10969 276646.080000
   1608   1622     1   0.10969 276646.080000
   1610   1623     1   0.10910 283424.160000
   1610   1624     1   0.10910 283424.160000
   1611   1625     1   0.10969 276646.080000
   1611   1626     1   0.10969 276646.080000
   1612   1627     1   0.10129 337397.760000
   1629   1654     1   0.10304 312293.760000
   1630   1641     1   0.10910 283424.160000
   1630   1642     1   0.10910 283424.160000
   1631   1643     1   0.10910 283424.160000
   1631   1644     1   0.10910 283424.160000
   1632   1645     1   0.10969 276646.080000
   1632   1646     1   0.10969 276646.080000
   1634   1647     1   0.10969 276646.080000
   1634   1648     1   0.10969 276646.080000
   1636   1649     1   0.10910 283424.160000
   1636   1650     1   0.10910 283424.160000
   1637   1651     1   0.10969 276646.080000
   1637   1652     1   0.10969 276646.080000
   1638   1653     1   0.10129 337397.760000
   1655   1680     1   0.10304 312293.760000
   1656   1667     1   0.10910 283424.160000
   1656   1668     1   0.10910 283424.160000
   1657   1669     1   0.10910 283424.160000
   1657   1670     1   0.10910 283424.160000
   1658   1671     1   0.10969 276646.080000
   1658   1672     1   0.10969 276646.080000
   1660   1673     1   0.10969 276646.080000
   1660   1674     1   0.10969 276646.080000
   1662   1675     1   0.10910 283424.160000
   1662   1676     1   0.10910 283424.160000
   1663   1677     1   0.10969 276646.080000
   1663   1678     1   0.10969 276646.080000
   1664   1679     1   0.10129 337397.760000
   1681   1706     1   0.10304 312293.760000
   1682   1693     1   0.10910 283424.160000
   1682   1694     1   0.10910 283424.160000
   1683   1695     1   0.10910 283424.160000
   1683   1696     1   0.10910 283424.160000
   1684   1697     1   0.10969 276646.080000
   1684   1698     1   0.10969 276646.080000
   1686   1699     1   0.10969 276646.080000
   1686   1700     1   0.10969 276646.080000
   1688   1701     1   0.10910 283424.160000
   1688   1702     1   0.10910 283424.160000
   1689   1703     1   0.10969 276646.080000
   1689   1704     1   0.10969 276646.080000
   1690   1705     1   0.10129 337397.760000
   1707   1732     1   0.10304 312293.760000
   1708   1719     1   0.10910 283424.160000
   1708   1720     1   0.10910 283424.160000
   1709   1721     1   0.10910 283424.160000
   1709   1722     1   0.10910 283424.160000
   1710   1723     1   0.10969 276646.080000
   1710   1724     1   0.10969 276646.080000
   1712   1725     1   0.10969 276646.080000
   1712   1726     1   0.10969 276646.080000
   1714   1727     1   0.10910 283424.160000
   1714   1728     1   0.10910 283424.160000
   1715   1729     1   0.10969 276646.080000
   1715   1730     1   0.10969 276646.080000
   1716   1731     1   0.10129 337397.760000
   1733   1758     1   0.10304 312293.760000
   1734   1745     1   0.10910 283424.160000
   1734   1746     1   0.10910 283424.160000
   1735   1747     1   0.10910 283424.160000
   1735   1748     1   0.10910 283424.160000
   1736   1749     1   0.10969 276646.080000
   1736   1750     1   0.10969 276646.080000
   1738   1751     1   0.10969 276646.080000
   1738   1752     1   0.10969 276646.080000
   1740   1753     1   0.10910 283424.160000
   1740   1754     1   0.10910 283424.160000
   1741   1755     1   0.10969 276646.080000
   1741   1756     1   0.10969 276646.080000
   1742   1757     1   0.10129 337397.760000
   1759   1784     1   0.10304 312293.760000
   1760   1771     1   0.10910 283424.160000
   1760   1772     1   0.10910 283424.160000
   1761   1773     1   0.10910 283424.160000
   1761   1774     1   0.10910 283424.160000
   1762   1775     1   0.10969 276646.080000
   1762   1776     1   0.10969 276646.080000
   1764   1777     1   0.10969 276646.080000
   1764   1778     1   0.10969 276646.080000
   1766   1779     1   0.10910 283424.160000
   1766   1780     1   0.10910 283424.160000
   1767   1781     1   0.10969 276646.080000
   1767   1782     1   0.10969 276646.080000
   1768   1783     1   0.10129 337397.760000
   1785   1810     1   0.10304 312293.760000
   1786   1797     1   0.10910 283424.160000
   1786   1798     1   0.10910 283424.160000
   1787   1799     1   0.10910 283424.160000
   1787   1800     1   0.10910 283424.160000
   1788   1801     1   0.10969 276646.080000
   1788   1802     1   0.10969 276646.080000
   1790   1803     1   0.10969 276646.080000
   1790   1804     1   0.10969 276646.080000
   1792   1805     1   0.10910 283424.160000
   1792   1806     1   0.10910 283424.160000
   1793   1807     1   0.10969 276646.080000
   1793   1808     1   0.10969 276646.080000
   1794   1809     1   0.10129 337397.760000
   1811   1836     1   0.10304 312293.760000
   1812   1823     1   0.10910 283424.160000
   1812   1824     1   0.10910 283424.160000
   1813   1825     1   0.10910 283424.160000
   1813   1826     1   0.10910 283424.160000
   1814   1827     1   0.10969 276646.080000
   1814   1828     1   0.10969 276646.080000
   1816   1829     1   0.10969 276646.080000
   1816   1830     1   0.10969 276646.080000
   1818   1831     1   0.10910 283424.160000
   1818   1832     1   0.10910 283424.160000
   1819   1833     1   0.10969 276646.080000
   1819   1834     1   0.10969 276646.080000
   1820   1835     1   0.10129 337397.760000
   1837   1862     1   0.10304 312293.760000
   1838   1849     1   0.10910 283424.160000
   1838   1850     1   0.10910 283424.160000
   1839   1851     1   0.10910 283424.160000
   1839   1852     1   0.10910 283424.160000
   1840   1853     1   0.10969 276646.080000
   1840   1854     1   0.10969 276646.080000
   1842   1855     1   0.10969 276646.080000
   1842   1856     1   0.10969 276646.080000
   1844   1857     1   0.10910 283424.160000
   1844   1858     1   0.10910 283424.160000
   1845   1859     1   0.10969 276646.080000
   1845   1860     1   0.10969 276646.080000
   1846   1861     1   0.10129 337397.760000
   1863   1888     1   0.10304 312293.760000
   1864   1875     1   0.10910 283424.160000
   1864   1876     1   0.10910 283424.160000
   1865   1877     1   0.10910 283424.160000
   1865   1878     1   0.10910 283424.160000
   1866   1879     1   0.10969 276646.080000
   1866   1880     1   0.10969 276646.080000
   1868   1881     1   0.10969 276646.080000
   1868   1882     1   0.10969 276646.080000
   1870   1883     1   0.10910 283424.160000
   1870   1884     1   0.10910 283424.160000
   1871   1885     1   0.10969 276646.080000
   1871   1886     1   0.10969 276646.080000
   1872   1887     1   0.10129 337397.760000
   1889   1914     1   0.10304 312293.760000
   1890   1901     1   0.10910 283424.160000
   1890   1902     1   0.10910 283424.160000
   1891   1903     1   0.10910 283424.160000
   1891   1904     1   0.10910 283424.160000
   1892   1905     1   0.10969 276646.080000
   1892   1906     1   0.10969 276646.080000
   1894   1907     1   0.10969 276646.080000
   1894   1908     1   0.10969 276646.080000
   1896   1909     1   0.10910 283424.160000
   1896   1910     1   0.10910 283424.160000
   1897   1911     1   0.10969 276646.080000
   1897   1912     1   0.10969 276646.080000
   1898   1913     1   0.10129 337397.760000
   1915   1940     1   0.10304 312293.760000
   1916   1927     1   0.10910 283424.160000
   1916   1928     1   0.10910 283424.160000
   1917   1929     1   0.10910 283424.160000
   1917   1930     1   0.10910 283424.160000
   1918   1931     1   0.10969 276646.080000
   1918   1932     1   0.10969 276646.080000
   1920   1933     1   0.10969 276646.080000
   1920   1934     1   0.10969 276646.080000
   1922   1935     1   0.10910 283424.160000
   1922   1936     1   0.10910 283424.160000
   1923   1937     1   0.10969 276646.080000
   1923   1938     1   0.10969 276646.080000
   1924   1939     1   0.10129 337397.760000
   1941   1966     1   0.10304 312293.760000
   1942   1953     1   0.10910 283424.160000
   1942   1954     1   0.10910 283424.160000
   1943   1955     1   0.10910 283424.160000
   1943   1956     1   0.10910 283424.160000
   1944   1957     1   0.10969 276646.080000
   1944   1958     1   0.10969 276646.080000
   1946   1959     1   0.10969 276646.080000
   1946   1960     1   0.10969 276646.080000
   1948   1961     1   0.10910 283424.160000
   1948   1962     1   0.10910 283424.160000
   1949   1963     1   0.10969 276646.080000
   1949   1964     1   0.10969 276646.080000
   1950   1965     1   0.10129 337397.760000
   1967   1992     1   0.10304 312293.760000
   1968   1979     1   0.10910 283424.160000
   1968   1980     1   0.10910 283424.160000
   1969   1981     1   0.10910 283424.160000
   1969   1982     1   0.10910 283424.160000
   1970   1983     1   0.10969 276646.080000
   1970   1984     1   0.10969 276646.080000
   1972   1985     1   0.10969 276646.080000
   1972   1986     1   0.10969 276646.080000
   1974   1987     1   0.10910 283424.160000
   1974   1988     1   0.10910 283424.160000
   1975   1989     1   0.10969 276646.080000
   1975   1990     1   0.10969 276646.080000
   1976   1991     1   0.10129 337397.760000
   1993   2018     1   0.10304 312293.760000
   1994   2005     1   0.10910 283424.160000
   1994   2006     1   0.10910 283424.160000
   1995   2007     1   0.10910 283424.160000
   1995   2008     1   0.10910 283424.160000
   1996   2009     1   0.10969 276646.080000
   1996   2010     1   0.10969 276646.080000
   1998   2011     1   0.10969 276646.080000
   1998   2012     1   0.10969 276646.080000
   2000   2013     1   0.10910 283424.160000
   2000   2014     1   0.10910 283424.160000
   2001   2015     1   0.10969 276646.080000
   2001   2016     1   0.10969 276646.080000
   2002   2017     1   0.10129 337397.760000
   2019   2044     1   0.10304 312293.760000
   2020   2031     1   0.10910 283424.160000
   2020   2032     1   0.10910 283424.160000
   2021   2033     1   0.10910 283424.160000
   2021   2034     1   0.10910 283424.160000
   2022   2035     1   0.10969 276646.080000
   2022   2036     1   0.10969 276646.080000
   2024   2037     1   0.10969 276646.080000
   2024   2038     1   0.10969 276646.080000
   2026   2039     1   0.10910 283424.160000
   2026   2040     1   0.10910 283424.160000
   2027   2041     1   0.10969 276646.080000
   2027   2042     1   0.10969 276646.080000
   2028   2043     1   0.10129 337397.760000
   2045   2070     1   0.10304 312293.760000
   2046   2057     1   0.10910 283424.160000
   2046   2058     1   0.10910 283424.160000
   2047   2059     1   0.10910 283424.160000
   2047   2060     1   0.10910 283424.160000
   2048   2061     1   0.10969 276646.080000
   2048   2062     1   0.10969 276646.080000
   2050   2063     1   0.10969 276646.080000
   2050   2064     1   0.10969 276646.080000
   2052   2065     1   0.10910 283424.160000
   2052   2066     1   0.10910 283424.160000
   2053   2067     1   0.10969 276646.080000
   2053   2068     1   0.10969 276646.080000
   2054   2069     1   0.10129 337397.760000
   2071   2096     1   0.10304 312293.760000
   2072   2083     1   0.10910 283424.160000
   2072   2084     1   0.10910 283424.160000
   2073   2085     1   0.10910 283424.160000
   2073   2086     1   0.10910 283424.160000
   2074   2087     1   0.10969 276646.080000
   2074   2088     1   0.10969 276646.080000
   2076   2089     1   0.10969 276646.080000
   2076   2090     1   0.10969 276646.080000
   2078   2091     1   0.10910 283424.160000
   2078   2092     1   0.10910 283424.160000
   2079   2093     1   0.10969 276646.080000
   2079   2094     1   0.10969 276646.080000
   2080   2095     1   0.10129 337397.760000
   2097   2122     1   0.10304 312293.760000
   2098   2109     1   0.10910 283424.160000
   2098   2110     1   0.10910 283424.160000
   2099   2111     1   0.10910 283424.160000
   2099   2112     1   0.10910 283424.160000
   2100   2113     1   0.10969 276646.080000
   2100   2114     1   0.10969 276646.080000
   2102   2115     1   0.10969 276646.080000
   2102   2116     1   0.10969 276646.080000
   2104   2117     1   0.10910 283424.160000
   2104   2118     1   0.10910 283424.160000
   2105   2119     1   0.10969 276646.080000
   2105   2120     1   0.10969 276646.080000
   2106   2121     1   0.10129 337397.760000
   2123   2148     1   0.10304 312293.760000
   2124   2135     1   0.10910 283424.160000
   2124   2136     1   0.10910 283424.160000
   2125   2137     1   0.10910 283424.160000
   2125   2138     1   0.10910 283424.160000
   2126   2139     1   0.10969 276646.080000
   2126   2140     1   0.10969 276646.080000
   2128   2141     1   0.10969 276646.080000
   2128   2142     1   0.10969 276646.080000
   2130   2143     1   0.10910 283424.160000
   2130   2144     1   0.10910 283424.160000
   2131   2145     1   0.10969 276646.080000
   2131   2146     1   0.10969 276646.080000
   2132   2147     1   0.10129 337397.760000
   2149   2174     1   0.10304 312293.760000
   2150   2161     1   0.10910 283424.160000
   2150   2162     1   0.10910 283424.160000
   2151   2163     1   0.10910 283424.160000
   2151   2164     1   0.10910 283424.160000
   2152   2165     1   0.10969 276646.080000
   2152   2166     1   0.10969 276646.080000
   2154   2167     1   0.10969 276646.080000
   2154   2168     1   0.10969 276646.080000
   2156   2169     1   0.10910 283424.160000
   2156   2170     1   0.10910 283424.160000
   2157   2171     1   0.10969 276646.080000
   2157   2172     1   0.10969 276646.080000
   2158   2173     1   0.10129 337397.760000
   2175   2200     1   0.10304 312293.760000
   2176   2187     1   0.10910 283424.160000
   2176   2188     1   0.10910 283424.160000
   2177   2189     1   0.10910 283424.160000
   2177   2190     1   0.10910 283424.160000
   2178   2191     1   0.10969 276646.080000
   2178   2192     1   0.10969 276646.080000
   2180   2193     1   0.10969 276646.080000
   2180   2194     1   0.10969 276646.080000
   2182   2195     1   0.10910 283424.160000
   2182   2196     1   0.10910 283424.160000
   2183   2197     1   0.10969 276646.080000
   2183   2198     1   0.10969 276646.080000
   2184   2199     1   0.10129 337397.760000
   2201   2226     1   0.10304 312293.760000
   2202   2213     1   0.10910 283424.160000
   2202   2214     1   0.10910 283424.160000
   2203   2215     1   0.10910 283424.160000
   2203   2216     1   0.10910 283424.160000
   2204   2217     1   0.10969 276646.080000
   2204   2218     1   0.10969 276646.080000
   2206   2219     1   0.10969 276646.080000
   2206   2220     1   0.10969 276646.080000
   2208   2221     1   0.10910 283424.160000
   2208   2222     1   0.10910 283424.160000
   2209   2223     1   0.10969 276646.080000
   2209   2224     1   0.10969 276646.080000
   2210   2225     1   0.10129 337397.760000
   2227   2252     1   0.10304 312293.760000
   2228   2239     1   0.10910 283424.160000
   2228   2240     1   0.10910 283424.160000
   2229   2241     1   0.10910 283424.160000
   2229   2242     1   0.10910 283424.160000
   2230   2243     1   0.10969 276646.080000
   2230   2244     1   0.10969 276646.080000
   2232   2245     1   0.10969 276646.080000
   2232   2246     1   0.10969 276646.080000
   2234   2247     1   0.10910 283424.160000
   2234   2248     1   0.10910 283424.160000
   2235   2249     1   0.10969 276646.080000
   2235   2250     1   0.10969 276646.080000
   2236   2251     1   0.10129 337397.760000
   2253   2278     1   0.10304 312293.760000
   2254   2265     1   0.10910 283424.160000
   2254   2266     1   0.10910 283424.160000
   2255   2267     1   0.10910 283424.160000
   2255   2268     1   0.10910 283424.160000
   2256   2269     1   0.10969 276646.080000
   2256   2270     1   0.10969 276646.080000
   2258   2271     1   0.10969 276646.080000
   2258   2272     1   0.10969 276646.080000
   2260   2273     1   0.10910 283424.160000
   2260   2274     1   0.10910 283424.160000
   2261   2275     1   0.10969 276646.080000
   2261   2276     1   0.10969 276646.080000
   2262   2277     1   0.10129 337397.760000
   2279   2304     1   0.10304 312293.760000
   2280   2291     1   0.10910 283424.160000
   2280   2292     1   0.10910 283424.160000
   2281   2293     1   0.10910 283424.160000
   2281   2294     1   0.10910 283424.160000
   2282   2295     1   0.10969 276646.080000
   2282   2296     1   0.10969 276646.080000
   2284   2297     1   0.10969 276646.080000
   2284   2298     1   0.10969 276646.080000
   2286   2299     1   0.10910 283424.160000
   2286   2300     1   0.10910 283424.160000
   2287   2301     1   0.10969 276646.080000
   2287   2302     1   0.10969 276646.080000
   2288   2303     1   0.10129 337397.760000
   2305   2330     1   0.10304 312293.760000
   2306   2317     1   0.10910 283424.160000
   2306   2318     1   0.10910 283424.160000
   2307   2319     1   0.10910 283424.160000
   2307   2320     1   0.10910 283424.160000
   2308   2321     1   0.10969 276646.080000
   2308   2322     1   0.10969 276646.080000
   2310   2323     1   0.10969 276646.080000
   2310   2324     1   0.10969 276646.080000
   2312   2325     1   0.10910 283424.160000
   2312   2326     1   0.10910 283424.160000
   2313   2327     1   0.10969 276646.080000
   2313   2328     1   0.10969 276646.080000
   2314   2329     1   0.10129 337397.760000
   2331   2356     1   0.10304 312293.760000
   2332   2343     1   0.10910 283424.160000
   2332   2344     1   0.10910 283424.160000
   2333   2345     1   0.10910 283424.160000
   2333   2346     1   0.10910 283424.160000
   2334   2347     1   0.10969 276646.080000
   2334   2348     1   0.10969 276646.080000
   2336   2349     1   0.10969 276646.080000
   2336   2350     1   0.10969 276646.080000
   2338   2351     1   0.10910 283424.160000
   2338   2352     1   0.10910 283424.160000
   2339   2353     1   0.10969 276646.080000
   2339   2354     1   0.10969 276646.080000
   2340   2355     1   0.10129 337397.760000
   2357   2382     1   0.10304 312293.760000
   2358   2369     1   0.10910 283424.160000
   2358   2370     1   0.10910 283424.160000
   2359   2371     1   0.10910 283424.160000
   2359   2372     1   0.10910 283424.160000
   2360   2373     1   0.10969 276646.080000
   2360   2374     1   0.10969 276646.080000
   2362   2375     1   0.10969 276646.080000
   2362   2376     1   0.10969 276646.080000
   2364   2377     1   0.10910 283424.160000
   2364   2378     1   0.10910 283424.160000
   2365   2379     1   0.10969 276646.080000
   2365   2380     1   0.10969 276646.080000
   2366   2381     1   0.10129 337397.760000
   2383   2408     1   0.10304 312293.760000
   2384   2395     1   0.10910 283424.160000
   2384   2396     1   0.10910 283424.160000
   2385   2397     1   0.10910 283424.160000
   2385   2398     1   0.10910 283424.160000
   2386   2399     1   0.10969 276646.080000
   2386   2400     1   0.10969 276646.080000
   2388   2401     1   0.10969 276646.080000
   2388   2402     1   0.10969 276646.080000
   2390   2403     1   0.10910 283424.160000
   2390   2404     1   0.10910 283424.160000
   2391   2405     1   0.10969 276646.080000
   2391   2406     1   0.10969 276646.080000
   2392   2407     1   0.10129 337397.760000
   2409   2434     1   0.10304 312293.760000
   2410   2421     1   0.10910 283424.160000
   2410   2422     1   0.10910 283424.160000
   2411   2423     1   0.10910 283424.160000
   2411   2424     1   0.10910 283424.160000
   2412   2425     1   0.10969 276646.080000
   2412   2426     1   0.10969 276646.080000
   2414   2427     1   0.10969 276646.080000
   2414   2428     1   0.10969 276646.080000
   2416   2429     1   0.10910 283424.160000
   2416   2430     1   0.10910 283424.160000
   2417   2431     1   0.10969 276646.080000
   2417   2432     1   0.10969 276646.080000
   2418   2433     1   0.10129 337397.760000
   2435   2460     1   0.10304 312293.760000
   2436   2447     1   0.10910 283424.160000
   2436   2448     1   0.10910 283424.160000
   2437   2449     1   0.10910 283424.160000
   2437   2450     1   0.10910 283424.160000
   2438   2451     1   0.10969 276646.080000
   2438   2452     1   0.10969 276646.080000
   2440   2453     1   0.10969 276646.080000
   2440   2454     1   0.10969 276646.080000
   2442   2455     1   0.10910 283424.160000
   2442   2456     1   0.10910 283424.160000
   2443   2457     1   0.10969 276646.080000
   2443   2458     1   0.10969 276646.080000
   2444   2459     1   0.10129 337397.760000
   2461   2486     1   0.10304 312293.760000
   2462   2473     1   0.10910 283424.160000
   2462   2474     1   0.10910 283424.160000
   2463   2475     1   0.10910 283424.160000
   2463   2476     1   0.10910 283424.160000
   2464   2477     1   0.10969 276646.080000
   2464   2478     1   0.10969 276646.080000
   2466   2479     1   0.10969 276646.080000
   2466   2480     1   0.10969 276646.080000
   2468   2481     1   0.10910 283424.160000
   2468   2482     1   0.10910 283424.160000
   2469   2483     1   0.10969 276646.080000
   2469   2484     1   0.10969 276646.080000
   2470   2485     1   0.10129 337397.760000
   2487   2512     1   0.10304 312293.760000
   2488   2499     1   0.10910 283424.160000
   2488   2500     1   0.10910 283424.160000
   2489   2501     1   0.10910 283424.160000
   2489   2502     1   0.10910 283424.160000
   2490   2503     1   0.10969 276646.080000
   2490   2504     1   0.10969 276646.080000
   2492   2505     1   0.10969 276646.080000
   2492   2506     1   0.10969 276646.080000
   2494   2507     1   0.10910 283424.160000
   2494   2508     1   0.10910 283424.160000
   2495   2509     1   0.10969 276646.080000
   2495   2510     1   0.10969 276646.080000
   2496   2511     1   0.10129 337397.760000
   2513   2538     1   0.10304 312293.760000
   2514   2525     1   0.10910 283424.160000
   2514   2526     1   0.10910 283424.160000
   2515   2527     1   0.10910 283424.160000
   2515   2528     1   0.10910 283424.160000
   2516   2529     1   0.10969 276646.080000
   2516   2530     1   0.10969 276646.080000
   2518   2531     1   0.10969 276646.080000
   2518   2532     1   0.10969 276646.080000
   2520   2533     1   0.10910 283424.160000
   2520   2534     1   0.10910 283424.160000
   2521   2535     1   0.10969 276646.080000
   2521   2536     1   0.10969 276646.080000
   2522   2537     1   0.10129 337397.760000
   2539   2564     1   0.10304 312293.760000
   2540   2551     1   0.10910 283424.160000
   2540   2552     1   0.10910 283424.160000
   2541   2553     1   0.10910 283424.160000
   2541   2554     1   0.10910 283424.160000
   2542   2555     1   0.10969 276646.080000
   2542   2556     1   0.10969 276646.080000
   2544   2557     1   0.10969 276646.080000
   2544   2558     1   0.10969 276646.080000
   2546   2559     1   0.10910 283424.160000
   2546   2560     1   0.10910 283424.160000
   2547   2561     1   0.10969 276646.080000
   2547   2562     1   0.10969 276646.080000
   2548   2563     1   0.10129 337397.760000
   2565   2590     1   0.10304 312293.760000
   2566   2577     1   0.10910 283424.160000
   2566   2578     1   0.10910 283424.160000
   2567   2579     1   0.10910 283424.160000
   2567   2580     1   0.10910 283424.160000
   2568   2581     1   0.10969 276646.080000
   2568   2582     1   0.10969 276646.080000
   2570   2583     1   0.10969 276646.080000
   2570   2584     1   0.10969 276646.080000
   2572   2585     1   0.10910 283424.160000
   2572   2586     1   0.10910 283424.160000
   2573   2587     1   0.10969 276646.080000
   2573   2588     1   0.10969 276646.080000
   2574   2589     1   0.10129 337397.760000
   2591   2616     1   0.10304 312293.760000
   2592   2603     1   0.10910 283424.160000
   2592   2604     1   0.10910 283424.160000
   2593   2605     1   0.10910 283424.160000
   2593   2606     1   0.10910 283424.160000
   2594   2607     1   0.10969 276646.080000
   2594   2608     1   0.10969 276646.080000
   2596   2609     1   0.10969 276646.080000
   2596   2610     1   0.10969 276646.080000
   2598   2611     1   0.10910 283424.160000
   2598   2612     1   0.10910 283424.160000
   2599   2613     1   0.10969 276646.080000
   2599   2614     1   0.10969 276646.080000
   2600   2615     1   0.10129 337397.760000
   2617   2642     1   0.10304 312293.760000
   2618   2629     1   0.10910 283424.160000
   2618   2630     1   0.10910 283424.160000
   2619   2631     1   0.10910 283424.160000
   2619   2632     1   0.10910 283424.160000
   2620   2633     1   0.10969 276646.080000
   2620   2634     1   0.10969 276646.080000
   2622   2635     1   0.10969 276646.080000
   2622   2636     1   0.10969 276646.080000
   2624   2637     1   0.10910 283424.160000
   2624   2638     1   0.10910 283424.160000
   2625   2639     1   0.10969 276646.080000
   2625   2640     1   0.10969 276646.080000
   2626   2641     1   0.10129 337397.760000
   2643   2668     1   0.10304 312293.760000
   2644   2655     1   0.10910 283424.160000
   2644   2656     1   0.10910 283424.160000
   2645   2657     1   0.10910 283424.160000
   2645   2658     1   0.10910 283424.160000
   2646   2659     1   0.10969 276646.080000
   2646   2660     1   0.10969 276646.080000
   2648   2661     1   0.10969 276646.080000
   2648   2662     1   0.10969 276646.080000
   2650   2663     1   0.10910 283424.160000
   2650   2664     1   0.10910 283424.160000
   2651   2665     1   0.10969 276646.080000
   2651   2666     1   0.10969 276646.080000
   2652   2667     1   0.10129 337397.760000
   2669   2694     1   0.10304 312293.760000
   2670   2681     1   0.10910 283424.160000
   2670   2682     1   0.10910 283424.160000
   2671   2683     1   0.10910 283424.160000
   2671   2684     1   0.10910 283424.160000
   2672   2685     1   0.10969 276646.080000
   2672   2686     1   0.10969 276646.080000
   2674   2687     1   0.10969 276646.080000
   2674   2688     1   0.10969 276646.080000
   2676   2689     1   0.10910 283424.160000
   2676   2690     1   0.10910 283424.160000
   2677   2691     1   0.10969 276646.080000
   2677   2692     1   0.10969 276646.080000
   2678   2693     1   0.10129 337397.760000
   2695   2720     1   0.10304 312293.760000
   2696   2707     1   0.10910 283424.160000
   2696   2708     1   0.10910 283424.160000
   2697   2709     1   0.10910 283424.160000
   2697   2710     1   0.10910 283424.160000
   2698   2711     1   0.10969 276646.080000
   2698   2712     1   0.10969 276646.080000
   2700   2713     1   0.10969 276646.080000
   2700   2714     1   0.10969 276646.080000
   2702   2715     1   0.10910 283424.160000
   2702   2716     1   0.10910 283424.160000
   2703   2717     1   0.10969 276646.080000
   2703   2718     1   0.10969 276646.080000
   2704   2719     1   0.10129 337397.760000
   2721   2746     1   0.10304 312293.760000
   2722   2733     1   0.10910 283424.160000
   2722   2734     1   0.10910 283424.160000
   2723   2735     1   0.10910 283424.160000
   2723   2736     1   0.10910 283424.160000
   2724   2737     1   0.10969 276646.080000
   2724   2738     1   0.10969 276646.080000
   2726   2739     1   0.10969 276646.080000
   2726   2740     1   0.10969 276646.080000
   2728   2741     1   0.10910 283424.160000
   2728   2742     1   0.10910 283424.160000
   2729   2743     1   0.10969 276646.080000
   2729   2744     1   0.10969 276646.080000
   2730   2745     1   0.10129 337397.760000
   2747   2772     1   0.10304 312293.760000
   2748   2759     1   0.10910 283424.160000
   2748   2760     1   0.10910 283424.160000
   2749   2761     1   0.10910 283424.160000
   2749   2762     1   0.10910 283424.160000
   2750   2763     1   0.10969 276646.080000
   2750   2764     1   0.10969 276646.080000
   2752   2765     1   0.10969 276646.080000
   2752   2766     1   0.10969 276646.080000
   2754   2767     1   0.10910 283424.160000
   2754   2768     1   0.10910 283424.160000
   2755   2769     1   0.10969 276646.080000
   2755   2770     1   0.10969 276646.080000
   2756   2771     1   0.10129 337397.760000
   2773   2798     1   0.10304 312293.760000
   2774   2785     1   0.10910 283424.160000
   2774   2786     1   0.10910 283424.160000
   2775   2787     1   0.10910 283424.160000
   2775   2788     1   0.10910 283424.160000
   2776   2789     1   0.10969 276646.080000
   2776   2790     1   0.10969 276646.080000
   2778   2791     1   0.10969 276646.080000
   2778   2792     1   0.10969 276646.080000
   2780   2793     1   0.10910 283424.160000
   2780   2794     1   0.10910 283424.160000
   2781   2795     1   0.10969 276646.080000
   2781   2796     1   0.10969 276646.080000
   2782   2797     1   0.10129 337397.760000
   2799   2824     1   0.10304 312293.760000
   2800   2811     1   0.10910 283424.160000
   2800   2812     1   0.10910 283424.160000
   2801   2813     1   0.10910 283424.160000
   2801   2814     1   0.10910 283424.160000
   2802   2815     1   0.10969 276646.080000
   2802   2816     1   0.10969 276646.080000
   2804   2817     1   0.10969 276646.080000
   2804   2818     1   0.10969 276646.080000
   2806   2819     1   0.10910 283424.160000
   2806   2820     1   0.10910 283424.160000
   2807   2821     1   0.10969 276646.080000
   2807   2822     1   0.10969 276646.080000
   2808   2823     1   0.10129 337397.760000
   2825   2850     1   0.10304 312293.760000
   2826   2837     1   0.10910 283424.160000
   2826   2838     1   0.10910 283424.160000
   2827   2839     1   0.10910 283424.160000
   2827   2840     1   0.10910 283424.160000
   2828   2841     1   0.10969 276646.080000
   2828   2842     1   0.10969 276646.080000
   2830   2843     1   0.10969 276646.080000
   2830   2844     1   0.10969 276646.080000
   2832   2845     1   0.10910 283424.160000
   2832   2846     1   0.10910 283424.160000
   2833   2847     1   0.10969 276646.080000
   2833   2848     1   0.10969 276646.080000
   2834   2849     1   0.10129 337397.760000
   2851   2876     1   0.10304 312293.760000
   2852   2863     1   0.10910 283424.160000
   2852   2864     1   0.10910 283424.160000
   2853   2865     1   0.10910 283424.160000
   2853   2866     1   0.10910 283424.160000
   2854   2867     1   0.10969 276646.080000
   2854   2868     1   0.10969 276646.080000
   2856   2869     1   0.10969 276646.080000
   2856   2870     1   0.10969 276646.080000
   2858   2871     1   0.10910 283424.160000
   2858   2872     1   0.10910 283424.160000
   2859   2873     1   0.10969 276646.080000
   2859   2874     1   0.10969 276646.080000
   2860   2875     1   0.10129 337397.760000
   2877   2902     1   0.10304 312293.760000
   2878   2889     1   0.10910 283424.160000
   2878   2890     1   0.10910 283424.160000
   2879   2891     1   0.10910 283424.160000
   2879   2892     1   0.10910 283424.160000
   2880   2893     1   0.10969 276646.080000
   2880   2894     1   0.10969 276646.080000
   2882   2895     1   0.10969 276646.080000
   2882   2896     1   0.10969 276646.080000
   2884   2897     1   0.10910 283424.160000
   2884   2898     1   0.10910 283424.160000
   2885   2899     1   0.10969 276646.080000
   2885   2900     1   0.10969 276646.080000
   2886   2901     1   0.10129 337397.760000
   2903   2928     1   0.10304 312293.760000
   2904   2915     1   0.10910 283424.160000
   2904   2916     1   0.10910 283424.160000
   2905   2917     1   0.10910 283424.160000
   2905   2918     1   0.10910 283424.160000
   2906   2919     1   0.10969 276646.080000
   2906   2920     1   0.10969 276646.080000
   2908   2921     1   0.10969 276646.080000
   2908   2922     1   0.10969 276646.080000
   2910   2923     1   0.10910 283424.160000
   2910   2924     1   0.10910 283424.160000
   2911   2925     1   0.10969 276646.080000
   2911   2926     1   0.10969 276646.080000
   2912   2927     1   0.10129 337397.760000
   2929   2954     1   0.10304 312293.760000
   2930   2941     1   0.10910 283424.160000
   2930   2942     1   0.10910 283424.160000
   2931   2943     1   0.10910 283424.160000
   2931   2944     1   0.10910 283424.160000
   2932   2945     1   0.10969 276646.080000
   2932   2946     1   0.10969 276646.080000
   2934   2947     1   0.10969 276646.080000
   2934   2948     1   0.10969 276646.080000
   2936   2949     1   0.10910 283424.160000
   2936   2950     1   0.10910 283424.160000
   2937   2951     1   0.10969 276646.080000
   2937   2952     1   0.10969 276646.080000
   2938   2953     1   0.10129 337397.760000
   2955   2980     1   0.10304 312293.760000
   2956   2967     1   0.10910 283424.160000
   2956   2968     1   0.10910 283424.160000
   2957   2969     1   0.10910 283424.160000
   2957   2970     1   0.10910 283424.160000
   2958   2971     1   0.10969 276646.080000
   2958   2972     1   0.10969 276646.080000
   2960   2973     1   0.10969 276646.080000
   2960   2974     1   0.10969 276646.080000
   2962   2975     1   0.10910 283424.160000
   2962   2976     1   0.10910 283424.160000
   2963   2977     1   0.10969 276646.080000
   2963   2978     1   0.10969 276646.080000
   2964   2979     1   0.10129 337397.760000
   2981   3006     1   0.10304 312293.760000
   2982   2993     1   0.10910 283424.160000
   2982   2994     1   0.10910 283424.160000
   2983   2995     1   0.10910 283424.160000
   2983   2996     1   0.10910 283424.160000
   2984   2997     1   0.10969 276646.080000
   2984   2998     1   0.10969 276646.080000
   2986   2999     1   0.10969 276646.080000
   2986   3000     1   0.10969 276646.080000
   2988   3001     1   0.10910 283424.160000
   2988   3002     1   0.10910 283424.160000
   2989   3003     1   0.10969 276646.080000
   2989   3004     1   0.10969 276646.080000
   2990   3005     1   0.10129 337397.760000
   3007   3032     1   0.10304 312293.760000
   3008   3019     1   0.10910 283424.160000
   3008   3020     1   0.10910 283424.160000
   3009   3021     1   0.10910 283424.160000
   3009   3022     1   0.10910 283424.160000
   3010   3023     1   0.10969 276646.080000
   3010   3024     1   0.10969 276646.080000
   3012   3025     1   0.10969 276646.080000
   3012   3026     1   0.10969 276646.080000
   3014   3027     1   0.10910 283424.160000
   3014   3028     1   0.10910 283424.160000
   3015   3029     1   0.10969 276646.080000
   3015   3030     1   0.10969 276646.080000
   3016   3031     1   0.10129 337397.760000
   3033   3058     1   0.10304 312293.760000
   3034   3045     1   0.10910 283424.160000
   3034   3046     1   0.10910 283424.160000
   3035   3047     1   0.10910 283424.160000
   3035   3048     1   0.10910 283424.160000
   3036   3049     1   0.10969 276646.080000
   3036   3050     1   0.10969 276646.080000
   3038   3051     1   0.10969 276646.080000
   3038   3052     1   0.10969 276646.080000
   3040   3053     1   0.10910 283424.160000
   3040   3054     1   0.10910 283424.160000
   3041   3055     1   0.10969 276646.080000
   3041   3056     1   0.10969 276646.080000
   3042   3057     1   0.10129 337397.760000
   3059   3084     1   0.10304 312293.760000
   3060   3071     1   0.10910 283424.160000
   3060   3072     1   0.10910 283424.160000
   3061   3073     1   0.10910 283424.160000
   3061   3074     1   0.10910 283424.160000
   3062   3075     1   0.10969 276646.080000
   3062   3076     1   0.10969 276646.080000
   3064   3077     1   0.10969 276646.080000
   3064   3078     1   0.10969 276646.080000
   3066   3079     1   0.10910 283424.160000
   3066   3080     1   0.10910 283424.160000
   3067   3081     1   0.10969 276646.080000
   3067   3082     1   0.10969 276646.080000
   3068   3083     1   0.10129 337397.760000
   3085   3110     1   0.10304 312293.760000
   3086   3097     1   0.10910 283424.160000
   3086   3098     1   0.10910 283424.160000
   3087   3099     1   0.10910 283424.160000
   3087   3100     1   0.10910 283424.160000
   3088   3101     1   0.10969 276646.080000
   3088   3102     1   0.10969 276646.080000
   3090   3103     1   0.10969 276646.080000
   3090   3104     1   0.10969 276646.080000
   3092   3105     1   0.10910 283424.160000
   3092   3106     1   0.10910 283424.160000
   3093   3107     1   0.10969 276646.080000
   3093   3108     1   0.10969 276646.080000
   3094   3109     1   0.10129 337397.760000
   3111   3136     1   0.10304 312293.760000
   3112   3123     1   0.10910 283424.160000
   3112   3124     1   0.10910 283424.160000
   3113   3125     1   0.10910 283424.160000
   3113   3126     1   0.10910 283424.160000
   3114   3127     1   0.10969 276646.080000
   3114   3128     1   0.10969 276646.080000
   3116   3129     1   0.10969 276646.080000
   3116   3130     1   0.10969 276646.080000
   3118   3131     1   0.10910 283424.160000
   3118   3132     1   0.10910 283424.160000
   3119   3133     1   0.10969 276646.080000
   3119   3134     1   0.10969 276646.080000
   3120   3135     1   0.10129 337397.760000
   3137   3162     1   0.10304 312293.760000
   3138   3149     1   0.10910 283424.160000
   3138   3150     1   0.10910 283424.160000
   3139   3151     1   0.10910 283424.160000
   3139   3152     1   0.10910 283424.160000
   3140   3153     1   0.10969 276646.080000
   3140   3154     1   0.10969 276646.080000
   3142   3155     1   0.10969 276646.080000
   3142   3156     1   0.10969 276646.080000
   3144   3157     1   0.10910 283424.160000
   3144   3158     1   0.10910 283424.160000
   3145   3159     1   0.10969 276646.080000
   3145   3160     1   0.10969 276646.080000
   3146   3161     1   0.10129 337397.760000
   3163   3188     1   0.10304 312293.760000
   3164   3175     1   0.10910 283424.160000
   3164   3176     1   0.10910 283424.160000
   3165   3177     1   0.10910 283424.160000
   3165   3178     1   0.10910 283424.160000
   3166   3179     1   0.10969 276646.080000
   3166   3180     1   0.10969 276646.080000
   3168   3181     1   0.10969 276646.080000
   3168   3182     1   0.10969 276646.080000
   3170   3183     1   0.10910 283424.160000
   3170   3184     1   0.10910 283424.160000
   3171   3185     1   0.10969 276646.080000
   3171   3186     1   0.10969 276646.080000
   3172   3187     1   0.10129 337397.760000
   3189   3214     1   0.10304 312293.760000
   3190   3201     1   0.10910 283424.160000
   3190   3202     1   0.10910 283424.160000
   3191   3203     1   0.10910 283424.160000
   3191   3204     1   0.10910 283424.160000
   3192   3205     1   0.10969 276646.080000
   3192   3206     1   0.10969 276646.080000
   3194   3207     1   0.10969 276646.080000
   3194   3208     1   0.10969 276646.080000
   3196   3209     1   0.10910 283424.160000
   3196   3210     1   0.10910 283424.160000
   3197   3211     1   0.10969 276646.080000
   3197   3212     1   0.10969 276646.080000
   3198   3213     1   0.10129 337397.760000
   3215   3240     1   0.10304 312293.760000
   3216   3227     1   0.10910 283424.160000
   3216   3228     1   0.10910 283424.160000
   3217   3229     1   0.10910 283424.160000
   3217   3230     1   0.10910 283424.160000
   3218   3231     1   0.10969 276646.080000
   3218   3232     1   0.10969 276646.080000
   3220   3233     1   0.10969 276646.080000
   3220   3234     1   0.10969 276646.080000
   3222   3235     1   0.10910 283424.160000
   3222   3236     1   0.10910 283424.160000
   3223   3237     1   0.10969 276646.080000
   3223   3238     1   0.10969 276646.080000
   3224   3239     1   0.10129 337397.760000
   3241   3266     1   0.10304 312293.760000
   3242   3253     1   0.10910 283424.160000
   3242   3254     1   0.10910 283424.160000
   3243   3255     1   0.10910 283424.160000
   3243   3256     1   0.10910 283424.160000
   3244   3257     1   0.10969 276646.080000
   3244   3258     1   0.10969 276646.080000
   3246   3259     1   0.10969 276646.080000
   3246   3260     1   0.10969 276646.080000
   3248   3261     1   0.10910 283424.160000
   3248   3262     1   0.10910 283424.160000
   3249   3263     1   0.10969 276646.080000
   3249   3264     1   0.10969 276646.080000
   3250   3265     1   0.10129 337397.760000
   3267   3268     1   0.10129 337397.760000
   3269   3270     1   0.10969 276646.080000
   3269   3272     1   0.10969 276646.080000
   3271   3273     1   0.10910 283424.160000
   3271   3274     1   0.10910 283424.160000
   3275   3296     1   0.10304 312293.760000
   3276   3286     1   0.10910 283424.160000
   3276   3287     1   0.10910 283424.160000
   3277   3278     1   0.10910 283424.160000
   3277   3280     1   0.10910 283424.160000
   3279   3281     1   0.10969 276646.080000
   3279   3282     1   0.10969 276646.080000
   3284   3294     1   0.09730 310787.520000
   3288   3289     1   0.10969 276646.080000
   3288   3290     1   0.10969 276646.080000
   3293   3295     1   0.09730 310787.520000
   3297   3298     1   0.10129 337397.760000
   3299   3300     1   0.10969 276646.080000
   3299   3302     1   0.10969 276646.080000
   3301   3303     1   0.10910 283424.160000
   3301   3304     1   0.10910 283424.160000
   3305   3326     1   0.10304 312293.760000
   3306   3316     1   0.10910 283424.160000
   3306   3317     1   0.10910 283424.160000
   3307   3308     1   0.10910 283424.160000
   3307   3310     1   0.10910 283424.160000
   3309   3311     1   0.10969 276646.080000
   3309   3312     1   0.10969 276646.080000
   3314   3324     1   0.09730 310787.520000
   3318   3319     1   0.10969 276646.080000
   3318   3320     1   0.10969 276646.080000
   3323   3325     1   0.09730 310787.520000
   3327   3328     1   0.10129 337397.760000
   3329   3330     1   0.10969 276646.080000
   3329   3332     1   0.10969 276646.080000
   3331   3333     1   0.10910 283424.160000
   3331   3334     1   0.10910 283424.160000
   3335   3356     1   0.10304 312293.760000
   3336   3346     1   0.10910 283424.160000
   3336   3347     1   0.10910 283424.160000
   3337   3338     1   0.10910 283424.160000
   3337   3340     1   0.10910 283424.160000
   3339   3341     1   0.10969 276646.080000
   3339   3342     1   0.10969 276646.080000
   3344   3354     1   0.09730 310787.520000
   3348   3349     1   0.10969 276646.080000
   3348   3350     1   0.10969 276646.080000
   3353   3355     1   0.09730 310787.520000
   3357   3358     1   0.10129 337397.760000
   3359   3360     1   0.10969 276646.080000
   3359   3362     1   0.10969 276646.080000
   3361   3363     1   0.10910 283424.160000
   3361   3364     1   0.10910 283424.160000
   3365   3386     1   0.10304 312293.760000
   3366   3376     1   0.10910 283424.160000
   3366   3377     1   0.10910 283424.160000
   3367   3368     1   0.10910 283424.160000
   3367   3370     1   0.10910 283424.160000
   3369   3371     1   0.10969 276646.080000
   3369   3372     1   0.10969 276646.080000
   3374   3384     1   0.09730 310787.520000
   3378   3379     1   0.10969 276646.080000
   3378   3380     1   0.10969 276646.080000
   3383   3385     1   0.09730 310787.520000
   3387   3388     1   0.10129 337397.760000
   3389   3390     1   0.10969 276646.080000
   3389   3392     1   0.10969 276646.080000
   3391   3393     1   0.10910 283424.160000
   3391   3394     1   0.10910 283424.160000
   3395   3416     1   0.10304 312293.760000
   3396   3406     1   0.10910 283424.160000
   3396   3407     1   0.10910 283424.160000
   3397   3398     1   0.10910 283424.160000
   3397   3400     1   0.10910 283424.160000
   3399   3401     1   0.10969 276646.080000
   3399   3402     1   0.10969 276646.080000
   3404   3414     1   0.09730 310787.520000
   3408   3409     1   0.10969 276646.080000
   3408   3410     1   0.10969 276646.080000
   3413   3415     1   0.09730 310787.520000
   3417   3418     1   0.10129 337397.760000
   3419   3420     1   0.10969 276646.080000
   3419   3422     1   0.10969 276646.080000
   3421   3423     1   0.10910 283424.160000
   3421   3424     1   0.10910 283424.160000
   3425   3446     1   0.10304 312293.760000
   3426   3436     1   0.10910 283424.160000
   3426   3437     1   0.10910 283424.160000
   3427   3428     1   0.10910 283424.160000
   3427   3430     1   0.10910 283424.160000
   3429   3431     1   0.10969 276646.080000
   3429   3432     1   0.10969 276646.080000
   3434   3444     1   0.09730 310787.520000
   3438   3439     1   0.10969 276646.080000
   3438   3440     1   0.10969 276646.080000
   3443   3445     1   0.09730 310787.520000
   3447   3448     1   0.10129 337397.760000
   3449   3450     1   0.10969 276646.080000
   3449   3452     1   0.10969 276646.080000
   3451   3453     1   0.10910 283424.160000
   3451   3454     1   0.10910 283424.160000
   3455   3476     1   0.10304 312293.760000
   3456   3466     1   0.10910 283424.160000
   3456   3467     1   0.10910 283424.160000
   3457   3458     1   0.10910 283424.160000
   3457   3460     1   0.10910 283424.160000
   3459   3461     1   0.10969 276646.080000
   3459   3462     1   0.10969 276646.080000
   3464   3474     1   0.09730 310787.520000
   3468   3469     1   0.10969 276646.080000
   3468   3470     1   0.10969 276646.080000
   3473   3475     1   0.09730 310787.520000
   3477   3478     1   0.10129 337397.760000
   3479   3480     1   0.10969 276646.080000
   3479   3482     1   0.10969 276646.080000
   3481   3483     1   0.10910 283424.160000
   3481   3484     1   0.10910 283424.160000
   3485   3506     1   0.10304 312293.760000
   3486   3496     1   0.10910 283424.160000
   3486   3497     1   0.10910 283424.160000
   3487   3488     1   0.10910 283424.160000
   3487   3490     1   0.10910 283424.160000
   3489   3491     1   0.10969 276646.080000
   3489   3492     1   0.10969 276646.080000
   3494   3504     1   0.09730 310787.520000
   3498   3499     1   0.10969 276646.080000
   3498   3500     1   0.10969 276646.080000
   3503   3505     1   0.09730 310787.520000
   3507   3508     1   0.10129 337397.760000
   3509   3510     1   0.10969 276646.080000
   3509   3512     1   0.10969 276646.080000
   3511   3513     1   0.10910 283424.160000
   3511   3514     1   0.10910 283424.160000
   3515   3536     1   0.10304 312293.760000
   3516   3526     1   0.10910 283424.160000
   3516   3527     1   0.10910 283424.160000
   3517   3518     1   0.10910 283424.160000
   3517   3520     1   0.10910 283424.160000
   3519   3521     1   0.10969 276646.080000
   3519   3522     1   0.10969 276646.080000
   3524   3534     1   0.09730 310787.520000
   3528   3529     1   0.10969 276646.080000
   3528   3530     1   0.10969 276646.080000
   3533   3535     1   0.09730 310787.520000
   3537   3538     1   0.10129 337397.760000
   3539   3540     1   0.10969 276646.080000
   3539   3542     1   0.10969 276646.080000
   3541   3543     1   0.10910 283424.160000
   3541   3544     1   0.10910 283424.160000
   3545   3566     1   0.10304 312293.760000
   3546   3556     1   0.10910 283424.160000
   3546   3557     1   0.10910 283424.160000
   3547   3548     1   0.10910 283424.160000
   3547   3550     1   0.10910 283424.160000
   3549   3551     1   0.10969 276646.080000
   3549   3552     1   0.10969 276646.080000
   3554   3564     1   0.09730 310787.520000
   3558   3559     1   0.10969 276646.080000
   3558   3560     1   0.10969 276646.080000
   3563   3565     1   0.09730 310787.520000
   3567   3568     1   0.10129 337397.760000
   3569   3570     1   0.10969 276646.080000
   3569   3572     1   0.10969 276646.080000
   3571   3573     1   0.10910 283424.160000
   3571   3574     1   0.10910 283424.160000
   3575   3596     1   0.10304 312293.760000
   3576   3586     1   0.10910 283424.160000
   3576   3587     1   0.10910 283424.160000
   3577   3578     1   0.10910 283424.160000
   3577   3580     1   0.10910 283424.160000
   3579   3581     1   0.10969 276646.080000
   3579   3582     1   0.10969 276646.080000
   3584   3594     1   0.09730 310787.520000
   3588   3589     1   0.10969 276646.080000
   3588   3590     1   0.10969 276646.080000
   3593   3595     1   0.09730 310787.520000
   3597   3598     1   0.10129 337397.760000
   3599   3600     1   0.10969 276646.080000
   3599   3602     1   0.10969 276646.080000
   3601   3603     1   0.10910 283424.160000
   3601   3604     1   0.10910 283424.160000
   3605   3626     1   0.10304 312293.760000
   3606   3616     1   0.10910 283424.160000
   3606   3617     1   0.10910 283424.160000
   3607   3608     1   0.10910 283424.160000
   3607   3610     1   0.10910 283424.160000
   3609   3611     1   0.10969 276646.080000
   3609   3612     1   0.10969 276646.080000
   3614   3624     1   0.09730 310787.520000
   3618   3619     1   0.10969 276646.080000
   3618   3620     1   0.10969 276646.080000
   3623   3625     1   0.09730 310787.520000
   3627   3628     1   0.10129 337397.760000
   3629   3630     1   0.10969 276646.080000
   3629   3632     1   0.10969 276646.080000
   3631   3633     1   0.10910 283424.160000
   3631   3634     1   0.10910 283424.160000
   3635   3656     1   0.10304 312293.760000
   3636   3646     1   0.10910 283424.160000
   3636   3647     1   0.10910 283424.160000
   3637   3638     1   0.10910 283424.160000
   3637   3640     1   0.10910 283424.160000
   3639   3641     1   0.10969 276646.080000
   3639   3642     1   0.10969 276646.080000
   3644   3654     1   0.09730 310787.520000
   3648   3649     1   0.10969 276646.080000
   3648   3650     1   0.10969 276646.080000
   3653   3655     1   0.09730 310787.520000
   3657   3658     1   0.10129 337397.760000
   3659   3660     1   0.10969 276646.080000
   3659   3662     1   0.10969 276646.080000
   3661   3663     1   0.10910 283424.160000
   3661   3664     1   0.10910 283424.160000
   3665   3686     1   0.10304 312293.760000
   3666   3676     1   0.10910 283424.160000
   3666   3677     1   0.10910 283424.160000
   3667   3668     1   0.10910 283424.160000
   3667   3670     1   0.10910 283424.160000
   3669   3671     1   0.10969 276646.080000
   3669   3672     1   0.10969 276646.080000
   3674   3684     1   0.09730 310787.520000
   3678   3679     1   0.10969 276646.080000
   3678   3680     1   0.10969 276646.080000
   3683   3685     1   0.09730 310787.520000
   3687   3688     1   0.10129 337397.760000
   3689   3690     1   0.10969 276646.080000
   3689   3692     1   0.10969 276646.080000
   3691   3693     1   0.10910 283424.160000
   3691   3694     1   0.10910 283424.160000
   3695   3716     1   0.10304 312293.760000
   3696   3706     1   0.10910 283424.160000
   3696   3707     1   0.10910 283424.160000
   3697   3698     1   0.10910 283424.160000
   3697   3700     1   0.10910 283424.160000
   3699   3701     1   0.10969 276646.080000
   3699   3702     1   0.10969 276646.080000
   3704   3714     1   0.09730 310787.520000
   3708   3709     1   0.10969 276646.080000
   3708   3710     1   0.10969 276646.080000
   3713   3715     1   0.09730 310787.520000
   3717   3718     1   0.10129 337397.760000
   3719   3720     1   0.10969 276646.080000
   3719   3722     1   0.10969 276646.080000
   3721   3723     1   0.10910 283424.160000
   3721   3724     1   0.10910 283424.160000
   3725   3746     1   0.10304 312293.760000
   3726   3736     1   0.10910 283424.160000
   3726   3737     1   0.10910 283424.160000
   3727   3728     1   0.10910 283424.160000
   3727   3730     1   0.10910 283424.160000
   3729   3731     1   0.10969 276646.080000
   3729   3732     1   0.10969 276646.080000
   3734   3744     1   0.09730 310787.520000
   3738   3739     1   0.10969 276646.080000
   3738   3740     1   0.10969 276646.080000
   3743   3745     1   0.09730 310787.520000
   3747   3748     1   0.10129 337397.760000
   3749   3750     1   0.10969 276646.080000
   3749   3752     1   0.10969 276646.080000
   3751   3753     1   0.10910 283424.160000
   3751   3754     1   0.10910 283424.160000
   3755   3776     1   0.10304 312293.760000
   3756   3766     1   0.10910 283424.160000
   3756   3767     1   0.10910 283424.160000
   3757   3758     1   0.10910 283424.160000
   3757   3760     1   0.10910 283424.160000
   3759   3761     1   0.10969 276646.080000
   3759   3762     1   0.10969 276646.080000
   3764   3774     1   0.09730 310787.520000
   3768   3769     1   0.10969 276646.080000
   3768   3770     1   0.10969 276646.080000
   3773   3775     1   0.09730 310787.520000
   3777   3778     1   0.10129 337397.760000
   3779   3780     1   0.10969 276646.080000
   3779   3782     1   0.10969 276646.080000
   3781   3783     1   0.10910 283424.160000
   3781   3784     1   0.10910 283424.160000
   3785   3806     1   0.10304 312293.760000
   3786   3796     1   0.10910 283424.160000
   3786   3797     1   0.10910 283424.160000
   3787   3788     1   0.10910 283424.160000
   3787   3790     1   0.10910 283424.160000
   3789   3791     1   0.10969 276646.080000
   3789   3792     1   0.10969 276646.080000
   3794   3804     1   0.09730 310787.520000
   3798   3799     1   0.10969 276646.080000
   3798   3800     1   0.10969 276646.080000
   3803   3805     1   0.09730 310787.520000
   3807   3808     1   0.10129 337397.760000
   3809   3810     1   0.10969 276646.080000
   3809   3812     1   0.10969 276646.080000
   3811   3813     1   0.10910 283424.160000
   3811   3814     1   0.10910 283424.160000
   3815   3836     1   0.10304 312293.760000
   3816   3826     1   0.10910 283424.160000
   3816   3827     1   0.10910 283424.160000
   3817   3818     1   0.10910 283424.160000
   3817   3820     1   0.10910 283424.160000
   3819   3821     1   0.10969 276646.080000
   3819   3822     1   0.10969 276646.080000
   3824   3834     1   0.09730 310787.520000
   3828   3829     1   0.10969 276646.080000
   3828   3830     1   0.10969 276646.080000
   3833   3835     1   0.09730 310787.520000
   3837   3838     1   0.10129 337397.760000
   3839   3840     1   0.10969 276646.080000
   3839   3842     1   0.10969 276646.080000
   3841   3843     1   0.10910 283424.160000
   3841   3844     1   0.10910 283424.160000
   3845   3866     1   0.10304 312293.760000
   3846   3856     1   0.10910 283424.160000
   3846   3857     1   0.10910 283424.160000
   3847   3848     1   0.10910 283424.160000
   3847   3850     1   0.10910 283424.160000
   3849   3851     1   0.10969 276646.080000
   3849   3852     1   0.10969 276646.080000
   3854   3864     1   0.09730 310787.520000
   3858   3859     1   0.10969 276646.080000
   3858   3860     1   0.10969 276646.080000
   3863   3865     1   0.09730 310787.520000
   3867   3868     1   0.10129 337397.760000
   3869   3870     1   0.10969 276646.080000
   3869   3872     1   0.10969 276646.080000
   3871   3873     1   0.10910 283424.160000
   3871   3874     1   0.10910 283424.160000
   3875   3896     1   0.10304 312293.760000
   3876   3886     1   0.10910 283424.160000
   3876   3887     1   0.10910 283424.160000
   3877   3878     1   0.10910 283424.160000
   3877   3880     1   0.10910 283424.160000
   3879   3881     1   0.10969 276646.080000
   3879   3882     1   0.10969 276646.080000
   3884   3894     1   0.09730 310787.520000
   3888   3889     1   0.10969 276646.080000
   3888   3890     1   0.10969 276646.080000
   3893   3895     1   0.09730 310787.520000
   3897   3898     1   0.10129 337397.760000
   3899   3900     1   0.10969 276646.080000
   3899   3902     1   0.10969 276646.080000
   3901   3903     1   0.10910 283424.160000
   3901   3904     1   0.10910 283424.160000
   3905   3926     1   0.10304 312293.760000
   3906   3916     1   0.10910 283424.160000
   3906   3917     1   0.10910 283424.160000
   3907   3908     1   0.10910 283424.160000
   3907   3910     1   0.10910 283424.160000
   3909   3911     1   0.10969 276646.080000
   3909   3912     1   0.10969 276646.080000
   3914   3924     1   0.09730 310787.520000
   3918   3919     1   0.10969 276646.080000
   3918   3920     1   0.10969 276646.080000
   3923   3925     1   0.09730 310787.520000
   3927   3928     1   0.10129 337397.760000
   3929   3930     1   0.10969 276646.080000
   3929   3932     1   0.10969 276646.080000
   3931   3933     1   0.10910 283424.160000
   3931   3934     1   0.10910 283424.160000
   3935   3956     1   0.10304 312293.760000
   3936   3946     1   0.10910 283424.160000
   3936   3947     1   0.10910 283424.160000
   3937   3938     1   0.10910 283424.160000
   3937   3940     1   0.10910 283424.160000
   3939   3941     1   0.10969 276646.080000
   3939   3942     1   0.10969 276646.080000
   3944   3954     1   0.09730 310787.520000
   3948   3949     1   0.10969 276646.080000
   3948   3950     1   0.10969 276646.080000
   3953   3955     1   0.09730 310787.520000
   3957   3958     1   0.10129 337397.760000
   3959   3960     1   0.10969 276646.080000
   3959   3962     1   0.10969 276646.080000
   3961   3963     1   0.10910 283424.160000
   3961   3964     1   0.10910 283424.160000
   3965   3986     1   0.10304 312293.760000
   3966   3976     1   0.10910 283424.160000
   3966   3977     1   0.10910 283424.160000
   3967   3968     1   0.10910 283424.160000
   3967   3970     1   0.10910 283424.160000
   3969   3971     1   0.10969 276646.080000
   3969   3972     1   0.10969 276646.080000
   3974   3984     1   0.09730 310787.520000
   3978   3979     1   0.10969 276646.080000
   3978   3980     1   0.10969 276646.080000
   3983   3985     1   0.09730 310787.520000
   3987   3988     1   0.10129 337397.760000
   3989   3990     1   0.10969 276646.080000
   3989   3992     1   0.10969 276646.080000
   3991   3993     1   0.10910 283424.160000
   3991   3994     1   0.10910 283424.160000
   3995   4016     1   0.10304 312293.760000
   3996   4006     1   0.10910 283424.160000
   3996   4007     1   0.10910 283424.160000
   3997   3998     1   0.10910 283424.160000
   3997   4000     1   0.10910 283424.160000
   3999   4001     1   0.10969 276646.080000
   3999   4002     1   0.10969 276646.080000
   4004   4014     1   0.09730 310787.520000
   4008   4009     1   0.10969 276646.080000
   4008   4010     1   0.10969 276646.080000
   4013   4015     1   0.09730 310787.520000
   4017   4018     1   0.10129 337397.760000
   4019   4020     1   0.10969 276646.080000
   4019   4022     1   0.10969 276646.080000
   4021   4023     1   0.10910 283424.160000
   4021   4024     1   0.10910 283424.160000
   4025   4046     1   0.10304 312293.760000
   4026   4036     1   0.10910 283424.160000
   4026   4037     1   0.10910 283424.160000
   4027   4028     1   0.10910 283424.160000
   4027   4030     1   0.10910 283424.160000
   4029   4031     1   0.10969 276646.080000
   4029   4032     1   0.10969 276646.080000
   4034   4044     1   0.09730 310787.520000
   4038   4039     1   0.10969 276646.080000
   4038   4040     1   0.10969 276646.080000
   4043   4045     1   0.09730 310787.520000
   4047   4048     1   0.10129 337397.760000
   4049   4050     1   0.10969 276646.080000
   4049   4052     1   0.10969 276646.080000
   4051   4053     1   0.10910 283424.160000
   4051   4054     1   0.10910 283424.160000
   4055   4076     1   0.10304 312293.760000
   4056   4066     1   0.10910 283424.160000
   4056   4067     1   0.10910 283424.160000
   4057   4058     1   0.10910 283424.160000
   4057   4060     1   0.10910 283424.160000
   4059   4061     1   0.10969 276646.080000
   4059   4062     1   0.10969 276646.080000
   4064   4074     1   0.09730 310787.520000
   4068   4069     1   0.10969 276646.080000
   4068   4070     1   0.10969 276646.080000
   4073   4075     1   0.09730 310787.520000
   4077   4078     1   0.10129 337397.760000
   4079   4080     1   0.10969 276646.080000
   4079   4082     1   0.10969 276646.080000
   4081   4083     1   0.10910 283424.160000
   4081   4084     1   0.10910 283424.160000
   4085   4106     1   0.10304 312293.760000
   4086   4096     1   0.10910 283424.160000
   4086   4097     1   0.10910 283424.160000
   4087   4088     1   0.10910 283424.160000
   4087   4090     1   0.10910 283424.160000
   4089   4091     1   0.10969 276646.080000
   4089   4092     1   0.10969 276646.080000
   4094   4104     1   0.09730 310787.520000
   4098   4099     1   0.10969 276646.080000
   4098   4100     1   0.10969 276646.080000
   4103   4105     1   0.09730 310787.520000
   4107   4108     1   0.10129 337397.760000
   4109   4110     1   0.10969 276646.080000
   4109   4112     1   0.10969 276646.080000
   4111   4113     1   0.10910 283424.160000
   4111   4114     1   0.10910 283424.160000
   4115   4136     1   0.10304 312293.760000
   4116   4126     1   0.10910 283424.160000
   4116   4127     1   0.10910 283424.160000
   4117   4118     1   0.10910 283424.160000
   4117   4120     1   0.10910 283424.160000
   4119   4121     1   0.10969 276646.080000
   4119   4122     1   0.10969 276646.080000
   4124   4134     1   0.09730 310787.520000
   4128   4129     1   0.10969 276646.080000
   4128   4130     1   0.10969 276646.080000
   4133   4135     1   0.09730 310787.520000
   4137   4138     1   0.10129 337397.760000
   4139   4140     1   0.10969 276646.080000
   4139   4142     1   0.10969 276646.080000
   4141   4143     1   0.10910 283424.160000
   4141   4144     1   0.10910 283424.160000
   4145   4166     1   0.10304 312293.760000
   4146   4156     1   0.10910 283424.160000
   4146   4157     1   0.10910 283424.160000
   4147   4148     1   0.10910 283424.160000
   4147   4150     1   0.10910 283424.160000
   4149   4151     1   0.10969 276646.080000
   4149   4152     1   0.10969 276646.080000
   4154   4164     1   0.09730 310787.520000
   4158   4159     1   0.10969 276646.080000
   4158   4160     1   0.10969 276646.080000
   4163   4165     1   0.09730 310787.520000
   4167   4168     1   0.10129 337397.760000
   4169   4170     1   0.10969 276646.080000
   4169   4172     1   0.10969 276646.080000
   4171   4173     1   0.10910 283424.160000
   4171   4174     1   0.10910 283424.160000
   4175   4196     1   0.10304 312293.760000
   4176   4186     1   0.10910 283424.160000
   4176   4187     1   0.10910 283424.160000
   4177   4178     1   0.10910 283424.160000
   4177   4180     1   0.10910 283424.160000
   4179   4181     1   0.10969 276646.080000
   4179   4182     1   0.10969 276646.080000
   4184   4194     1   0.09730 310787.520000
   4188   4189     1   0.10969 276646.080000
   4188   4190     1   0.10969 276646.080000
   4193   4195     1   0.09730 310787.520000
   4197   4198     1   0.10129 337397.760000
   4199   4200     1   0.10969 276646.080000
   4199   4202     1   0.10969 276646.080000
   4201   4203     1   0.10910 283424.160000
   4201   4204     1   0.10910 283424.160000
   4205   4226     1   0.10304 312293.760000
   4206   4216     1   0.10910 283424.160000
   4206   4217     1   0.10910 283424.160000
   4207   4208     1   0.10910 283424.160000
   4207   4210     1   0.10910 283424.160000
   4209   4211     1   0.10969 276646.080000
   4209   4212     1   0.10969 276646.080000
   4214   4224     1   0.09730 310787.520000
   4218   4219     1   0.10969 276646.080000
   4218   4220     1   0.10969 276646.080000
   4223   4225     1   0.09730 310787.520000
   4227   4228     1   0.10129 337397.760000
   4229   4230     1   0.10969 276646.080000
   4229   4232     1   0.10969 276646.080000
   4231   4233     1   0.10910 283424.160000
   4231   4234     1   0.10910 283424.160000
   4235   4256     1   0.10304 312293.760000
   4236   4246     1   0.10910 283424.160000
   4236   4247     1   0.10910 283424.160000
   4237   4238     1   0.10910 283424.160000
   4237   4240     1   0.10910 283424.160000
   4239   4241     1   0.10969 276646.080000
   4239   4242     1   0.10969 276646.080000
   4244   4254     1   0.09730 310787.520000
   4248   4249     1   0.10969 276646.080000
   4248   4250     1   0.10969 276646.080000
   4253   4255     1   0.09730 310787.520000
   4257   4258     1   0.10129 337397.760000
   4259   4260     1   0.10969 276646.080000
   4259   4262     1   0.10969 276646.080000
   4261   4263     1   0.10910 283424.160000
   4261   4264     1   0.10910 283424.160000
   4265   4286     1   0.10304 312293.760000
   4266   4276     1   0.10910 283424.160000
   4266   4277     1   0.10910 283424.160000
   4267   4268     1   0.10910 283424.160000
   4267   4270     1   0.10910 283424.160000
   4269   4271     1   0.10969 276646.080000
   4269   4272     1   0.10969 276646.080000
   4274   4284     1   0.09730 310787.520000
   4278   4279     1   0.10969 276646.080000
   4278   4280     1   0.10969 276646.080000
   4283   4285     1   0.09730 310787.520000
   4287   4288     1   0.10129 337397.760000
   4289   4290     1   0.10969 276646.080000
   4289   4292     1   0.10969 276646.080000
   4291   4293     1   0.10910 283424.160000
   4291   4294     1   0.10910 283424.160000
   4295   4316     1   0.10304 312293.760000
   4296   4306     1   0.10910 283424.160000
   4296   4307     1   0.10910 283424.160000
   4297   4298     1   0.10910 283424.160000
   4297   4300     1   0.10910 283424.160000
   4299   4301     1   0.10969 276646.080000
   4299   4302     1   0.10969 276646.080000
   4304   4314     1   0.09730 310787.520000
   4308   4309     1   0.10969 276646.080000
   4308   4310     1   0.10969 276646.080000
   4313   4315     1   0.09730 310787.520000
   4317   4318     1   0.10129 337397.760000
   4319   4320     1   0.10969 276646.080000
   4319   4322     1   0.10969 276646.080000
   4321   4323     1   0.10910 283424.160000
   4321   4324     1   0.10910 283424.160000
   4325   4346     1   0.10304 312293.760000
   4326   4336     1   0.10910 283424.160000
   4326   4337     1   0.10910 283424.160000
   4327   4328     1   0.10910 283424.160000
   4327   4330     1   0.10910 283424.160000
   4329   4331     1   0.10969 276646.080000
   4329   4332     1   0.10969 276646.080000
   4334   4344     1   0.09730 310787.520000
   4338   4339     1   0.10969 276646.080000
   4338   4340     1   0.10969 276646.080000
   4343   4345     1   0.09730 310787.520000
   4347   4348     1   0.10129 337397.760000
   4349   4350     1   0.10969 276646.080000
   4349   4352     1   0.10969 276646.080000
   4351   4353     1   0.10910 283424.160000
   4351   4354     1   0.10910 283424.160000
   4355   4376     1   0.10304 312293.760000
   4356   4366     1   0.10910 283424.160000
   4356   4367     1   0.10910 283424.160000
   4357   4358     1   0.10910 283424.160000
   4357   4360     1   0.10910 283424.160000
   4359   4361     1   0.10969 276646.080000
   4359   4362     1   0.10969 276646.080000
   4364   4374     1   0.09730 310787.520000
   4368   4369     1   0.10969 276646.080000
   4368   4370     1   0.10969 276646.080000
   4373   4375     1   0.09730 310787.520000
   4377   4378     1   0.10129 337397.760000
   4379   4380     1   0.10969 276646.080000
   4379   4382     1   0.10969 276646.080000
   4381   4383     1   0.10910 283424.160000
   4381   4384     1   0.10910 283424.160000
   4385   4406     1   0.10304 312293.760000
   4386   4396     1   0.10910 283424.160000
   4386   4397     1   0.10910 283424.160000
   4387   4388     1   0.10910 283424.160000
   4387   4390     1   0.10910 283424.160000
   4389   4391     1   0.10969 276646.080000
   4389   4392     1   0.10969 276646.080000
   4394   4404     1   0.09730 310787.520000
   4398   4399     1   0.10969 276646.080000
   4398   4400     1   0.10969 276646.080000
   4403   4405     1   0.09730 310787.520000
   4407   4408     1   0.10129 337397.760000
   4409   4410     1   0.10969 276646.080000
   4409   4412     1   0.10969 276646.080000
   4411   4413     1   0.10910 283424.160000
   4411   4414     1   0.10910 283424.160000
   4415   4436     1   0.10304 312293.760000
   4416   4426     1   0.10910 283424.160000
   4416   4427     1   0.10910 283424.160000
   4417   4418     1   0.10910 283424.160000
   4417   4420     1   0.10910 283424.160000
   4419   4421     1   0.10969 276646.080000
   4419   4422     1   0.10969 276646.080000
   4424   4434     1   0.09730 310787.520000
   4428   4429     1   0.10969 276646.080000
   4428   4430     1   0.10969 276646.080000
   4433   4435     1   0.09730 310787.520000
   4437   4438     1   0.10129 337397.760000
   4439   4440     1   0.10969 276646.080000
   4439   4442     1   0.10969 276646.080000
   4441   4443     1   0.10910 283424.160000
   4441   4444     1   0.10910 283424.160000
   4445   4466     1   0.10304 312293.760000
   4446   4456     1   0.10910 283424.160000
   4446   4457     1   0.10910 283424.160000
   4447   4448     1   0.10910 283424.160000
   4447   4450     1   0.10910 283424.160000
   4449   4451     1   0.10969 276646.080000
   4449   4452     1   0.10969 276646.080000
   4454   4464     1   0.09730 310787.520000
   4458   4459     1   0.10969 276646.080000
   4458   4460     1   0.10969 276646.080000
   4463   4465     1   0.09730 310787.520000
   4467   4468     1   0.10129 337397.760000
   4469   4470     1   0.10969 276646.080000
   4469   4472     1   0.10969 276646.080000
   4471   4473     1   0.10910 283424.160000
   4471   4474     1   0.10910 283424.160000
   4475   4496     1   0.10304 312293.760000
   4476   4486     1   0.10910 283424.160000
   4476   4487     1   0.10910 283424.160000
   4477   4478     1   0.10910 283424.160000
   4477   4480     1   0.10910 283424.160000
   4479   4481     1   0.10969 276646.080000
   4479   4482     1   0.10969 276646.080000
   4484   4494     1   0.09730 310787.520000
   4488   4489     1   0.10969 276646.080000
   4488   4490     1   0.10969 276646.080000
   4493   4495     1   0.09730 310787.520000
   4497   4498     1   0.10129 337397.760000
   4499   4500     1   0.10969 276646.080000
   4499   4502     1   0.10969 276646.080000
   4501   4503     1   0.10910 283424.160000
   4501   4504     1   0.10910 283424.160000
   4505   4526     1   0.10304 312293.760000
   4506   4516     1   0.10910 283424.160000
   4506   4517     1   0.10910 283424.160000
   4507   4508     1   0.10910 283424.160000
   4507   4510     1   0.10910 283424.160000
   4509   4511     1   0.10969 276646.080000
   4509   4512     1   0.10969 276646.080000
   4514   4524     1   0.09730 310787.520000
   4518   4519     1   0.10969 276646.080000
   4518   4520     1   0.10969 276646.080000
   4523   4525     1   0.09730 310787.520000
   4527   4528     1   0.10129 337397.760000
   4529   4530     1   0.10969 276646.080000
   4529   4532     1   0.10969 276646.080000
   4531   4533     1   0.10910 283424.160000
   4531   4534     1   0.10910 283424.160000
   4535   4556     1   0.10304 312293.760000
   4536   4546     1   0.10910 283424.160000
   4536   4547     1   0.10910 283424.160000
   4537   4538     1   0.10910 283424.160000
   4537   4540     1   0.10910 283424.160000
   4539   4541     1   0.10969 276646.080000
   4539   4542     1   0.10969 276646.080000
   4544   4554     1   0.09730 310787.520000
   4548   4549     1   0.10969 276646.080000
   4548   4550     1   0.10969 276646.080000
   4553   4555     1   0.09730 310787.520000
   4557   4558     1   0.10129 337397.760000
   4559   4560     1   0.10969 276646.080000
   4559   4562     1   0.10969 276646.080000
   4561   4563     1   0.10910 283424.160000
   4561   4564     1   0.10910 283424.160000
   4565   4586     1   0.10304 312293.760000
   4566   4576     1   0.10910 283424.160000
   4566   4577     1   0.10910 283424.160000
   4567   4568     1   0.10910 283424.160000
   4567   4570     1   0.10910 283424.160000
   4569   4571     1   0.10969 276646.080000
   4569   4572     1   0.10969 276646.080000
   4574   4584     1   0.09730 310787.520000
   4578   4579     1   0.10969 276646.080000
   4578   4580     1   0.10969 276646.080000
   4583   4585     1   0.09730 310787.520000
   4587   4588     1   0.10129 337397.760000
   4589   4590     1   0.10969 276646.080000
   4589   4592     1   0.10969 276646.080000
   4591   4593     1   0.10910 283424.160000
   4591   4594     1   0.10910 283424.160000
   4595   4616     1   0.10304 312293.760000
   4596   4606     1   0.10910 283424.160000
   4596   4607     1   0.10910 283424.160000
   4597   4598     1   0.10910 283424.160000
   4597   4600     1   0.10910 283424.160000
   4599   4601     1   0.10969 276646.080000
   4599   4602     1   0.10969 276646.080000
   4604   4614     1   0.09730 310787.520000
   4608   4609     1   0.10969 276646.080000
   4608   4610     1   0.10969 276646.080000
   4613   4615     1   0.09730 310787.520000
   4617   4618     1   0.10129 337397.760000
   4619   4620     1   0.10969 276646.080000
   4619   4622     1   0.10969 276646.080000
   4621   4623     1   0.10910 283424.160000
   4621   4624     1   0.10910 283424.160000
   4625   4646     1   0.10304 312293.760000
   4626   4636     1   0.10910 283424.160000
   4626   4637     1   0.10910 283424.160000
   4627   4628     1   0.10910 283424.160000
   4627   4630     1   0.10910 283424.160000
   4629   4631     1   0.10969 276646.080000
   4629   4632     1   0.10969 276646.080000
   4634   4644     1   0.09730 310787.520000
   4638   4639     1   0.10969 276646.080000
   4638   4640     1   0.10969 276646.080000
   4643   4645     1   0.09730 310787.520000
   4647   4648     1   0.10129 337397.760000
   4649   4650     1   0.10969 276646.080000
   4649   4652     1   0.10969 276646.080000
   4651   4653     1   0.10910 283424.160000
   4651   4654     1   0.10910 283424.160000
   4655   4676     1   0.10304 312293.760000
   4656   4666     1   0.10910 283424.160000
   4656   4667     1   0.10910 283424.160000
   4657   4658     1   0.10910 283424.160000
   4657   4660     1   0.10910 283424.160000
   4659   4661     1   0.10969 276646.080000
   4659   4662     1   0.10969 276646.080000
   4664   4674     1   0.09730 310787.520000
   4668   4669     1   0.10969 276646.080000
   4668   4670     1   0.10969 276646.080000
   4673   4675     1   0.09730 310787.520000
   4677   4678     1   0.10129 337397.760000
   4679   4680     1   0.10969 276646.080000
   4679   4682     1   0.10969 276646.080000
   4681   4683     1   0.10910 283424.160000
   4681   4684     1   0.10910 283424.160000
   4685   4706     1   0.10304 312293.760000
   4686   4696     1   0.10910 283424.160000
   4686   4697     1   0.10910 283424.160000
   4687   4688     1   0.10910 283424.160000
   4687   4690     1   0.10910 283424.160000
   4689   4691     1   0.10969 276646.080000
   4689   4692     1   0.10969 276646.080000
   4694   4704     1   0.09730 310787.520000
   4698   4699     1   0.10969 276646.080000
   4698   4700     1   0.10969 276646.080000
   4703   4705     1   0.09730 310787.520000
   4707   4708     1   0.10129 337397.760000
   4709   4710     1   0.10969 276646.080000
   4709   4712     1   0.10969 276646.080000
   4711   4713     1   0.10910 283424.160000
   4711   4714     1   0.10910 283424.160000
   4715   4736     1   0.10304 312293.760000
   4716   4726     1   0.10910 283424.160000
   4716   4727     1   0.10910 283424.160000
   4717   4718     1   0.10910 283424.160000
   4717   4720     1   0.10910 283424.160000
   4719   4721     1   0.10969 276646.080000
   4719   4722     1   0.10969 276646.080000
   4724   4734     1   0.09730 310787.520000
   4728   4729     1   0.10969 276646.080000
   4728   4730     1   0.10969 276646.080000
   4733   4735     1   0.09730 310787.520000
   4737   4738     1   0.10129 337397.760000
   4739   4740     1   0.10969 276646.080000
   4739   4742     1   0.10969 276646.080000
   4741   4743     1   0.10910 283424.160000
   4741   4744     1   0.10910 283424.160000
   4745   4766     1   0.10304 312293.760000
   4746   4756     1   0.10910 283424.160000
   4746   4757     1   0.10910 283424.160000
   4747   4748     1   0.10910 283424.160000
   4747   4750     1   0.10910 283424.160000
   4749   4751     1   0.10969 276646.080000
   4749   4752     1   0.10969 276646.080000
   4754   4764     1   0.09730 310787.520000
   4758   4759     1   0.10969 276646.080000
   4758   4760     1   0.10969 276646.080000
   4763   4765     1   0.09730 310787.520000
   4767   4768     1   0.10129 337397.760000
   4769   4770     1   0.10969 276646.080000
   4769   4772     1   0.10969 276646.080000
   4771   4773     1   0.10910 283424.160000
   4771   4774     1   0.10910 283424.160000
   4775   4796     1   0.10304 312293.760000
   4776   4786     1   0.10910 283424.160000
   4776   4787     1   0.10910 283424.160000
   4777   4778     1   0.10910 283424.160000
   4777   4780     1   0.10910 283424.160000
   4779   4781     1   0.10969 276646.080000
   4779   4782     1   0.10969 276646.080000
   4784   4794     1   0.09730 310787.520000
   4788   4789     1   0.10969 276646.080000
   4788   4790     1   0.10969 276646.080000
   4793   4795     1   0.09730 310787.520000
   4797   4798     1   0.10129 337397.760000
   4799   4800     1   0.10969 276646.080000
   4799   4802     1   0.10969 276646.080000
   4801   4803     1   0.10910 283424.160000
   4801   4804     1   0.10910 283424.160000
   4805   4826     1   0.10304 312293.760000
   4806   4816     1   0.10910 283424.160000
   4806   4817     1   0.10910 283424.160000
   4807   4808     1   0.10910 283424.160000
   4807   4810     1   0.10910 283424.160000
   4809   4811     1   0.10969 276646.080000
   4809   4812     1   0.10969 276646.080000
   4814   4824     1   0.09730 310787.520000
   4818   4819     1   0.10969 276646.080000
   4818   4820     1   0.10969 276646.080000
   4823   4825     1   0.09730 310787.520000
   4827   4828     1   0.10129 337397.760000
   4829   4830     1   0.10969 276646.080000
   4829   4832     1   0.10969 276646.080000
   4831   4833     1   0.10910 283424.160000
   4831   4834     1   0.10910 283424.160000
   4835   4856     1   0.10304 312293.760000
   4836   4846     1   0.10910 283424.160000
   4836   4847     1   0.10910 283424.160000
   4837   4838     1   0.10910 283424.160000
   4837   4840     1   0.10910 283424.160000
   4839   4841     1   0.10969 276646.080000
   4839   4842     1   0.10969 276646.080000
   4844   4854     1   0.09730 310787.520000
   4848   4849     1   0.10969 276646.080000
   4848   4850     1   0.10969 276646.080000
   4853   4855     1   0.09730 310787.520000
   4857   4858     1   0.10129 337397.760000
   4859   4860     1   0.10969 276646.080000
   4859   4862     1   0.10969 276646.080000
   4861   4863     1   0.10910 283424.160000
   4861   4864     1   0.10910 283424.160000
   4865   4886     1   0.10304 312293.760000
   4866   4876     1   0.10910 283424.160000
   4866   4877     1   0.10910 283424.160000
   4867   4868     1   0.10910 283424.160000
   4867   4870     1   0.10910 283424.160000
   4869   4871     1   0.10969 276646.080000
   4869   4872     1   0.10969 276646.080000
   4874   4884     1   0.09730 310787.520000
   4878   4879     1   0.10969 276646.080000
   4878   4880     1   0.10969 276646.080000
   4883   4885     1   0.09730 310787.520000
   4887   4888     1   0.10129 337397.760000
   4889   4890     1   0.10969 276646.080000
   4889   4892     1   0.10969 276646.080000
   4891   4893     1   0.10910 283424.160000
   4891   4894     1   0.10910 283424.160000
   4895   4916     1   0.10304 312293.760000
   4896   4906     1   0.10910 283424.160000
   4896   4907     1   0.10910 283424.160000
   4897   4898     1   0.10910 283424.160000
   4897   4900     1   0.10910 283424.160000
   4899   4901     1   0.10969 276646.080000
   4899   4902     1   0.10969 276646.080000
   4904   4914     1   0.09730 310787.520000
   4908   4909     1   0.10969 276646.080000
   4908   4910     1   0.10969 276646.080000
   4913   4915     1   0.09730 310787.520000
   4917   4918     1   0.10129 337397.760000
   4919   4920     1   0.10969 276646.080000
   4919   4922     1   0.10969 276646.080000
   4921   4923     1   0.10910 283424.160000
   4921   4924     1   0.10910 283424.160000
   4925   4946     1   0.10304 312293.760000
   4926   4936     1   0.10910 283424.160000
   4926   4937     1   0.10910 283424.160000
   4927   4928     1   0.10910 283424.160000
   4927   4930     1   0.10910 283424.160000
   4929   4931     1   0.10969 276646.080000
   4929   4932     1   0.10969 276646.080000
   4934   4944     1   0.09730 310787.520000
   4938   4939     1   0.10969 276646.080000
   4938   4940     1   0.10969 276646.080000
   4943   4945     1   0.09730 310787.520000
   4947   4948     1   0.10129 337397.760000
   4949   4950     1   0.10969 276646.080000
   4949   4952     1   0.10969 276646.080000
   4951   4953     1   0.10910 283424.160000
   4951   4954     1   0.10910 283424.160000
   4955   4976     1   0.10304 312293.760000
   4956   4966     1   0.10910 283424.160000
   4956   4967     1   0.10910 283424.160000
   4957   4958     1   0.10910 283424.160000
   4957   4960     1   0.10910 283424.160000
   4959   4961     1   0.10969 276646.080000
   4959   4962     1   0.10969 276646.080000
   4964   4974     1   0.09730 310787.520000
   4968   4969     1   0.10969 276646.080000
   4968   4970     1   0.10969 276646.080000
   4973   4975     1   0.09730 310787.520000
   4977   4978     1   0.10129 337397.760000
   4979   4980     1   0.10969 276646.080000
   4979   4982     1   0.10969 276646.080000
   4981   4983     1   0.10910 283424.160000
   4981   4984     1   0.10910 283424.160000
   4985   5006     1   0.10304 312293.760000
   4986   4996     1   0.10910 283424.160000
   4986   4997     1   0.10910 283424.160000
   4987   4988     1   0.10910 283424.160000
   4987   4990     1   0.10910 283424.160000
   4989   4991     1   0.10969 276646.080000
   4989   4992     1   0.10969 276646.080000
   4994   5004     1   0.09730 310787.520000
   4998   4999     1   0.10969 276646.080000
   4998   5000     1   0.10969 276646.080000
   5003   5005     1   0.09730 310787.520000
   5007   5008     1   0.10129 337397.760000
   5009   5010     1   0.10969 276646.080000
   5009   5012     1   0.10969 276646.080000
   5011   5013     1   0.10910 283424.160000
   5011   5014     1   0.10910 283424.160000
   5015   5036     1   0.10304 312293.760000
   5016   5026     1   0.10910 283424.160000
   5016   5027     1   0.10910 283424.160000
   5017   5018     1   0.10910 283424.160000
   5017   5020     1   0.10910 283424.160000
   5019   5021     1   0.10969 276646.080000
   5019   5022     1   0.10969 276646.080000
   5024   5034     1   0.09730 310787.520000
   5028   5029     1   0.10969 276646.080000
   5028   5030     1   0.10969 276646.080000
   5033   5035     1   0.09730 310787.520000
   5037   5038     1   0.10129 337397.760000
   5039   5040     1   0.10969 276646.080000
   5039   5042     1   0.10969 276646.080000
   5041   5043     1   0.10910 283424.160000
   5041   5044     1   0.10910 283424.160000
   5045   5066     1   0.10304 312293.760000
   5046   5056     1   0.10910 283424.160000
   5046   5057     1   0.10910 283424.160000
   5047   5048     1   0.10910 283424.160000
   5047   5050     1   0.10910 283424.160000
   5049   5051     1   0.10969 276646.080000
   5049   5052     1   0.10969 276646.080000
   5054   5064     1   0.09730 310787.520000
   5058   5059     1   0.10969 276646.080000
   5058   5060     1   0.10969 276646.080000
   5063   5065     1   0.09730 310787.520000
   5067   5068     1   0.10129 337397.760000
   5069   5070     1   0.10969 276646.080000
   5069   5072     1   0.10969 276646.080000
   5071   5073     1   0.10910 283424.160000
   5071   5074     1   0.10910 283424.160000
   5075   5096     1   0.10304 312293.760000
   5076   5086     1   0.10910 283424.160000
   5076   5087     1   0.10910 283424.160000
   5077   5078     1   0.10910 283424.160000
   5077   5080     1   0.10910 283424.160000
   5079   5081     1   0.10969 276646.080000
   5079   5082     1   0.10969 276646.080000
   5084   5094     1   0.09730 310787.520000
   5088   5089     1   0.10969 276646.080000
   5088   5090     1   0.10969 276646.080000
   5093   5095     1   0.09730 310787.520000
   5097   5098     1   0.10129 337397.760000
   5099   5100     1   0.10969 276646.080000
   5099   5102     1   0.10969 276646.080000
   5101   5103     1   0.10910 283424.160000
   5101   5104     1   0.10910 283424.160000
   5105   5126     1   0.10304 312293.760000
   5106   5116     1   0.10910 283424.160000
   5106   5117     1   0.10910 283424.160000
   5107   5108     1   0.10910 283424.160000
   5107   5110     1   0.10910 283424.160000
   5109   5111     1   0.10969 276646.080000
   5109   5112     1   0.10969 276646.080000
   5114   5124     1   0.09730 310787.520000
   5118   5119     1   0.10969 276646.080000
   5118   5120     1   0.10969 276646.080000
   5123   5125     1   0.09730 310787.520000
   5127   5128     1   0.10129 337397.760000
   5129   5130     1   0.10969 276646.080000
   5129   5132     1   0.10969 276646.080000
   5131   5133     1   0.10910 283424.160000
   5131   5134     1   0.10910 283424.160000
   5135   5156     1   0.10304 312293.760000
   5136   5146     1   0.10910 283424.160000
   5136   5147     1   0.10910 283424.160000
   5137   5138     1   0.10910 283424.160000
   5137   5140     1   0.10910 283424.160000
   5139   5141     1   0.10969 276646.080000
   5139   5142     1   0.10969 276646.080000
   5144   5154     1   0.09730 310787.520000
   5148   5149     1   0.10969 276646.080000
   5148   5150     1   0.10969 276646.080000
   5153   5155     1   0.09730 310787.520000
   5157   5158     1   0.10129 337397.760000
   5159   5160     1   0.10969 276646.080000
   5159   5162     1   0.10969 276646.080000
   5161   5163     1   0.10910 283424.160000
   5161   5164     1   0.10910 283424.160000
   5165   5186     1   0.10304 312293.760000
   5166   5176     1   0.10910 283424.160000
   5166   5177     1   0.10910 283424.160000
   5167   5168     1   0.10910 283424.160000
   5167   5170     1   0.10910 283424.160000
   5169   5171     1   0.10969 276646.080000
   5169   5172     1   0.10969 276646.080000
   5174   5184     1   0.09730 310787.520000
   5178   5179     1   0.10969 276646.080000
   5178   5180     1   0.10969 276646.080000
   5183   5185     1   0.09730 310787.520000
   5187   5188     1   0.10129 337397.760000
   5189   5190     1   0.10969 276646.080000
   5189   5192     1   0.10969 276646.080000
   5191   5193     1   0.10910 283424.160000
   5191   5194     1   0.10910 283424.160000
   5195   5216     1   0.10304 312293.760000
   5196   5206     1   0.10910 283424.160000
   5196   5207     1   0.10910 283424.160000
   5197   5198     1   0.10910 283424.160000
   5197   5200     1   0.10910 283424.160000
   5199   5201     1   0.10969 276646.080000
   5199   5202     1   0.10969 276646.080000
   5204   5214     1   0.09730 310787.520000
   5208   5209     1   0.10969 276646.080000
   5208   5210     1   0.10969 276646.080000
   5213   5215     1   0.09730 310787.520000
   5217   5218     1   0.10129 337397.760000
   5219   5220     1   0.10969 276646.080000
   5219   5222     1   0.10969 276646.080000
   5221   5223     1   0.10910 283424.160000
   5221   5224     1   0.10910 283424.160000
   5225   5246     1   0.10304 312293.760000
   5226   5236     1   0.10910 283424.160000
   5226   5237     1   0.10910 283424.160000
   5227   5228     1   0.10910 283424.160000
   5227   5230     1   0.10910 283424.160000
   5229   5231     1   0.10969 276646.080000
   5229   5232     1   0.10969 276646.080000
   5234   5244     1   0.09730 310787.520000
   5238   5239     1   0.10969 276646.080000
   5238   5240     1   0.10969 276646.080000
   5243   5245     1   0.09730 310787.520000
   5247   5248     1   0.10129 337397.760000
   5249   5250     1   0.10969 276646.080000
   5249   5252     1   0.10969 276646.080000
   5251   5253     1   0.10910 283424.160000
   5251   5254     1   0.10910 283424.160000
   5255   5276     1   0.10304 312293.760000
   5256   5266     1   0.10910 283424.160000
   5256   5267     1   0.10910 283424.160000
   5257   5258     1   0.10910 283424.160000
   5257   5260     1   0.10910 283424.160000
   5259   5261     1   0.10969 276646.080000
   5259   5262     1   0.10969 276646.080000
   5264   5274     1   0.09730 310787.520000
   5268   5269     1   0.10969 276646.080000
   5268   5270     1   0.10969 276646.080000
   5273   5275     1   0.09730 310787.520000
   5277   5278     1   0.10129 337397.760000
   5279   5280     1   0.10969 276646.080000
   5279   5282     1   0.10969 276646.080000
   5281   5283     1   0.10910 283424.160000
   5281   5284     1   0.10910 283424.160000
   5285   5306     1   0.10304 312293.760000
   5286   5296     1   0.10910 283424.160000
   5286   5297     1   0.10910 283424.160000
   5287   5288     1   0.10910 283424.160000
   5287   5290     1   0.10910 283424.160000
   5289   5291     1   0.10969 276646.080000
   5289   5292     1   0.10969 276646.080000
   5294   5304     1   0.09730 310787.520000
   5298   5299     1   0.10969 276646.080000
   5298   5300     1   0.10969 276646.080000
   5303   5305     1   0.09730 310787.520000
   5307   5308     1   0.10129 337397.760000
   5309   5310     1   0.10969 276646.080000
   5309   5312     1   0.10969 276646.080000
   5311   5313     1   0.10910 283424.160000
   5311   5314     1   0.10910 283424.160000
   5315   5336     1   0.10304 312293.760000
   5316   5326     1   0.10910 283424.160000
   5316   5327     1   0.10910 283424.160000
   5317   5318     1   0.10910 283424.160000
   5317   5320     1   0.10910 283424.160000
   5319   5321     1   0.10969 276646.080000
   5319   5322     1   0.10969 276646.080000
   5324   5334     1   0.09730 310787.520000
   5328   5329     1   0.10969 276646.080000
   5328   5330     1   0.10969 276646.080000
   5333   5335     1   0.09730 310787.520000
   5337   5338     1   0.10129 337397.760000
   5339   5340     1   0.10969 276646.080000
   5339   5342     1   0.10969 276646.080000
   5341   5343     1   0.10910 283424.160000
   5341   5344     1   0.10910 283424.160000
   5345   5366     1   0.10304 312293.760000
   5346   5356     1   0.10910 283424.160000
   5346   5357     1   0.10910 283424.160000
   5347   5348     1   0.10910 283424.160000
   5347   5350     1   0.10910 283424.160000
   5349   5351     1   0.10969 276646.080000
   5349   5352     1   0.10969 276646.080000
   5354   5364     1   0.09730 310787.520000
   5358   5359     1   0.10969 276646.080000
   5358   5360     1   0.10969 276646.080000
   5363   5365     1   0.09730 310787.520000
   5367   5368     1   0.10129 337397.760000
   5369   5370     1   0.10969 276646.080000
   5369   5372     1   0.10969 276646.080000
   5371   5373     1   0.10910 283424.160000
   5371   5374     1   0.10910 283424.160000
   5375   5396     1   0.10304 312293.760000
   5376   5386     1   0.10910 283424.160000
   5376   5387     1   0.10910 283424.160000
   5377   5378     1   0.10910 283424.160000
   5377   5380     1   0.10910 283424.160000
   5379   5381     1   0.10969 276646.080000
   5379   5382     1   0.10969 276646.080000
   5384   5394     1   0.09730 310787.520000
   5388   5389     1   0.10969 276646.080000
   5388   5390     1   0.10969 276646.080000
   5393   5395     1   0.09730 310787.520000
   5397   5398     1   0.10129 337397.760000
   5399   5400     1   0.10969 276646.080000
   5399   5402     1   0.10969 276646.080000
   5401   5403     1   0.10910 283424.160000
   5401   5404     1   0.10910 283424.160000
   5405   5426     1   0.10304 312293.760000
   5406   5416     1   0.10910 283424.160000
   5406   5417     1   0.10910 283424.160000
   5407   5408     1   0.10910 283424.160000
   5407   5410     1   0.10910 283424.160000
   5409   5411     1   0.10969 276646.080000
   5409   5412     1   0.10969 276646.080000
   5414   5424     1   0.09730 310787.520000
   5418   5419     1   0.10969 276646.080000
   5418   5420     1   0.10969 276646.080000
   5423   5425     1   0.09730 310787.520000
   5427   5428     1   0.10129 337397.760000
   5429   5430     1   0.10969 276646.080000
   5429   5432     1   0.10969 276646.080000
   5431   5433     1   0.10910 283424.160000
   5431   5434     1   0.10910 283424.160000
   5435   5456     1   0.10304 312293.760000
   5436   5446     1   0.10910 283424.160000
   5436   5447     1   0.10910 283424.160000
   5437   5438     1   0.10910 283424.160000
   5437   5440     1   0.10910 283424.160000
   5439   5441     1   0.10969 276646.080000
   5439   5442     1   0.10969 276646.080000
   5444   5454     1   0.09730 310787.520000
   5448   5449     1   0.10969 276646.080000
   5448   5450     1   0.10969 276646.080000
   5453   5455     1   0.09730 310787.520000
   5457   5458     1   0.10129 337397.760000
   5459   5460     1   0.10969 276646.080000
   5459   5462     1   0.10969 276646.080000
   5461   5463     1   0.10910 283424.160000
   5461   5464     1   0.10910 283424.160000
   5465   5486     1   0.10304 312293.760000
   5466   5476     1   0.10910 283424.160000
   5466   5477     1   0.10910 283424.160000
   5467   5468     1   0.10910 283424.160000
   5467   5470     1   0.10910 283424.160000
   5469   5471     1   0.10969 276646.080000
   5469   5472     1   0.10969 276646.080000
   5474   5484     1   0.09730 310787.520000
   5478   5479     1   0.10969 276646.080000
   5478   5480     1   0.10969 276646.080000
   5483   5485     1   0.09730 310787.520000
   5487   5488     1   0.10129 337397.760000
   5489   5490     1   0.10969 276646.080000
   5489   5492     1   0.10969 276646.080000
   5491   5493     1   0.10910 283424.160000
   5491   5494     1   0.10910 283424.160000
   5495   5516     1   0.10304 312293.760000
   5496   5506     1   0.10910 283424.160000
   5496   5507     1   0.10910 283424.160000
   5497   5498     1   0.10910 283424.160000
   5497   5500     1   0.10910 283424.160000
   5499   5501     1   0.10969 276646.080000
   5499   5502     1   0.10969 276646.080000
   5504   5514     1   0.09730 310787.520000
   5508   5509     1   0.10969 276646.080000
   5508   5510     1   0.10969 276646.080000
   5513   5515     1   0.09730 310787.520000
   5517   5518     1   0.10129 337397.760000
   5519   5520     1   0.10969 276646.080000
   5519   5522     1   0.10969 276646.080000
   5521   5523     1   0.10910 283424.160000
   5521   5524     1   0.10910 283424.160000
   5525   5546     1   0.10304 312293.760000
   5526   5536     1   0.10910 283424.160000
   5526   5537     1   0.10910 283424.160000
   5527   5528     1   0.10910 283424.160000
   5527   5530     1   0.10910 283424.160000
   5529   5531     1   0.10969 276646.080000
   5529   5532     1   0.10969 276646.080000
   5534   5544     1   0.09730 310787.520000
   5538   5539     1   0.10969 276646.080000
   5538   5540     1   0.10969 276646.080000
   5543   5545     1   0.09730 310787.520000
   5547   5548     1   0.10129 337397.760000
   5549   5550     1   0.10969 276646.080000
   5549   5552     1   0.10969 276646.080000
   5551   5553     1   0.10910 283424.160000
   5551   5554     1   0.10910 283424.160000
   5555   5576     1   0.10304 312293.760000
   5556   5566     1   0.10910 283424.160000
   5556   5567     1   0.10910 283424.160000
   5557   5558     1   0.10910 283424.160000
   5557   5560     1   0.10910 283424.160000
   5559   5561     1   0.10969 276646.080000
   5559   5562     1   0.10969 276646.080000
   5564   5574     1   0.09730 310787.520000
   5568   5569     1   0.10969 276646.080000
   5568   5570     1   0.10969 276646.080000
   5573   5575     1   0.09730 310787.520000
   5577   5578     1   0.10129 337397.760000
   5579   5580     1   0.10969 276646.080000
   5579   5582     1   0.10969 276646.080000
   5581   5583     1   0.10910 283424.160000
   5581   5584     1   0.10910 283424.160000
   5585   5606     1   0.10304 312293.760000
   5586   5596     1   0.10910 283424.160000
   5586   5597     1   0.10910 283424.160000
   5587   5588     1   0.10910 283424.160000
   5587   5590     1   0.10910 283424.160000
   5589   5591     1   0.10969 276646.080000
   5589   5592     1   0.10969 276646.080000
   5594   5604     1   0.09730 310787.520000
   5598   5599     1   0.10969 276646.080000
   5598   5600     1   0.10969 276646.080000
   5603   5605     1   0.09730 310787.520000
   5607   5608     1   0.10129 337397.760000
   5609   5610     1   0.10969 276646.080000
   5609   5612     1   0.10969 276646.080000
   5611   5613     1   0.10910 283424.160000
   5611   5614     1   0.10910 283424.160000
   5615   5636     1   0.10304 312293.760000
   5616   5626     1   0.10910 283424.160000
   5616   5627     1   0.10910 283424.160000
   5617   5618     1   0.10910 283424.160000
   5617   5620     1   0.10910 283424.160000
   5619   5621     1   0.10969 276646.080000
   5619   5622     1   0.10969 276646.080000
   5624   5634     1   0.09730 310787.520000
   5628   5629     1   0.10969 276646.080000
   5628   5630     1   0.10969 276646.080000
   5633   5635     1   0.09730 310787.520000
   5637   5638     1   0.10129 337397.760000
   5639   5640     1   0.10969 276646.080000
   5639   5642     1   0.10969 276646.080000
   5641   5643     1   0.10910 283424.160000
   5641   5644     1   0.10910 283424.160000
   5645   5666     1   0.10304 312293.760000
   5646   5656     1   0.10910 283424.160000
   5646   5657     1   0.10910 283424.160000
   5647   5648     1   0.10910 283424.160000
   5647   5650     1   0.10910 283424.160000
   5649   5651     1   0.10969 276646.080000
   5649   5652     1   0.10969 276646.080000
   5654   5664     1   0.09730 310787.520000
   5658   5659     1   0.10969 276646.080000
   5658   5660     1   0.10969 276646.080000
   5663   5665     1   0.09730 310787.520000
   5667   5668     1   0.10129 337397.760000
   5669   5670     1   0.10969 276646.080000
   5669   5672     1   0.10969 276646.080000
   5671   5673     1   0.10910 283424.160000
   5671   5674     1   0.10910 283424.160000
   5675   5696     1   0.10304 312293.760000
   5676   5686     1   0.10910 283424.160000
   5676   5687     1   0.10910 283424.160000
   5677   5678     1   0.10910 283424.160000
   5677   5680     1   0.10910 283424.160000
   5679   5681     1   0.10969 276646.080000
   5679   5682     1   0.10969 276646.080000
   5684   5694     1   0.09730 310787.520000
   5688   5689     1   0.10969 276646.080000
   5688   5690     1   0.10969 276646.080000
   5693   5695     1   0.09730 310787.520000
   5697   5698     1   0.10129 337397.760000
   5699   5700     1   0.10969 276646.080000
   5699   5702     1   0.10969 276646.080000
   5701   5703     1   0.10910 283424.160000
   5701   5704     1   0.10910 283424.160000
   5705   5726     1   0.10304 312293.760000
   5706   5716     1   0.10910 283424.160000
   5706   5717     1   0.10910 283424.160000
   5707   5708     1   0.10910 283424.160000
   5707   5710     1   0.10910 283424.160000
   5709   5711     1   0.10969 276646.080000
   5709   5712     1   0.10969 276646.080000
   5714   5724     1   0.09730 310787.520000
   5718   5719     1   0.10969 276646.080000
   5718   5720     1   0.10969 276646.080000
   5723   5725     1   0.09730 310787.520000
   5727   5728     1   0.10129 337397.760000
   5729   5730     1   0.10969 276646.080000
   5729   5732     1   0.10969 276646.080000
   5731   5733     1   0.10910 283424.160000
   5731   5734     1   0.10910 283424.160000
   5735   5756     1   0.10304 312293.760000
   5736   5746     1   0.10910 283424.160000
   5736   5747     1   0.10910 283424.160000
   5737   5738     1   0.10910 283424.160000
   5737   5740     1   0.10910 283424.160000
   5739   5741     1   0.10969 276646.080000
   5739   5742     1   0.10969 276646.080000
   5744   5754     1   0.09730 310787.520000
   5748   5749     1   0.10969 276646.080000
   5748   5750     1   0.10969 276646.080000
   5753   5755     1   0.09730 310787.520000
   5757   5758     1   0.10129 337397.760000
   5759   5760     1   0.10969 276646.080000
   5759   5762     1   0.10969 276646.080000
   5761   5763     1   0.10910 283424.160000
   5761   5764     1   0.10910 283424.160000
   5765   5786     1   0.10304 312293.760000
   5766   5776     1   0.10910 283424.160000
   5766   5777     1   0.10910 283424.160000
   5767   5768     1   0.10910 283424.160000
   5767   5770     1   0.10910 283424.160000
   5769   5771     1   0.10969 276646.080000
   5769   5772     1   0.10969 276646.080000
   5774   5784     1   0.09730 310787.520000
   5778   5779     1   0.10969 276646.080000
   5778   5780     1   0.10969 276646.080000
   5783   5785     1   0.09730 310787.520000
   5787   5788     1   0.10129 337397.760000
   5789   5790     1   0.10969 276646.080000
   5789   5792     1   0.10969 276646.080000
   5791   5793     1   0.10910 283424.160000
   5791   5794     1   0.10910 283424.160000
   5795   5816     1   0.10304 312293.760000
   5796   5806     1   0.10910 283424.160000
   5796   5807     1   0.10910 283424.160000
   5797   5798     1   0.10910 283424.160000
   5797   5800     1   0.10910 283424.160000
   5799   5801     1   0.10969 276646.080000
   5799   5802     1   0.10969 276646.080000
   5804   5814     1   0.09730 310787.520000
   5808   5809     1   0.10969 276646.080000
   5808   5810     1   0.10969 276646.080000
   5813   5815     1   0.09730 310787.520000
   5817   5818     1   0.10129 337397.760000
   5819   5820     1   0.10969 276646.080000
   5819   5822     1   0.10969 276646.080000
   5821   5823     1   0.10910 283424.160000
   5821   5824     1   0.10910 283424.160000
   5825   5846     1   0.10304 312293.760000
   5826   5836     1   0.10910 283424.160000
   5826   5837     1   0.10910 283424.160000
   5827   5828     1   0.10910 283424.160000
   5827   5830     1   0.10910 283424.160000
   5829   5831     1   0.10969 276646.080000
   5829   5832     1   0.10969 276646.080000
   5834   5844     1   0.09730 310787.520000
   5838   5839     1   0.10969 276646.080000
   5838   5840     1   0.10969 276646.080000
   5843   5845     1   0.09730 310787.520000
   5847   5848     1   0.10129 337397.760000
   5849   5850     1   0.10969 276646.080000
   5849   5852     1   0.10969 276646.080000
   5851   5853     1   0.10910 283424.160000
   5851   5854     1   0.10910 283424.160000
   5855   5876     1   0.10304 312293.760000
   5856   5866     1   0.10910 283424.160000
   5856   5867     1   0.10910 283424.160000
   5857   5858     1   0.10910 283424.160000
   5857   5860     1   0.10910 283424.160000
   5859   5861     1   0.10969 276646.080000
   5859   5862     1   0.10969 276646.080000
   5864   5874     1   0.09730 310787.520000
   5868   5869     1   0.10969 276646.080000
   5868   5870     1   0.10969 276646.080000
   5873   5875     1   0.09730 310787.520000
   5877   5878     1   0.10129 337397.760000
   5879   5880     1   0.10969 276646.080000
   5879   5882     1   0.10969 276646.080000
   5881   5883     1   0.10910 283424.160000
   5881   5884     1   0.10910 283424.160000
   5885   5906     1   0.10304 312293.760000
   5886   5896     1   0.10910 283424.160000
   5886   5897     1   0.10910 283424.160000
   5887   5888     1   0.10910 283424.160000
   5887   5890     1   0.10910 283424.160000
   5889   5891     1   0.10969 276646.080000
   5889   5892     1   0.10969 276646.080000
   5894   5904     1   0.09730 310787.520000
   5898   5899     1   0.10969 276646.080000
   5898   5900     1   0.10969 276646.080000
   5903   5905     1   0.09730 310787.520000
   5907   5908     1   0.10129 337397.760000
   5909   5910     1   0.10969 276646.080000
   5909   5912     1   0.10969 276646.080000
   5911   5913     1   0.10910 283424.160000
   5911   5914     1   0.10910 283424.160000
   5915   5936     1   0.10304 312293.760000
   5916   5926     1   0.10910 283424.160000
   5916   5927     1   0.10910 283424.160000
   5917   5918     1   0.10910 283424.160000
   5917   5920     1   0.10910 283424.160000
   5919   5921     1   0.10969 276646.080000
   5919   5922     1   0.10969 276646.080000
   5924   5934     1   0.09730 310787.520000
   5928   5929     1   0.10969 276646.080000
   5928   5930     1   0.10969 276646.080000
   5933   5935     1   0.09730 310787.520000
   5937   5938     1   0.10129 337397.760000
   5939   5940     1   0.10969 276646.080000
   5939   5942     1   0.10969 276646.080000
   5941   5943     1   0.10910 283424.160000
   5941   5944     1   0.10910 283424.160000
   5945   5966     1   0.10304 312293.760000
   5946   5956     1   0.10910 283424.160000
   5946   5957     1   0.10910 283424.160000
   5947   5948     1   0.10910 283424.160000
   5947   5950     1   0.10910 283424.160000
   5949   5951     1   0.10969 276646.080000
   5949   5952     1   0.10969 276646.080000
   5954   5964     1   0.09730 310787.520000
   5958   5959     1   0.10969 276646.080000
   5958   5960     1   0.10969 276646.080000
   5963   5965     1   0.09730 310787.520000
   5967   5968     1   0.10129 337397.760000
   5969   5970     1   0.10969 276646.080000
   5969   5972     1   0.10969 276646.080000
   5971   5973     1   0.10910 283424.160000
   5971   5974     1   0.10910 283424.160000
   5975   5996     1   0.10304 312293.760000
   5976   5986     1   0.10910 283424.160000
   5976   5987     1   0.10910 283424.160000
   5977   5978     1   0.10910 283424.160000
   5977   5980     1   0.10910 283424.160000
   5979   5981     1   0.10969 276646.080000
   5979   5982     1   0.10969 276646.080000
   5984   5994     1   0.09730 310787.520000
   5988   5989     1   0.10969 276646.080000
   5988   5990     1   0.10969 276646.080000
   5993   5995     1   0.09730 310787.520000
   5997   5998     1   0.10129 337397.760000
   5999   6000     1   0.10969 276646.080000
   5999   6002     1   0.10969 276646.080000
   6001   6003     1   0.10910 283424.160000
   6001   6004     1   0.10910 283424.160000
   6005   6026     1   0.10304 312293.760000
   6006   6016     1   0.10910 283424.160000
   6006   6017     1   0.10910 283424.160000
   6007   6008     1   0.10910 283424.160000
   6007   6010     1   0.10910 283424.160000
   6009   6011     1   0.10969 276646.080000
   6009   6012     1   0.10969 276646.080000
   6014   6024     1   0.09730 310787.520000
   6018   6019     1   0.10969 276646.080000
   6018   6020     1   0.10969 276646.080000
   6023   6025     1   0.09730 310787.520000
   6027   6028     1   0.10129 337397.760000
   6029   6030     1   0.10969 276646.080000
   6029   6032     1   0.10969 276646.080000
   6031   6033     1   0.10910 283424.160000
   6031   6034     1   0.10910 283424.160000
   6035   6056     1   0.10304 312293.760000
   6036   6046     1   0.10910 283424.160000
   6036   6047     1   0.10910 283424.160000
   6037   6038     1   0.10910 283424.160000
   6037   6040     1   0.10910 283424.160000
   6039   6041     1   0.10969 276646.080000
   6039   6042     1   0.10969 276646.080000
   6044   6054     1   0.09730 310787.520000
   6048   6049     1   0.10969 276646.080000
   6048   6050     1   0.10969 276646.080000
   6053   6055     1   0.09730 310787.520000
   6057   6058     1   0.10129 337397.760000
   6059   6060     1   0.10969 276646.080000
   6059   6062     1   0.10969 276646.080000
   6061   6063     1   0.10910 283424.160000
   6061   6064     1   0.10910 283424.160000
   6065   6086     1   0.10304 312293.760000
   6066   6076     1   0.10910 283424.160000
   6066   6077     1   0.10910 283424.160000
   6067   6068     1   0.10910 283424.160000
   6067   6070     1   0.10910 283424.160000
   6069   6071     1   0.10969 276646.080000
   6069   6072     1   0.10969 276646.080000
   6074   6084     1   0.09730 310787.520000
   6078   6079     1   0.10969 276646.080000
   6078   6080     1   0.10969 276646.080000
   6083   6085     1   0.09730 310787.520000
   6087   6088     1   0.10129 337397.760000
   6089   6090     1   0.10969 276646.080000
   6089   6092     1   0.10969 276646.080000
   6091   6093     1   0.10910 283424.160000
   6091   6094     1   0.10910 283424.160000
   6095   6116     1   0.10304 312293.760000
   6096   6106     1   0.10910 283424.160000
   6096   6107     1   0.10910 283424.160000
   6097   6098     1   0.10910 283424.160000
   6097   6100     1   0.10910 283424.160000
   6099   6101     1   0.10969 276646.080000
   6099   6102     1   0.10969 276646.080000
   6104   6114     1   0.09730 310787.520000
   6108   6109     1   0.10969 276646.080000
   6108   6110     1   0.10969 276646.080000
   6113   6115     1   0.09730 310787.520000
   6117   6118     1   0.10129 337397.760000
   6119   6120     1   0.10969 276646.080000
   6119   6122     1   0.10969 276646.080000
   6121   6123     1   0.10910 283424.160000
   6121   6124     1   0.10910 283424.160000
   6125   6146     1   0.10304 312293.760000
   6126   6136     1   0.10910 283424.160000
   6126   6137     1   0.10910 283424.160000
   6127   6128     1   0.10910 283424.160000
   6127   6130     1   0.10910 283424.160000
   6129   6131     1   0.10969 276646.080000
   6129   6132     1   0.10969 276646.080000
   6134   6144     1   0.09730 310787.520000
   6138   6139     1   0.10969 276646.080000
   6138   6140     1   0.10969 276646.080000
   6143   6145     1   0.09730 310787.520000
   6147   6148     1   0.10129 337397.760000
   6149   6150     1   0.10969 276646.080000
   6149   6152     1   0.10969 276646.080000
   6151   6153     1   0.10910 283424.160000
   6151   6154     1   0.10910 283424.160000
   6155   6176     1   0.10304 312293.760000
   6156   6166     1   0.10910 283424.160000
   6156   6167     1   0.10910 283424.160000
   6157   6158     1   0.10910 283424.160000
   6157   6160     1   0.10910 283424.160000
   6159   6161     1   0.10969 276646.080000
   6159   6162     1   0.10969 276646.080000
   6164   6174     1   0.09730 310787.520000
   6168   6169     1   0.10969 276646.080000
   6168   6170     1   0.10969 276646.080000
   6173   6175     1   0.09730 310787.520000
   6177   6178     1   0.10129 337397.760000
   6179   6180     1   0.10969 276646.080000
   6179   6182     1   0.10969 276646.080000
   6181   6183     1   0.10910 283424.160000
   6181   6184     1   0.10910 283424.160000
   6185   6206     1   0.10304 312293.760000
   6186   6196     1   0.10910 283424.160000
   6186   6197     1   0.10910 283424.160000
   6187   6188     1   0.10910 283424.160000
   6187   6190     1   0.10910 283424.160000
   6189   6191     1   0.10969 276646.080000
   6189   6192     1   0.10969 276646.080000
   6194   6204     1   0.09730 310787.520000
   6198   6199     1   0.10969 276646.080000
   6198   6200     1   0.10969 276646.080000
   6203   6205     1   0.09730 310787.520000
   6207   6208     1   0.10129 337397.760000
   6209   6210     1   0.10969 276646.080000
   6209   6212     1   0.10969 276646.080000
   6211   6213     1   0.10910 283424.160000
   6211   6214     1   0.10910 283424.160000
   6215   6236     1   0.10304 312293.760000
   6216   6226     1   0.10910 283424.160000
   6216   6227     1   0.10910 283424.160000
   6217   6218     1   0.10910 283424.160000
   6217   6220     1   0.10910 283424.160000
   6219   6221     1   0.10969 276646.080000
   6219   6222     1   0.10969 276646.080000
   6224   6234     1   0.09730 310787.520000
   6228   6229     1   0.10969 276646.080000
   6228   6230     1   0.10969 276646.080000
   6233   6235     1   0.09730 310787.520000
   6237   6238     1   0.10129 337397.760000
   6239   6240     1   0.10969 276646.080000
   6239   6242     1   0.10969 276646.080000
   6241   6243     1   0.10910 283424.160000
   6241   6244     1   0.10910 283424.160000
   6245   6266     1   0.10304 312293.760000
   6246   6256     1   0.10910 283424.160000
   6246   6257     1   0.10910 283424.160000
   6247   6248     1   0.10910 283424.160000
   6247   6250     1   0.10910 283424.160000
   6249   6251     1   0.10969 276646.080000
   6249   6252     1   0.10969 276646.080000
   6254   6264     1   0.09730 310787.520000
   6258   6259     1   0.10969 276646.080000
   6258   6260     1   0.10969 276646.080000
   6263   6265     1   0.09730 310787.520000
   6267   6268     1   0.10129 337397.760000
   6269   6270     1   0.10969 276646.080000
   6269   6272     1   0.10969 276646.080000
   6271   6273     1   0.10910 283424.160000
   6271   6274     1   0.10910 283424.160000
   6275   6296     1   0.10304 312293.760000
   6276   6286     1   0.10910 283424.160000
   6276   6287     1   0.10910 283424.160000
   6277   6278     1   0.10910 283424.160000
   6277   6280     1   0.10910 283424.160000
   6279   6281     1   0.10969 276646.080000
   6279   6282     1   0.10969 276646.080000
   6284   6294     1   0.09730 310787.520000
   6288   6289     1   0.10969 276646.080000
   6288   6290     1   0.10969 276646.080000
   6293   6295     1   0.09730 310787.520000
   6297   6298     1   0.10129 337397.760000
   6299   6300     1   0.10969 276646.080000
   6299   6302     1   0.10969 276646.080000
   6301   6303     1   0.10910 283424.160000
   6301   6304     1   0.10910 283424.160000
   6305   6326     1   0.10304 312293.760000
   6306   6316     1   0.10910 283424.160000
   6306   6317     1   0.10910 283424.160000
   6307   6308     1   0.10910 283424.160000
   6307   6310     1   0.10910 283424.160000
   6309   6311     1   0.10969 276646.080000
   6309   6312     1   0.10969 276646.080000
   6314   6324     1   0.09730 310787.520000
   6318   6319     1   0.10969 276646.080000
   6318   6320     1   0.10969 276646.080000
   6323   6325     1   0.09730 310787.520000
   6327   6328     1   0.10129 337397.760000
   6329   6330     1   0.10969 276646.080000
   6329   6332     1   0.10969 276646.080000
   6331   6333     1   0.10910 283424.160000
   6331   6334     1   0.10910 283424.160000
   6335   6356     1   0.10304 312293.760000
   6336   6346     1   0.10910 283424.160000
   6336   6347     1   0.10910 283424.160000
   6337   6338     1   0.10910 283424.160000
   6337   6340     1   0.10910 283424.160000
   6339   6341     1   0.10969 276646.080000
   6339   6342     1   0.10969 276646.080000
   6344   6354     1   0.09730 310787.520000
   6348   6349     1   0.10969 276646.080000
   6348   6350     1   0.10969 276646.080000
   6353   6355     1   0.09730 310787.520000
   6357   6358     1   0.10129 337397.760000
   6359   6360     1   0.10969 276646.080000
   6359   6362     1   0.10969 276646.080000
   6361   6363     1   0.10910 283424.160000
   6361   6364     1   0.10910 283424.160000
   6365   6386     1   0.10304 312293.760000
   6366   6376     1   0.10910 283424.160000
   6366   6377     1   0.10910 283424.160000
   6367   6368     1   0.10910 283424.160000
   6367   6370     1   0.10910 283424.160000
   6369   6371     1   0.10969 276646.080000
   6369   6372     1   0.10969 276646.080000
   6374   6384     1   0.09730 310787.520000
   6378   6379     1   0.10969 276646.080000
   6378   6380     1   0.10969 276646.080000
   6383   6385     1   0.09730 310787.520000
   6387   6388     1   0.10129 337397.760000
   6389   6390     1   0.10969 276646.080000
   6389   6392     1   0.10969 276646.080000
   6391   6393     1   0.10910 283424.160000
   6391   6394     1   0.10910 283424.160000
   6395   6416     1   0.10304 312293.760000
   6396   6406     1   0.10910 283424.160000
   6396   6407     1   0.10910 283424.160000
   6397   6398     1   0.10910 283424.160000
   6397   6400     1   0.10910 283424.160000
   6399   6401     1   0.10969 276646.080000
   6399   6402     1   0.10969 276646.080000
   6404   6414     1   0.09730 310787.520000
   6408   6409     1   0.10969 276646.080000
   6408   6410     1   0.10969 276646.080000
   6413   6415     1   0.09730 310787.520000
   6417   6418     1   0.10129 337397.760000
   6419   6420     1   0.10969 276646.080000
   6419   6422     1   0.10969 276646.080000
   6421   6423     1   0.10910 283424.160000
   6421   6424     1   0.10910 283424.160000
   6425   6446     1   0.10304 312293.760000
   6426   6436     1   0.10910 283424.160000
   6426   6437     1   0.10910 283424.160000
   6427   6428     1   0.10910 283424.160000
   6427   6430     1   0.10910 283424.160000
   6429   6431     1   0.10969 276646.080000
   6429   6432     1   0.10969 276646.080000
   6434   6444     1   0.09730 310787.520000
   6438   6439     1   0.10969 276646.080000
   6438   6440     1   0.10969 276646.080000
   6443   6445     1   0.09730 310787.520000
   6447   6448     1   0.10129 337397.760000
   6449   6450     1   0.10969 276646.080000
   6449   6452     1   0.10969 276646.080000
   6451   6453     1   0.10910 283424.160000
   6451   6454     1   0.10910 283424.160000
   6455   6476     1   0.10304 312293.760000
   6456   6466     1   0.10910 283424.160000
   6456   6467     1   0.10910 283424.160000
   6457   6458     1   0.10910 283424.160000
   6457   6460     1   0.10910 283424.160000
   6459   6461     1   0.10969 276646.080000
   6459   6462     1   0.10969 276646.080000
   6464   6474     1   0.09730 310787.520000
   6468   6469     1   0.10969 276646.080000
   6468   6470     1   0.10969 276646.080000
   6473   6475     1   0.09730 310787.520000
   6477   6478     1   0.10129 337397.760000
   6479   6480     1   0.10969 276646.080000
   6479   6482     1   0.10969 276646.080000
   6481   6483     1   0.10910 283424.160000
   6481   6484     1   0.10910 283424.160000
   6485   6506     1   0.10304 312293.760000
   6486   6496     1   0.10910 283424.160000
   6486   6497     1   0.10910 283424.160000
   6487   6488     1   0.10910 283424.160000
   6487   6490     1   0.10910 283424.160000
   6489   6491     1   0.10969 276646.080000
   6489   6492     1   0.10969 276646.080000
   6494   6504     1   0.09730 310787.520000
   6498   6499     1   0.10969 276646.080000
   6498   6500     1   0.10969 276646.080000
   6503   6505     1   0.09730 310787.520000
   6507   6508     1   0.10129 337397.760000
   6509   6510     1   0.10969 276646.080000
   6509   6512     1   0.10969 276646.080000
   6511   6513     1   0.10910 283424.160000
   6511   6514     1   0.10910 283424.160000
   6515   6536     1   0.10304 312293.760000
   6516   6526     1   0.10910 283424.160000
   6516   6527     1   0.10910 283424.160000
   6517   6518     1   0.10910 283424.160000
   6517   6520     1   0.10910 283424.160000
   6519   6521     1   0.10969 276646.080000
   6519   6522     1   0.10969 276646.080000
   6524   6534     1   0.09730 310787.520000
   6528   6529     1   0.10969 276646.080000
   6528   6530     1   0.10969 276646.080000
   6533   6535     1   0.09730 310787.520000
   6537   6538     1   0.10129 337397.760000
   6539   6540     1   0.10969 276646.080000
   6539   6542     1   0.10969 276646.080000
   6541   6543     1   0.10910 283424.160000
   6541   6544     1   0.10910 283424.160000
   6545   6566     1   0.10304 312293.760000
   6546   6556     1   0.10910 283424.160000
   6546   6557     1   0.10910 283424.160000
   6547   6548     1   0.10910 283424.160000
   6547   6550     1   0.10910 283424.160000
   6549   6551     1   0.10969 276646.080000
   6549   6552     1   0.10969 276646.080000
   6554   6564     1   0.09730 310787.520000
   6558   6559     1   0.10969 276646.080000
   6558   6560     1   0.10969 276646.080000
   6563   6565     1   0.09730 310787.520000
   6567   6568     1   0.10129 337397.760000
   6569   6570     1   0.10969 276646.080000
   6569   6572     1   0.10969 276646.080000
   6571   6573     1   0.10910 283424.160000
   6571   6574     1   0.10910 283424.160000
   6575   6596     1   0.10304 312293.760000
   6576   6586     1   0.10910 283424.160000
   6576   6587     1   0.10910 283424.160000
   6577   6578     1   0.10910 283424.160000
   6577   6580     1   0.10910 283424.160000
   6579   6581     1   0.10969 276646.080000
   6579   6582     1   0.10969 276646.080000
   6584   6594     1   0.09730 310787.520000
   6588   6589     1   0.10969 276646.080000
   6588   6590     1   0.10969 276646.080000
   6593   6595     1   0.09730 310787.520000
   6597   6598     1   0.10129 337397.760000
   6599   6600     1   0.10969 276646.080000
   6599   6602     1   0.10969 276646.080000
   6601   6603     1   0.10910 283424.160000
   6601   6604     1   0.10910 283424.160000
   6605   6626     1   0.10304 312293.760000
   6606   6616     1   0.10910 283424.160000
   6606   6617     1   0.10910 283424.160000
   6607   6608     1   0.10910 283424.160000
   6607   6610     1   0.10910 283424.160000
   6609   6611     1   0.10969 276646.080000
   6609   6612     1   0.10969 276646.080000
   6614   6624     1   0.09730 310787.520000
   6618   6619     1   0.10969 276646.080000
   6618   6620     1   0.10969 276646.080000
   6623   6625     1   0.09730 310787.520000
   6627   6628     1   0.10129 337397.760000
   6629   6630     1   0.10969 276646.080000
   6629   6632     1   0.10969 276646.080000
   6631   6633     1   0.10910 283424.160000
   6631   6634     1   0.10910 283424.160000
   6635   6656     1   0.10304 312293.760000
   6636   6646     1   0.10910 283424.160000
   6636   6647     1   0.10910 283424.160000
   6637   6638     1   0.10910 283424.160000
   6637   6640     1   0.10910 283424.160000
   6639   6641     1   0.10969 276646.080000
   6639   6642     1   0.10969 276646.080000
   6644   6654     1   0.09730 310787.520000
   6648   6649     1   0.10969 276646.080000
   6648   6650     1   0.10969 276646.080000
   6653   6655     1   0.09730 310787.520000
   6657   6658     1   0.10129 337397.760000
   6659   6660     1   0.10969 276646.080000
   6659   6662     1   0.10969 276646.080000
   6661   6663     1   0.10910 283424.160000
   6661   6664     1   0.10910 283424.160000
   6665   6686     1   0.10304 312293.760000
   6666   6676     1   0.10910 283424.160000
   6666   6677     1   0.10910 283424.160000
   6667   6668     1   0.10910 283424.160000
   6667   6670     1   0.10910 283424.160000
   6669   6671     1   0.10969 276646.080000
   6669   6672     1   0.10969 276646.080000
   6674   6684     1   0.09730 310787.520000
   6678   6679     1   0.10969 276646.080000
   6678   6680     1   0.10969 276646.080000
   6683   6685     1   0.09730 310787.520000
   6687   6688     1   0.10129 337397.760000
   6689   6690     1   0.10969 276646.080000
   6689   6692     1   0.10969 276646.080000
   6691   6693     1   0.10910 283424.160000
   6691   6694     1   0.10910 283424.160000
   6695   6716     1   0.10304 312293.760000
   6696   6706     1   0.10910 283424.160000
   6696   6707     1   0.10910 283424.160000
   6697   6698     1   0.10910 283424.160000
   6697   6700     1   0.10910 283424.160000
   6699   6701     1   0.10969 276646.080000
   6699   6702     1   0.10969 276646.080000
   6704   6714     1   0.09730 310787.520000
   6708   6709     1   0.10969 276646.080000
   6708   6710     1   0.10969 276646.080000
   6713   6715     1   0.09730 310787.520000
   6717   6718     1   0.10129 337397.760000
   6719   6720     1   0.10969 276646.080000
   6719   6722     1   0.10969 276646.080000
   6721   6723     1   0.10910 283424.160000
   6721   6724     1   0.10910 283424.160000
   6725   6746     1   0.10304 312293.760000
   6726   6736     1   0.10910 283424.160000
   6726   6737     1   0.10910 283424.160000
   6727   6728     1   0.10910 283424.160000
   6727   6730     1   0.10910 283424.160000
   6729   6731     1   0.10969 276646.080000
   6729   6732     1   0.10969 276646.080000
   6734   6744     1   0.09730 310787.520000
   6738   6739     1   0.10969 276646.080000
   6738   6740     1   0.10969 276646.080000
   6743   6745     1   0.09730 310787.520000
   6747   6748     1   0.10129 337397.760000
   6749   6750     1   0.10969 276646.080000
   6749   6752     1   0.10969 276646.080000
   6751   6753     1   0.10910 283424.160000
   6751   6754     1   0.10910 283424.160000
   6755   6776     1   0.10304 312293.760000
   6756   6766     1   0.10910 283424.160000
   6756   6767     1   0.10910 283424.160000
   6757   6758     1   0.10910 283424.160000
   6757   6760     1   0.10910 283424.160000
   6759   6761     1   0.10969 276646.080000
   6759   6762     1   0.10969 276646.080000
   6764   6774     1   0.09730 310787.520000
   6768   6769     1   0.10969 276646.080000
   6768   6770     1   0.10969 276646.080000
   6773   6775     1   0.09730 310787.520000
   6777   6778     1   0.10129 337397.760000
   6779   6780     1   0.10969 276646.080000
   6779   6782     1   0.10969 276646.080000
   6781   6783     1   0.10910 283424.160000
   6781   6784     1   0.10910 283424.160000
   6785   6806     1   0.10304 312293.760000
   6786   6796     1   0.10910 283424.160000
   6786   6797     1   0.10910 283424.160000
   6787   6788     1   0.10910 283424.160000
   6787   6790     1   0.10910 283424.160000
   6789   6791     1   0.10969 276646.080000
   6789   6792     1   0.10969 276646.080000
   6794   6804     1   0.09730 310787.520000
   6798   6799     1   0.10969 276646.080000
   6798   6800     1   0.10969 276646.080000
   6803   6805     1   0.09730 310787.520000
   6807   6808     1   0.10129 337397.760000
   6809   6810     1   0.10969 276646.080000
   6809   6812     1   0.10969 276646.080000
   6811   6813     1   0.10910 283424.160000
   6811   6814     1   0.10910 283424.160000
   6815   6836     1   0.10304 312293.760000
   6816   6826     1   0.10910 283424.160000
   6816   6827     1   0.10910 283424.160000
   6817   6818     1   0.10910 283424.160000
   6817   6820     1   0.10910 283424.160000
   6819   6821     1   0.10969 276646.080000
   6819   6822     1   0.10969 276646.080000
   6824   6834     1   0.09730 310787.520000
   6828   6829     1   0.10969 276646.080000
   6828   6830     1   0.10969 276646.080000
   6833   6835     1   0.09730 310787.520000
   6837   6838     1   0.10129 337397.760000
   6839   6840     1   0.10969 276646.080000
   6839   6842     1   0.10969 276646.080000
   6841   6843     1   0.10910 283424.160000
   6841   6844     1   0.10910 283424.160000
   6845   6866     1   0.10304 312293.760000
   6846   6856     1   0.10910 283424.160000
   6846   6857     1   0.10910 283424.160000
   6847   6848     1   0.10910 283424.160000
   6847   6850     1   0.10910 283424.160000
   6849   6851     1   0.10969 276646.080000
   6849   6852     1   0.10969 276646.080000
   6854   6864     1   0.09730 310787.520000
   6858   6859     1   0.10969 276646.080000
   6858   6860     1   0.10969 276646.080000
   6863   6865     1   0.09730 310787.520000
   6867   6868     1   0.10129 337397.760000
   6869   6870     1   0.10969 276646.080000
   6869   6872     1   0.10969 276646.080000
   6871   6873     1   0.10910 283424.160000
   6871   6874     1   0.10910 283424.160000
   6875   6896     1   0.10304 312293.760000
   6876   6886     1   0.10910 283424.160000
   6876   6887     1   0.10910 283424.160000
   6877   6878     1   0.10910 283424.160000
   6877   6880     1   0.10910 283424.160000
   6879   6881     1   0.10969 276646.080000
   6879   6882     1   0.10969 276646.080000
   6884   6894     1   0.09730 310787.520000
   6888   6889     1   0.10969 276646.080000
   6888   6890     1   0.10969 276646.080000
   6893   6895     1   0.09730 310787.520000
   6897   6898     1   0.10129 337397.760000
   6899   6900     1   0.10969 276646.080000
   6899   6902     1   0.10969 276646.080000
   6901   6903     1   0.10910 283424.160000
   6901   6904     1   0.10910 283424.160000
   6905   6926     1   0.10304 312293.760000
   6906   6916     1   0.10910 283424.160000
   6906   6917     1   0.10910 283424.160000
   6907   6908     1   0.10910 283424.160000
   6907   6910     1   0.10910 283424.160000
   6909   6911     1   0.10969 276646.080000
   6909   6912     1   0.10969 276646.080000
   6914   6924     1   0.09730 310787.520000
   6918   6919     1   0.10969 276646.080000
   6918   6920     1   0.10969 276646.080000
   6923   6925     1   0.09730 310787.520000
   6927   6928     1   0.10129 337397.760000
   6929   6930     1   0.10969 276646.080000
   6929   6932     1   0.10969 276646.080000
   6931   6933     1   0.10910 283424.160000
   6931   6934     1   0.10910 283424.160000
   6935   6956     1   0.10304 312293.760000
   6936   6946     1   0.10910 283424.160000
   6936   6947     1   0.10910 283424.160000
   6937   6938     1   0.10910 283424.160000
   6937   6940     1   0.10910 283424.160000
   6939   6941     1   0.10969 276646.080000
   6939   6942     1   0.10969 276646.080000
   6944   6954     1   0.09730 310787.520000
   6948   6949     1   0.10969 276646.080000
   6948   6950     1   0.10969 276646.080000
   6953   6955     1   0.09730 310787.520000
   6957   6958     1   0.10129 337397.760000
   6959   6960     1   0.10969 276646.080000
   6959   6962     1   0.10969 276646.080000
   6961   6963     1   0.10910 283424.160000
   6961   6964     1   0.10910 283424.160000
   6965   6986     1   0.10304 312293.760000
   6966   6976     1   0.10910 283424.160000
   6966   6977     1   0.10910 283424.160000
   6967   6968     1   0.10910 283424.160000
   6967   6970     1   0.10910 283424.160000
   6969   6971     1   0.10969 276646.080000
   6969   6972     1   0.10969 276646.080000
   6974   6984     1   0.09730 310787.520000
   6978   6979     1   0.10969 276646.080000
   6978   6980     1   0.10969 276646.080000
   6983   6985     1   0.09730 310787.520000
   6987   6988     1   0.10129 337397.760000
   6989   6990     1   0.10969 276646.080000
   6989   6992     1   0.10969 276646.080000
   6991   6993     1   0.10910 283424.160000
   6991   6994     1   0.10910 283424.160000
   6995   7016     1   0.10304 312293.760000
   6996   7006     1   0.10910 283424.160000
   6996   7007     1   0.10910 283424.160000
   6997   6998     1   0.10910 283424.160000
   6997   7000     1   0.10910 283424.160000
   6999   7001     1   0.10969 276646.080000
   6999   7002     1   0.10969 276646.080000
   7004   7014     1   0.09730 310787.520000
   7008   7009     1   0.10969 276646.080000
   7008   7010     1   0.10969 276646.080000
   7013   7015     1   0.09730 310787.520000
   7017   7018     1   0.10129 337397.760000
   7019   7020     1   0.10969 276646.080000
   7019   7022     1   0.10969 276646.080000
   7021   7023     1   0.10910 283424.160000
   7021   7024     1   0.10910 283424.160000
   7025   7046     1   0.10304 312293.760000
   7026   7036     1   0.10910 283424.160000
   7026   7037     1   0.10910 283424.160000
   7027   7028     1   0.10910 283424.160000
   7027   7030     1   0.10910 283424.160000
   7029   7031     1   0.10969 276646.080000
   7029   7032     1   0.10969 276646.080000
   7034   7044     1   0.09730 310787.520000
   7038   7039     1   0.10969 276646.080000
   7038   7040     1   0.10969 276646.080000
   7043   7045     1   0.09730 310787.520000
   7047   7048     1   0.10129 337397.760000
   7049   7050     1   0.10969 276646.080000
   7049   7052     1   0.10969 276646.080000
   7051   7053     1   0.10910 283424.160000
   7051   7054     1   0.10910 283424.160000
   7055   7076     1   0.10304 312293.760000
   7056   7066     1   0.10910 283424.160000
   7056   7067     1   0.10910 283424.160000
   7057   7058     1   0.10910 283424.160000
   7057   7060     1   0.10910 283424.160000
   7059   7061     1   0.10969 276646.080000
   7059   7062     1   0.10969 276646.080000
   7064   7074     1   0.09730 310787.520000
   7068   7069     1   0.10969 276646.080000
   7068   7070     1   0.10969 276646.080000
   7073   7075     1   0.09730 310787.520000
   7077   7078     1   0.10129 337397.760000
   7079   7080     1   0.10969 276646.080000
   7079   7082     1   0.10969 276646.080000
   7081   7083     1   0.10910 283424.160000
   7081   7084     1   0.10910 283424.160000
   7085   7106     1   0.10304 312293.760000
   7086   7096     1   0.10910 283424.160000
   7086   7097     1   0.10910 283424.160000
   7087   7088     1   0.10910 283424.160000
   7087   7090     1   0.10910 283424.160000
   7089   7091     1   0.10969 276646.080000
   7089   7092     1   0.10969 276646.080000
   7094   7104     1   0.09730 310787.520000
   7098   7099     1   0.10969 276646.080000
   7098   7100     1   0.10969 276646.080000
   7103   7105     1   0.09730 310787.520000

[ pairs ]
;    ai     aj funct         c0         c1         c2         c3
      1      4     1
      1     14     1
      1     16     1
      2     13     1
      2     15     1
      2      5     1
      2      6     1
      7      3     1
      8      3     1
      3     11     1
      3      9     1
      4     12     1
      4     10     1
      5      9     1
      5     17     1
      5     78     1
      6     11     1
      6     18     1
      6     52     1
      7     15     1
      7     20     1
      7    104     1
      8     13     1
      8     19     1
      8    130     1
      9     51     1
     10     50     1
     11     77     1
     12     76     1
     13    103     1
     14    102     1
     15    129     1
     16    128     1
     17     77     1
     18     51     1
     19    129     1
     20    103     1
     43     47     1
     43     49     1
     43     52     1
     44     48     1
     44     51     1
     44     53     1
     44    156     1
     45     46     1
     45     51     1
     45     54     1
     45    182     1
     46     50     1
     46    155     1
     47    154     1
     48     50     1
     48    181     1
     49    180     1
     53    155     1
     54    181     1
     69     73     1
     69     75     1
     69     78     1
     70     74     1
     70     77     1
     70     79     1
     70    208     1
     71     72     1
     71     77     1
     71     80     1
     71    234     1
     72     76     1
     72    207     1
     73    206     1
     74     76     1
     74    233     1
     75    232     1
     79    207     1
     80    233     1
     95     99     1
     95    101     1
     95    104     1
     96    100     1
     96    103     1
     96    105     1
     96    260     1
     97     98     1
     97    103     1
     97    106     1
     97    286     1
     98    102     1
     98    259     1
     99    258     1
    100    102     1
    100    285     1
    101    284     1
    105    259     1
    106    285     1
    121    125     1
    121    127     1
    121    130     1
    122    126     1
    122    129     1
    122    131     1
    122    312     1
    123    124     1
    123    129     1
    123    132     1
    123    338     1
    124    128     1
    124    311     1
    125    310     1
    126    128     1
    126    337     1
    127    336     1
    131    311     1
    132    337     1
    147    151     1
    147    153     1
    147    156     1
    148    152     1
    148    155     1
    148    157     1
    148    364     1
    149    150     1
    149    155     1
    149    158     1
    149    390     1
    150    154     1
    150    363     1
    151    362     1
    152    154     1
    152    389     1
    153    388     1
    157    363     1
    158    389     1
    173    177     1
    173    179     1
    173    182     1
    174    178     1
    174    181     1
    174    183     1
    174    416     1
    175    176     1
    175    181     1
    175    184     1
    175    442     1
    176    180     1
    176    415     1
    177    414     1
    178    180     1
    178    441     1
    179    440     1
    183    415     1
    184    441     1
    199    203     1
    199    205     1
    199    208     1
    200    204     1
    200    207     1
    200    209     1
    200    468     1
    201    202     1
    201    207     1
    201    210     1
    201    494     1
    202    206     1
    202    467     1
    203    466     1
    204    206     1
    204    493     1
    205    492     1
    209    467     1
    210    493     1
    225    229     1
    225    231     1
    225    234     1
    226    230     1
    226    233     1
    226    235     1
    226    520     1
    227    228     1
    227    233     1
    227    236     1
    227    546     1
    228    232     1
    228    519     1
    229    518     1
    230    232     1
    230    545     1
    231    544     1
    235    519     1
    236    545     1
    251    255     1
    251    257     1
    251    260     1
    252    256     1
    252    259     1
    252    261     1
    252    572     1
    253    254     1
    253    259     1
    253    262     1
    253    598     1
    254    258     1
    254    571     1
    255    570     1
    256    258     1
    256    597     1
    257    596     1
    261    571     1
    262    597     1
    277    281     1
    277    283     1
    277    286     1
    278    282     1
    278    285     1
    278    287     1
    278    624     1
    279    280     1
    279    285     1
    279    288     1
    279    650     1
    280    284     1
    280    623     1
    281    622     1
    282    284     1
    282    649     1
    283    648     1
    287    623     1
    288    649     1
    303    307     1
    303    309     1
    303    312     1
    304    308     1
    304    311     1
    304    313     1
    304    676     1
    305    306     1
    305    311     1
    305    314     1
    305    702     1
    306    310     1
    306    675     1
    307    674     1
    308    310     1
    308    701     1
    309    700     1
    313    675     1
    314    701     1
    329    333     1
    329    335     1
    329    338     1
    330    334     1
    330    337     1
    330    339     1
    330    728     1
    331    332     1
    331    337     1
    331    340     1
    331    754     1
    332    336     1
    332    727     1
    333    726     1
    334    336     1
    334    753     1
    335    752     1
    339    727     1
    340    753     1
    355    359     1
    355    361     1
    355    364     1
    356    360     1
    356    363     1
    356    365     1
    356    780     1
    357    358     1
    357    363     1
    357    366     1
    357    806     1
    358    362     1
    358    779     1
    359    778     1
    360    362     1
    360    805     1
    361    804     1
    365    779     1
    366    805     1
    381    385     1
    381    387     1
    381    390     1
    382    386     1
    382    389     1
    382    391     1
    382    832     1
    383    384     1
    383    389     1
    383    392     1
    383    858     1
    384    388     1
    384    831     1
    385    830     1
    386    388     1
    386    857     1
    387    856     1
    391    831     1
    392    857     1
    407    411     1
    407    413     1
    407    416     1
    408    412     1
    408    415     1
    408    417     1
    408    884     1
    409    410     1
    409    415     1
    409    418     1
    409    910     1
    410    414     1
    410    883     1
    411    882     1
    412    414     1
    412    909     1
    413    908     1
    417    883     1
    418    909     1
    433    437     1
    433    439     1
    433    442     1
    434    438     1
    434    441     1
    434    443     1
    434    936     1
    435    436     1
    435    441     1
    435    444     1
    435    962     1
    436    440     1
    436    935     1
    437    934     1
    438    440     1
    438    961     1
    439    960     1
    443    935     1
    444    961     1
    459    463     1
    459    465     1
    459    468     1
    460    464     1
    460    467     1
    460    469     1
    460    988     1
    461    462     1
    461    467     1
    461    470     1
    461   1014     1
    462    466     1
    462    987     1
    463    986     1
    464    466     1
    464   1013     1
    465   1012     1
    469    987     1
    470   1013     1
    485    489     1
    485    491     1
    485    494     1
    486    490     1
    486    493     1
    486    495     1
    486   1040     1
    487    488     1
    487    493     1
    487    496     1
    487   1066     1
    488    492     1
    488   1039     1
    489   1038     1
    490    492     1
    490   1065     1
    491   1064     1
    495   1039     1
    496   1065     1
    511    515     1
    511    517     1
    511    520     1
    512    516     1
    512    519     1
    512    521     1
    512   1092     1
    513    514     1
    513    519     1
    513    522     1
    513   1118     1
    514    518     1
    514   1091     1
    515   1090     1
    516    518     1
    516   1117     1
    517   1116     1
    521   1091     1
    522   1117     1
    537    541     1
    537    543     1
    537    546     1
    538    542     1
    538    545     1
    538    547     1
    538   1144     1
    539    540     1
    539    545     1
    539    548     1
    539   1170     1
    540    544     1
    540   1143     1
    541   1142     1
    542    544     1
    542   1169     1
    543   1168     1
    547   1143     1
    548   1169     1
    563    567     1
    563    569     1
    563    572     1
    564    568     1
    564    571     1
    564    573     1
    564   1196     1
    565    566     1
    565    571     1
    565    574     1
    565   1222     1
    566    570     1
    566   1195     1
    567   1194     1
    568    570     1
    568   1221     1
    569   1220     1
    573   1195     1
    574   1221     1
    589    593     1
    589    595     1
    589    598     1
    590    594     1
    590    597     1
    590    599     1
    590   1248     1
    591    592     1
    591    597     1
    591    600     1
    591   1274     1
    592    596     1
    592   1247     1
    593   1246     1
    594    596     1
    594   1273     1
    595   1272     1
    599   1247     1
    600   1273     1
    615    619     1
    615    621     1
    615    624     1
    616    620     1
    616    623     1
    616    625     1
    616   1300     1
    617    618     1
    617    623     1
    617    626     1
    617   1326     1
    618    622     1
    618   1299     1
    619   1298     1
    620    622     1
    620   1325     1
    621   1324     1
    625   1299     1
    626   1325     1
    641    645     1
    641    647     1
    641    650     1
    642    646     1
    642    649     1
    642    651     1
    642   1352     1
    643    644     1
    643    649     1
    643    652     1
    643   1378     1
    644    648     1
    644   1351     1
    645   1350     1
    646    648     1
    646   1377     1
    647   1376     1
    651   1351     1
    652   1377     1
    667    671     1
    667    673     1
    667    676     1
    668    672     1
    668    675     1
    668    677     1
    668   1404     1
    669    670     1
    669    675     1
    669    678     1
    669   1430     1
    670    674     1
    670   1403     1
    671   1402     1
    672    674     1
    672   1429     1
    673   1428     1
    677   1403     1
    678   1429     1
    693    697     1
    693    699     1
    693    702     1
    694    698     1
    694    701     1
    694    703     1
    694   1456     1
    695    696     1
    695    701     1
    695    704     1
    695   1482     1
    696    700     1
    696   1455     1
    697   1454     1
    698    700     1
    698   1481     1
    699   1480     1
    703   1455     1
    704   1481     1
    719    723     1
    719    725     1
    719    728     1
    720    724     1
    720    727     1
    720    729     1
    720   1508     1
    721    722     1
    721    727     1
    721    730     1
    721   1534     1
    722    726     1
    722   1507     1
    723   1506     1
    724    726     1
    724   1533     1
    725   1532     1
    729   1507     1
    730   1533     1
    745    749     1
    745    751     1
    745    754     1
    746    750     1
    746    753     1
    746    755     1
    746   1560     1
    747    748     1
    747    753     1
    747    756     1
    747   1586     1
    748    752     1
    748   1559     1
    749   1558     1
    750    752     1
    750   1585     1
    751   1584     1
    755   1559     1
    756   1585     1
    771    775     1
    771    777     1
    771    780     1
    772    776     1
    772    779     1
    772    781     1
    772   1612     1
    773    774     1
    773    779     1
    773    782     1
    773   1638     1
    774    778     1
    774   1611     1
    775   1610     1
    776    778     1
    776   1637     1
    777   1636     1
    781   1611     1
    782   1637     1
    797    801     1
    797    803     1
    797    806     1
    798    802     1
    798    805     1
    798    807     1
    798   1664     1
    799    800     1
    799    805     1
    799    808     1
    799   1690     1
    800    804     1
    800   1663     1
    801   1662     1
    802    804     1
    802   1689     1
    803   1688     1
    807   1663     1
    808   1689     1
    823    827     1
    823    829     1
    823    832     1
    824    828     1
    824    831     1
    824    833     1
    824   1716     1
    825    826     1
    825    831     1
    825    834     1
    825   1742     1
    826    830     1
    826   1715     1
    827   1714     1
    828    830     1
    828   1741     1
    829   1740     1
    833   1715     1
    834   1741     1
    849    853     1
    849    855     1
    849    858     1
    850    854     1
    850    857     1
    850    859     1
    850   1768     1
    851    852     1
    851    857     1
    851    860     1
    851   1794     1
    852    856     1
    852   1767     1
    853   1766     1
    854    856     1
    854   1793     1
    855   1792     1
    859   1767     1
    860   1793     1
    875    879     1
    875    881     1
    875    884     1
    876    880     1
    876    883     1
    876    885     1
    876   1820     1
    877    878     1
    877    883     1
    877    886     1
    877   1846     1
    878    882     1
    878   1819     1
    879   1818     1
    880    882     1
    880   1845     1
    881   1844     1
    885   1819     1
    886   1845     1
    901    905     1
    901    907     1
    901    910     1
    902    906     1
    902    909     1
    902    911     1
    902   1872     1
    903    904     1
    903    909     1
    903    912     1
    903   1898     1
    904    908     1
    904   1871     1
    905   1870     1
    906    908     1
    906   1897     1
    907   1896     1
    911   1871     1
    912   1897     1
    927    931     1
    927    933     1
    927    936     1
    928    932     1
    928    935     1
    928    937     1
    928   1924     1
    929    930     1
    929    935     1
    929    938     1
    929   1950     1
    930    934     1
    930   1923     1
    931   1922     1
    932    934     1
    932   1949     1
    933   1948     1
    937   1923     1
    938   1949     1
    953    957     1
    953    959     1
    953    962     1
    954    958     1
    954    961     1
    954    963     1
    954   1976     1
    955    956     1
    955    961     1
    955    964     1
    955   2002     1
    956    960     1
    956   1975     1
    957   1974     1
    958    960     1
    958   2001     1
    959   2000     1
    963   1975     1
    964   2001     1
    979    983     1
    979    985     1
    979    988     1
    980    984     1
    980    987     1
    980    989     1
    980   2028     1
    981    982     1
    981    987     1
    981    990     1
    981   2054     1
    982    986     1
    982   2027     1
    983   2026     1
    984    986     1
    984   2053     1
    985   2052     1
    989   2027     1
    990   2053     1
   1005   1009     1
   1005   1011     1
   1005   1014     1
   1006   1010     1
   1006   1013     1
   1006   1015     1
   1006   2080     1
   1007   1008     1
   1007   1013     1
   1007   1016     1
   1007   2106     1
   1008   1012     1
   1008   2079     1
   1009   2078     1
   1010   1012     1
   1010   2105     1
   1011   2104     1
   1015   2079     1
   1016   2105     1
   1031   1035     1
   1031   1037     1
   1031   1040     1
   1032   1036     1
   1032   1039     1
   1032   1041     1
   1032   2132     1
   1033   1034     1
   1033   1039     1
   1033   1042     1
   1033   2158     1
   1034   1038     1
   1034   2131     1
   1035   2130     1
   1036   1038     1
   1036   2157     1
   1037   2156     1
   1041   2131     1
   1042   2157     1
   1057   1061     1
   1057   1063     1
   1057   1066     1
   1058   1062     1
   1058   1065     1
   1058   1067     1
   1058   2184     1
   1059   1060     1
   1059   1065     1
   1059   1068     1
   1059   2210     1
   1060   1064     1
   1060   2183     1
   1061   2182     1
   1062   1064     1
   1062   2209     1
   1063   2208     1
   1067   2183     1
   1068   2209     1
   1083   1087     1
   1083   1089     1
   1083   1092     1
   1084   1088     1
   1084   1091     1
   1084   1093     1
   1084   2236     1
   1085   1086     1
   1085   1091     1
   1085   1094     1
   1085   2262     1
   1086   1090     1
   1086   2235     1
   1087   2234     1
   1088   1090     1
   1088   2261     1
   1089   2260     1
   1093   2235     1
   1094   2261     1
   1109   1113     1
   1109   1115     1
   1109   1118     1
   1110   1114     1
   1110   1117     1
   1110   1119     1
   1110   2288     1
   1111   1112     1
   1111   1117     1
   1111   1120     1
   1111   2314     1
   1112   1116     1
   1112   2287     1
   1113   2286     1
   1114   1116     1
   1114   2313     1
   1115   2312     1
   1119   2287     1
   1120   2313     1
   1135   1139     1
   1135   1141     1
   1135   1144     1
   1136   1140     1
   1136   1143     1
   1136   1145     1
   1136   2340     1
   1137   1138     1
   1137   1143     1
   1137   1146     1
   1137   2366     1
   1138   1142     1
   1138   2339     1
   1139   2338     1
   1140   1142     1
   1140   2365     1
   1141   2364     1
   1145   2339     1
   1146   2365     1
   1161   1165     1
   1161   1167     1
   1161   1170     1
   1162   1166     1
   1162   1169     1
   1162   1171     1
   1162   2392     1
   1163   1164     1
   1163   1169     1
   1163   1172     1
   1163   2418     1
   1164   1168     1
   1164   2391     1
   1165   2390     1
   1166   1168     1
   1166   2417     1
   1167   2416     1
   1171   2391     1
   1172   2417     1
   1187   1191     1
   1187   1193     1
   1187   1196     1
   1188   1192     1
   1188   1195     1
   1188   1197     1
   1188   2444     1
   1189   1190     1
   1189   1195     1
   1189   1198     1
   1189   2470     1
   1190   1194     1
   1190   2443     1
   1191   2442     1
   1192   1194     1
   1192   2469     1
   1193   2468     1
   1197   2443     1
   1198   2469     1
   1213   1217     1
   1213   1219     1
   1213   1222     1
   1214   1218     1
   1214   1221     1
   1214   1223     1
   1214   2496     1
   1215   1216     1
   1215   1221     1
   1215   1224     1
   1215   2522     1
   1216   1220     1
   1216   2495     1
   1217   2494     1
   1218   1220     1
   1218   2521     1
   1219   2520     1
   1223   2495     1
   1224   2521     1
   1239   1243     1
   1239   1245     1
   1239   1248     1
   1240   1244     1
   1240   1247     1
   1240   1249     1
   1240   2548     1
   1241   1242     1
   1241   1247     1
   1241   1250     1
   1241   2574     1
   1242   1246     1
   1242   2547     1
   1243   2546     1
   1244   1246     1
   1244   2573     1
   1245   2572     1
   1249   2547     1
   1250   2573     1
   1265   1269     1
   1265   1271     1
   1265   1274     1
   1266   1270     1
   1266   1273     1
   1266   1275     1
   1266   2600     1
   1267   1268     1
   1267   1273     1
   1267   1276     1
   1267   2626     1
   1268   1272     1
   1268   2599     1
   1269   2598     1
   1270   1272     1
   1270   2625     1
   1271   2624     1
   1275   2599     1
   1276   2625     1
   1291   1295     1
   1291   1297     1
   1291   1300     1
   1292   1296     1
   1292   1299     1
   1292   1301     1
   1292   2652     1
   1293   1294     1
   1293   1299     1
   1293   1302     1
   1293   2678     1
   1294   1298     1
   1294   2651     1
   1295   2650     1
   1296   1298     1
   1296   2677     1
   1297   2676     1
   1301   2651     1
   1302   2677     1
   1317   1321     1
   1317   1323     1
   1317   1326     1
   1318   1322     1
   1318   1325     1
   1318   1327     1
   1318   2704     1
   1319   1320     1
   1319   1325     1
   1319   1328     1
   1319   2730     1
   1320   1324     1
   1320   2703     1
   1321   2702     1
   1322   1324     1
   1322   2729     1
   1323   2728     1
   1327   2703     1
   1328   2729     1
   1343   1347     1
   1343   1349     1
   1343   1352     1
   1344   1348     1
   1344   1351     1
   1344   1353     1
   1344   2756     1
   1345   1346     1
   1345   1351     1
   1345   1354     1
   1345   2782     1
   1346   1350     1
   1346   2755     1
   1347   2754     1
   1348   1350     1
   1348   2781     1
   1349   2780     1
   1353   2755     1
   1354   2781     1
   1369   1373     1
   1369   1375     1
   1369   1378     1
   1370   1374     1
   1370   1377     1
   1370   1379     1
   1370   2808     1
   1371   1372     1
   1371   1377     1
   1371   1380     1
   1371   2834     1
   1372   1376     1
   1372   2807     1
   1373   2806     1
   1374   1376     1
   1374   2833     1
   1375   2832     1
   1379   2807     1
   1380   2833     1
   1395   1399     1
   1395   1401     1
   1395   1404     1
   1396   1400     1
   1396   1403     1
   1396   1405     1
   1396   2860     1
   1397   1398     1
   1397   1403     1
   1397   1406     1
   1397   2886     1
   1398   1402     1
   1398   2859     1
   1399   2858     1
   1400   1402     1
   1400   2885     1
   1401   2884     1
   1405   2859     1
   1406   2885     1
   1421   1425     1
   1421   1427     1
   1421   1430     1
   1422   1426     1
   1422   1429     1
   1422   1431     1
   1422   2912     1
   1423   1424     1
   1423   1429     1
   1423   1432     1
   1423   2938     1
   1424   1428     1
   1424   2911     1
   1425   2910     1
   1426   1428     1
   1426   2937     1
   1427   2936     1
   1431   2911     1
   1432   2937     1
   1447   1451     1
   1447   1453     1
   1447   1456     1
   1448   1452     1
   1448   1455     1
   1448   1457     1
   1448   2964     1
   1449   1450     1
   1449   1455     1
   1449   1458     1
   1449   2990     1
   1450   1454     1
   1450   2963     1
   1451   2962     1
   1452   1454     1
   1452   2989     1
   1453   2988     1
   1457   2963     1
   1458   2989     1
   1473   1477     1
   1473   1479     1
   1473   1482     1
   1474   1478     1
   1474   1481     1
   1474   1483     1
   1474   3016     1
   1475   1476     1
   1475   1481     1
   1475   1484     1
   1475   3042     1
   1476   1480     1
   1476   3015     1
   1477   3014     1
   1478   1480     1
   1478   3041     1
   1479   3040     1
   1483   3015     1
   1484   3041     1
   1499   1503     1
   1499   1505     1
   1499   1508     1
   1500   1504     1
   1500   1507     1
   1500   1509     1
   1500   3068     1
   1501   1502     1
   1501   1507     1
   1501   1510     1
   1501   3094     1
   1502   1506     1
   1502   3067     1
   1503   3066     1
   1504   1506     1
   1504   3093     1
   1505   3092     1
   1509   3067     1
   1510   3093     1
   1525   1529     1
   1525   1531     1
   1525   1534     1
   1526   1530     1
   1526   1533     1
   1526   1535     1
   1526   3120     1
   1527   1528     1
   1527   1533     1
   1527   1536     1
   1527   3146     1
   1528   1532     1
   1528   3119     1
   1529   3118     1
   1530   1532     1
   1530   3145     1
   1531   3144     1
   1535   3119     1
   1536   3145     1
   1551   1555     1
   1551   1557     1
   1551   1560     1
   1552   1556     1
   1552   1559     1
   1552   1561     1
   1552   3172     1
   1553   1554     1
   1553   1559     1
   1553   1562     1
   1553   3198     1
   1554   1558     1
   1554   3171     1
   1555   3170     1
   1556   1558     1
   1556   3197     1
   1557   3196     1
   1561   3171     1
   1562   3197     1
   1577   1581     1
   1577   1583     1
   1577   1586     1
   1578   1582     1
   1578   1585     1
   1578   1587     1
   1578   3224     1
   1579   1580     1
   1579   1585     1
   1579   1588     1
   1579   3250     1
   1580   1584     1
   1580   3223     1
   1581   3222     1
   1582   1584     1
   1582   3249     1
   1583   3248     1
   1587   3223     1
   1588   3249     1
   1603   1607     1
   1603   1609     1
   1603   1612     1
   1604   1608     1
   1604   1611     1
   1604   3267     1
   1604   1613     1
   1605   1606     1
   1605   1611     1
   1605   1614     1
   1605   3297     1
   1606   1610     1
   1606   3269     1
   1607   3271     1
   1608   1610     1
   1608   3299     1
   1609   3301     1
   1613   3269     1
   1614   3299     1
   1629   1633     1
   1629   1635     1
   1629   1638     1
   1630   1634     1
   1630   1637     1
   1630   3327     1
   1630   1639     1
   1631   1632     1
   1631   1637     1
   1631   1640     1
   1631   3357     1
   1632   1636     1
   1632   3329     1
   1633   3331     1
   1634   1636     1
   1634   3359     1
   1635   3361     1
   1639   3329     1
   1640   3359     1
   1655   1659     1
   1655   1661     1
   1655   1664     1
   1656   1660     1
   1656   1663     1
   1656   3387     1
   1656   1665     1
   1657   1658     1
   1657   1663     1
   1657   1666     1
   1657   3417     1
   1658   1662     1
   1658   3389     1
   1659   3391     1
   1660   1662     1
   1660   3419     1
   1661   3421     1
   1665   3389     1
   1666   3419     1
   1681   1685     1
   1681   1687     1
   1681   1690     1
   1682   1686     1
   1682   1689     1
   1682   3447     1
   1682   1691     1
   1683   1684     1
   1683   1689     1
   1683   1692     1
   1683   3477     1
   1684   1688     1
   1684   3449     1
   1685   3451     1
   1686   1688     1
   1686   3479     1
   1687   3481     1
   1691   3449     1
   1692   3479     1
   1707   1711     1
   1707   1713     1
   1707   1716     1
   1708   1712     1
   1708   1715     1
   1708   3507     1
   1708   1717     1
   1709   1710     1
   1709   1715     1
   1709   1718     1
   1709   3537     1
   1710   1714     1
   1710   3509     1
   1711   3511     1
   1712   1714     1
   1712   3539     1
   1713   3541     1
   1717   3509     1
   1718   3539     1
   1733   1737     1
   1733   1739     1
   1733   1742     1
   1734   1738     1
   1734   1741     1
   1734   3567     1
   1734   1743     1
   1735   1736     1
   1735   1741     1
   1735   1744     1
   1735   3597     1
   1736   1740     1
   1736   3569     1
   1737   3571     1
   1738   1740     1
   1738   3599     1
   1739   3601     1
   1743   3569     1
   1744   3599     1
   1759   1763     1
   1759   1765     1
   1759   1768     1
   1760   1764     1
   1760   1767     1
   1760   3627     1
   1760   1769     1
   1761   1762     1
   1761   1767     1
   1761   1770     1
   1761   3657     1
   1762   1766     1
   1762   3629     1
   1763   3631     1
   1764   1766     1
   1764   3659     1
   1765   3661     1
   1769   3629     1
   1770   3659     1
   1785   1789     1
   1785   1791     1
   1785   1794     1
   1786   1790     1
   1786   1793     1
   1786   3687     1
   1786   1795     1
   1787   1788     1
   1787   1793     1
   1787   1796     1
   1787   3717     1
   1788   1792     1
   1788   3689     1
   1789   3691     1
   1790   1792     1
   1790   3719     1
   1791   3721     1
   1795   3689     1
   1796   3719     1
   1811   1815     1
   1811   1817     1
   1811   1820     1
   1812   1816     1
   1812   1819     1
   1812   3747     1
   1812   1821     1
   1813   1814     1
   1813   1819     1
   1813   1822     1
   1813   3777     1
   1814   1818     1
   1814   3749     1
   1815   3751     1
   1816   1818     1
   1816   3779     1
   1817   3781     1
   1821   3749     1
   1822   3779     1
   1837   1841     1
   1837   1843     1
   1837   1846     1
   1838   1842     1
   1838   1845     1
   1838   3807     1
   1838   1847     1
   1839   1840     1
   1839   1845     1
   1839   1848     1
   1839   3837     1
   1840   1844     1
   1840   3809     1
   1841   3811     1
   1842   1844     1
   1842   3839     1
   1843   3841     1
   1847   3809     1
   1848   3839     1
   1863   1867     1
   1863   1869     1
   1863   1872     1
   1864   1868     1
   1864   1871     1
   1864   3867     1
   1864   1873     1
   1865   1866     1
   1865   1871     1
   1865   1874     1
   1865   3897     1
   1866   1870     1
   1866   3869     1
   1867   3871     1
   1868   1870     1
   1868   3899     1
   1869   3901     1
   1873   3869     1
   1874   3899     1
   1889   1893     1
   1889   1895     1
   1889   1898     1
   1890   1894     1
   1890   1897     1
   1890   3927     1
   1890   1899     1
   1891   1892     1
   1891   1897     1
   1891   1900     1
   1891   3957     1
   1892   1896     1
   1892   3929     1
   1893   3931     1
   1894   1896     1
   1894   3959     1
   1895   3961     1
   1899   3929     1
   1900   3959     1
   1915   1919     1
   1915   1921     1
   1915   1924     1
   1916   1920     1
   1916   1923     1
   1916   3987     1
   1916   1925     1
   1917   1918     1
   1917   1923     1
   1917   1926     1
   1917   4017     1
   1918   1922     1
   1918   3989     1
   1919   3991     1
   1920   1922     1
   1920   4019     1
   1921   4021     1
   1925   3989     1
   1926   4019     1
   1941   1945     1
   1941   1947     1
   1941   1950     1
   1942   1946     1
   1942   1949     1
   1942   4047     1
   1942   1951     1
   1943   1944     1
   1943   1949     1
   1943   1952     1
   1943   4077     1
   1944   1948     1
   1944   4049     1
   1945   4051     1
   1946   1948     1
   1946   4079     1
   1947   4081     1
   1951   4049     1
   1952   4079     1
   1967   1971     1
   1967   1973     1
   1967   1976     1
   1968   1972     1
   1968   1975     1
   1968   4107     1
   1968   1977     1
   1969   1970     1
   1969   1975     1
   1969   1978     1
   1969   4137     1
   1970   1974     1
   1970   4109     1
   1971   4111     1
   1972   1974     1
   1972   4139     1
   1973   4141     1
   1977   4109     1
   1978   4139     1
   1993   1997     1
   1993   1999     1
   1993   2002     1
   1994   1998     1
   1994   2001     1
   1994   4167     1
   1994   2003     1
   1995   1996     1
   1995   2001     1
   1995   2004     1
   1995   4197     1
   1996   2000     1
   1996   4169     1
   1997   4171     1
   1998   2000     1
   1998   4199     1
   1999   4201     1
   2003   4169     1
   2004   4199     1
   2019   2023     1
   2019   2025     1
   2019   2028     1
   2020   2024     1
   2020   2027     1
   2020   4227     1
   2020   2029     1
   2021   2022     1
   2021   2027     1
   2021   2030     1
   2021   4257     1
   2022   2026     1
   2022   4229     1
   2023   4231     1
   2024   2026     1
   2024   4259     1
   2025   4261     1
   2029   4229     1
   2030   4259     1
   2045   2049     1
   2045   2051     1
   2045   2054     1
   2046   2050     1
   2046   2053     1
   2046   4287     1
   2046   2055     1
   2047   2048     1
   2047   2053     1
   2047   2056     1
   2047   4317     1
   2048   2052     1
   2048   4289     1
   2049   4291     1
   2050   2052     1
   2050   4319     1
   2051   4321     1
   2055   4289     1
   2056   4319     1
   2071   2075     1
   2071   2077     1
   2071   2080     1
   2072   2076     1
   2072   2079     1
   2072   4347     1
   2072   2081     1
   2073   2074     1
   2073   2079     1
   2073   2082     1
   2073   4377     1
   2074   2078     1
   2074   4349     1
   2075   4351     1
   2076   2078     1
   2076   4379     1
   2077   4381     1
   2081   4349     1
   2082   4379     1
   2097   2101     1
   2097   2103     1
   2097   2106     1
   2098   2102     1
   2098   2105     1
   2098   4407     1
   2098   2107     1
   2099   2100     1
   2099   2105     1
   2099   2108     1
   2099   4437     1
   2100   2104     1
   2100   4409     1
   2101   4411     1
   2102   2104     1
   2102   4439     1
   2103   4441     1
   2107   4409     1
   2108   4439     1
   2123   2127     1
   2123   2129     1
   2123   2132     1
   2124   2128     1
   2124   2131     1
   2124   4467     1
   2124   2133     1
   2125   2126     1
   2125   2131     1
   2125   2134     1
   2125   4497     1
   2126   2130     1
   2126   4469     1
   2127   4471     1
   2128   2130     1
   2128   4499     1
   2129   4501     1
   2133   4469     1
   2134   4499     1
   2149   2153     1
   2149   2155     1
   2149   2158     1
   2150   2154     1
   2150   2157     1
   2150   4527     1
   2150   2159     1
   2151   2152     1
   2151   2157     1
   2151   2160     1
   2151   4557     1
   2152   2156     1
   2152   4529     1
   2153   4531     1
   2154   2156     1
   2154   4559     1
   2155   4561     1
   2159   4529     1
   2160   4559     1
   2175   2179     1
   2175   2181     1
   2175   2184     1
   2176   2180     1
   2176   2183     1
   2176   4587     1
   2176   2185     1
   2177   2178     1
   2177   2183     1
   2177   2186     1
   2177   4617     1
   2178   2182     1
   2178   4589     1
   2179   4591     1
   2180   2182     1
   2180   4619     1
   2181   4621     1
   2185   4589     1
   2186   4619     1
   2201   2205     1
   2201   2207     1
   2201   2210     1
   2202   2206     1
   2202   2209     1
   2202   4647     1
   2202   2211     1
   2203   2204     1
   2203   2209     1
   2203   2212     1
   2203   4677     1
   2204   2208     1
   2204   4649     1
   2205   4651     1
   2206   2208     1
   2206   4679     1
   2207   4681     1
   2211   4649     1
   2212   4679     1
   2227   2231     1
   2227   2233     1
   2227   2236     1
   2228   2232     1
   2228   2235     1
   2228   4707     1
   2228   2237     1
   2229   2230     1
   2229   2235     1
   2229   2238     1
   2229   4737     1
   2230   2234     1
   2230   4709     1
   2231   4711     1
   2232   2234     1
   2232   4739     1
   2233   4741     1
   2237   4709     1
   2238   4739     1
   2253   2257     1
   2253   2259     1
   2253   2262     1
   2254   2258     1
   2254   2261     1
   2254   4767     1
   2254   2263     1
   2255   2256     1
   2255   2261     1
   2255   2264     1
   2255   4797     1
   2256   2260     1
   2256   4769     1
   2257   4771     1
   2258   2260     1
   2258   4799     1
   2259   4801     1
   2263   4769     1
   2264   4799     1
   2279   2283     1
   2279   2285     1
   2279   2288     1
   2280   2284     1
   2280   2287     1
   2280   4827     1
   2280   2289     1
   2281   2282     1
   2281   2287     1
   2281   2290     1
   2281   4857     1
   2282   2286     1
   2282   4829     1
   2283   4831     1
   2284   2286     1
   2284   4859     1
   2285   4861     1
   2289   4829     1
   2290   4859     1
   2305   2309     1
   2305   2311     1
   2305   2314     1
   2306   2310     1
   2306   2313     1
   2306   4887     1
   2306   2315     1
   2307   2308     1
   2307   2313     1
   2307   2316     1
   2307   4917     1
   2308   2312     1
   2308   4889     1
   2309   4891     1
   2310   2312     1
   2310   4919     1
   2311   4921     1
   2315   4889     1
   2316   4919     1
   2331   2335     1
   2331   2337     1
   2331   2340     1
   2332   2336     1
   2332   2339     1
   2332   4947     1
   2332   2341     1
   2333   2334     1
   2333   2339     1
   2333   2342     1
   2333   4977     1
   2334   2338     1
   2334   4949     1
   2335   4951     1
   2336   2338     1
   2336   4979     1
   2337   4981     1
   2341   4949     1
   2342   4979     1
   2357   2361     1
   2357   2363     1
   2357   2366     1
   2358   2362     1
   2358   2365     1
   2358   5007     1
   2358   2367     1
   2359   2360     1
   2359   2365     1
   2359   2368     1
   2359   5037     1
   2360   2364     1
   2360   5009     1
   2361   5011     1
   2362   2364     1
   2362   5039     1
   2363   5041     1
   2367   5009     1
   2368   5039     1
   2383   2387     1
   2383   2389     1
   2383   2392     1
   2384   2388     1
   2384   2391     1
   2384   5067     1
   2384   2393     1
   2385   2386     1
   2385   2391     1
   2385   2394     1
   2385   5097     1
   2386   2390     1
   2386   5069     1
   2387   5071     1
   2388   2390     1
   2388   5099     1
   2389   5101     1
   2393   5069     1
   2394   5099     1
   2409   2413     1
   2409   2415     1
   2409   2418     1
   2410   2414     1
   2410   2417     1
   2410   5127     1
   2410   2419     1
   2411   2412     1
   2411   2417     1
   2411   2420     1
   2411   5157     1
   2412   2416     1
   2412   5129     1
   2413   5131     1
   2414   2416     1
   2414   5159     1
   2415   5161     1
   2419   5129     1
   2420   5159     1
   2435   2439     1
   2435   2441     1
   2435   2444     1
   2436   2440     1
   2436   2443     1
   2436   5187     1
   2436   2445     1
   2437   2438     1
   2437   2443     1
   2437   2446     1
   2437   5217     1
   2438   2442     1
   2438   5189     1
   2439   5191     1
   2440   2442     1
   2440   5219     1
   2441   5221     1
   2445   5189     1
   2446   5219     1
   2461   2465     1
   2461   2467     1
   2461   2470     1
   2462   2466     1
   2462   2469     1
   2462   5247     1
   2462   2471     1
   2463   2464     1
   2463   2469     1
   2463   2472     1
   2463   5277     1
   2464   2468     1
   2464   5249     1
   2465   5251     1
   2466   2468     1
   2466   5279     1
   2467   5281     1
   2471   5249     1
   2472   5279     1
   2487   2491     1
   2487   2493     1
   2487   2496     1
   2488   2492     1
   2488   2495     1
   2488   5307     1
   2488   2497     1
   2489   2490     1
   2489   2495     1
   2489   2498     1
   2489   5337     1
   2490   2494     1
   2490   5309     1
   2491   5311     1
   2492   2494     1
   2492   5339     1
   2493   5341     1
   2497   5309     1
   2498   5339     1
   2513   2517     1
   2513   2519     1
   2513   2522     1
   2514   2518     1
   2514   2521     1
   2514   5367     1
   2514   2523     1
   2515   2516     1
   2515   2521     1
   2515   2524     1
   2515   5397     1
   2516   2520     1
   2516   5369     1
   2517   5371     1
   2518   2520     1
   2518   5399     1
   2519   5401     1
   2523   5369     1
   2524   5399     1
   2539   2543     1
   2539   2545     1
   2539   2548     1
   2540   2544     1
   2540   2547     1
   2540   5427     1
   2540   2549     1
   2541   2542     1
   2541   2547     1
   2541   2550     1
   2541   5457     1
   2542   2546     1
   2542   5429     1
   2543   5431     1
   2544   2546     1
   2544   5459     1
   2545   5461     1
   2549   5429     1
   2550   5459     1
   2565   2569     1
   2565   2571     1
   2565   2574     1
   2566   2570     1
   2566   2573     1
   2566   5487     1
   2566   2575     1
   2567   2568     1
   2567   2573     1
   2567   2576     1
   2567   5517     1
   2568   2572     1
   2568   5489     1
   2569   5491     1
   2570   2572     1
   2570   5519     1
   2571   5521     1
   2575   5489     1
   2576   5519     1
   2591   2595     1
   2591   2597     1
   2591   2600     1
   2592   2596     1
   2592   2599     1
   2592   5547     1
   2592   2601     1
   2593   2594     1
   2593   2599     1
   2593   2602     1
   2593   5577     1
   2594   2598     1
   2594   5549     1
   2595   5551     1
   2596   2598     1
   2596   5579     1
   2597   5581     1
   2601   5549     1
   2602   5579     1
   2617   2621     1
   2617   2623     1
   2617   2626     1
   2618   2622     1
   2618   2625     1
   2618   5607     1
   2618   2627     1
   2619   2620     1
   2619   2625     1
   2619   2628     1
   2619   5637     1
   2620   2624     1
   2620   5609     1
   2621   5611     1
   2622   2624     1
   2622   5639     1
   2623   5641     1
   2627   5609     1
   2628   5639     1
   2643   2647     1
   2643   2649     1
   2643   2652     1
   2644   2648     1
   2644   2651     1
   2644   5667     1
   2644   2653     1
   2645   2646     1
   2645   2651     1
   2645   2654     1
   2645   5697     1
   2646   2650     1
   2646   5669     1
   2647   5671     1
   2648   2650     1
   2648   5699     1
   2649   5701     1
   2653   5669     1
   2654   5699     1
   2669   2673     1
   2669   2675     1
   2669   2678     1
   2670   2674     1
   2670   2677     1
   2670   5727     1
   2670   2679     1
   2671   2672     1
   2671   2677     1
   2671   2680     1
   2671   5757     1
   2672   2676     1
   2672   5729     1
   2673   5731     1
   2674   2676     1
   2674   5759     1
   2675   5761     1
   2679   5729     1
   2680   5759     1
   2695   2699     1
   2695   2701     1
   2695   2704     1
   2696   2700     1
   2696   2703     1
   2696   5787     1
   2696   2705     1
   2697   2698     1
   2697   2703     1
   2697   2706     1
   2697   5817     1
   2698   2702     1
   2698   5789     1
   2699   5791     1
   2700   2702     1
   2700   5819     1
   2701   5821     1
   2705   5789     1
   2706   5819     1
   2721   2725     1
   2721   2727     1
   2721   2730     1
   2722   2726     1
   2722   2729     1
   2722   5847     1
   2722   2731     1
   2723   2724     1
   2723   2729     1
   2723   2732     1
   2723   5877     1
   2724   2728     1
   2724   5849     1
   2725   5851     1
   2726   2728     1
   2726   5879     1
   2727   5881     1
   2731   5849     1
   2732   5879     1
   2747   2751     1
   2747   2753     1
   2747   2756     1
   2748   2752     1
   2748   2755     1
   2748   5907     1
   2748   2757     1
   2749   2750     1
   2749   2755     1
   2749   2758     1
   2749   5937     1
   2750   2754     1
   2750   5909     1
   2751   5911     1
   2752   2754     1
   2752   5939     1
   2753   5941     1
   2757   5909     1
   2758   5939     1
   2773   2777     1
   2773   2779     1
   2773   2782     1
   2774   2778     1
   2774   2781     1
   2774   5967     1
   2774   2783     1
   2775   2776     1
   2775   2781     1
   2775   2784     1
   2775   5997     1
   2776   2780     1
   2776   5969     1
   2777   5971     1
   2778   2780     1
   2778   5999     1
   2779   6001     1
   2783   5969     1
   2784   5999     1
   2799   2803     1
   2799   2805     1
   2799   2808     1
   2800   2804     1
   2800   2807     1
   2800   6027     1
   2800   2809     1
   2801   2802     1
   2801   2807     1
   2801   2810     1
   2801   6057     1
   2802   2806     1
   2802   6029     1
   2803   6031     1
   2804   2806     1
   2804   6059     1
   2805   6061     1
   2809   6029     1
   2810   6059     1
   2825   2829     1
   2825   2831     1
   2825   2834     1
   2826   2830     1
   2826   2833     1
   2826   6087     1
   2826   2835     1
   2827   2828     1
   2827   2833     1
   2827   2836     1
   2827   6117     1
   2828   2832     1
   2828   6089     1
   2829   6091     1
   2830   2832     1
   2830   6119     1
   2831   6121     1
   2835   6089     1
   2836   6119     1
   2851   2855     1
   2851   2857     1
   2851   2860     1
   2852   2856     1
   2852   2859     1
   2852   6147     1
   2852   2861     1
   2853   2854     1
   2853   2859     1
   2853   2862     1
   2853   6177     1
   2854   2858     1
   2854   6149     1
   2855   6151     1
   2856   2858     1
   2856   6179     1
   2857   6181     1
   2861   6149     1
   2862   6179     1
   2877   2881     1
   2877   2883     1
   2877   2886     1
   2878   2882     1
   2878   2885     1
   2878   6207     1
   2878   2887     1
   2879   2880     1
   2879   2885     1
   2879   2888     1
   2879   6237     1
   2880   2884     1
   2880   6209     1
   2881   6211     1
   2882   2884     1
   2882   6239     1
   2883   6241     1
   2887   6209     1
   2888   6239     1
   2903   2907     1
   2903   2909     1
   2903   2912     1
   2904   2908     1
   2904   2911     1
   2904   6267     1
   2904   2913     1
   2905   2906     1
   2905   2911     1
   2905   2914     1
   2905   6297     1
   2906   2910     1
   2906   6269     1
   2907   6271     1
   2908   2910     1
   2908   6299     1
   2909   6301     1
   2913   6269     1
   2914   6299     1
   2929   2933     1
   2929   2935     1
   2929   2938     1
   2930   2934     1
   2930   2937     1
   2930   6327     1
   2930   2939     1
   2931   2932     1
   2931   2937     1
   2931   2940     1
   2931   6357     1
   2932   2936     1
   2932   6329     1
   2933   6331     1
   2934   2936     1
   2934   6359     1
   2935   6361     1
   2939   6329     1
   2940   6359     1
   2955   2959     1
   2955   2961     1
   2955   2964     1
   2956   2960     1
   2956   2963     1
   2956   6387     1
   2956   2965     1
   2957   2958     1
   2957   2963     1
   2957   2966     1
   2957   6417     1
   2958   2962     1
   2958   6389     1
   2959   6391     1
   2960   2962     1
   2960   6419     1
   2961   6421     1
   2965   6389     1
   2966   6419     1
   2981   2985     1
   2981   2987     1
   2981   2990     1
   2982   2986     1
   2982   2989     1
   2982   6447     1
   2982   2991     1
   2983   2984     1
   2983   2989     1
   2983   2992     1
   2983   6477     1
   2984   2988     1
   2984   6449     1
   2985   6451     1
   2986   2988     1
   2986   6479     1
   2987   6481     1
   2991   6449     1
   2992   6479     1
   3007   3011     1
   3007   3013     1
   3007   3016     1
   3008   3012     1
   3008   3015     1
   3008   6507     1
   3008   3017     1
   3009   3010     1
   3009   3015     1
   3009   3018     1
   3009   6537     1
   3010   3014     1
   3010   6509     1
   3011   6511     1
   3012   3014     1
   3012   6539     1
   3013   6541     1
   3017   6509     1
   3018   6539     1
   3033   3037     1
   3033   3039     1
   3033   3042     1
   3034   3038     1
   3034   3041     1
   3034   6567     1
   3034   3043     1
   3035   3036     1
   3035   3041     1
   3035   3044     1
   3035   6597     1
   3036   3040     1
   3036   6569     1
   3037   6571     1
   3038   3040     1
   3038   6599     1
   3039   6601     1
   3043   6569     1
   3044   6599     1
   3059   3063     1
   3059   3065     1
   3059   3068     1
   3060   3064     1
   3060   3067     1
   3060   6627     1
   3060   3069     1
   3061   3062     1
   3061   3067     1
   3061   3070     1
   3061   6657     1
   3062   3066     1
   3062   6629     1
   3063   6631     1
   3064   3066     1
   3064   6659     1
   3065   6661     1
   3069   6629     1
   3070   6659     1
   3085   3089     1
   3085   3091     1
   3085   3094     1
   3086   3090     1
   3086   3093     1
   3086   6687     1
   3086   3095     1
   3087   3088     1
   3087   3093     1
   3087   3096     1
   3087   6717     1
   3088   3092     1
   3088   6689     1
   3089   6691     1
   3090   3092     1
   3090   6719     1
   3091   6721     1
   3095   6689     1
   3096   6719     1
   3111   3115     1
   3111   3117     1
   3111   3120     1
   3112   3116     1
   3112   3119     1
   3112   6747     1
   3112   3121     1
   3113   3114     1
   3113   3119     1
   3113   3122     1
   3113   6777     1
   3114   3118     1
   3114   6749     1
   3115   6751     1
   3116   3118     1
   3116   6779     1
   3117   6781     1
   3121   6749     1
   3122   6779     1
   3137   3141     1
   3137   3143     1
   3137   3146     1
   3138   3142     1
   3138   3145     1
   3138   6807     1
   3138   3147     1
   3139   3140     1
   3139   3145     1
   3139   3148     1
   3139   6837     1
   3140   3144     1
   3140   6809     1
   3141   6811     1
   3142   3144     1
   3142   6839     1
   3143   6841     1
   3147   6809     1
   3148   6839     1
   3163   3167     1
   3163   3169     1
   3163   3172     1
   3164   3168     1
   3164   3171     1
   3164   6867     1
   3164   3173     1
   3165   3166     1
   3165   3171     1
   3165   3174     1
   3165   6897     1
   3166   3170     1
   3166   6869     1
   3167   6871     1
   3168   3170     1
   3168   6899     1
   3169   6901     1
   3173   6869     1
   3174   6899     1
   3189   3193     1
   3189   3195     1
   3189   3198     1
   3190   3194     1
   3190   3197     1
   3190   6927     1
   3190   3199     1
   3191   3192     1
   3191   3197     1
   3191   3200     1
   3191   6957     1
   3192   3196     1
   3192   6929     1
   3193   6931     1
   3194   3196     1
   3194   6959     1
   3195   6961     1
   3199   6929     1
   3200   6959     1
   3215   3219     1
   3215   3221     1
   3215   3224     1
   3216   3220     1
   3216   3223     1
   3216   6987     1
   3216   3225     1
   3217   3218     1
   3217   3223     1
   3217   3226     1
   3217   7017     1
   3218   3222     1
   3218   6989     1
   3219   6991     1
   3220   3222     1
   3220   7019     1
   3221   7021     1
   3225   6989     1
   3226   7019     1
   3241   3245     1
   3241   3247     1
   3241   3250     1
   3242   3246     1
   3242   3249     1
   3242   7047     1
   3242   3251     1
   3243   3244     1
   3243   3249     1
   3243   7077     1
   3243   3252     1
   3244   3248     1
   3244   7049     1
   3245   7051     1
   3246   3248     1
   3246   7079     1
   3247   7081     1
   3251   7049     1
   3252   7079     1
   3267   3275     1
   3269   3276     1
   3269   3277     1
   3271   3288     1
   3271   3279     1
   3275   3291     1
   3275   3283     1
   3276   3279     1
   3276   3292     1
   3276   3293     1
   3277   3288     1
   3277   3284     1
   3277   3285     1
   3297   3305     1
   3299   3306     1
   3299   3307     1
   3301   3318     1
   3301   3309     1
   3305   3321     1
   3305   3313     1
   3306   3322     1
   3306   3323     1
   3306   3309     1
   3307   3314     1
   3307   3315     1
   3307   3318     1
   3327   3335     1
   3329   3336     1
   3329   3337     1
   3331   3348     1
   3331   3339     1
   3335   3351     1
   3335   3343     1
   3336   3339     1
   3336   3352     1
   3336   3353     1
   3337   3348     1
   3337   3344     1
   3337   3345     1
   3357   3365     1
   3359   3366     1
   3359   3367     1
   3361   3378     1
   3361   3369     1
   3365   3381     1
   3365   3373     1
   3366   3382     1
   3366   3383     1
   3366   3369     1
   3367   3374     1
   3367   3375     1
   3367   3378     1
   3387   3395     1
   3389   3396     1
   3389   3397     1
   3391   3408     1
   3391   3399     1
   3395   3411     1
   3395   3403     1
   3396   3399     1
   3396   3412     1
   3396   3413     1
   3397   3408     1
   3397   3404     1
   3397   3405     1
   3417   3425     1
   3419   3426     1
   3419   3427     1
   3421   3438     1
   3421   3429     1
   3425   3441     1
   3425   3433     1
   3426   3442     1
   3426   3443     1
   3426   3429     1
   3427   3434     1
   3427   3435     1
   3427   3438     1
   3447   3455     1
   3449   3456     1
   3449   3457     1
   3451   3468     1
   3451   3459     1
   3455   3471     1
   3455   3463     1
   3456   3459     1
   3456   3472     1
   3456   3473     1
   3457   3468     1
   3457   3464     1
   3457   3465     1
   3477   3485     1
   3479   3486     1
   3479   3487     1
   3481   3498     1
   3481   3489     1
   3485   3501     1
   3485   3493     1
   3486   3502     1
   3486   3503     1
   3486   3489     1
   3487   3494     1
   3487   3495     1
   3487   3498     1
   3507   3515     1
   3509   3516     1
   3509   3517     1
   3511   3528     1
   3511   3519     1
   3515   3531     1
   3515   3523     1
   3516   3519     1
   3516   3532     1
   3516   3533     1
   3517   3528     1
   3517   3524     1
   3517   3525     1
   3537   3545     1
   3539   3546     1
   3539   3547     1
   3541   3558     1
   3541   3549     1
   3545   3561     1
   3545   3553     1
   3546   3562     1
   3546   3563     1
   3546   3549     1
   3547   3554     1
   3547   3555     1
   3547   3558     1
   3567   3575     1
   3569   3576     1
   3569   3577     1
   3571   3588     1
   3571   3579     1
   3575   3591     1
   3575   3583     1
   3576   3579     1
   3576   3592     1
   3576   3593     1
   3577   3588     1
   3577   3584     1
   3577   3585     1
   3597   3605     1
   3599   3606     1
   3599   3607     1
   3601   3618     1
   3601   3609     1
   3605   3621     1
   3605   3613     1
   3606   3622     1
   3606   3623     1
   3606   3609     1
   3607   3614     1
   3607   3615     1
   3607   3618     1
   3627   3635     1
   3629   3636     1
   3629   3637     1
   3631   3648     1
   3631   3639     1
   3635   3651     1
   3635   3643     1
   3636   3639     1
   3636   3652     1
   3636   3653     1
   3637   3648     1
   3637   3644     1
   3637   3645     1
   3657   3665     1
   3659   3666     1
   3659   3667     1
   3661   3678     1
   3661   3669     1
   3665   3681     1
   3665   3673     1
   3666   3682     1
   3666   3683     1
   3666   3669     1
   3667   3674     1
   3667   3675     1
   3667   3678     1
   3687   3695     1
   3689   3696     1
   3689   3697     1
   3691   3708     1
   3691   3699     1
   3695   3711     1
   3695   3703     1
   3696   3699     1
   3696   3712     1
   3696   3713     1
   3697   3708     1
   3697   3704     1
   3697   3705     1
   3717   3725     1
   3719   3726     1
   3719   3727     1
   3721   3738     1
   3721   3729     1
   3725   3741     1
   3725   3733     1
   3726   3742     1
   3726   3743     1
   3726   3729     1
   3727   3734     1
   3727   3735     1
   3727   3738     1
   3747   3755     1
   3749   3756     1
   3749   3757     1
   3751   3768     1
   3751   3759     1
   3755   3771     1
   3755   3763     1
   3756   3759     1
   3756   3772     1
   3756   3773     1
   3757   3768     1
   3757   3764     1
   3757   3765     1
   3777   3785     1
   3779   3786     1
   3779   3787     1
   3781   3798     1
   3781   3789     1
   3785   3801     1
   3785   3793     1
   3786   3802     1
   3786   3803     1
   3786   3789     1
   3787   3794     1
   3787   3795     1
   3787   3798     1
   3807   3815     1
   3809   3816     1
   3809   3817     1
   3811   3828     1
   3811   3819     1
   3815   3831     1
   3815   3823     1
   3816   3819     1
   3816   3832     1
   3816   3833     1
   3817   3828     1
   3817   3824     1
   3817   3825     1
   3837   3845     1
   3839   3846     1
   3839   3847     1
   3841   3858     1
   3841   3849     1
   3845   3861     1
   3845   3853     1
   3846   3862     1
   3846   3863     1
   3846   3849     1
   3847   3854     1
   3847   3855     1
   3847   3858     1
   3867   3875     1
   3869   3876     1
   3869   3877     1
   3871   3888     1
   3871   3879     1
   3875   3891     1
   3875   3883     1
   3876   3879     1
   3876   3892     1
   3876   3893     1
   3877   3888     1
   3877   3884     1
   3877   3885     1
   3897   3905     1
   3899   3906     1
   3899   3907     1
   3901   3918     1
   3901   3909     1
   3905   3921     1
   3905   3913     1
   3906   3922     1
   3906   3923     1
   3906   3909     1
   3907   3914     1
   3907   3915     1
   3907   3918     1
   3927   3935     1
   3929   3936     1
   3929   3937     1
   3931   3948     1
   3931   3939     1
   3935   3951     1
   3935   3943     1
   3936   3939     1
   3936   3952     1
   3936   3953     1
   3937   3948     1
   3937   3944     1
   3937   3945     1
   3957   3965     1
   3959   3966     1
   3959   3967     1
   3961   3978     1
   3961   3969     1
   3965   3981     1
   3965   3973     1
   3966   3982     1
   3966   3983     1
   3966   3969     1
   3967   3974     1
   3967   3975     1
   3967   3978     1
   3987   3995     1
   3989   3996     1
   3989   3997     1
   3991   4008     1
   3991   3999     1
   3995   4011     1
   3995   4003     1
   3996   3999     1
   3996   4012     1
   3996   4013     1
   3997   4008     1
   3997   4004     1
   3997   4005     1
   4017   4025     1
   4019   4026     1
   4019   4027     1
   4021   4038     1
   4021   4029     1
   4025   4041     1
   4025   4033     1
   4026   4042     1
   4026   4043     1
   4026   4029     1
   4027   4034     1
   4027   4035     1
   4027   4038     1
   4047   4055     1
   4049   4056     1
   4049   4057     1
   4051   4068     1
   4051   4059     1
   4055   4071     1
   4055   4063     1
   4056   4059     1
   4056   4072     1
   4056   4073     1
   4057   4068     1
   4057   4064     1
   4057   4065     1
   4077   4085     1
   4079   4086     1
   4079   4087     1
   4081   4098     1
   4081   4089     1
   4085   4101     1
   4085   4093     1
   4086   4102     1
   4086   4103     1
   4086   4089     1
   4087   4094     1
   4087   4095     1
   4087   4098     1
   4107   4115     1
   4109   4116     1
   4109   4117     1
   4111   4128     1
   4111   4119     1
   4115   4131     1
   4115   4123     1
   4116   4119     1
   4116   4132     1
   4116   4133     1
   4117   4128     1
   4117   4124     1
   4117   4125     1
   4137   4145     1
   4139   4146     1
   4139   4147     1
   4141   4158     1
   4141   4149     1
   4145   4161     1
   4145   4153     1
   4146   4162     1
   4146   4163     1
   4146   4149     1
   4147   4154     1
   4147   4155     1
   4147   4158     1
   4167   4175     1
   4169   4176     1
   4169   4177     1
   4171   4188     1
   4171   4179     1
   4175   4191     1
   4175   4183     1
   4176   4179     1
   4176   4192     1
   4176   4193     1
   4177   4188     1
   4177   4184     1
   4177   4185     1
   4197   4205     1
   4199   4206     1
   4199   4207     1
   4201   4218     1
   4201   4209     1
   4205   4221     1
   4205   4213     1
   4206   4222     1
   4206   4223     1
   4206   4209     1
   4207   4214     1
   4207   4215     1
   4207   4218     1
   4227   4235     1
   4229   4236     1
   4229   4237     1
   4231   4248     1
   4231   4239     1
   4235   4251     1
   4235   4243     1
   4236   4239     1
   4236   4252     1
   4236   4253     1
   4237   4248     1
   4237   4244     1
   4237   4245     1
   4257   4265     1
   4259   4266     1
   4259   4267     1
   4261   4278     1
   4261   4269     1
   4265   4281     1
   4265   4273     1
   4266   4282     1
   4266   4283     1
   4266   4269     1
   4267   4274     1
   4267   4275     1
   4267   4278     1
   4287   4295     1
   4289   4296     1
   4289   4297     1
   4291   4308     1
   4291   4299     1
   4295   4311     1
   4295   4303     1
   4296   4299     1
   4296   4312     1
   4296   4313     1
   4297   4308     1
   4297   4304     1
   4297   4305     1
   4317   4325     1
   4319   4326     1
   4319   4327     1
   4321   4338     1
   4321   4329     1
   4325   4341     1
   4325   4333     1
   4326   4342     1
   4326   4343     1
   4326   4329     1
   4327   4334     1
   4327   4335     1
   4327   4338     1
   4347   4355     1
   4349   4356     1
   4349   4357     1
   4351   4368     1
   4351   4359     1
   4355   4371     1
   4355   4363     1
   4356   4359     1
   4356   4372     1
   4356   4373     1
   4357   4368     1
   4357   4364     1
   4357   4365     1
   4377   4385     1
   4379   4386     1
   4379   4387     1
   4381   4398     1
   4381   4389     1
   4385   4401     1
   4385   4393     1
   4386   4402     1
   4386   4403     1
   4386   4389     1
   4387   4394     1
   4387   4395     1
   4387   4398     1
   4407   4415     1
   4409   4416     1
   4409   4417     1
   4411   4428     1
   4411   4419     1
   4415   4431     1
   4415   4423     1
   4416   4419     1
   4416   4432     1
   4416   4433     1
   4417   4428     1
   4417   4424     1
   4417   4425     1
   4437   4445     1
   4439   4446     1
   4439   4447     1
   4441   4458     1
   4441   4449     1
   4445   4461     1
   4445   4453     1
   4446   4462     1
   4446   4463     1
   4446   4449     1
   4447   4454     1
   4447   4455     1
   4447   4458     1
   4467   4475     1
   4469   4476     1
   4469   4477     1
   4471   4488     1
   4471   4479     1
   4475   4491     1
   4475   4483     1
   4476   4479     1
   4476   4492     1
   4476   4493     1
   4477   4488     1
   4477   4484     1
   4477   4485     1
   4497   4505     1
   4499   4506     1
   4499   4507     1
   4501   4518     1
   4501   4509     1
   4505   4521     1
   4505   4513     1
   4506   4522     1
   4506   4523     1
   4506   4509     1
   4507   4514     1
   4507   4515     1
   4507   4518     1
   4527   4535     1
   4529   4536     1
   4529   4537     1
   4531   4548     1
   4531   4539     1
   4535   4551     1
   4535   4543     1
   4536   4539     1
   4536   4552     1
   4536   4553     1
   4537   4548     1
   4537   4544     1
   4537   4545     1
   4557   4565     1
   4559   4566     1
   4559   4567     1
   4561   4578     1
   4561   4569     1
   4565   4581     1
   4565   4573     1
   4566   4582     1
   4566   4583     1
   4566   4569     1
   4567   4574     1
   4567   4575     1
   4567   4578     1
   4587   4595     1
   4589   4596     1
   4589   4597     1
   4591   4608     1
   4591   4599     1
   4595   4611     1
   4595   4603     1
   4596   4599     1
   4596   4612     1
   4596   4613     1
   4597   4608     1
   4597   4604     1
   4597   4605     1
   4617   4625     1
   4619   4626     1
   4619   4627     1
   4621   4638     1
   4621   4629     1
   4625   4641     1
   4625   4633     1
   4626   4642     1
   4626   4643     1
   4626   4629     1
   4627   4634     1
   4627   4635     1
   4627   4638     1
   4647   4655     1
   4649   4656     1
   4649   4657     1
   4651   4668     1
   4651   4659     1
   4655   4671     1
   4655   4663     1
   4656   4659     1
   4656   4672     1
   4656   4673     1
   4657   4668     1
   4657   4664     1
   4657   4665     1
   4677   4685     1
   4679   4686     1
   4679   4687     1
   4681   4698     1
   4681   4689     1
   4685   4701     1
   4685   4693     1
   4686   4702     1
   4686   4703     1
   4686   4689     1
   4687   4694     1
   4687   4695     1
   4687   4698     1
   4707   4715     1
   4709   4716     1
   4709   4717     1
   4711   4728     1
   4711   4719     1
   4715   4731     1
   4715   4723     1
   4716   4719     1
   4716   4732     1
   4716   4733     1
   4717   4728     1
   4717   4724     1
   4717   4725     1
   4737   4745     1
   4739   4746     1
   4739   4747     1
   4741   4758     1
   4741   4749     1
   4745   4761     1
   4745   4753     1
   4746   4762     1
   4746   4763     1
   4746   4749     1
   4747   4754     1
   4747   4755     1
   4747   4758     1
   4767   4775     1
   4769   4776     1
   4769   4777     1
   4771   4788     1
   4771   4779     1
   4775   4791     1
   4775   4783     1
   4776   4779     1
   4776   4792     1
   4776   4793     1
   4777   4788     1
   4777   4784     1
   4777   4785     1
   4797   4805     1
   4799   4806     1
   4799   4807     1
   4801   4818     1
   4801   4809     1
   4805   4821     1
   4805   4813     1
   4806   4822     1
   4806   4823     1
   4806   4809     1
   4807   4814     1
   4807   4815     1
   4807   4818     1
   4827   4835     1
   4829   4836     1
   4829   4837     1
   4831   4848     1
   4831   4839     1
   4835   4851     1
   4835   4843     1
   4836   4839     1
   4836   4852     1
   4836   4853     1
   4837   4848     1
   4837   4844     1
   4837   4845     1
   4857   4865     1
   4859   4866     1
   4859   4867     1
   4861   4878     1
   4861   4869     1
   4865   4881     1
   4865   4873     1
   4866   4882     1
   4866   4883     1
   4866   4869     1
   4867   4874     1
   4867   4875     1
   4867   4878     1
   4887   4895     1
   4889   4896     1
   4889   4897     1
   4891   4908     1
   4891   4899     1
   4895   4911     1
   4895   4903     1
   4896   4899     1
   4896   4912     1
   4896   4913     1
   4897   4908     1
   4897   4904     1
   4897   4905     1
   4917   4925     1
   4919   4926     1
   4919   4927     1
   4921   4938     1
   4921   4929     1
   4925   4941     1
   4925   4933     1
   4926   4942     1
   4926   4943     1
   4926   4929     1
   4927   4934     1
   4927   4935     1
   4927   4938     1
   4947   4955     1
   4949   4956     1
   4949   4957     1
   4951   4968     1
   4951   4959     1
   4955   4971     1
   4955   4963     1
   4956   4959     1
   4956   4972     1
   4956   4973     1
   4957   4968     1
   4957   4964     1
   4957   4965     1
   4977   4985     1
   4979   4986     1
   4979   4987     1
   4981   4998     1
   4981   4989     1
   4985   5001     1
   4985   4993     1
   4986   5002     1
   4986   5003     1
   4986   4989     1
   4987   4994     1
   4987   4995     1
   4987   4998     1
   5007   5015     1
   5009   5016     1
   5009   5017     1
   5011   5028     1
   5011   5019     1
   5015   5031     1
   5015   5023     1
   5016   5019     1
   5016   5032     1
   5016   5033     1
   5017   5028     1
   5017   5024     1
   5017   5025     1
   5037   5045     1
   5039   5046     1
   5039   5047     1
   5041   5058     1
   5041   5049     1
   5045   5061     1
   5045   5053     1
   5046   5062     1
   5046   5063     1
   5046   5049     1
   5047   5054     1
   5047   5055     1
   5047   5058     1
   5067   5075     1
   5069   5076     1
   5069   5077     1
   5071   5088     1
   5071   5079     1
   5075   5091     1
   5075   5083     1
   5076   5079     1
   5076   5092     1
   5076   5093     1
   5077   5088     1
   5077   5084     1
   5077   5085     1
   5097   5105     1
   5099   5106     1
   5099   5107     1
   5101   5118     1
   5101   5109     1
   5105   5121     1
   5105   5113     1
   5106   5122     1
   5106   5123     1
   5106   5109     1
   5107   5114     1
   5107   5115     1
   5107   5118     1
   5127   5135     1
   5129   5136     1
   5129   5137     1
   5131   5148     1
   5131   5139     1
   5135   5151     1
   5135   5143     1
   5136   5139     1
   5136   5152     1
   5136   5153     1
   5137   5148     1
   5137   5144     1
   5137   5145     1
   5157   5165     1
   5159   5166     1
   5159   5167     1
   5161   5178     1
   5161   5169     1
   5165   5181     1
   5165   5173     1
   5166   5182     1
   5166   5183     1
   5166   5169     1
   5167   5174     1
   5167   5175     1
   5167   5178     1
   5187   5195     1
   5189   5196     1
   5189   5197     1
   5191   5208     1
   5191   5199     1
   5195   5211     1
   5195   5203     1
   5196   5199     1
   5196   5212     1
   5196   5213     1
   5197   5208     1
   5197   5204     1
   5197   5205     1
   5217   5225     1
   5219   5226     1
   5219   5227     1
   5221   5238     1
   5221   5229     1
   5225   5241     1
   5225   5233     1
   5226   5242     1
   5226   5243     1
   5226   5229     1
   5227   5234     1
   5227   5235     1
   5227   5238     1
   5247   5255     1
   5249   5256     1
   5249   5257     1
   5251   5268     1
   5251   5259     1
   5255   5271     1
   5255   5263     1
   5256   5259     1
   5256   5272     1
   5256   5273     1
   5257   5268     1
   5257   5264     1
   5257   5265     1
   5277   5285     1
   5279   5286     1
   5279   5287     1
   5281   5298     1
   5281   5289     1
   5285   5301     1
   5285   5293     1
   5286   5302     1
   5286   5303     1
   5286   5289     1
   5287   5294     1
   5287   5295     1
   5287   5298     1
   5307   5315     1
   5309   5316     1
   5309   5317     1
   5311   5328     1
   5311   5319     1
   5315   5331     1
   5315   5323     1
   5316   5319     1
   5316   5332     1
   5316   5333     1
   5317   5328     1
   5317   5324     1
   5317   5325     1
   5337   5345     1
   5339   5346     1
   5339   5347     1
   5341   5358     1
   5341   5349     1
   5345   5361     1
   5345   5353     1
   5346   5362     1
   5346   5363     1
   5346   5349     1
   5347   5354     1
   5347   5355     1
   5347   5358     1
   5367   5375     1
   5369   5376     1
   5369   5377     1
   5371   5388     1
   5371   5379     1
   5375   5391     1
   5375   5383     1
   5376   5379     1
   5376   5392     1
   5376   5393     1
   5377   5388     1
   5377   5384     1
   5377   5385     1
   5397   5405     1
   5399   5406     1
   5399   5407     1
   5401   5418     1
   5401   5409     1
   5405   5421     1
   5405   5413     1
   5406   5422     1
   5406   5423     1
   5406   5409     1
   5407   5414     1
   5407   5415     1
   5407   5418     1
   5427   5435     1
   5429   5436     1
   5429   5437     1
   5431   5448     1
   5431   5439     1
   5435   5451     1
   5435   5443     1
   5436   5439     1
   5436   5452     1
   5436   5453     1
   5437   5448     1
   5437   5444     1
   5437   5445     1
   5457   5465     1
   5459   5466     1
   5459   5467     1
   5461   5478     1
   5461   5469     1
   5465   5481     1
   5465   5473     1
   5466   5482     1
   5466   5483     1
   5466   5469     1
   5467   5474     1
   5467   5475     1
   5467   5478     1
   5487   5495     1
   5489   5496     1
   5489   5497     1
   5491   5508     1
   5491   5499     1
   5495   5511     1
   5495   5503     1
   5496   5499     1
   5496   5512     1
   5496   5513     1
   5497   5508     1
   5497   5504     1
   5497   5505     1
   5517   5525     1
   5519   5526     1
   5519   5527     1
   5521   5538     1
   5521   5529     1
   5525   5541     1
   5525   5533     1
   5526   5542     1
   5526   5543     1
   5526   5529     1
   5527   5534     1
   5527   5535     1
   5527   5538     1
   5547   5555     1
   5549   5556     1
   5549   5557     1
   5551   5568     1
   5551   5559     1
   5555   5571     1
   5555   5563     1
   5556   5559     1
   5556   5572     1
   5556   5573     1
   5557   5568     1
   5557   5564     1
   5557   5565     1
   5577   5585     1
   5579   5586     1
   5579   5587     1
   5581   5598     1
   5581   5589     1
   5585   5601     1
   5585   5593     1
   5586   5602     1
   5586   5603     1
   5586   5589     1
   5587   5594     1
   5587   5595     1
   5587   5598     1
   5607   5615     1
   5609   5616     1
   5609   5617     1
   5611   5628     1
   5611   5619     1
   5615   5631     1
   5615   5623     1
   5616   5619     1
   5616   5632     1
   5616   5633     1
   5617   5628     1
   5617   5624     1
   5617   5625     1
   5637   5645     1
   5639   5646     1
   5639   5647     1
   5641   5658     1
   5641   5649     1
   5645   5661     1
   5645   5653     1
   5646   5662     1
   5646   5663     1
   5646   5649     1
   5647   5654     1
   5647   5655     1
   5647   5658     1
   5667   5675     1
   5669   5676     1
   5669   5677     1
   5671   5688     1
   5671   5679     1
   5675   5691     1
   5675   5683     1
   5676   5679     1
   5676   5692     1
   5676   5693     1
   5677   5688     1
   5677   5684     1
   5677   5685     1
   5697   5705     1
   5699   5706     1
   5699   5707     1
   5701   5718     1
   5701   5709     1
   5705   5721     1
   5705   5713     1
   5706   5722     1
   5706   5723     1
   5706   5709     1
   5707   5714     1
   5707   5715     1
   5707   5718     1
   5727   5735     1
   5729   5736     1
   5729   5737     1
   5731   5748     1
   5731   5739     1
   5735   5751     1
   5735   5743     1
   5736   5739     1
   5736   5752     1
   5736   5753     1
   5737   5748     1
   5737   5744     1
   5737   5745     1
   5757   5765     1
   5759   5766     1
   5759   5767     1
   5761   5778     1
   5761   5769     1
   5765   5781     1
   5765   5773     1
   5766   5782     1
   5766   5783     1
   5766   5769     1
   5767   5774     1
   5767   5775     1
   5767   5778     1
   5787   5795     1
   5789   5796     1
   5789   5797     1
   5791   5808     1
   5791   5799     1
   5795   5811     1
   5795   5803     1
   5796   5799     1
   5796   5812     1
   5796   5813     1
   5797   5808     1
   5797   5804     1
   5797   5805     1
   5817   5825     1
   5819   5826     1
   5819   5827     1
   5821   5838     1
   5821   5829     1
   5825   5841     1
   5825   5833     1
   5826   5842     1
   5826   5843     1
   5826   5829     1
   5827   5834     1
   5827   5835     1
   5827   5838     1
   5847   5855     1
   5849   5856     1
   5849   5857     1
   5851   5868     1
   5851   5859     1
   5855   5871     1
   5855   5863     1
   5856   5859     1
   5856   5872     1
   5856   5873     1
   5857   5868     1
   5857   5864     1
   5857   5865     1
   5877   5885     1
   5879   5886     1
   5879   5887     1
   5881   5898     1
   5881   5889     1
   5885   5901     1
   5885   5893     1
   5886   5902     1
   5886   5903     1
   5886   5889     1
   5887   5894     1
   5887   5895     1
   5887   5898     1
   5907   5915     1
   5909   5916     1
   5909   5917     1
   5911   5928     1
   5911   5919     1
   5915   5931     1
   5915   5923     1
   5916   5919     1
   5916   5932     1
   5916   5933     1
   5917   5928     1
   5917   5924     1
   5917   5925     1
   5937   5945     1
   5939   5946     1
   5939   5947     1
   5941   5958     1
   5941   5949     1
   5945   5961     1
   5945   5953     1
   5946   5962     1
   5946   5963     1
   5946   5949     1
   5947   5954     1
   5947   5955     1
   5947   5958     1
   5967   5975     1
   5969   5976     1
   5969   5977     1
   5971   5988     1
   5971   5979     1
   5975   5991     1
   5975   5983     1
   5976   5979     1
   5976   5992     1
   5976   5993     1
   5977   5988     1
   5977   5984     1
   5977   5985     1
   5997   6005     1
   5999   6006     1
   5999   6007     1
   6001   6018     1
   6001   6009     1
   6005   6021     1
   6005   6013     1
   6006   6022     1
   6006   6023     1
   6006   6009     1
   6007   6014     1
   6007   6015     1
   6007   6018     1
   6027   6035     1
   6029   6036     1
   6029   6037     1
   6031   6048     1
   6031   6039     1
   6035   6051     1
   6035   6043     1
   6036   6039     1
   6036   6052     1
   6036   6053     1
   6037   6048     1
   6037   6044     1
   6037   6045     1
   6057   6065     1
   6059   6066     1
   6059   6067     1
   6061   6078     1
   6061   6069     1
   6065   6081     1
   6065   6073     1
   6066   6082     1
   6066   6083     1
   6066   6069     1
   6067   6074     1
   6067   6075     1
   6067   6078     1
   6087   6095     1
   6089   6096     1
   6089   6097     1
   6091   6108     1
   6091   6099     1
   6095   6111     1
   6095   6103     1
   6096   6099     1
   6096   6112     1
   6096   6113     1
   6097   6108     1
   6097   6104     1
   6097   6105     1
   6117   6125     1
   6119   6126     1
   6119   6127     1
   6121   6138     1
   6121   6129     1
   6125   6141     1
   6125   6133     1
   6126   6142     1
   6126   6143     1
   6126   6129     1
   6127   6134     1
   6127   6135     1
   6127   6138     1
   6147   6155     1
   6149   6156     1
   6149   6157     1
   6151   6168     1
   6151   6159     1
   6155   6171     1
   6155   6163     1
   6156   6159     1
   6156   6172     1
   6156   6173     1
   6157   6168     1
   6157   6164     1
   6157   6165     1
   6177   6185     1
   6179   6186     1
   6179   6187     1
   6181   6198     1
   6181   6189     1
   6185   6201     1
   6185   6193     1
   6186   6202     1
   6186   6203     1
   6186   6189     1
   6187   6194     1
   6187   6195     1
   6187   6198     1
   6207   6215     1
   6209   6216     1
   6209   6217     1
   6211   6228     1
   6211   6219     1
   6215   6231     1
   6215   6223     1
   6216   6219     1
   6216   6232     1
   6216   6233     1
   6217   6228     1
   6217   6224     1
   6217   6225     1
   6237   6245     1
   6239   6246     1
   6239   6247     1
   6241   6258     1
   6241   6249     1
   6245   6261     1
   6245   6253     1
   6246   6262     1
   6246   6263     1
   6246   6249     1
   6247   6254     1
   6247   6255     1
   6247   6258     1
   6267   6275     1
   6269   6276     1
   6269   6277     1
   6271   6288     1
   6271   6279     1
   6275   6291     1
   6275   6283     1
   6276   6279     1
   6276   6292     1
   6276   6293     1
   6277   6288     1
   6277   6284     1
   6277   6285     1
   6297   6305     1
   6299   6306     1
   6299   6307     1
   6301   6318     1
   6301   6309     1
   6305   6321     1
   6305   6313     1
   6306   6322     1
   6306   6323     1
   6306   6309     1
   6307   6314     1
   6307   6315     1
   6307   6318     1
   6327   6335     1
   6329   6336     1
   6329   6337     1
   6331   6348     1
   6331   6339     1
   6335   6351     1
   6335   6343     1
   6336   6339     1
   6336   6352     1
   6336   6353     1
   6337   6348     1
   6337   6344     1
   6337   6345     1
   6357   6365     1
   6359   6366     1
   6359   6367     1
   6361   6378     1
   6361   6369     1
   6365   6381     1
   6365   6373     1
   6366   6382     1
   6366   6383     1
   6366   6369     1
   6367   6374     1
   6367   6375     1
   6367   6378     1
   6387   6395     1
   6389   6396     1
   6389   6397     1
   6391   6408     1
   6391   6399     1
   6395   6411     1
   6395   6403     1
   6396   6399     1
   6396   6412     1
   6396   6413     1
   6397   6408     1
   6397   6404     1
   6397   6405     1
   6417   6425     1
   6419   6426     1
   6419   6427     1
   6421   6438     1
   6421   6429     1
   6425   6441     1
   6425   6433     1
   6426   6442     1
   6426   6443     1
   6426   6429     1
   6427   6434     1
   6427   6435     1
   6427   6438     1
   6447   6455     1
   6449   6456     1
   6449   6457     1
   6451   6468     1
   6451   6459     1
   6455   6471     1
   6455   6463     1
   6456   6459     1
   6456   6472     1
   6456   6473     1
   6457   6468     1
   6457   6464     1
   6457   6465     1
   6477   6485     1
   6479   6486     1
   6479   6487     1
   6481   6498     1
   6481   6489     1
   6485   6501     1
   6485   6493     1
   6486   6502     1
   6486   6503     1
   6486   6489     1
   6487   6494     1
   6487   6495     1
   6487   6498     1
   6507   6515     1
   6509   6516     1
   6509   6517     1
   6511   6528     1
   6511   6519     1
   6515   6531     1
   6515   6523     1
   6516   6519     1
   6516   6532     1
   6516   6533     1
   6517   6528     1
   6517   6524     1
   6517   6525     1
   6537   6545     1
   6539   6546     1
   6539   6547     1
   6541   6558     1
   6541   6549     1
   6545   6561     1
   6545   6553     1
   6546   6562     1
   6546   6563     1
   6546   6549     1
   6547   6554     1
   6547   6555     1
   6547   6558     1
   6567   6575     1
   6569   6576     1
   6569   6577     1
   6571   6588     1
   6571   6579     1
   6575   6591     1
   6575   6583     1
   6576   6579     1
   6576   6592     1
   6576   6593     1
   6577   6588     1
   6577   6584     1
   6577   6585     1
   6597   6605     1
   6599   6606     1
   6599   6607     1
   6601   6618     1
   6601   6609     1
   6605   6621     1
   6605   6613     1
   6606   6622     1
   6606   6623     1
   6606   6609     1
   6607   6614     1
   6607   6615     1
   6607   6618     1
   6627   6635     1
   6629   6636     1
   6629   6637     1
   6631   6648     1
   6631   6639     1
   6635   6651     1
   6635   6643     1
   6636   6639     1
   6636   6652     1
   6636   6653     1
   6637   6648     1
   6637   6644     1
   6637   6645     1
   6657   6665     1
   6659   6666     1
   6659   6667     1
   6661   6678     1
   6661   6669     1
   6665   6681     1
   6665   6673     1
   6666   6682     1
   6666   6683     1
   6666   6669     1
   6667   6674     1
   6667   6675     1
   6667   6678     1
   6687   6695     1
   6689   6696     1
   6689   6697     1
   6691   6708     1
   6691   6699     1
   6695   6711     1
   6695   6703     1
   6696   6699     1
   6696   6712     1
   6696   6713     1
   6697   6708     1
   6697   6704     1
   6697   6705     1
   6717   6725     1
   6719   6726     1
   6719   6727     1
   6721   6738     1
   6721   6729     1
   6725   6741     1
   6725   6733     1
   6726   6742     1
   6726   6743     1
   6726   6729     1
   6727   6734     1
   6727   6735     1
   6727   6738     1
   6747   6755     1
   6749   6756     1
   6749   6757     1
   6751   6768     1
   6751   6759     1
   6755   6771     1
   6755   6763     1
   6756   6759     1
   6756   6772     1
   6756   6773     1
   6757   6768     1
   6757   6764     1
   6757   6765     1
   6777   6785     1
   6779   6786     1
   6779   6787     1
   6781   6798     1
   6781   6789     1
   6785   6801     1
   6785   6793     1
   6786   6802     1
   6786   6803     1
   6786   6789     1
   6787   6794     1
   6787   6795     1
   6787   6798     1
   6807   6815     1
   6809   6816     1
   6809   6817     1
   6811   6828     1
   6811   6819     1
   6815   6831     1
   6815   6823     1
   6816   6819     1
   6816   6832     1
   6816   6833     1
   6817   6828     1
   6817   6824     1
   6817   6825     1
   6837   6845     1
   6839   6846     1
   6839   6847     1
   6841   6858     1
   6841   6849     1
   6845   6861     1
   6845   6853     1
   6846   6862     1
   6846   6863     1
   6846   6849     1
   6847   6854     1
   6847   6855     1
   6847   6858     1
   6867   6875     1
   6869   6876     1
   6869   6877     1
   6871   6888     1
   6871   6879     1
   6875   6891     1
   6875   6883     1
   6876   6879     1
   6876   6892     1
   6876   6893     1
   6877   6888     1
   6877   6884     1
   6877   6885     1
   6897   6905     1
   6899   6906     1
   6899   6907     1
   6901   6918     1
   6901   6909     1
   6905   6921     1
   6905   6913     1
   6906   6922     1
   6906   6923     1
   6906   6909     1
   6907   6914     1
   6907   6915     1
   6907   6918     1
   6927   6935     1
   6929   6936     1
   6929   6937     1
   6931   6948     1
   6931   6939     1
   6935   6951     1
   6935   6943     1
   6936   6939     1
   6936   6952     1
   6936   6953     1
   6937   6948     1
   6937   6944     1
   6937   6945     1
   6957   6965     1
   6959   6966     1
   6959   6967     1
   6961   6978     1
   6961   6969     1
   6965   6981     1
   6965   6973     1
   6966   6982     1
   6966   6983     1
   6966   6969     1
   6967   6974     1
   6967   6975     1
   6967   6978     1
   6987   6995     1
   6989   6996     1
   6989   6997     1
   6991   7008     1
   6991   6999     1
   6995   7011     1
   6995   7003     1
   6996   6999     1
   6996   7012     1
   6996   7013     1
   6997   7008     1
   6997   7004     1
   6997   7005     1
   7017   7025     1
   7019   7026     1
   7019   7027     1
   7021   7038     1
   7021   7029     1
   7025   7041     1
   7025   7033     1
   7026   7042     1
   7026   7043     1
   7026   7029     1
   7027   7034     1
   7027   7035     1
   7027   7038     1
   7047   7055     1
   7049   7056     1
   7049   7057     1
   7051   7068     1
   7051   7059     1
   7055   7071     1
   7055   7063     1
   7056   7059     1
   7056   7072     1
   7056   7073     1
   7057   7068     1
   7057   7064     1
   7057   7065     1
   7077   7085     1
   7079   7086     1
   7079   7087     1
   7081   7098     1
   7081   7089     1
   7085   7101     1
   7085   7093     1
   7086   7102     1
   7086   7103     1
   7086   7089     1
   7087   7094     1
   7087   7095     1
   7087   7098     1
      1     23     1
      1     24     1
      1     37     1
      1     38     1
      1     39     1
      1     40     1
      2     29     1
      2     30     1
      2     31     1
      2     32     1
      2     42     1
     41      3     1
      3     25     1
      3     26     1
      3     27     1
      3     28     1
      4     21     1
      4     22     1
      4     35     1
      4     36     1
      4     33     1
      4     34     1
      5     23     1
      5     24     1
      5     27     1
      5     28     1
      6     23     1
      6     24     1
      6     25     1
      6     26     1
      7     21     1
      7     22     1
      7     31     1
      7     32     1
      8     21     1
      8     22     1
      8     29     1
      8     30     1
      9     42     1
      9     67     1
     10     27     1
     10     28     1
     10     65     1
     10     66     1
     11     42     1
     11     93     1
     12     25     1
     12     26     1
     12     91     1
     12     92     1
     41     13     1
     13    119     1
     14     29     1
     14     30     1
     14    117     1
     14    118     1
     41     15     1
     15    145     1
     16     31     1
     16     32     1
     16    143     1
     16    144     1
     17     35     1
     17     36     1
     17     93     1
     18     33     1
     18     34     1
     18     67     1
     19     39     1
     19     40     1
     19    145     1
     20     37     1
     20     38     1
     20    119     1
     41     21     1
     21     23     1
     21     24     1
     41     22     1
     22     23     1
     22     24     1
     23     42     1
     24     42     1
     25     42     1
     25     35     1
     25     36     1
     26     42     1
     26     35     1
     26     36     1
     27     42     1
     27     33     1
     27     34     1
     28     42     1
     28     33     1
     28     34     1
     41     29     1
     29     37     1
     29     38     1
     41     30     1
     30     37     1
     30     38     1
     41     31     1
     31     39     1
     31     40     1
     41     32     1
     32     39     1
     32     40     1
     33     52     1
     34     52     1
     35     78     1
     36     78     1
     37    104     1
     38    104     1
     39    130     1
     40    130     1
     43     59     1
     43     60     1
     43     61     1
     43     62     1
     43     65     1
     43     66     1
     44     57     1
     44     58     1
     44     63     1
     44     64     1
     45     55     1
     45     56     1
     45     63     1
     45     64     1
     46     68     1
     46    171     1
     47     55     1
     47     56     1
     47    169     1
     47    170     1
     48     68     1
     48    197     1
     49     57     1
     49     58     1
     49    195     1
     49    196     1
     50     55     1
     50     56     1
     50     57     1
     50     58     1
     50     67     1
     51     68     1
     52     63     1
     52     64     1
     53     59     1
     53     60     1
     53    171     1
     54     61     1
     54     62     1
     54    197     1
     55     68     1
     55     59     1
     55     60     1
     56     68     1
     56     59     1
     56     60     1
     57     68     1
     57     61     1
     57     62     1
     58     68     1
     58     61     1
     58     62     1
     59    156     1
     60    156     1
     61    182     1
     62    182     1
     63     68     1
     63     65     1
     63     66     1
     64     68     1
     64     65     1
     64     66     1
     65     67     1
     66     67     1
     69     85     1
     69     86     1
     69     87     1
     69     88     1
     69     91     1
     69     92     1
     70     83     1
     70     84     1
     70     89     1
     70     90     1
     71     81     1
     71     82     1
     71     89     1
     71     90     1
     72     94     1
     72    223     1
     73     81     1
     73     82     1
     73    221     1
     73    222     1
     74     94     1
     74    249     1
     75     83     1
     75     84     1
     75    247     1
     75    248     1
     76     81     1
     76     82     1
     76     83     1
     76     84     1
     76     93     1
     77     94     1
     78     89     1
     78     90     1
     79     85     1
     79     86     1
     79    223     1
     80     87     1
     80     88     1
     80    249     1
     81     94     1
     81     85     1
     81     86     1
     82     94     1
     82     85     1
     82     86     1
     83     94     1
     83     87     1
     83     88     1
     84     94     1
     84     87     1
     84     88     1
     85    208     1
     86    208     1
     87    234     1
     88    234     1
     89     94     1
     89     91     1
     89     92     1
     90     94     1
     90     91     1
     90     92     1
     91     93     1
     92     93     1
     95    111     1
     95    112     1
     95    113     1
     95    114     1
     95    117     1
     95    118     1
     96    109     1
     96    110     1
     96    115     1
     96    116     1
     97    107     1
     97    108     1
     97    115     1
     97    116     1
     98    120     1
     98    275     1
     99    107     1
     99    108     1
     99    273     1
     99    274     1
    100    120     1
    100    301     1
    101    109     1
    101    110     1
    101    299     1
    101    300     1
    102    107     1
    102    108     1
    102    109     1
    102    110     1
    102    119     1
    103    120     1
    104    115     1
    104    116     1
    105    111     1
    105    112     1
    105    275     1
    106    113     1
    106    114     1
    106    301     1
    107    120     1
    107    111     1
    107    112     1
    108    120     1
    108    111     1
    108    112     1
    109    120     1
    109    113     1
    109    114     1
    110    120     1
    110    113     1
    110    114     1
    111    260     1
    112    260     1
    113    286     1
    114    286     1
    115    120     1
    115    117     1
    115    118     1
    116    120     1
    116    117     1
    116    118     1
    117    119     1
    118    119     1
    121    137     1
    121    138     1
    121    139     1
    121    140     1
    121    143     1
    121    144     1
    122    135     1
    122    136     1
    122    141     1
    122    142     1
    123    133     1
    123    134     1
    123    141     1
    123    142     1
    124    146     1
    124    327     1
    125    133     1
    125    134     1
    125    325     1
    125    326     1
    126    146     1
    126    353     1
    127    135     1
    127    136     1
    127    351     1
    127    352     1
    128    133     1
    128    134     1
    128    135     1
    128    136     1
    128    145     1
    129    146     1
    130    141     1
    130    142     1
    131    137     1
    131    138     1
    131    327     1
    132    139     1
    132    140     1
    132    353     1
    133    146     1
    133    137     1
    133    138     1
    134    146     1
    134    137     1
    134    138     1
    135    146     1
    135    139     1
    135    140     1
    136    146     1
    136    139     1
    136    140     1
    137    312     1
    138    312     1
    139    338     1
    140    338     1
    141    146     1
    141    143     1
    141    144     1
    142    146     1
    142    143     1
    142    144     1
    143    145     1
    144    145     1
    147    163     1
    147    164     1
    147    165     1
    147    166     1
    147    169     1
    147    170     1
    148    161     1
    148    162     1
    148    167     1
    148    168     1
    149    159     1
    149    160     1
    149    167     1
    149    168     1
    150    172     1
    150    379     1
    151    159     1
    151    160     1
    151    377     1
    151    378     1
    152    172     1
    152    405     1
    153    161     1
    153    162     1
    153    403     1
    153    404     1
    154    159     1
    154    160     1
    154    161     1
    154    162     1
    154    171     1
    155    172     1
    156    167     1
    156    168     1
    157    163     1
    157    164     1
    157    379     1
    158    165     1
    158    166     1
    158    405     1
    159    172     1
    159    163     1
    159    164     1
    160    172     1
    160    163     1
    160    164     1
    161    172     1
    161    165     1
    161    166     1
    162    172     1
    162    165     1
    162    166     1
    163    364     1
    164    364     1
    165    390     1
    166    390     1
    167    172     1
    167    169     1
    167    170     1
    168    172     1
    168    169     1
    168    170     1
    169    171     1
    170    171     1
    173    189     1
    173    190     1
    173    191     1
    173    192     1
    173    195     1
    173    196     1
    174    187     1
    174    188     1
    174    193     1
    174    194     1
    175    185     1
    175    186     1
    175    193     1
    175    194     1
    176    198     1
    176    431     1
    177    185     1
    177    186     1
    177    429     1
    177    430     1
    178    198     1
    178    457     1
    179    187     1
    179    188     1
    179    455     1
    179    456     1
    180    185     1
    180    186     1
    180    187     1
    180    188     1
    180    197     1
    181    198     1
    182    193     1
    182    194     1
    183    189     1
    183    190     1
    183    431     1
    184    191     1
    184    192     1
    184    457     1
    185    198     1
    185    189     1
    185    190     1
    186    198     1
    186    189     1
    186    190     1
    187    198     1
    187    191     1
    187    192     1
    188    198     1
    188    191     1
    188    192     1
    189    416     1
    190    416     1
    191    442     1
    192    442     1
    193    198     1
    193    195     1
    193    196     1
    194    198     1
    194    195     1
    194    196     1
    195    197     1
    196    197     1
    199    215     1
    199    216     1
    199    217     1
    199    218     1
    199    221     1
    199    222     1
    200    213     1
    200    214     1
    200    219     1
    200    220     1
    201    211     1
    201    212     1
    201    219     1
    201    220     1
    202    224     1
    202    483     1
    203    211     1
    203    212     1
    203    481     1
    203    482     1
    204    224     1
    204    509     1
    205    213     1
    205    214     1
    205    507     1
    205    508     1
    206    211     1
    206    212     1
    206    213     1
    206    214     1
    206    223     1
    207    224     1
    208    219     1
    208    220     1
    209    215     1
    209    216     1
    209    483     1
    210    217     1
    210    218     1
    210    509     1
    211    224     1
    211    215     1
    211    216     1
    212    224     1
    212    215     1
    212    216     1
    213    224     1
    213    217     1
    213    218     1
    214    224     1
    214    217     1
    214    218     1
    215    468     1
    216    468     1
    217    494     1
    218    494     1
    219    224     1
    219    221     1
    219    222     1
    220    224     1
    220    221     1
    220    222     1
    221    223     1
    222    223     1
    225    241     1
    225    242     1
    225    243     1
    225    244     1
    225    247     1
    225    248     1
    226    239     1
    226    240     1
    226    245     1
    226    246     1
    227    237     1
    227    238     1
    227    245     1
    227    246     1
    228    250     1
    228    535     1
    229    237     1
    229    238     1
    229    533     1
    229    534     1
    230    250     1
    230    561     1
    231    239     1
    231    240     1
    231    559     1
    231    560     1
    232    237     1
    232    238     1
    232    239     1
    232    240     1
    232    249     1
    233    250     1
    234    245     1
    234    246     1
    235    241     1
    235    242     1
    235    535     1
    236    243     1
    236    244     1
    236    561     1
    237    250     1
    237    241     1
    237    242     1
    238    250     1
    238    241     1
    238    242     1
    239    250     1
    239    243     1
    239    244     1
    240    250     1
    240    243     1
    240    244     1
    241    520     1
    242    520     1
    243    546     1
    244    546     1
    245    250     1
    245    247     1
    245    248     1
    246    250     1
    246    247     1
    246    248     1
    247    249     1
    248    249     1
    251    267     1
    251    268     1
    251    269     1
    251    270     1
    251    273     1
    251    274     1
    252    265     1
    252    266     1
    252    271     1
    252    272     1
    253    263     1
    253    264     1
    253    271     1
    253    272     1
    254    276     1
    254    587     1
    255    263     1
    255    264     1
    255    585     1
    255    586     1
    256    276     1
    256    613     1
    257    265     1
    257    266     1
    257    611     1
    257    612     1
    258    263     1
    258    264     1
    258    265     1
    258    266     1
    258    275     1
    259    276     1
    260    271     1
    260    272     1
    261    267     1
    261    268     1
    261    587     1
    262    269     1
    262    270     1
    262    613     1
    263    276     1
    263    267     1
    263    268     1
    264    276     1
    264    267     1
    264    268     1
    265    276     1
    265    269     1
    265    270     1
    266    276     1
    266    269     1
    266    270     1
    267    572     1
    268    572     1
    269    598     1
    270    598     1
    271    276     1
    271    273     1
    271    274     1
    272    276     1
    272    273     1
    272    274     1
    273    275     1
    274    275     1
    277    293     1
    277    294     1
    277    295     1
    277    296     1
    277    299     1
    277    300     1
    278    291     1
    278    292     1
    278    297     1
    278    298     1
    279    289     1
    279    290     1
    279    297     1
    279    298     1
    280    302     1
    280    639     1
    281    289     1
    281    290     1
    281    637     1
    281    638     1
    282    302     1
    282    665     1
    283    291     1
    283    292     1
    283    663     1
    283    664     1
    284    289     1
    284    290     1
    284    291     1
    284    292     1
    284    301     1
    285    302     1
    286    297     1
    286    298     1
    287    293     1
    287    294     1
    287    639     1
    288    295     1
    288    296     1
    288    665     1
    289    302     1
    289    293     1
    289    294     1
    290    302     1
    290    293     1
    290    294     1
    291    302     1
    291    295     1
    291    296     1
    292    302     1
    292    295     1
    292    296     1
    293    624     1
    294    624     1
    295    650     1
    296    650     1
    297    302     1
    297    299     1
    297    300     1
    298    302     1
    298    299     1
    298    300     1
    299    301     1
    300    301     1
    303    319     1
    303    320     1
    303    321     1
    303    322     1
    303    325     1
    303    326     1
    304    317     1
    304    318     1
    304    323     1
    304    324     1
    305    315     1
    305    316     1
    305    323     1
    305    324     1
    306    328     1
    306    691     1
    307    315     1
    307    316     1
    307    689     1
    307    690     1
    308    328     1
    308    717     1
    309    317     1
    309    318     1
    309    715     1
    309    716     1
    310    315     1
    310    316     1
    310    317     1
    310    318     1
    310    327     1
    311    328     1
    312    323     1
    312    324     1
    313    319     1
    313    320     1
    313    691     1
    314    321     1
    314    322     1
    314    717     1
    315    328     1
    315    319     1
    315    320     1
    316    328     1
    316    319     1
    316    320     1
    317    328     1
    317    321     1
    317    322     1
    318    328     1
    318    321     1
    318    322     1
    319    676     1
    320    676     1
    321    702     1
    322    702     1
    323    328     1
    323    325     1
    323    326     1
    324    328     1
    324    325     1
    324    326     1
    325    327     1
    326    327     1
    329    345     1
    329    346     1
    329    347     1
    329    348     1
    329    351     1
    329    352     1
    330    343     1
    330    344     1
    330    349     1
    330    350     1
    331    341     1
    331    342     1
    331    349     1
    331    350     1
    332    354     1
    332    743     1
    333    341     1
    333    342     1
    333    741     1
    333    742     1
    334    354     1
    334    769     1
    335    343     1
    335    344     1
    335    767     1
    335    768     1
    336    341     1
    336    342     1
    336    343     1
    336    344     1
    336    353     1
    337    354     1
    338    349     1
    338    350     1
    339    345     1
    339    346     1
    339    743     1
    340    347     1
    340    348     1
    340    769     1
    341    354     1
    341    345     1
    341    346     1
    342    354     1
    342    345     1
    342    346     1
    343    354     1
    343    347     1
    343    348     1
    344    354     1
    344    347     1
    344    348     1
    345    728     1
    346    728     1
    347    754     1
    348    754     1
    349    354     1
    349    351     1
    349    352     1
    350    354     1
    350    351     1
    350    352     1
    351    353     1
    352    353     1
    355    371     1
    355    372     1
    355    373     1
    355    374     1
    355    377     1
    355    378     1
    356    369     1
    356    370     1
    356    375     1
    356    376     1
    357    367     1
    357    368     1
    357    375     1
    357    376     1
    358    380     1
    358    795     1
    359    367     1
    359    368     1
    359    793     1
    359    794     1
    360    380     1
    360    821     1
    361    369     1
    361    370     1
    361    819     1
    361    820     1
    362    367     1
    362    368     1
    362    369     1
    362    370     1
    362    379     1
    363    380     1
    364    375     1
    364    376     1
    365    371     1
    365    372     1
    365    795     1
    366    373     1
    366    374     1
    366    821     1
    367    380     1
    367    371     1
    367    372     1
    368    380     1
    368    371     1
    368    372     1
    369    380     1
    369    373     1
    369    374     1
    370    380     1
    370    373     1
    370    374     1
    371    780     1
    372    780     1
    373    806     1
    374    806     1
    375    380     1
    375    377     1
    375    378     1
    376    380     1
    376    377     1
    376    378     1
    377    379     1
    378    379     1
    381    397     1
    381    398     1
    381    399     1
    381    400     1
    381    403     1
    381    404     1
    382    395     1
    382    396     1
    382    401     1
    382    402     1
    383    393     1
    383    394     1
    383    401     1
    383    402     1
    384    406     1
    384    847     1
    385    393     1
    385    394     1
    385    845     1
    385    846     1
    386    406     1
    386    873     1
    387    395     1
    387    396     1
    387    871     1
    387    872     1
    388    393     1
    388    394     1
    388    395     1
    388    396     1
    388    405     1
    389    406     1
    390    401     1
    390    402     1
    391    397     1
    391    398     1
    391    847     1
    392    399     1
    392    400     1
    392    873     1
    393    406     1
    393    397     1
    393    398     1
    394    406     1
    394    397     1
    394    398     1
    395    406     1
    395    399     1
    395    400     1
    396    406     1
    396    399     1
    396    400     1
    397    832     1
    398    832     1
    399    858     1
    400    858     1
    401    406     1
    401    403     1
    401    404     1
    402    406     1
    402    403     1
    402    404     1
    403    405     1
    404    405     1
    407    423     1
    407    424     1
    407    425     1
    407    426     1
    407    429     1
    407    430     1
    408    421     1
    408    422     1
    408    427     1
    408    428     1
    409    419     1
    409    420     1
    409    427     1
    409    428     1
    410    432     1
    410    899     1
    411    419     1
    411    420     1
    411    897     1
    411    898     1
    412    432     1
    412    925     1
    413    421     1
    413    422     1
    413    923     1
    413    924     1
    414    419     1
    414    420     1
    414    421     1
    414    422     1
    414    431     1
    415    432     1
    416    427     1
    416    428     1
    417    423     1
    417    424     1
    417    899     1
    418    425     1
    418    426     1
    418    925     1
    419    432     1
    419    423     1
    419    424     1
    420    432     1
    420    423     1
    420    424     1
    421    432     1
    421    425     1
    421    426     1
    422    432     1
    422    425     1
    422    426     1
    423    884     1
    424    884     1
    425    910     1
    426    910     1
    427    432     1
    427    429     1
    427    430     1
    428    432     1
    428    429     1
    428    430     1
    429    431     1
    430    431     1
    433    449     1
    433    450     1
    433    451     1
    433    452     1
    433    455     1
    433    456     1
    434    447     1
    434    448     1
    434    453     1
    434    454     1
    435    445     1
    435    446     1
    435    453     1
    435    454     1
    436    458     1
    436    951     1
    437    445     1
    437    446     1
    437    949     1
    437    950     1
    438    458     1
    438    977     1
    439    447     1
    439    448     1
    439    975     1
    439    976     1
    440    445     1
    440    446     1
    440    447     1
    440    448     1
    440    457     1
    441    458     1
    442    453     1
    442    454     1
    443    449     1
    443    450     1
    443    951     1
    444    451     1
    444    452     1
    444    977     1
    445    458     1
    445    449     1
    445    450     1
    446    458     1
    446    449     1
    446    450     1
    447    458     1
    447    451     1
    447    452     1
    448    458     1
    448    451     1
    448    452     1
    449    936     1
    450    936     1
    451    962     1
    452    962     1
    453    458     1
    453    455     1
    453    456     1
    454    458     1
    454    455     1
    454    456     1
    455    457     1
    456    457     1
    459    475     1
    459    476     1
    459    477     1
    459    478     1
    459    481     1
    459    482     1
    460    473     1
    460    474     1
    460    479     1
    460    480     1
    461    471     1
    461    472     1
    461    479     1
    461    480     1
    462    484     1
    462   1003     1
    463    471     1
    463    472     1
    463   1001     1
    463   1002     1
    464    484     1
    464   1029     1
    465    473     1
    465    474     1
    465   1027     1
    465   1028     1
    466    471     1
    466    472     1
    466    473     1
    466    474     1
    466    483     1
    467    484     1
    468    479     1
    468    480     1
    469    475     1
    469    476     1
    469   1003     1
    470    477     1
    470    478     1
    470   1029     1
    471    484     1
    471    475     1
    471    476     1
    472    484     1
    472    475     1
    472    476     1
    473    484     1
    473    477     1
    473    478     1
    474    484     1
    474    477     1
    474    478     1
    475    988     1
    476    988     1
    477   1014     1
    478   1014     1
    479    484     1
    479    481     1
    479    482     1
    480    484     1
    480    481     1
    480    482     1
    481    483     1
    482    483     1
    485    501     1
    485    502     1
    485    503     1
    485    504     1
    485    507     1
    485    508     1
    486    499     1
    486    500     1
    486    505     1
    486    506     1
    487    497     1
    487    498     1
    487    505     1
    487    506     1
    488    510     1
    488   1055     1
    489    497     1
    489    498     1
    489   1053     1
    489   1054     1
    490    510     1
    490   1081     1
    491    499     1
    491    500     1
    491   1079     1
    491   1080     1
    492    497     1
    492    498     1
    492    499     1
    492    500     1
    492    509     1
    493    510     1
    494    505     1
    494    506     1
    495    501     1
    495    502     1
    495   1055     1
    496    503     1
    496    504     1
    496   1081     1
    497    510     1
    497    501     1
    497    502     1
    498    510     1
    498    501     1
    498    502     1
    499    510     1
    499    503     1
    499    504     1
    500    510     1
    500    503     1
    500    504     1
    501   1040     1
    502   1040     1
    503   1066     1
    504   1066     1
    505    510     1
    505    507     1
    505    508     1
    506    510     1
    506    507     1
    506    508     1
    507    509     1
    508    509     1
    511    527     1
    511    528     1
    511    529     1
    511    530     1
    511    533     1
    511    534     1
    512    525     1
    512    526     1
    512    531     1
    512    532     1
    513    523     1
    513    524     1
    513    531     1
    513    532     1
    514    536     1
    514   1107     1
    515    523     1
    515    524     1
    515   1105     1
    515   1106     1
    516    536     1
    516   1133     1
    517    525     1
    517    526     1
    517   1131     1
    517   1132     1
    518    523     1
    518    524     1
    518    525     1
    518    526     1
    518    535     1
    519    536     1
    520    531     1
    520    532     1
    521    527     1
    521    528     1
    521   1107     1
    522    529     1
    522    530     1
    522   1133     1
    523    536     1
    523    527     1
    523    528     1
    524    536     1
    524    527     1
    524    528     1
    525    536     1
    525    529     1
    525    530     1
    526    536     1
    526    529     1
    526    530     1
    527   1092     1
    528   1092     1
    529   1118     1
    530   1118     1
    531    536     1
    531    533     1
    531    534     1
    532    536     1
    532    533     1
    532    534     1
    533    535     1
    534    535     1
    537    553     1
    537    554     1
    537    555     1
    537    556     1
    537    559     1
    537    560     1
    538    551     1
    538    552     1
    538    557     1
    538    558     1
    539    549     1
    539    550     1
    539    557     1
    539    558     1
    540    562     1
    540   1159     1
    541    549     1
    541    550     1
    541   1157     1
    541   1158     1
    542    562     1
    542   1185     1
    543    551     1
    543    552     1
    543   1183     1
    543   1184     1
    544    549     1
    544    550     1
    544    551     1
    544    552     1
    544    561     1
    545    562     1
    546    557     1
    546    558     1
    547    553     1
    547    554     1
    547   1159     1
    548    555     1
    548    556     1
    548   1185     1
    549    562     1
    549    553     1
    549    554     1
    550    562     1
    550    553     1
    550    554     1
    551    562     1
    551    555     1
    551    556     1
    552    562     1
    552    555     1
    552    556     1
    553   1144     1
    554   1144     1
    555   1170     1
    556   1170     1
    557    562     1
    557    559     1
    557    560     1
    558    562     1
    558    559     1
    558    560     1
    559    561     1
    560    561     1
    563    579     1
    563    580     1
    563    581     1
    563    582     1
    563    585     1
    563    586     1
    564    577     1
    564    578     1
    564    583     1
    564    584     1
    565    575     1
    565    576     1
    565    583     1
    565    584     1
    566    588     1
    566   1211     1
    567    575     1
    567    576     1
    567   1209     1
    567   1210     1
    568    588     1
    568   1237     1
    569    577     1
    569    578     1
    569   1235     1
    569   1236     1
    570    575     1
    570    576     1
    570    577     1
    570    578     1
    570    587     1
    571    588     1
    572    583     1
    572    584     1
    573    579     1
    573    580     1
    573   1211     1
    574    581     1
    574    582     1
    574   1237     1
    575    588     1
    575    579     1
    575    580     1
    576    588     1
    576    579     1
    576    580     1
    577    588     1
    577    581     1
    577    582     1
    578    588     1
    578    581     1
    578    582     1
    579   1196     1
    580   1196     1
    581   1222     1
    582   1222     1
    583    588     1
    583    585     1
    583    586     1
    584    588     1
    584    585     1
    584    586     1
    585    587     1
    586    587     1
    589    605     1
    589    606     1
    589    607     1
    589    608     1
    589    611     1
    589    612     1
    590    603     1
    590    604     1
    590    609     1
    590    610     1
    591    601     1
    591    602     1
    591    609     1
    591    610     1
    592    614     1
    592   1263     1
    593    601     1
    593    602     1
    593   1261     1
    593   1262     1
    594    614     1
    594   1289     1
    595    603     1
    595    604     1
    595   1287     1
    595   1288     1
    596    601     1
    596    602     1
    596    603     1
    596    604     1
    596    613     1
    597    614     1
    598    609     1
    598    610     1
    599    605     1
    599    606     1
    599   1263     1
    600    607     1
    600    608     1
    600   1289     1
    601    614     1
    601    605     1
    601    606     1
    602    614     1
    602    605     1
    602    606     1
    603    614     1
    603    607     1
    603    608     1
    604    614     1
    604    607     1
    604    608     1
    605   1248     1
    606   1248     1
    607   1274     1
    608   1274     1
    609    614     1
    609    611     1
    609    612     1
    610    614     1
    610    611     1
    610    612     1
    611    613     1
    612    613     1
    615    631     1
    615    632     1
    615    633     1
    615    634     1
    615    637     1
    615    638     1
    616    629     1
    616    630     1
    616    635     1
    616    636     1
    617    627     1
    617    628     1
    617    635     1
    617    636     1
    618    640     1
    618   1315     1
    619    627     1
    619    628     1
    619   1313     1
    619   1314     1
    620    640     1
    620   1341     1
    621    629     1
    621    630     1
    621   1339     1
    621   1340     1
    622    627     1
    622    628     1
    622    629     1
    622    630     1
    622    639     1
    623    640     1
    624    635     1
    624    636     1
    625    631     1
    625    632     1
    625   1315     1
    626    633     1
    626    634     1
    626   1341     1
    627    640     1
    627    631     1
    627    632     1
    628    640     1
    628    631     1
    628    632     1
    629    640     1
    629    633     1
    629    634     1
    630    640     1
    630    633     1
    630    634     1
    631   1300     1
    632   1300     1
    633   1326     1
    634   1326     1
    635    640     1
    635    637     1
    635    638     1
    636    640     1
    636    637     1
    636    638     1
    637    639     1
    638    639     1
    641    657     1
    641    658     1
    641    659     1
    641    660     1
    641    663     1
    641    664     1
    642    655     1
    642    656     1
    642    661     1
    642    662     1
    643    653     1
    643    654     1
    643    661     1
    643    662     1
    644    666     1
    644   1367     1
    645    653     1
    645    654     1
    645   1365     1
    645   1366     1
    646    666     1
    646   1393     1
    647    655     1
    647    656     1
    647   1391     1
    647   1392     1
    648    653     1
    648    654     1
    648    655     1
    648    656     1
    648    665     1
    649    666     1
    650    661     1
    650    662     1
    651    657     1
    651    658     1
    651   1367     1
    652    659     1
    652    660     1
    652   1393     1
    653    666     1
    653    657     1
    653    658     1
    654    666     1
    654    657     1
    654    658     1
    655    666     1
    655    659     1
    655    660     1
    656    666     1
    656    659     1
    656    660     1
    657   1352     1
    658   1352     1
    659   1378     1
    660   1378     1
    661    666     1
    661    663     1
    661    664     1
    662    666     1
    662    663     1
    662    664     1
    663    665     1
    664    665     1
    667    683     1
    667    684     1
    667    685     1
    667    686     1
    667    689     1
    667    690     1
    668    681     1
    668    682     1
    668    687     1
    668    688     1
    669    679     1
    669    680     1
    669    687     1
    669    688     1
    670    692     1
    670   1419     1
    671    679     1
    671    680     1
    671   1417     1
    671   1418     1
    672    692     1
    672   1445     1
    673    681     1
    673    682     1
    673   1443     1
    673   1444     1
    674    679     1
    674    680     1
    674    681     1
    674    682     1
    674    691     1
    675    692     1
    676    687     1
    676    688     1
    677    683     1
    677    684     1
    677   1419     1
    678    685     1
    678    686     1
    678   1445     1
    679    692     1
    679    683     1
    679    684     1
    680    692     1
    680    683     1
    680    684     1
    681    692     1
    681    685     1
    681    686     1
    682    692     1
    682    685     1
    682    686     1
    683   1404     1
    684   1404     1
    685   1430     1
    686   1430     1
    687    692     1
    687    689     1
    687    690     1
    688    692     1
    688    689     1
    688    690     1
    689    691     1
    690    691     1
    693    709     1
    693    710     1
    693    711     1
    693    712     1
    693    715     1
    693    716     1
    694    707     1
    694    708     1
    694    713     1
    694    714     1
    695    705     1
    695    706     1
    695    713     1
    695    714     1
    696    718     1
    696   1471     1
    697    705     1
    697    706     1
    697   1469     1
    697   1470     1
    698    718     1
    698   1497     1
    699    707     1
    699    708     1
    699   1495     1
    699   1496     1
    700    705     1
    700    706     1
    700    707     1
    700    708     1
    700    717     1
    701    718     1
    702    713     1
    702    714     1
    703    709     1
    703    710     1
    703   1471     1
    704    711     1
    704    712     1
    704   1497     1
    705    718     1
    705    709     1
    705    710     1
    706    718     1
    706    709     1
    706    710     1
    707    718     1
    707    711     1
    707    712     1
    708    718     1
    708    711     1
    708    712     1
    709   1456     1
    710   1456     1
    711   1482     1
    712   1482     1
    713    718     1
    713    715     1
    713    716     1
    714    718     1
    714    715     1
    714    716     1
    715    717     1
    716    717     1
    719    735     1
    719    736     1
    719    737     1
    719    738     1
    719    741     1
    719    742     1
    720    733     1
    720    734     1
    720    739     1
    720    740     1
    721    731     1
    721    732     1
    721    739     1
    721    740     1
    722    744     1
    722   1523     1
    723    731     1
    723    732     1
    723   1521     1
    723   1522     1
    724    744     1
    724   1549     1
    725    733     1
    725    734     1
    725   1547     1
    725   1548     1
    726    731     1
    726    732     1
    726    733     1
    726    734     1
    726    743     1
    727    744     1
    728    739     1
    728    740     1
    729    735     1
    729    736     1
    729   1523     1
    730    737     1
    730    738     1
    730   1549     1
    731    744     1
    731    735     1
    731    736     1
    732    744     1
    732    735     1
    732    736     1
    733    744     1
    733    737     1
    733    738     1
    734    744     1
    734    737     1
    734    738     1
    735   1508     1
    736   1508     1
    737   1534     1
    738   1534     1
    739    744     1
    739    741     1
    739    742     1
    740    744     1
    740    741     1
    740    742     1
    741    743     1
    742    743     1
    745    761     1
    745    762     1
    745    763     1
    745    764     1
    745    767     1
    745    768     1
    746    759     1
    746    760     1
    746    765     1
    746    766     1
    747    757     1
    747    758     1
    747    765     1
    747    766     1
    748    770     1
    748   1575     1
    749    757     1
    749    758     1
    749   1573     1
    749   1574     1
    750    770     1
    750   1601     1
    751    759     1
    751    760     1
    751   1599     1
    751   1600     1
    752    757     1
    752    758     1
    752    759     1
    752    760     1
    752    769     1
    753    770     1
    754    765     1
    754    766     1
    755    761     1
    755    762     1
    755   1575     1
    756    763     1
    756    764     1
    756   1601     1
    757    770     1
    757    761     1
    757    762     1
    758    770     1
    758    761     1
    758    762     1
    759    770     1
    759    763     1
    759    764     1
    760    770     1
    760    763     1
    760    764     1
    761   1560     1
    762   1560     1
    763   1586     1
    764   1586     1
    765    770     1
    765    767     1
    765    768     1
    766    770     1
    766    767     1
    766    768     1
    767    769     1
    768    769     1
    771    787     1
    771    788     1
    771    789     1
    771    790     1
    771    793     1
    771    794     1
    772    785     1
    772    786     1
    772    791     1
    772    792     1
    773    783     1
    773    784     1
    773    791     1
    773    792     1
    774    796     1
    774   1627     1
    775    783     1
    775    784     1
    775   1625     1
    775   1626     1
    776    796     1
    776   1653     1
    777    785     1
    777    786     1
    777   1651     1
    777   1652     1
    778    783     1
    778    784     1
    778    785     1
    778    786     1
    778    795     1
    779    796     1
    780    791     1
    780    792     1
    781    787     1
    781    788     1
    781   1627     1
    782    789     1
    782    790     1
    782   1653     1
    783    796     1
    783    787     1
    783    788     1
    784    796     1
    784    787     1
    784    788     1
    785    796     1
    785    789     1
    785    790     1
    786    796     1
    786    789     1
    786    790     1
    787   1612     1
    788   1612     1
    789   1638     1
    790   1638     1
    791    796     1
    791    793     1
    791    794     1
    792    796     1
    792    793     1
    792    794     1
    793    795     1
    794    795     1
    797    813     1
    797    814     1
    797    815     1
    797    816     1
    797    819     1
    797    820     1
    798    811     1
    798    812     1
    798    817     1
    798    818     1
    799    809     1
    799    810     1
    799    817     1
    799    818     1
    800    822     1
    800   1679     1
    801    809     1
    801    810     1
    801   1677     1
    801   1678     1
    802    822     1
    802   1705     1
    803    811     1
    803    812     1
    803   1703     1
    803   1704     1
    804    809     1
    804    810     1
    804    811     1
    804    812     1
    804    821     1
    805    822     1
    806    817     1
    806    818     1
    807    813     1
    807    814     1
    807   1679     1
    808    815     1
    808    816     1
    808   1705     1
    809    822     1
    809    813     1
    809    814     1
    810    822     1
    810    813     1
    810    814     1
    811    822     1
    811    815     1
    811    816     1
    812    822     1
    812    815     1
    812    816     1
    813   1664     1
    814   1664     1
    815   1690     1
    816   1690     1
    817    822     1
    817    819     1
    817    820     1
    818    822     1
    818    819     1
    818    820     1
    819    821     1
    820    821     1
    823    839     1
    823    840     1
    823    841     1
    823    842     1
    823    845     1
    823    846     1
    824    837     1
    824    838     1
    824    843     1
    824    844     1
    825    835     1
    825    836     1
    825    843     1
    825    844     1
    826    848     1
    826   1731     1
    827    835     1
    827    836     1
    827   1729     1
    827   1730     1
    828    848     1
    828   1757     1
    829    837     1
    829    838     1
    829   1755     1
    829   1756     1
    830    835     1
    830    836     1
    830    837     1
    830    838     1
    830    847     1
    831    848     1
    832    843     1
    832    844     1
    833    839     1
    833    840     1
    833   1731     1
    834    841     1
    834    842     1
    834   1757     1
    835    848     1
    835    839     1
    835    840     1
    836    848     1
    836    839     1
    836    840     1
    837    848     1
    837    841     1
    837    842     1
    838    848     1
    838    841     1
    838    842     1
    839   1716     1
    840   1716     1
    841   1742     1
    842   1742     1
    843    848     1
    843    845     1
    843    846     1
    844    848     1
    844    845     1
    844    846     1
    845    847     1
    846    847     1
    849    865     1
    849    866     1
    849    867     1
    849    868     1
    849    871     1
    849    872     1
    850    863     1
    850    864     1
    850    869     1
    850    870     1
    851    861     1
    851    862     1
    851    869     1
    851    870     1
    852    874     1
    852   1783     1
    853    861     1
    853    862     1
    853   1781     1
    853   1782     1
    854    874     1
    854   1809     1
    855    863     1
    855    864     1
    855   1807     1
    855   1808     1
    856    861     1
    856    862     1
    856    863     1
    856    864     1
    856    873     1
    857    874     1
    858    869     1
    858    870     1
    859    865     1
    859    866     1
    859   1783     1
    860    867     1
    860    868     1
    860   1809     1
    861    874     1
    861    865     1
    861    866     1
    862    874     1
    862    865     1
    862    866     1
    863    874     1
    863    867     1
    863    868     1
    864    874     1
    864    867     1
    864    868     1
    865   1768     1
    866   1768     1
    867   1794     1
    868   1794     1
    869    874     1
    869    871     1
    869    872     1
    870    874     1
    870    871     1
    870    872     1
    871    873     1
    872    873     1
    875    891     1
    875    892     1
    875    893     1
    875    894     1
    875    897     1
    875    898     1
    876    889     1
    876    890     1
    876    895     1
    876    896     1
    877    887     1
    877    888     1
    877    895     1
    877    896     1
    878    900     1
    878   1835     1
    879    887     1
    879    888     1
    879   1833     1
    879   1834     1
    880    900     1
    880   1861     1
    881    889     1
    881    890     1
    881   1859     1
    881   1860     1
    882    887     1
    882    888     1
    882    889     1
    882    890     1
    882    899     1
    883    900     1
    884    895     1
    884    896     1
    885    891     1
    885    892     1
    885   1835     1
    886    893     1
    886    894     1
    886   1861     1
    887    900     1
    887    891     1
    887    892     1
    888    900     1
    888    891     1
    888    892     1
    889    900     1
    889    893     1
    889    894     1
    890    900     1
    890    893     1
    890    894     1
    891   1820     1
    892   1820     1
    893   1846     1
    894   1846     1
    895    900     1
    895    897     1
    895    898     1
    896    900     1
    896    897     1
    896    898     1
    897    899     1
    898    899     1
    901    917     1
    901    918     1
    901    919     1
    901    920     1
    901    923     1
    901    924     1
    902    915     1
    902    916     1
    902    921     1
    902    922     1
    903    913     1
    903    914     1
    903    921     1
    903    922     1
    904    926     1
    904   1887     1
    905    913     1
    905    914     1
    905   1885     1
    905   1886     1
    906    926     1
    906   1913     1
    907    915     1
    907    916     1
    907   1911     1
    907   1912     1
    908    913     1
    908    914     1
    908    915     1
    908    916     1
    908    925     1
    909    926     1
    910    921     1
    910    922     1
    911    917     1
    911    918     1
    911   1887     1
    912    919     1
    912    920     1
    912   1913     1
    913    926     1
    913    917     1
    913    918     1
    914    926     1
    914    917     1
    914    918     1
    915    926     1
    915    919     1
    915    920     1
    916    926     1
    916    919     1
    916    920     1
    917   1872     1
    918   1872     1
    919   1898     1
    920   1898     1
    921    926     1
    921    923     1
    921    924     1
    922    926     1
    922    923     1
    922    924     1
    923    925     1
    924    925     1
    927    943     1
    927    944     1
    927    945     1
    927    946     1
    927    949     1
    927    950     1
    928    941     1
    928    942     1
    928    947     1
    928    948     1
    929    939     1
    929    940     1
    929    947     1
    929    948     1
    930    952     1
    930   1939     1
    931    939     1
    931    940     1
    931   1937     1
    931   1938     1
    932    952     1
    932   1965     1
    933    941     1
    933    942     1
    933   1963     1
    933   1964     1
    934    939     1
    934    940     1
    934    941     1
    934    942     1
    934    951     1
    935    952     1
    936    947     1
    936    948     1
    937    943     1
    937    944     1
    937   1939     1
    938    945     1
    938    946     1
    938   1965     1
    939    952     1
    939    943     1
    939    944     1
    940    952     1
    940    943     1
    940    944     1
    941    952     1
    941    945     1
    941    946     1
    942    952     1
    942    945     1
    942    946     1
    943   1924     1
    944   1924     1
    945   1950     1
    946   1950     1
    947    952     1
    947    949     1
    947    950     1
    948    952     1
    948    949     1
    948    950     1
    949    951     1
    950    951     1
    953    969     1
    953    970     1
    953    971     1
    953    972     1
    953    975     1
    953    976     1
    954    967     1
    954    968     1
    954    973     1
    954    974     1
    955    965     1
    955    966     1
    955    973     1
    955    974     1
    956    978     1
    956   1991     1
    957    965     1
    957    966     1
    957   1989     1
    957   1990     1
    958    978     1
    958   2017     1
    959    967     1
    959    968     1
    959   2015     1
    959   2016     1
    960    965     1
    960    966     1
    960    967     1
    960    968     1
    960    977     1
    961    978     1
    962    973     1
    962    974     1
    963    969     1
    963    970     1
    963   1991     1
    964    971     1
    964    972     1
    964   2017     1
    965    978     1
    965    969     1
    965    970     1
    966    978     1
    966    969     1
    966    970     1
    967    978     1
    967    971     1
    967    972     1
    968    978     1
    968    971     1
    968    972     1
    969   1976     1
    970   1976     1
    971   2002     1
    972   2002     1
    973    978     1
    973    975     1
    973    976     1
    974    978     1
    974    975     1
    974    976     1
    975    977     1
    976    977     1
    979    995     1
    979    996     1
    979    997     1
    979    998     1
    979   1001     1
    979   1002     1
    980    993     1
    980    994     1
    980    999     1
    980   1000     1
    981    991     1
    981    992     1
    981    999     1
    981   1000     1
    982   1004     1
    982   2043     1
    983    991     1
    983    992     1
    983   2041     1
    983   2042     1
    984   1004     1
    984   2069     1
    985    993     1
    985    994     1
    985   2067     1
    985   2068     1
    986    991     1
    986    992     1
    986    993     1
    986    994     1
    986   1003     1
    987   1004     1
    988    999     1
    988   1000     1
    989    995     1
    989    996     1
    989   2043     1
    990    997     1
    990    998     1
    990   2069     1
    991   1004     1
    991    995     1
    991    996     1
    992   1004     1
    992    995     1
    992    996     1
    993   1004     1
    993    997     1
    993    998     1
    994   1004     1
    994    997     1
    994    998     1
    995   2028     1
    996   2028     1
    997   2054     1
    998   2054     1
    999   1004     1
    999   1001     1
    999   1002     1
   1000   1004     1
   1000   1001     1
   1000   1002     1
   1001   1003     1
   1002   1003     1
   1005   1021     1
   1005   1022     1
   1005   1023     1
   1005   1024     1
   1005   1027     1
   1005   1028     1
   1006   1019     1
   1006   1020     1
   1006   1025     1
   1006   1026     1
   1007   1017     1
   1007   1018     1
   1007   1025     1
   1007   1026     1
   1008   1030     1
   1008   2095     1
   1009   1017     1
   1009   1018     1
   1009   2093     1
   1009   2094     1
   1010   1030     1
   1010   2121     1
   1011   1019     1
   1011   1020     1
   1011   2119     1
   1011   2120     1
   1012   1017     1
   1012   1018     1
   1012   1019     1
   1012   1020     1
   1012   1029     1
   1013   1030     1
   1014   1025     1
   1014   1026     1
   1015   1021     1
   1015   1022     1
   1015   2095     1
   1016   1023     1
   1016   1024     1
   1016   2121     1
   1017   1030     1
   1017   1021     1
   1017   1022     1
   1018   1030     1
   1018   1021     1
   1018   1022     1
   1019   1030     1
   1019   1023     1
   1019   1024     1
   1020   1030     1
   1020   1023     1
   1020   1024     1
   1021   2080     1
   1022   2080     1
   1023   2106     1
   1024   2106     1
   1025   1030     1
   1025   1027     1
   1025   1028     1
   1026   1030     1
   1026   1027     1
   1026   1028     1
   1027   1029     1
   1028   1029     1
   1031   1047     1
   1031   1048     1
   1031   1049     1
   1031   1050     1
   1031   1053     1
   1031   1054     1
   1032   1045     1
   1032   1046     1
   1032   1051     1
   1032   1052     1
   1033   1043     1
   1033   1044     1
   1033   1051     1
   1033   1052     1
   1034   1056     1
   1034   2147     1
   1035   1043     1
   1035   1044     1
   1035   2145     1
   1035   2146     1
   1036   1056     1
   1036   2173     1
   1037   1045     1
   1037   1046     1
   1037   2171     1
   1037   2172     1
   1038   1043     1
   1038   1044     1
   1038   1045     1
   1038   1046     1
   1038   1055     1
   1039   1056     1
   1040   1051     1
   1040   1052     1
   1041   1047     1
   1041   1048     1
   1041   2147     1
   1042   1049     1
   1042   1050     1
   1042   2173     1
   1043   1056     1
   1043   1047     1
   1043   1048     1
   1044   1056     1
   1044   1047     1
   1044   1048     1
   1045   1056     1
   1045   1049     1
   1045   1050     1
   1046   1056     1
   1046   1049     1
   1046   1050     1
   1047   2132     1
   1048   2132     1
   1049   2158     1
   1050   2158     1
   1051   1056     1
   1051   1053     1
   1051   1054     1
   1052   1056     1
   1052   1053     1
   1052   1054     1
   1053   1055     1
   1054   1055     1
   1057   1073     1
   1057   1074     1
   1057   1075     1
   1057   1076     1
   1057   1079     1
   1057   1080     1
   1058   1071     1
   1058   1072     1
   1058   1077     1
   1058   1078     1
   1059   1069     1
   1059   1070     1
   1059   1077     1
   1059   1078     1
   1060   1082     1
   1060   2199     1
   1061   1069     1
   1061   1070     1
   1061   2197     1
   1061   2198     1
   1062   1082     1
   1062   2225     1
   1063   1071     1
   1063   1072     1
   1063   2223     1
   1063   2224     1
   1064   1069     1
   1064   1070     1
   1064   1071     1
   1064   1072     1
   1064   1081     1
   1065   1082     1
   1066   1077     1
   1066   1078     1
   1067   1073     1
   1067   1074     1
   1067   2199     1
   1068   1075     1
   1068   1076     1
   1068   2225     1
   1069   1082     1
   1069   1073     1
   1069   1074     1
   1070   1082     1
   1070   1073     1
   1070   1074     1
   1071   1082     1
   1071   1075     1
   1071   1076     1
   1072   1082     1
   1072   1075     1
   1072   1076     1
   1073   2184     1
   1074   2184     1
   1075   2210     1
   1076   2210     1
   1077   1082     1
   1077   1079     1
   1077   1080     1
   1078   1082     1
   1078   1079     1
   1078   1080     1
   1079   1081     1
   1080   1081     1
   1083   1099     1
   1083   1100     1
   1083   1101     1
   1083   1102     1
   1083   1105     1
   1083   1106     1
   1084   1097     1
   1084   1098     1
   1084   1103     1
   1084   1104     1
   1085   1095     1
   1085   1096     1
   1085   1103     1
   1085   1104     1
   1086   1108     1
   1086   2251     1
   1087   1095     1
   1087   1096     1
   1087   2249     1
   1087   2250     1
   1088   1108     1
   1088   2277     1
   1089   1097     1
   1089   1098     1
   1089   2275     1
   1089   2276     1
   1090   1095     1
   1090   1096     1
   1090   1097     1
   1090   1098     1
   1090   1107     1
   1091   1108     1
   1092   1103     1
   1092   1104     1
   1093   1099     1
   1093   1100     1
   1093   2251     1
   1094   1101     1
   1094   1102     1
   1094   2277     1
   1095   1108     1
   1095   1099     1
   1095   1100     1
   1096   1108     1
   1096   1099     1
   1096   1100     1
   1097   1108     1
   1097   1101     1
   1097   1102     1
   1098   1108     1
   1098   1101     1
   1098   1102     1
   1099   2236     1
   1100   2236     1
   1101   2262     1
   1102   2262     1
   1103   1108     1
   1103   1105     1
   1103   1106     1
   1104   1108     1
   1104   1105     1
   1104   1106     1
   1105   1107     1
   1106   1107     1
   1109   1125     1
   1109   1126     1
   1109   1127     1
   1109   1128     1
   1109   1131     1
   1109   1132     1
   1110   1123     1
   1110   1124     1
   1110   1129     1
   1110   1130     1
   1111   1121     1
   1111   1122     1
   1111   1129     1
   1111   1130     1
   1112   1134     1
   1112   2303     1
   1113   1121     1
   1113   1122     1
   1113   2301     1
   1113   2302     1
   1114   1134     1
   1114   2329     1
   1115   1123     1
   1115   1124     1
   1115   2327     1
   1115   2328     1
   1116   1121     1
   1116   1122     1
   1116   1123     1
   1116   1124     1
   1116   1133     1
   1117   1134     1
   1118   1129     1
   1118   1130     1
   1119   1125     1
   1119   1126     1
   1119   2303     1
   1120   1127     1
   1120   1128     1
   1120   2329     1
   1121   1134     1
   1121   1125     1
   1121   1126     1
   1122   1134     1
   1122   1125     1
   1122   1126     1
   1123   1134     1
   1123   1127     1
   1123   1128     1
   1124   1134     1
   1124   1127     1
   1124   1128     1
   1125   2288     1
   1126   2288     1
   1127   2314     1
   1128   2314     1
   1129   1134     1
   1129   1131     1
   1129   1132     1
   1130   1134     1
   1130   1131     1
   1130   1132     1
   1131   1133     1
   1132   1133     1
   1135   1151     1
   1135   1152     1
   1135   1153     1
   1135   1154     1
   1135   1157     1
   1135   1158     1
   1136   1149     1
   1136   1150     1
   1136   1155     1
   1136   1156     1
   1137   1147     1
   1137   1148     1
   1137   1155     1
   1137   1156     1
   1138   1160     1
   1138   2355     1
   1139   1147     1
   1139   1148     1
   1139   2353     1
   1139   2354     1
   1140   1160     1
   1140   2381     1
   1141   1149     1
   1141   1150     1
   1141   2379     1
   1141   2380     1
   1142   1147     1
   1142   1148     1
   1142   1149     1
   1142   1150     1
   1142   1159     1
   1143   1160     1
   1144   1155     1
   1144   1156     1
   1145   1151     1
   1145   1152     1
   1145   2355     1
   1146   1153     1
   1146   1154     1
   1146   2381     1
   1147   1160     1
   1147   1151     1
   1147   1152     1
   1148   1160     1
   1148   1151     1
   1148   1152     1
   1149   1160     1
   1149   1153     1
   1149   1154     1
   1150   1160     1
   1150   1153     1
   1150   1154     1
   1151   2340     1
   1152   2340     1
   1153   2366     1
   1154   2366     1
   1155   1160     1
   1155   1157     1
   1155   1158     1
   1156   1160     1
   1156   1157     1
   1156   1158     1
   1157   1159     1
   1158   1159     1
   1161   1177     1
   1161   1178     1
   1161   1179     1
   1161   1180     1
   1161   1183     1
   1161   1184     1
   1162   1175     1
   1162   1176     1
   1162   1181     1
   1162   1182     1
   1163   1173     1
   1163   1174     1
   1163   1181     1
   1163   1182     1
   1164   1186     1
   1164   2407     1
   1165   1173     1
   1165   1174     1
   1165   2405     1
   1165   2406     1
   1166   1186     1
   1166   2433     1
   1167   1175     1
   1167   1176     1
   1167   2431     1
   1167   2432     1
   1168   1173     1
   1168   1174     1
   1168   1175     1
   1168   1176     1
   1168   1185     1
   1169   1186     1
   1170   1181     1
   1170   1182     1
   1171   1177     1
   1171   1178     1
   1171   2407     1
   1172   1179     1
   1172   1180     1
   1172   2433     1
   1173   1186     1
   1173   1177     1
   1173   1178     1
   1174   1186     1
   1174   1177     1
   1174   1178     1
   1175   1186     1
   1175   1179     1
   1175   1180     1
   1176   1186     1
   1176   1179     1
   1176   1180     1
   1177   2392     1
   1178   2392     1
   1179   2418     1
   1180   2418     1
   1181   1186     1
   1181   1183     1
   1181   1184     1
   1182   1186     1
   1182   1183     1
   1182   1184     1
   1183   1185     1
   1184   1185     1
   1187   1203     1
   1187   1204     1
   1187   1205     1
   1187   1206     1
   1187   1209     1
   1187   1210     1
   1188   1201     1
   1188   1202     1
   1188   1207     1
   1188   1208     1
   1189   1199     1
   1189   1200     1
   1189   1207     1
   1189   1208     1
   1190   1212     1
   1190   2459     1
   1191   1199     1
   1191   1200     1
   1191   2457     1
   1191   2458     1
   1192   1212     1
   1192   2485     1
   1193   1201     1
   1193   1202     1
   1193   2483     1
   1193   2484     1
   1194   1199     1
   1194   1200     1
   1194   1201     1
   1194   1202     1
   1194   1211     1
   1195   1212     1
   1196   1207     1
   1196   1208     1
   1197   1203     1
   1197   1204     1
   1197   2459     1
   1198   1205     1
   1198   1206     1
   1198   2485     1
   1199   1212     1
   1199   1203     1
   1199   1204     1
   1200   1212     1
   1200   1203     1
   1200   1204     1
   1201   1212     1
   1201   1205     1
   1201   1206     1
   1202   1212     1
   1202   1205     1
   1202   1206     1
   1203   2444     1
   1204   2444     1
   1205   2470     1
   1206   2470     1
   1207   1212     1
   1207   1209     1
   1207   1210     1
   1208   1212     1
   1208   1209     1
   1208   1210     1
   1209   1211     1
   1210   1211     1
   1213   1229     1
   1213   1230     1
   1213   1231     1
   1213   1232     1
   1213   1235     1
   1213   1236     1
   1214   1227     1
   1214   1228     1
   1214   1233     1
   1214   1234     1
   1215   1225     1
   1215   1226     1
   1215   1233     1
   1215   1234     1
   1216   1238     1
   1216   2511     1
   1217   1225     1
   1217   1226     1
   1217   2509     1
   1217   2510     1
   1218   1238     1
   1218   2537     1
   1219   1227     1
   1219   1228     1
   1219   2535     1
   1219   2536     1
   1220   1225     1
   1220   1226     1
   1220   1227     1
   1220   1228     1
   1220   1237     1
   1221   1238     1
   1222   1233     1
   1222   1234     1
   1223   1229     1
   1223   1230     1
   1223   2511     1
   1224   1231     1
   1224   1232     1
   1224   2537     1
   1225   1238     1
   1225   1229     1
   1225   1230     1
   1226   1238     1
   1226   1229     1
   1226   1230     1
   1227   1238     1
   1227   1231     1
   1227   1232     1
   1228   1238     1
   1228   1231     1
   1228   1232     1
   1229   2496     1
   1230   2496     1
   1231   2522     1
   1232   2522     1
   1233   1238     1
   1233   1235     1
   1233   1236     1
   1234   1238     1
   1234   1235     1
   1234   1236     1
   1235   1237     1
   1236   1237     1
   1239   1255     1
   1239   1256     1
   1239   1257     1
   1239   1258     1
   1239   1261     1
   1239   1262     1
   1240   1253     1
   1240   1254     1
   1240   1259     1
   1240   1260     1
   1241   1251     1
   1241   1252     1
   1241   1259     1
   1241   1260     1
   1242   1264     1
   1242   2563     1
   1243   1251     1
   1243   1252     1
   1243   2561     1
   1243   2562     1
   1244   1264     1
   1244   2589     1
   1245   1253     1
   1245   1254     1
   1245   2587     1
   1245   2588     1
   1246   1251     1
   1246   1252     1
   1246   1253     1
   1246   1254     1
   1246   1263     1
   1247   1264     1
   1248   1259     1
   1248   1260     1
   1249   1255     1
   1249   1256     1
   1249   2563     1
   1250   1257     1
   1250   1258     1
   1250   2589     1
   1251   1264     1
   1251   1255     1
   1251   1256     1
   1252   1264     1
   1252   1255     1
   1252   1256     1
   1253   1264     1
   1253   1257     1
   1253   1258     1
   1254   1264     1
   1254   1257     1
   1254   1258     1
   1255   2548     1
   1256   2548     1
   1257   2574     1
   1258   2574     1
   1259   1264     1
   1259   1261     1
   1259   1262     1
   1260   1264     1
   1260   1261     1
   1260   1262     1
   1261   1263     1
   1262   1263     1
   1265   1281     1
   1265   1282     1
   1265   1283     1
   1265   1284     1
   1265   1287     1
   1265   1288     1
   1266   1279     1
   1266   1280     1
   1266   1285     1
   1266   1286     1
   1267   1277     1
   1267   1278     1
   1267   1285     1
   1267   1286     1
   1268   1290     1
   1268   2615     1
   1269   1277     1
   1269   1278     1
   1269   2613     1
   1269   2614     1
   1270   1290     1
   1270   2641     1
   1271   1279     1
   1271   1280     1
   1271   2639     1
   1271   2640     1
   1272   1277     1
   1272   1278     1
   1272   1279     1
   1272   1280     1
   1272   1289     1
   1273   1290     1
   1274   1285     1
   1274   1286     1
   1275   1281     1
   1275   1282     1
   1275   2615     1
   1276   1283     1
   1276   1284     1
   1276   2641     1
   1277   1290     1
   1277   1281     1
   1277   1282     1
   1278   1290     1
   1278   1281     1
   1278   1282     1
   1279   1290     1
   1279   1283     1
   1279   1284     1
   1280   1290     1
   1280   1283     1
   1280   1284     1
   1281   2600     1
   1282   2600     1
   1283   2626     1
   1284   2626     1
   1285   1290     1
   1285   1287     1
   1285   1288     1
   1286   1290     1
   1286   1287     1
   1286   1288     1
   1287   1289     1
   1288   1289     1
   1291   1307     1
   1291   1308     1
   1291   1309     1
   1291   1310     1
   1291   1313     1
   1291   1314     1
   1292   1305     1
   1292   1306     1
   1292   1311     1
   1292   1312     1
   1293   1303     1
   1293   1304     1
   1293   1311     1
   1293   1312     1
   1294   1316     1
   1294   2667     1
   1295   1303     1
   1295   1304     1
   1295   2665     1
   1295   2666     1
   1296   1316     1
   1296   2693     1
   1297   1305     1
   1297   1306     1
   1297   2691     1
   1297   2692     1
   1298   1303     1
   1298   1304     1
   1298   1305     1
   1298   1306     1
   1298   1315     1
   1299   1316     1
   1300   1311     1
   1300   1312     1
   1301   1307     1
   1301   1308     1
   1301   2667     1
   1302   1309     1
   1302   1310     1
   1302   2693     1
   1303   1316     1
   1303   1307     1
   1303   1308     1
   1304   1316     1
   1304   1307     1
   1304   1308     1
   1305   1316     1
   1305   1309     1
   1305   1310     1
   1306   1316     1
   1306   1309     1
   1306   1310     1
   1307   2652     1
   1308   2652     1
   1309   2678     1
   1310   2678     1
   1311   1316     1
   1311   1313     1
   1311   1314     1
   1312   1316     1
   1312   1313     1
   1312   1314     1
   1313   1315     1
   1314   1315     1
   1317   1333     1
   1317   1334     1
   1317   1335     1
   1317   1336     1
   1317   1339     1
   1317   1340     1
   1318   1331     1
   1318   1332     1
   1318   1337     1
   1318   1338     1
   1319   1329     1
   1319   1330     1
   1319   1337     1
   1319   1338     1
   1320   1342     1
   1320   2719     1
   1321   1329     1
   1321   1330     1
   1321   2717     1
   1321   2718     1
   1322   1342     1
   1322   2745     1
   1323   1331     1
   1323   1332     1
   1323   2743     1
   1323   2744     1
   1324   1329     1
   1324   1330     1
   1324   1331     1
   1324   1332     1
   1324   1341     1
   1325   1342     1
   1326   1337     1
   1326   1338     1
   1327   1333     1
   1327   1334     1
   1327   2719     1
   1328   1335     1
   1328   1336     1
   1328   2745     1
   1329   1342     1
   1329   1333     1
   1329   1334     1
   1330   1342     1
   1330   1333     1
   1330   1334     1
   1331   1342     1
   1331   1335     1
   1331   1336     1
   1332   1342     1
   1332   1335     1
   1332   1336     1
   1333   2704     1
   1334   2704     1
   1335   2730     1
   1336   2730     1
   1337   1342     1
   1337   1339     1
   1337   1340     1
   1338   1342     1
   1338   1339     1
   1338   1340     1
   1339   1341     1
   1340   1341     1
   1343   1359     1
   1343   1360     1
   1343   1361     1
   1343   1362     1
   1343   1365     1
   1343   1366     1
   1344   1357     1
   1344   1358     1
   1344   1363     1
   1344   1364     1
   1345   1355     1
   1345   1356     1
   1345   1363     1
   1345   1364     1
   1346   1368     1
   1346   2771     1
   1347   1355     1
   1347   1356     1
   1347   2769     1
   1347   2770     1
   1348   1368     1
   1348   2797     1
   1349   1357     1
   1349   1358     1
   1349   2795     1
   1349   2796     1
   1350   1355     1
   1350   1356     1
   1350   1357     1
   1350   1358     1
   1350   1367     1
   1351   1368     1
   1352   1363     1
   1352   1364     1
   1353   1359     1
   1353   1360     1
   1353   2771     1
   1354   1361     1
   1354   1362     1
   1354   2797     1
   1355   1368     1
   1355   1359     1
   1355   1360     1
   1356   1368     1
   1356   1359     1
   1356   1360     1
   1357   1368     1
   1357   1361     1
   1357   1362     1
   1358   1368     1
   1358   1361     1
   1358   1362     1
   1359   2756     1
   1360   2756     1
   1361   2782     1
   1362   2782     1
   1363   1368     1
   1363   1365     1
   1363   1366     1
   1364   1368     1
   1364   1365     1
   1364   1366     1
   1365   1367     1
   1366   1367     1
   1369   1385     1
   1369   1386     1
   1369   1387     1
   1369   1388     1
   1369   1391     1
   1369   1392     1
   1370   1383     1
   1370   1384     1
   1370   1389     1
   1370   1390     1
   1371   1381     1
   1371   1382     1
   1371   1389     1
   1371   1390     1
   1372   1394     1
   1372   2823     1
   1373   1381     1
   1373   1382     1
   1373   2821     1
   1373   2822     1
   1374   1394     1
   1374   2849     1
   1375   1383     1
   1375   1384     1
   1375   2847     1
   1375   2848     1
   1376   1381     1
   1376   1382     1
   1376   1383     1
   1376   1384     1
   1376   1393     1
   1377   1394     1
   1378   1389     1
   1378   1390     1
   1379   1385     1
   1379   1386     1
   1379   2823     1
   1380   1387     1
   1380   1388     1
   1380   2849     1
   1381   1394     1
   1381   1385     1
   1381   1386     1
   1382   1394     1
   1382   1385     1
   1382   1386     1
   1383   1394     1
   1383   1387     1
   1383   1388     1
   1384   1394     1
   1384   1387     1
   1384   1388     1
   1385   2808     1
   1386   2808     1
   1387   2834     1
   1388   2834     1
   1389   1394     1
   1389   1391     1
   1389   1392     1
   1390   1394     1
   1390   1391     1
   1390   1392     1
   1391   1393     1
   1392   1393     1
   1395   1411     1
   1395   1412     1
   1395   1413     1
   1395   1414     1
   1395   1417     1
   1395   1418     1
   1396   1409     1
   1396   1410     1
   1396   1415     1
   1396   1416     1
   1397   1407     1
   1397   1408     1
   1397   1415     1
   1397   1416     1
   1398   1420     1
   1398   2875     1
   1399   1407     1
   1399   1408     1
   1399   2873     1
   1399   2874     1
   1400   1420     1
   1400   2901     1
   1401   1409     1
   1401   1410     1
   1401   2899     1
   1401   2900     1
   1402   1407     1
   1402   1408     1
   1402   1409     1
   1402   1410     1
   1402   1419     1
   1403   1420     1
   1404   1415     1
   1404   1416     1
   1405   1411     1
   1405   1412     1
   1405   2875     1
   1406   1413     1
   1406   1414     1
   1406   2901     1
   1407   1420     1
   1407   1411     1
   1407   1412     1
   1408   1420     1
   1408   1411     1
   1408   1412     1
   1409   1420     1
   1409   1413     1
   1409   1414     1
   1410   1420     1
   1410   1413     1
   1410   1414     1
   1411   2860     1
   1412   2860     1
   1413   2886     1
   1414   2886     1
   1415   1420     1
   1415   1417     1
   1415   1418     1
   1416   1420     1
   1416   1417     1
   1416   1418     1
   1417   1419     1
   1418   1419     1
   1421   1437     1
   1421   1438     1
   1421   1439     1
   1421   1440     1
   1421   1443     1
   1421   1444     1
   1422   1435     1
   1422   1436     1
   1422   1441     1
   1422   1442     1
   1423   1433     1
   1423   1434     1
   1423   1441     1
   1423   1442     1
   1424   1446     1
   1424   2927     1
   1425   1433     1
   1425   1434     1
   1425   2925     1
   1425   2926     1
   1426   1446     1
   1426   2953     1
   1427   1435     1
   1427   1436     1
   1427   2951     1
   1427   2952     1
   1428   1433     1
   1428   1434     1
   1428   1435     1
   1428   1436     1
   1428   1445     1
   1429   1446     1
   1430   1441     1
   1430   1442     1
   1431   1437     1
   1431   1438     1
   1431   2927     1
   1432   1439     1
   1432   1440     1
   1432   2953     1
   1433   1446     1
   1433   1437     1
   1433   1438     1
   1434   1446     1
   1434   1437     1
   1434   1438     1
   1435   1446     1
   1435   1439     1
   1435   1440     1
   1436   1446     1
   1436   1439     1
   1436   1440     1
   1437   2912     1
   1438   2912     1
   1439   2938     1
   1440   2938     1
   1441   1446     1
   1441   1443     1
   1441   1444     1
   1442   1446     1
   1442   1443     1
   1442   1444     1
   1443   1445     1
   1444   1445     1
   1447   1463     1
   1447   1464     1
   1447   1465     1
   1447   1466     1
   1447   1469     1
   1447   1470     1
   1448   1461     1
   1448   1462     1
   1448   1467     1
   1448   1468     1
   1449   1459     1
   1449   1460     1
   1449   1467     1
   1449   1468     1
   1450   1472     1
   1450   2979     1
   1451   1459     1
   1451   1460     1
   1451   2977     1
   1451   2978     1
   1452   1472     1
   1452   3005     1
   1453   1461     1
   1453   1462     1
   1453   3003     1
   1453   3004     1
   1454   1459     1
   1454   1460     1
   1454   1461     1
   1454   1462     1
   1454   1471     1
   1455   1472     1
   1456   1467     1
   1456   1468     1
   1457   1463     1
   1457   1464     1
   1457   2979     1
   1458   1465     1
   1458   1466     1
   1458   3005     1
   1459   1472     1
   1459   1463     1
   1459   1464     1
   1460   1472     1
   1460   1463     1
   1460   1464     1
   1461   1472     1
   1461   1465     1
   1461   1466     1
   1462   1472     1
   1462   1465     1
   1462   1466     1
   1463   2964     1
   1464   2964     1
   1465   2990     1
   1466   2990     1
   1467   1472     1
   1467   1469     1
   1467   1470     1
   1468   1472     1
   1468   1469     1
   1468   1470     1
   1469   1471     1
   1470   1471     1
   1473   1489     1
   1473   1490     1
   1473   1491     1
   1473   1492     1
   1473   1495     1
   1473   1496     1
   1474   1487     1
   1474   1488     1
   1474   1493     1
   1474   1494     1
   1475   1485     1
   1475   1486     1
   1475   1493     1
   1475   1494     1
   1476   1498     1
   1476   3031     1
   1477   1485     1
   1477   1486     1
   1477   3029     1
   1477   3030     1
   1478   1498     1
   1478   3057     1
   1479   1487     1
   1479   1488     1
   1479   3055     1
   1479   3056     1
   1480   1485     1
   1480   1486     1
   1480   1487     1
   1480   1488     1
   1480   1497     1
   1481   1498     1
   1482   1493     1
   1482   1494     1
   1483   1489     1
   1483   1490     1
   1483   3031     1
   1484   1491     1
   1484   1492     1
   1484   3057     1
   1485   1498     1
   1485   1489     1
   1485   1490     1
   1486   1498     1
   1486   1489     1
   1486   1490     1
   1487   1498     1
   1487   1491     1
   1487   1492     1
   1488   1498     1
   1488   1491     1
   1488   1492     1
   1489   3016     1
   1490   3016     1
   1491   3042     1
   1492   3042     1
   1493   1498     1
   1493   1495     1
   1493   1496     1
   1494   1498     1
   1494   1495     1
   1494   1496     1
   1495   1497     1
   1496   1497     1
   1499   1515     1
   1499   1516     1
   1499   1517     1
   1499   1518     1
   1499   1521     1
   1499   1522     1
   1500   1513     1
   1500   1514     1
   1500   1519     1
   1500   1520     1
   1501   1511     1
   1501   1512     1
   1501   1519     1
   1501   1520     1
   1502   1524     1
   1502   3083     1
   1503   1511     1
   1503   1512     1
   1503   3081     1
   1503   3082     1
   1504   1524     1
   1504   3109     1
   1505   1513     1
   1505   1514     1
   1505   3107     1
   1505   3108     1
   1506   1511     1
   1506   1512     1
   1506   1513     1
   1506   1514     1
   1506   1523     1
   1507   1524     1
   1508   1519     1
   1508   1520     1
   1509   1515     1
   1509   1516     1
   1509   3083     1
   1510   1517     1
   1510   1518     1
   1510   3109     1
   1511   1524     1
   1511   1515     1
   1511   1516     1
   1512   1524     1
   1512   1515     1
   1512   1516     1
   1513   1524     1
   1513   1517     1
   1513   1518     1
   1514   1524     1
   1514   1517     1
   1514   1518     1
   1515   3068     1
   1516   3068     1
   1517   3094     1
   1518   3094     1
   1519   1524     1
   1519   1521     1
   1519   1522     1
   1520   1524     1
   1520   1521     1
   1520   1522     1
   1521   1523     1
   1522   1523     1
   1525   1541     1
   1525   1542     1
   1525   1543     1
   1525   1544     1
   1525   1547     1
   1525   1548     1
   1526   1539     1
   1526   1540     1
   1526   1545     1
   1526   1546     1
   1527   1537     1
   1527   1538     1
   1527   1545     1
   1527   1546     1
   1528   1550     1
   1528   3135     1
   1529   1537     1
   1529   1538     1
   1529   3133     1
   1529   3134     1
   1530   1550     1
   1530   3161     1
   1531   1539     1
   1531   1540     1
   1531   3159     1
   1531   3160     1
   1532   1537     1
   1532   1538     1
   1532   1539     1
   1532   1540     1
   1532   1549     1
   1533   1550     1
   1534   1545     1
   1534   1546     1
   1535   1541     1
   1535   1542     1
   1535   3135     1
   1536   1543     1
   1536   1544     1
   1536   3161     1
   1537   1550     1
   1537   1541     1
   1537   1542     1
   1538   1550     1
   1538   1541     1
   1538   1542     1
   1539   1550     1
   1539   1543     1
   1539   1544     1
   1540   1550     1
   1540   1543     1
   1540   1544     1
   1541   3120     1
   1542   3120     1
   1543   3146     1
   1544   3146     1
   1545   1550     1
   1545   1547     1
   1545   1548     1
   1546   1550     1
   1546   1547     1
   1546   1548     1
   1547   1549     1
   1548   1549     1
   1551   1567     1
   1551   1568     1
   1551   1569     1
   1551   1570     1
   1551   1573     1
   1551   1574     1
   1552   1565     1
   1552   1566     1
   1552   1571     1
   1552   1572     1
   1553   1563     1
   1553   1564     1
   1553   1571     1
   1553   1572     1
   1554   1576     1
   1554   3187     1
   1555   1563     1
   1555   1564     1
   1555   3185     1
   1555   3186     1
   1556   1576     1
   1556   3213     1
   1557   1565     1
   1557   1566     1
   1557   3211     1
   1557   3212     1
   1558   1563     1
   1558   1564     1
   1558   1565     1
   1558   1566     1
   1558   1575     1
   1559   1576     1
   1560   1571     1
   1560   1572     1
   1561   1567     1
   1561   1568     1
   1561   3187     1
   1562   1569     1
   1562   1570     1
   1562   3213     1
   1563   1576     1
   1563   1567     1
   1563   1568     1
   1564   1576     1
   1564   1567     1
   1564   1568     1
   1565   1576     1
   1565   1569     1
   1565   1570     1
   1566   1576     1
   1566   1569     1
   1566   1570     1
   1567   3172     1
   1568   3172     1
   1569   3198     1
   1570   3198     1
   1571   1576     1
   1571   1573     1
   1571   1574     1
   1572   1576     1
   1572   1573     1
   1572   1574     1
   1573   1575     1
   1574   1575     1
   1577   1593     1
   1577   1594     1
   1577   1595     1
   1577   1596     1
   1577   1599     1
   1577   1600     1
   1578   1591     1
   1578   1592     1
   1578   1597     1
   1578   1598     1
   1579   1589     1
   1579   1590     1
   1579   1597     1
   1579   1598     1
   1580   1602     1
   1580   3239     1
   1581   1589     1
   1581   1590     1
   1581   3237     1
   1581   3238     1
   1582   1602     1
   1582   3265     1
   1583   1591     1
   1583   1592     1
   1583   3263     1
   1583   3264     1
   1584   1589     1
   1584   1590     1
   1584   1591     1
   1584   1592     1
   1584   1601     1
   1585   1602     1
   1586   1597     1
   1586   1598     1
   1587   1593     1
   1587   1594     1
   1587   3239     1
   1588   1595     1
   1588   1596     1
   1588   3265     1
   1589   1602     1
   1589   1593     1
   1589   1594     1
   1590   1602     1
   1590   1593     1
   1590   1594     1
   1591   1602     1
   1591   1595     1
   1591   1596     1
   1592   1602     1
   1592   1595     1
   1592   1596     1
   1593   3224     1
   1594   3224     1
   1595   3250     1
   1596   3250     1
   1597   1602     1
   1597   1599     1
   1597   1600     1
   1598   1602     1
   1598   1599     1
   1598   1600     1
   1599   1601     1
   1600   1601     1
   1603   1619     1
   1603   1620     1
   1603   1621     1
   1603   1622     1
   1603   1625     1
   1603   1626     1
   1604   1617     1
   1604   1618     1
   1604   1623     1
   1604   1624     1
   1605   1615     1
   1605   1616     1
   1605   1623     1
   1605   1624     1
   1606   1628     1
   1606   3268     1
   1607   1615     1
   1607   1616     1
   1607   3270     1
   1607   3272     1
   1608   1628     1
   1608   3298     1
   1609   1617     1
   1609   1618     1
   1609   3300     1
   1609   3302     1
   1610   1615     1
   1610   1616     1
   1610   1617     1
   1610   1618     1
   1610   1627     1
   1611   1628     1
   1612   1623     1
   1612   1624     1
   1613   1619     1
   1613   1620     1
   1613   3268     1
   1614   1621     1
   1614   1622     1
   1614   3298     1
   1615   1628     1
   1615   1619     1
   1615   1620     1
   1616   1628     1
   1616   1619     1
   1616   1620     1
   1617   1628     1
   1617   1621     1
   1617   1622     1
   1618   1628     1
   1618   1621     1
   1618   1622     1
   1619   3267     1
   1620   3267     1
   1621   3297     1
   1622   3297     1
   1623   1628     1
   1623   1625     1
   1623   1626     1
   1624   1628     1
   1624   1625     1
   1624   1626     1
   1625   1627     1
   1626   1627     1
   1629   1645     1
   1629   1646     1
   1629   1647     1
   1629   1648     1
   1629   1651     1
   1629   1652     1
   1630   1643     1
   1630   1644     1
   1630   1649     1
   1630   1650     1
   1631   1641     1
   1631   1642     1
   1631   1649     1
   1631   1650     1
   1632   1654     1
   1632   3328     1
   1633   1641     1
   1633   1642     1
   1633   3330     1
   1633   3332     1
   1634   1654     1
   1634   3358     1
   1635   1643     1
   1635   1644     1
   1635   3360     1
   1635   3362     1
   1636   1641     1
   1636   1642     1
   1636   1643     1
   1636   1644     1
   1636   1653     1
   1637   1654     1
   1638   1649     1
   1638   1650     1
   1639   1645     1
   1639   1646     1
   1639   3328     1
   1640   1647     1
   1640   1648     1
   1640   3358     1
   1641   1654     1
   1641   1645     1
   1641   1646     1
   1642   1654     1
   1642   1645     1
   1642   1646     1
   1643   1654     1
   1643   1647     1
   1643   1648     1
   1644   1654     1
   1644   1647     1
   1644   1648     1
   1645   3327     1
   1646   3327     1
   1647   3357     1
   1648   3357     1
   1649   1654     1
   1649   1651     1
   1649   1652     1
   1650   1654     1
   1650   1651     1
   1650   1652     1
   1651   1653     1
   1652   1653     1
   1655   1671     1
   1655   1672     1
   1655   1673     1
   1655   1674     1
   1655   1677     1
   1655   1678     1
   1656   1669     1
   1656   1670     1
   1656   1675     1
   1656   1676     1
   1657   1667     1
   1657   1668     1
   1657   1675     1
   1657   1676     1
   1658   1680     1
   1658   3388     1
   1659   1667     1
   1659   1668     1
   1659   3390     1
   1659   3392     1
   1660   1680     1
   1660   3418     1
   1661   1669     1
   1661   1670     1
   1661   3420     1
   1661   3422     1
   1662   1667     1
   1662   1668     1
   1662   1669     1
   1662   1670     1
   1662   1679     1
   1663   1680     1
   1664   1675     1
   1664   1676     1
   1665   1671     1
   1665   1672     1
   1665   3388     1
   1666   1673     1
   1666   1674     1
   1666   3418     1
   1667   1680     1
   1667   1671     1
   1667   1672     1
   1668   1680     1
   1668   1671     1
   1668   1672     1
   1669   1680     1
   1669   1673     1
   1669   1674     1
   1670   1680     1
   1670   1673     1
   1670   1674     1
   1671   3387     1
   1672   3387     1
   1673   3417     1
   1674   3417     1
   1675   1680     1
   1675   1677     1
   1675   1678     1
   1676   1680     1
   1676   1677     1
   1676   1678     1
   1677   1679     1
   1678   1679     1
   1681   1697     1
   1681   1698     1
   1681   1699     1
   1681   1700     1
   1681   1703     1
   1681   1704     1
   1682   1695     1
   1682   1696     1
   1682   1701     1
   1682   1702     1
   1683   1693     1
   1683   1694     1
   1683   1701     1
   1683   1702     1
   1684   1706     1
   1684   3448     1
   1685   1693     1
   1685   1694     1
   1685   3450     1
   1685   3452     1
   1686   1706     1
   1686   3478     1
   1687   1695     1
   1687   1696     1
   1687   3480     1
   1687   3482     1
   1688   1693     1
   1688   1694     1
   1688   1695     1
   1688   1696     1
   1688   1705     1
   1689   1706     1
   1690   1701     1
   1690   1702     1
   1691   1697     1
   1691   1698     1
   1691   3448     1
   1692   1699     1
   1692   1700     1
   1692   3478     1
   1693   1706     1
   1693   1697     1
   1693   1698     1
   1694   1706     1
   1694   1697     1
   1694   1698     1
   1695   1706     1
   1695   1699     1
   1695   1700     1
   1696   1706     1
   1696   1699     1
   1696   1700     1
   1697   3447     1
   1698   3447     1
   1699   3477     1
   1700   3477     1
   1701   1706     1
   1701   1703     1
   1701   1704     1
   1702   1706     1
   1702   1703     1
   1702   1704     1
   1703   1705     1
   1704   1705     1
   1707   1723     1
   1707   1724     1
   1707   1725     1
   1707   1726     1
   1707   1729     1
   1707   1730     1
   1708   1721     1
   1708   1722     1
   1708   1727     1
   1708   1728     1
   1709   1719     1
   1709   1720     1
   1709   1727     1
   1709   1728     1
   1710   1732     1
   1710   3508     1
   1711   1719     1
   1711   1720     1
   1711   3510     1
   1711   3512     1
   1712   1732     1
   1712   3538     1
   1713   1721     1
   1713   1722     1
   1713   3540     1
   1713   3542     1
   1714   1719     1
   1714   1720     1
   1714   1721     1
   1714   1722     1
   1714   1731     1
   1715   1732     1
   1716   1727     1
   1716   1728     1
   1717   1723     1
   1717   1724     1
   1717   3508     1
   1718   1725     1
   1718   1726     1
   1718   3538     1
   1719   1732     1
   1719   1723     1
   1719   1724     1
   1720   1732     1
   1720   1723     1
   1720   1724     1
   1721   1732     1
   1721   1725     1
   1721   1726     1
   1722   1732     1
   1722   1725     1
   1722   1726     1
   1723   3507     1
   1724   3507     1
   1725   3537     1
   1726   3537     1
   1727   1732     1
   1727   1729     1
   1727   1730     1
   1728   1732     1
   1728   1729     1
   1728   1730     1
   1729   1731     1
   1730   1731     1
   1733   1749     1
   1733   1750     1
   1733   1751     1
   1733   1752     1
   1733   1755     1
   1733   1756     1
   1734   1747     1
   1734   1748     1
   1734   1753     1
   1734   1754     1
   1735   1745     1
   1735   1746     1
   1735   1753     1
   1735   1754     1
   1736   1758     1
   1736   3568     1
   1737   1745     1
   1737   1746     1
   1737   3570     1
   1737   3572     1
   1738   1758     1
   1738   3598     1
   1739   1747     1
   1739   1748     1
   1739   3600     1
   1739   3602     1
   1740   1745     1
   1740   1746     1
   1740   1747     1
   1740   1748     1
   1740   1757     1
   1741   1758     1
   1742   1753     1
   1742   1754     1
   1743   1749     1
   1743   1750     1
   1743   3568     1
   1744   1751     1
   1744   1752     1
   1744   3598     1
   1745   1758     1
   1745   1749     1
   1745   1750     1
   1746   1758     1
   1746   1749     1
   1746   1750     1
   1747   1758     1
   1747   1751     1
   1747   1752     1
   1748   1758     1
   1748   1751     1
   1748   1752     1
   1749   3567     1
   1750   3567     1
   1751   3597     1
   1752   3597     1
   1753   1758     1
   1753   1755     1
   1753   1756     1
   1754   1758     1
   1754   1755     1
   1754   1756     1
   1755   1757     1
   1756   1757     1
   1759   1775     1
   1759   1776     1
   1759   1777     1
   1759   1778     1
   1759   1781     1
   1759   1782     1
   1760   1773     1
   1760   1774     1
   1760   1779     1
   1760   1780     1
   1761   1771     1
   1761   1772     1
   1761   1779     1
   1761   1780     1
   1762   1784     1
   1762   3628     1
   1763   1771     1
   1763   1772     1
   1763   3630     1
   1763   3632     1
   1764   1784     1
   1764   3658     1
   1765   1773     1
   1765   1774     1
   1765   3660     1
   1765   3662     1
   1766   1771     1
   1766   1772     1
   1766   1773     1
   1766   1774     1
   1766   1783     1
   1767   1784     1
   1768   1779     1
   1768   1780     1
   1769   1775     1
   1769   1776     1
   1769   3628     1
   1770   1777     1
   1770   1778     1
   1770   3658     1
   1771   1784     1
   1771   1775     1
   1771   1776     1
   1772   1784     1
   1772   1775     1
   1772   1776     1
   1773   1784     1
   1773   1777     1
   1773   1778     1
   1774   1784     1
   1774   1777     1
   1774   1778     1
   1775   3627     1
   1776   3627     1
   1777   3657     1
   1778   3657     1
   1779   1784     1
   1779   1781     1
   1779   1782     1
   1780   1784     1
   1780   1781     1
   1780   1782     1
   1781   1783     1
   1782   1783     1
   1785   1801     1
   1785   1802     1
   1785   1803     1
   1785   1804     1
   1785   1807     1
   1785   1808     1
   1786   1799     1
   1786   1800     1
   1786   1805     1
   1786   1806     1
   1787   1797     1
   1787   1798     1
   1787   1805     1
   1787   1806     1
   1788   1810     1
   1788   3688     1
   1789   1797     1
   1789   1798     1
   1789   3690     1
   1789   3692     1
   1790   1810     1
   1790   3718     1
   1791   1799     1
   1791   1800     1
   1791   3720     1
   1791   3722     1
   1792   1797     1
   1792   1798     1
   1792   1799     1
   1792   1800     1
   1792   1809     1
   1793   1810     1
   1794   1805     1
   1794   1806     1
   1795   1801     1
   1795   1802     1
   1795   3688     1
   1796   1803     1
   1796   1804     1
   1796   3718     1
   1797   1810     1
   1797   1801     1
   1797   1802     1
   1798   1810     1
   1798   1801     1
   1798   1802     1
   1799   1810     1
   1799   1803     1
   1799   1804     1
   1800   1810     1
   1800   1803     1
   1800   1804     1
   1801   3687     1
   1802   3687     1
   1803   3717     1
   1804   3717     1
   1805   1810     1
   1805   1807     1
   1805   1808     1
   1806   1810     1
   1806   1807     1
   1806   1808     1
   1807   1809     1
   1808   1809     1
   1811   1827     1
   1811   1828     1
   1811   1829     1
   1811   1830     1
   1811   1833     1
   1811   1834     1
   1812   1825     1
   1812   1826     1
   1812   1831     1
   1812   1832     1
   1813   1823     1
   1813   1824     1
   1813   1831     1
   1813   1832     1
   1814   1836     1
   1814   3748     1
   1815   1823     1
   1815   1824     1
   1815   3750     1
   1815   3752     1
   1816   1836     1
   1816   3778     1
   1817   1825     1
   1817   1826     1
   1817   3780     1
   1817   3782     1
   1818   1823     1
   1818   1824     1
   1818   1825     1
   1818   1826     1
   1818   1835     1
   1819   1836     1
   1820   1831     1
   1820   1832     1
   1821   1827     1
   1821   1828     1
   1821   3748     1
   1822   1829     1
   1822   1830     1
   1822   3778     1
   1823   1836     1
   1823   1827     1
   1823   1828     1
   1824   1836     1
   1824   1827     1
   1824   1828     1
   1825   1836     1
   1825   1829     1
   1825   1830     1
   1826   1836     1
   1826   1829     1
   1826   1830     1
   1827   3747     1
   1828   3747     1
   1829   3777     1
   1830   3777     1
   1831   1836     1
   1831   1833     1
   1831   1834     1
   1832   1836     1
   1832   1833     1
   1832   1834     1
   1833   1835     1
   1834   1835     1
   1837   1853     1
   1837   1854     1
   1837   1855     1
   1837   1856     1
   1837   1859     1
   1837   1860     1
   1838   1851     1
   1838   1852     1
   1838   1857     1
   1838   1858     1
   1839   1849     1
   1839   1850     1
   1839   1857     1
   1839   1858     1
   1840   1862     1
   1840   3808     1
   1841   1849     1
   1841   1850     1
   1841   3810     1
   1841   3812     1
   1842   1862     1
   1842   3838     1
   1843   1851     1
   1843   1852     1
   1843   3840     1
   1843   3842     1
   1844   1849     1
   1844   1850     1
   1844   1851     1
   1844   1852     1
   1844   1861     1
   1845   1862     1
   1846   1857     1
   1846   1858     1
   1847   1853     1
   1847   1854     1
   1847   3808     1
   1848   1855     1
   1848   1856     1
   1848   3838     1
   1849   1862     1
   1849   1853     1
   1849   1854     1
   1850   1862     1
   1850   1853     1
   1850   1854     1
   1851   1862     1
   1851   1855     1
   1851   1856     1
   1852   1862     1
   1852   1855     1
   1852   1856     1
   1853   3807     1
   1854   3807     1
   1855   3837     1
   1856   3837     1
   1857   1862     1
   1857   1859     1
   1857   1860     1
   1858   1862     1
   1858   1859     1
   1858   1860     1
   1859   1861     1
   1860   1861     1
   1863   1879     1
   1863   1880     1
   1863   1881     1
   1863   1882     1
   1863   1885     1
   1863   1886     1
   1864   1877     1
   1864   1878     1
   1864   1883     1
   1864   1884     1
   1865   1875     1
   1865   1876     1
   1865   1883     1
   1865   1884     1
   1866   1888     1
   1866   3868     1
   1867   1875     1
   1867   1876     1
   1867   3870     1
   1867   3872     1
   1868   1888     1
   1868   3898     1
   1869   1877     1
   1869   1878     1
   1869   3900     1
   1869   3902     1
   1870   1875     1
   1870   1876     1
   1870   1877     1
   1870   1878     1
   1870   1887     1
   1871   1888     1
   1872   1883     1
   1872   1884     1
   1873   1879     1
   1873   1880     1
   1873   3868     1
   1874   1881     1
   1874   1882     1
   1874   3898     1
   1875   1888     1
   1875   1879     1
   1875   1880     1
   1876   1888     1
   1876   1879     1
   1876   1880     1
   1877   1888     1
   1877   1881     1
   1877   1882     1
   1878   1888     1
   1878   1881     1
   1878   1882     1
   1879   3867     1
   1880   3867     1
   1881   3897     1
   1882   3897     1
   1883   1888     1
   1883   1885     1
   1883   1886     1
   1884   1888     1
   1884   1885     1
   1884   1886     1
   1885   1887     1
   1886   1887     1
   1889   1905     1
   1889   1906     1
   1889   1907     1
   1889   1908     1
   1889   1911     1
   1889   1912     1
   1890   1903     1
   1890   1904     1
   1890   1909     1
   1890   1910     1
   1891   1901     1
   1891   1902     1
   1891   1909     1
   1891   1910     1
   1892   1914     1
   1892   3928     1
   1893   1901     1
   1893   1902     1
   1893   3930     1
   1893   3932     1
   1894   1914     1
   1894   3958     1
   1895   1903     1
   1895   1904     1
   1895   3960     1
   1895   3962     1
   1896   1901     1
   1896   1902     1
   1896   1903     1
   1896   1904     1
   1896   1913     1
   1897   1914     1
   1898   1909     1
   1898   1910     1
   1899   1905     1
   1899   1906     1
   1899   3928     1
   1900   1907     1
   1900   1908     1
   1900   3958     1
   1901   1914     1
   1901   1905     1
   1901   1906     1
   1902   1914     1
   1902   1905     1
   1902   1906     1
   1903   1914     1
   1903   1907     1
   1903   1908     1
   1904   1914     1
   1904   1907     1
   1904   1908     1
   1905   3927     1
   1906   3927     1
   1907   3957     1
   1908   3957     1
   1909   1914     1
   1909   1911     1
   1909   1912     1
   1910   1914     1
   1910   1911     1
   1910   1912     1
   1911   1913     1
   1912   1913     1
   1915   1931     1
   1915   1932     1
   1915   1933     1
   1915   1934     1
   1915   1937     1
   1915   1938     1
   1916   1929     1
   1916   1930     1
   1916   1935     1
   1916   1936     1
   1917   1927     1
   1917   1928     1
   1917   1935     1
   1917   1936     1
   1918   1940     1
   1918   3988     1
   1919   1927     1
   1919   1928     1
   1919   3990     1
   1919   3992     1
   1920   1940     1
   1920   4018     1
   1921   1929     1
   1921   1930     1
   1921   4020     1
   1921   4022     1
   1922   1927     1
   1922   1928     1
   1922   1929     1
   1922   1930     1
   1922   1939     1
   1923   1940     1
   1924   1935     1
   1924   1936     1
   1925   1931     1
   1925   1932     1
   1925   3988     1
   1926   1933     1
   1926   1934     1
   1926   4018     1
   1927   1940     1
   1927   1931     1
   1927   1932     1
   1928   1940     1
   1928   1931     1
   1928   1932     1
   1929   1940     1
   1929   1933     1
   1929   1934     1
   1930   1940     1
   1930   1933     1
   1930   1934     1
   1931   3987     1
   1932   3987     1
   1933   4017     1
   1934   4017     1
   1935   1940     1
   1935   1937     1
   1935   1938     1
   1936   1940     1
   1936   1937     1
   1936   1938     1
   1937   1939     1
   1938   1939     1
   1941   1957     1
   1941   1958     1
   1941   1959     1
   1941   1960     1
   1941   1963     1
   1941   1964     1
   1942   1955     1
   1942   1956     1
   1942   1961     1
   1942   1962     1
   1943   1953     1
   1943   1954     1
   1943   1961     1
   1943   1962     1
   1944   1966     1
   1944   4048     1
   1945   1953     1
   1945   1954     1
   1945   4050     1
   1945   4052     1
   1946   1966     1
   1946   4078     1
   1947   1955     1
   1947   1956     1
   1947   4080     1
   1947   4082     1
   1948   1953     1
   1948   1954     1
   1948   1955     1
   1948   1956     1
   1948   1965     1
   1949   1966     1
   1950   1961     1
   1950   1962     1
   1951   1957     1
   1951   1958     1
   1951   4048     1
   1952   1959     1
   1952   1960     1
   1952   4078     1
   1953   1966     1
   1953   1957     1
   1953   1958     1
   1954   1966     1
   1954   1957     1
   1954   1958     1
   1955   1966     1
   1955   1959     1
   1955   1960     1
   1956   1966     1
   1956   1959     1
   1956   1960     1
   1957   4047     1
   1958   4047     1
   1959   4077     1
   1960   4077     1
   1961   1966     1
   1961   1963     1
   1961   1964     1
   1962   1966     1
   1962   1963     1
   1962   1964     1
   1963   1965     1
   1964   1965     1
   1967   1983     1
   1967   1984     1
   1967   1985     1
   1967   1986     1
   1967   1989     1
   1967   1990     1
   1968   1981     1
   1968   1982     1
   1968   1987     1
   1968   1988     1
   1969   1979     1
   1969   1980     1
   1969   1987     1
   1969   1988     1
   1970   1992     1
   1970   4108     1
   1971   1979     1
   1971   1980     1
   1971   4110     1
   1971   4112     1
   1972   1992     1
   1972   4138     1
   1973   1981     1
   1973   1982     1
   1973   4140     1
   1973   4142     1
   1974   1979     1
   1974   1980     1
   1974   1981     1
   1974   1982     1
   1974   1991     1
   1975   1992     1
   1976   1987     1
   1976   1988     1
   1977   1983     1
   1977   1984     1
   1977   4108     1
   1978   1985     1
   1978   1986     1
   1978   4138     1
   1979   1992     1
   1979   1983     1
   1979   1984     1
   1980   1992     1
   1980   1983     1
   1980   1984     1
   1981   1992     1
   1981   1985     1
   1981   1986     1
   1982   1992     1
   1982   1985     1
   1982   1986     1
   1983   4107     1
   1984   4107     1
   1985   4137     1
   1986   4137     1
   1987   1992     1
   1987   1989     1
   1987   1990     1
   1988   1992     1
   1988   1989     1
   1988   1990     1
   1989   1991     1
   1990   1991     1
   1993   2009     1
   1993   2010     1
   1993   2011     1
   1993   2012     1
   1993   2015     1
   1993   2016     1
   1994   2007     1
   1994   2008     1
   1994   2013     1
   1994   2014     1
   1995   2005     1
   1995   2006     1
   1995   2013     1
   1995   2014     1
   1996   2018     1
   1996   4168     1
   1997   2005     1
   1997   2006     1
   1997   4170     1
   1997   4172     1
   1998   2018     1
   1998   4198     1
   1999   2007     1
   1999   2008     1
   1999   4200     1
   1999   4202     1
   2000   2005     1
   2000   2006     1
   2000   2007     1
   2000   2008     1
   2000   2017     1
   2001   2018     1
   2002   2013     1
   2002   2014     1
   2003   2009     1
   2003   2010     1
   2003   4168     1
   2004   2011     1
   2004   2012     1
   2004   4198     1
   2005   2018     1
   2005   2009     1
   2005   2010     1
   2006   2018     1
   2006   2009     1
   2006   2010     1
   2007   2018     1
   2007   2011     1
   2007   2012     1
   2008   2018     1
   2008   2011     1
   2008   2012     1
   2009   4167     1
   2010   4167     1
   2011   4197     1
   2012   4197     1
   2013   2018     1
   2013   2015     1
   2013   2016     1
   2014   2018     1
   2014   2015     1
   2014   2016     1
   2015   2017     1
   2016   2017     1
   2019   2035     1
   2019   2036     1
   2019   2037     1
   2019   2038     1
   2019   2041     1
   2019   2042     1
   2020   2033     1
   2020   2034     1
   2020   2039     1
   2020   2040     1
   2021   2031     1
   2021   2032     1
   2021   2039     1
   2021   2040     1
   2022   2044     1
   2022   4228     1
   2023   2031     1
   2023   2032     1
   2023   4230     1
   2023   4232     1
   2024   2044     1
   2024   4258     1
   2025   2033     1
   2025   2034     1
   2025   4260     1
   2025   4262     1
   2026   2031     1
   2026   2032     1
   2026   2033     1
   2026   2034     1
   2026   2043     1
   2027   2044     1
   2028   2039     1
   2028   2040     1
   2029   2035     1
   2029   2036     1
   2029   4228     1
   2030   2037     1
   2030   2038     1
   2030   4258     1
   2031   2044     1
   2031   2035     1
   2031   2036     1
   2032   2044     1
   2032   2035     1
   2032   2036     1
   2033   2044     1
   2033   2037     1
   2033   2038     1
   2034   2044     1
   2034   2037     1
   2034   2038     1
   2035   4227     1
   2036   4227     1
   2037   4257     1
   2038   4257     1
   2039   2044     1
   2039   2041     1
   2039   2042     1
   2040   2044     1
   2040   2041     1
   2040   2042     1
   2041   2043     1
   2042   2043     1
   2045   2061     1
   2045   2062     1
   2045   2063     1
   2045   2064     1
   2045   2067     1
   2045   2068     1
   2046   2059     1
   2046   2060     1
   2046   2065     1
   2046   2066     1
   2047   2057     1
   2047   2058     1
   2047   2065     1
   2047   2066     1
   2048   2070     1
   2048   4288     1
   2049   2057     1
   2049   2058     1
   2049   4290     1
   2049   4292     1
   2050   2070     1
   2050   4318     1
   2051   2059     1
   2051   2060     1
   2051   4320     1
   2051   4322     1
   2052   2057     1
   2052   2058     1
   2052   2059     1
   2052   2060     1
   2052   2069     1
   2053   2070     1
   2054   2065     1
   2054   2066     1
   2055   2061     1
   2055   2062     1
   2055   4288     1
   2056   2063     1
   2056   2064     1
   2056   4318     1
   2057   2070     1
   2057   2061     1
   2057   2062     1
   2058   2070     1
   2058   2061     1
   2058   2062     1
   2059   2070     1
   2059   2063     1
   2059   2064     1
   2060   2070     1
   2060   2063     1
   2060   2064     1
   2061   4287     1
   2062   4287     1
   2063   4317     1
   2064   4317     1
   2065   2070     1
   2065   2067     1
   2065   2068     1
   2066   2070     1
   2066   2067     1
   2066   2068     1
   2067   2069     1
   2068   2069     1
   2071   2087     1
   2071   2088     1
   2071   2089     1
   2071   2090     1
   2071   2093     1
   2071   2094     1
   2072   2085     1
   2072   2086     1
   2072   2091     1
   2072   2092     1
   2073   2083     1
   2073   2084     1
   2073   2091     1
   2073   2092     1
   2074   2096     1
   2074   4348     1
   2075   2083     1
   2075   2084     1
   2075   4350     1
   2075   4352     1
   2076   2096     1
   2076   4378     1
   2077   2085     1
   2077   2086     1
   2077   4380     1
   2077   4382     1
   2078   2083     1
   2078   2084     1
   2078   2085     1
   2078   2086     1
   2078   2095     1
   2079   2096     1
   2080   2091     1
   2080   2092     1
   2081   2087     1
   2081   2088     1
   2081   4348     1
   2082   2089     1
   2082   2090     1
   2082   4378     1
   2083   2096     1
   2083   2087     1
   2083   2088     1
   2084   2096     1
   2084   2087     1
   2084   2088     1
   2085   2096     1
   2085   2089     1
   2085   2090     1
   2086   2096     1
   2086   2089     1
   2086   2090     1
   2087   4347     1
   2088   4347     1
   2089   4377     1
   2090   4377     1
   2091   2096     1
   2091   2093     1
   2091   2094     1
   2092   2096     1
   2092   2093     1
   2092   2094     1
   2093   2095     1
   2094   2095     1
   2097   2113     1
   2097   2114     1
   2097   2115     1
   2097   2116     1
   2097   2119     1
   2097   2120     1
   2098   2111     1
   2098   2112     1
   2098   2117     1
   2098   2118     1
   2099   2109     1
   2099   2110     1
   2099   2117     1
   2099   2118     1
   2100   2122     1
   2100   4408     1
   2101   2109     1
   2101   2110     1
   2101   4410     1
   2101   4412     1
   2102   2122     1
   2102   4438     1
   2103   2111     1
   2103   2112     1
   2103   4440     1
   2103   4442     1
   2104   2109     1
   2104   2110     1
   2104   2111     1
   2104   2112     1
   2104   2121     1
   2105   2122     1
   2106   2117     1
   2106   2118     1
   2107   2113     1
   2107   2114     1
   2107   4408     1
   2108   2115     1
   2108   2116     1
   2108   4438     1
   2109   2122     1
   2109   2113     1
   2109   2114     1
   2110   2122     1
   2110   2113     1
   2110   2114     1
   2111   2122     1
   2111   2115     1
   2111   2116     1
   2112   2122     1
   2112   2115     1
   2112   2116     1
   2113   4407     1
   2114   4407     1
   2115   4437     1
   2116   4437     1
   2117   2122     1
   2117   2119     1
   2117   2120     1
   2118   2122     1
   2118   2119     1
   2118   2120     1
   2119   2121     1
   2120   2121     1
   2123   2139     1
   2123   2140     1
   2123   2141     1
   2123   2142     1
   2123   2145     1
   2123   2146     1
   2124   2137     1
   2124   2138     1
   2124   2143     1
   2124   2144     1
   2125   2135     1
   2125   2136     1
   2125   2143     1
   2125   2144     1
   2126   2148     1
   2126   4468     1
   2127   2135     1
   2127   2136     1
   2127   4470     1
   2127   4472     1
   2128   2148     1
   2128   4498     1
   2129   2137     1
   2129   2138     1
   2129   4500     1
   2129   4502     1
   2130   2135     1
   2130   2136     1
   2130   2137     1
   2130   2138     1
   2130   2147     1
   2131   2148     1
   2132   2143     1
   2132   2144     1
   2133   2139     1
   2133   2140     1
   2133   4468     1
   2134   2141     1
   2134   2142     1
   2134   4498     1
   2135   2148     1
   2135   2139     1
   2135   2140     1
   2136   2148     1
   2136   2139     1
   2136   2140     1
   2137   2148     1
   2137   2141     1
   2137   2142     1
   2138   2148     1
   2138   2141     1
   2138   2142     1
   2139   4467     1
   2140   4467     1
   2141   4497     1
   2142   4497     1
   2143   2148     1
   2143   2145     1
   2143   2146     1
   2144   2148     1
   2144   2145     1
   2144   2146     1
   2145   2147     1
   2146   2147     1
   2149   2165     1
   2149   2166     1
   2149   2167     1
   2149   2168     1
   2149   2171     1
   2149   2172     1
   2150   2163     1
   2150   2164     1
   2150   2169     1
   2150   2170     1
   2151   2161     1
   2151   2162     1
   2151   2169     1
   2151   2170     1
   2152   2174     1
   2152   4528     1
   2153   2161     1
   2153   2162     1
   2153   4530     1
   2153   4532     1
   2154   2174     1
   2154   4558     1
   2155   2163     1
   2155   2164     1
   2155   4560     1
   2155   4562     1
   2156   2161     1
   2156   2162     1
   2156   2163     1
   2156   2164     1
   2156   2173     1
   2157   2174     1
   2158   2169     1
   2158   2170     1
   2159   2165     1
   2159   2166     1
   2159   4528     1
   2160   2167     1
   2160   2168     1
   2160   4558     1
   2161   2174     1
   2161   2165     1
   2161   2166     1
   2162   2174     1
   2162   2165     1
   2162   2166     1
   2163   2174     1
   2163   2167     1
   2163   2168     1
   2164   2174     1
   2164   2167     1
   2164   2168     1
   2165   4527     1
   2166   4527     1
   2167   4557     1
   2168   4557     1
   2169   2174     1
   2169   2171     1
   2169   2172     1
   2170   2174     1
   2170   2171     1
   2170   2172     1
   2171   2173     1
   2172   2173     1
   2175   2191     1
   2175   2192     1
   2175   2193     1
   2175   2194     1
   2175   2197     1
   2175   2198     1
   2176   2189     1
   2176   2190     1
   2176   2195     1
   2176   2196     1
   2177   2187     1
   2177   2188     1
   2177   2195     1
   2177   2196     1
   2178   2200     1
   2178   4588     1
   2179   2187     1
   2179   2188     1
   2179   4590     1
   2179   4592     1
   2180   2200     1
   2180   4618     1
   2181   2189     1
   2181   2190     1
   2181   4620     1
   2181   4622     1
   2182   2187     1
   2182   2188     1
   2182   2189     1
   2182   2190     1
   2182   2199     1
   2183   2200     1
   2184   2195     1
   2184   2196     1
   2185   2191     1
   2185   2192     1
   2185   4588     1
   2186   2193     1
   2186   2194     1
   2186   4618     1
   2187   2200     1
   2187   2191     1
   2187   2192     1
   2188   2200     1
   2188   2191     1
   2188   2192     1
   2189   2200     1
   2189   2193     1
   2189   2194     1
   2190   2200     1
   2190   2193     1
   2190   2194     1
   2191   4587     1
   2192   4587     1
   2193   4617     1
   2194   4617     1
   2195   2200     1
   2195   2197     1
   2195   2198     1
   2196   2200     1
   2196   2197     1
   2196   2198     1
   2197   2199     1
   2198   2199     1
   2201   2217     1
   2201   2218     1
   2201   2219     1
   2201   2220     1
   2201   2223     1
   2201   2224     1
   2202   2215     1
   2202   2216     1
   2202   2221     1
   2202   2222     1
   2203   2213     1
   2203   2214     1
   2203   2221     1
   2203   2222     1
   2204   2226     1
   2204   4648     1
   2205   2213     1
   2205   2214     1
   2205   4650     1
   2205   4652     1
   2206   2226     1
   2206   4678     1
   2207   2215     1
   2207   2216     1
   2207   4680     1
   2207   4682     1
   2208   2213     1
   2208   2214     1
   2208   2215     1
   2208   2216     1
   2208   2225     1
   2209   2226     1
   2210   2221     1
   2210   2222     1
   2211   2217     1
   2211   2218     1
   2211   4648     1
   2212   2219     1
   2212   2220     1
   2212   4678     1
   2213   2226     1
   2213   2217     1
   2213   2218     1
   2214   2226     1
   2214   2217     1
   2214   2218     1
   2215   2226     1
   2215   2219     1
   2215   2220     1
   2216   2226     1
   2216   2219     1
   2216   2220     1
   2217   4647     1
   2218   4647     1
   2219   4677     1
   2220   4677     1
   2221   2226     1
   2221   2223     1
   2221   2224     1
   2222   2226     1
   2222   2223     1
   2222   2224     1
   2223   2225     1
   2224   2225     1
   2227   2243     1
   2227   2244     1
   2227   2245     1
   2227   2246     1
   2227   2249     1
   2227   2250     1
   2228   2241     1
   2228   2242     1
   2228   2247     1
   2228   2248     1
   2229   2239     1
   2229   2240     1
   2229   2247     1
   2229   2248     1
   2230   2252     1
   2230   4708     1
   2231   2239     1
   2231   2240     1
   2231   4710     1
   2231   4712     1
   2232   2252     1
   2232   4738     1
   2233   2241     1
   2233   2242     1
   2233   4740     1
   2233   4742     1
   2234   2239     1
   2234   2240     1
   2234   2241     1
   2234   2242     1
   2234   2251     1
   2235   2252     1
   2236   2247     1
   2236   2248     1
   2237   2243     1
   2237   2244     1
   2237   4708     1
   2238   2245     1
   2238   2246     1
   2238   4738     1
   2239   2252     1
   2239   2243     1
   2239   2244     1
   2240   2252     1
   2240   2243     1
   2240   2244     1
   2241   2252     1
   2241   2245     1
   2241   2246     1
   2242   2252     1
   2242   2245     1
   2242   2246     1
   2243   4707     1
   2244   4707     1
   2245   4737     1
   2246   4737     1
   2247   2252     1
   2247   2249     1
   2247   2250     1
   2248   2252     1
   2248   2249     1
   2248   2250     1
   2249   2251     1
   2250   2251     1
   2253   2269     1
   2253   2270     1
   2253   2271     1
   2253   2272     1
   2253   2275     1
   2253   2276     1
   2254   2267     1
   2254   2268     1
   2254   2273     1
   2254   2274     1
   2255   2265     1
   2255   2266     1
   2255   2273     1
   2255   2274     1
   2256   2278     1
   2256   4768     1
   2257   2265     1
   2257   2266     1
   2257   4770     1
   2257   4772     1
   2258   2278     1
   2258   4798     1
   2259   2267     1
   2259   2268     1
   2259   4800     1
   2259   4802     1
   2260   2265     1
   2260   2266     1
   2260   2267     1
   2260   2268     1
   2260   2277     1
   2261   2278     1
   2262   2273     1
   2262   2274     1
   2263   2269     1
   2263   2270     1
   2263   4768     1
   2264   2271     1
   2264   2272     1
   2264   4798     1
   2265   2278     1
   2265   2269     1
   2265   2270     1
   2266   2278     1
   2266   2269     1
   2266   2270     1
   2267   2278     1
   2267   2271     1
   2267   2272     1
   2268   2278     1
   2268   2271     1
   2268   2272     1
   2269   4767     1
   2270   4767     1
   2271   4797     1
   2272   4797     1
   2273   2278     1
   2273   2275     1
   2273   2276     1
   2274   2278     1
   2274   2275     1
   2274   2276     1
   2275   2277     1
   2276   2277     1
   2279   2295     1
   2279   2296     1
   2279   2297     1
   2279   2298     1
   2279   2301     1
   2279   2302     1
   2280   2293     1
   2280   2294     1
   2280   2299     1
   2280   2300     1
   2281   2291     1
   2281   2292     1
   2281   2299     1
   2281   2300     1
   2282   2304     1
   2282   4828     1
   2283   2291     1
   2283   2292     1
   2283   4830     1
   2283   4832     1
   2284   2304     1
   2284   4858     1
   2285   2293     1
   2285   2294     1
   2285   4860     1
   2285   4862     1
   2286   2291     1
   2286   2292     1
   2286   2293     1
   2286   2294     1
   2286   2303     1
   2287   2304     1
   2288   2299     1
   2288   2300     1
   2289   2295     1
   2289   2296     1
   2289   4828     1
   2290   2297     1
   2290   2298     1
   2290   4858     1
   2291   2304     1
   2291   2295     1
   2291   2296     1
   2292   2304     1
   2292   2295     1
   2292   2296     1
   2293   2304     1
   2293   2297     1
   2293   2298     1
   2294   2304     1
   2294   2297     1
   2294   2298     1
   2295   4827     1
   2296   4827     1
   2297   4857     1
   2298   4857     1
   2299   2304     1
   2299   2301     1
   2299   2302     1
   2300   2304     1
   2300   2301     1
   2300   2302     1
   2301   2303     1
   2302   2303     1
   2305   2321     1
   2305   2322     1
   2305   2323     1
   2305   2324     1
   2305   2327     1
   2305   2328     1
   2306   2319     1
   2306   2320     1
   2306   2325     1
   2306   2326     1
   2307   2317     1
   2307   2318     1
   2307   2325     1
   2307   2326     1
   2308   2330     1
   2308   4888     1
   2309   2317     1
   2309   2318     1
   2309   4890     1
   2309   4892     1
   2310   2330     1
   2310   4918     1
   2311   2319     1
   2311   2320     1
   2311   4920     1
   2311   4922     1
   2312   2317     1
   2312   2318     1
   2312   2319     1
   2312   2320     1
   2312   2329     1
   2313   2330     1
   2314   2325     1
   2314   2326     1
   2315   2321     1
   2315   2322     1
   2315   4888     1
   2316   2323     1
   2316   2324     1
   2316   4918     1
   2317   2330     1
   2317   2321     1
   2317   2322     1
   2318   2330     1
   2318   2321     1
   2318   2322     1
   2319   2330     1
   2319   2323     1
   2319   2324     1
   2320   2330     1
   2320   2323     1
   2320   2324     1
   2321   4887     1
   2322   4887     1
   2323   4917     1
   2324   4917     1
   2325   2330     1
   2325   2327     1
   2325   2328     1
   2326   2330     1
   2326   2327     1
   2326   2328     1
   2327   2329     1
   2328   2329     1
   2331   2347     1
   2331   2348     1
   2331   2349     1
   2331   2350     1
   2331   2353     1
   2331   2354     1
   2332   2345     1
   2332   2346     1
   2332   2351     1
   2332   2352     1
   2333   2343     1
   2333   2344     1
   2333   2351     1
   2333   2352     1
   2334   2356     1
   2334   4948     1
   2335   2343     1
   2335   2344     1
   2335   4950     1
   2335   4952     1
   2336   2356     1
   2336   4978     1
   2337   2345     1
   2337   2346     1
   2337   4980     1
   2337   4982     1
   2338   2343     1
   2338   2344     1
   2338   2345     1
   2338   2346     1
   2338   2355     1
   2339   2356     1
   2340   2351     1
   2340   2352     1
   2341   2347     1
   2341   2348     1
   2341   4948     1
   2342   2349     1
   2342   2350     1
   2342   4978     1
   2343   2356     1
   2343   2347     1
   2343   2348     1
   2344   2356     1
   2344   2347     1
   2344   2348     1
   2345   2356     1
   2345   2349     1
   2345   2350     1
   2346   2356     1
   2346   2349     1
   2346   2350     1
   2347   4947     1
   2348   4947     1
   2349   4977     1
   2350   4977     1
   2351   2356     1
   2351   2353     1
   2351   2354     1
   2352   2356     1
   2352   2353     1
   2352   2354     1
   2353   2355     1
   2354   2355     1
   2357   2373     1
   2357   2374     1
   2357   2375     1
   2357   2376     1
   2357   2379     1
   2357   2380     1
   2358   2371     1
   2358   2372     1
   2358   2377     1
   2358   2378     1
   2359   2369     1
   2359   2370     1
   2359   2377     1
   2359   2378     1
   2360   2382     1
   2360   5008     1
   2361   2369     1
   2361   2370     1
   2361   5010     1
   2361   5012     1
   2362   2382     1
   2362   5038     1
   2363   2371     1
   2363   2372     1
   2363   5040     1
   2363   5042     1
   2364   2369     1
   2364   2370     1
   2364   2371     1
   2364   2372     1
   2364   2381     1
   2365   2382     1
   2366   2377     1
   2366   2378     1
   2367   2373     1
   2367   2374     1
   2367   5008     1
   2368   2375     1
   2368   2376     1
   2368   5038     1
   2369   2382     1
   2369   2373     1
   2369   2374     1
   2370   2382     1
   2370   2373     1
   2370   2374     1
   2371   2382     1
   2371   2375     1
   2371   2376     1
   2372   2382     1
   2372   2375     1
   2372   2376     1
   2373   5007     1
   2374   5007     1
   2375   5037     1
   2376   5037     1
   2377   2382     1
   2377   2379     1
   2377   2380     1
   2378   2382     1
   2378   2379     1
   2378   2380     1
   2379   2381     1
   2380   2381     1
   2383   2399     1
   2383   2400     1
   2383   2401     1
   2383   2402     1
   2383   2405     1
   2383   2406     1
   2384   2397     1
   2384   2398     1
   2384   2403     1
   2384   2404     1
   2385   2395     1
   2385   2396     1
   2385   2403     1
   2385   2404     1
   2386   2408     1
   2386   5068     1
   2387   2395     1
   2387   2396     1
   2387   5070     1
   2387   5072     1
   2388   2408     1
   2388   5098     1
   2389   2397     1
   2389   2398     1
   2389   5100     1
   2389   5102     1
   2390   2395     1
   2390   2396     1
   2390   2397     1
   2390   2398     1
   2390   2407     1
   2391   2408     1
   2392   2403     1
   2392   2404     1
   2393   2399     1
   2393   2400     1
   2393   5068     1
   2394   2401     1
   2394   2402     1
   2394   5098     1
   2395   2408     1
   2395   2399     1
   2395   2400     1
   2396   2408     1
   2396   2399     1
   2396   2400     1
   2397   2408     1
   2397   2401     1
   2397   2402     1
   2398   2408     1
   2398   2401     1
   2398   2402     1
   2399   5067     1
   2400   5067     1
   2401   5097     1
   2402   5097     1
   2403   2408     1
   2403   2405     1
   2403   2406     1
   2404   2408     1
   2404   2405     1
   2404   2406     1
   2405   2407     1
   2406   2407     1
   2409   2425     1
   2409   2426     1
   2409   2427     1
   2409   2428     1
   2409   2431     1
   2409   2432     1
   2410   2423     1
   2410   2424     1
   2410   2429     1
   2410   2430     1
   2411   2421     1
   2411   2422     1
   2411   2429     1
   2411   2430     1
   2412   2434     1
   2412   5128     1
   2413   2421     1
   2413   2422     1
   2413   5130     1
   2413   5132     1
   2414   2434     1
   2414   5158     1
   2415   2423     1
   2415   2424     1
   2415   5160     1
   2415   5162     1
   2416   2421     1
   2416   2422     1
   2416   2423     1
   2416   2424     1
   2416   2433     1
   2417   2434     1
   2418   2429     1
   2418   2430     1
   2419   2425     1
   2419   2426     1
   2419   5128     1
   2420   2427     1
   2420   2428     1
   2420   5158     1
   2421   2434     1
   2421   2425     1
   2421   2426     1
   2422   2434     1
   2422   2425     1
   2422   2426     1
   2423   2434     1
   2423   2427     1
   2423   2428     1
   2424   2434     1
   2424   2427     1
   2424   2428     1
   2425   5127     1
   2426   5127     1
   2427   5157     1
   2428   5157     1
   2429   2434     1
   2429   2431     1
   2429   2432     1
   2430   2434     1
   2430   2431     1
   2430   2432     1
   2431   2433     1
   2432   2433     1
   2435   2451     1
   2435   2452     1
   2435   2453     1
   2435   2454     1
   2435   2457     1
   2435   2458     1
   2436   2449     1
   2436   2450     1
   2436   2455     1
   2436   2456     1
   2437   2447     1
   2437   2448     1
   2437   2455     1
   2437   2456     1
   2438   2460     1
   2438   5188     1
   2439   2447     1
   2439   2448     1
   2439   5190     1
   2439   5192     1
   2440   2460     1
   2440   5218     1
   2441   2449     1
   2441   2450     1
   2441   5220     1
   2441   5222     1
   2442   2447     1
   2442   2448     1
   2442   2449     1
   2442   2450     1
   2442   2459     1
   2443   2460     1
   2444   2455     1
   2444   2456     1
   2445   2451     1
   2445   2452     1
   2445   5188     1
   2446   2453     1
   2446   2454     1
   2446   5218     1
   2447   2460     1
   2447   2451     1
   2447   2452     1
   2448   2460     1
   2448   2451     1
   2448   2452     1
   2449   2460     1
   2449   2453     1
   2449   2454     1
   2450   2460     1
   2450   2453     1
   2450   2454     1
   2451   5187     1
   2452   5187     1
   2453   5217     1
   2454   5217     1
   2455   2460     1
   2455   2457     1
   2455   2458     1
   2456   2460     1
   2456   2457     1
   2456   2458     1
   2457   2459     1
   2458   2459     1
   2461   2477     1
   2461   2478     1
   2461   2479     1
   2461   2480     1
   2461   2483     1
   2461   2484     1
   2462   2475     1
   2462   2476     1
   2462   2481     1
   2462   2482     1
   2463   2473     1
   2463   2474     1
   2463   2481     1
   2463   2482     1
   2464   2486     1
   2464   5248     1
   2465   2473     1
   2465   2474     1
   2465   5250     1
   2465   5252     1
   2466   2486     1
   2466   5278     1
   2467   2475     1
   2467   2476     1
   2467   5280     1
   2467   5282     1
   2468   2473     1
   2468   2474     1
   2468   2475     1
   2468   2476     1
   2468   2485     1
   2469   2486     1
   2470   2481     1
   2470   2482     1
   2471   2477     1
   2471   2478     1
   2471   5248     1
   2472   2479     1
   2472   2480     1
   2472   5278     1
   2473   2486     1
   2473   2477     1
   2473   2478     1
   2474   2486     1
   2474   2477     1
   2474   2478     1
   2475   2486     1
   2475   2479     1
   2475   2480     1
   2476   2486     1
   2476   2479     1
   2476   2480     1
   2477   5247     1
   2478   5247     1
   2479   5277     1
   2480   5277     1
   2481   2486     1
   2481   2483     1
   2481   2484     1
   2482   2486     1
   2482   2483     1
   2482   2484     1
   2483   2485     1
   2484   2485     1
   2487   2503     1
   2487   2504     1
   2487   2505     1
   2487   2506     1
   2487   2509     1
   2487   2510     1
   2488   2501     1
   2488   2502     1
   2488   2507     1
   2488   2508     1
   2489   2499     1
   2489   2500     1
   2489   2507     1
   2489   2508     1
   2490   2512     1
   2490   5308     1
   2491   2499     1
   2491   2500     1
   2491   5310     1
   2491   5312     1
   2492   2512     1
   2492   5338     1
   2493   2501     1
   2493   2502     1
   2493   5340     1
   2493   5342     1
   2494   2499     1
   2494   2500     1
   2494   2501     1
   2494   2502     1
   2494   2511     1
   2495   2512     1
   2496   2507     1
   2496   2508     1
   2497   2503     1
   2497   2504     1
   2497   5308     1
   2498   2505     1
   2498   2506     1
   2498   5338     1
   2499   2512     1
   2499   2503     1
   2499   2504     1
   2500   2512     1
   2500   2503     1
   2500   2504     1
   2501   2512     1
   2501   2505     1
   2501   2506     1
   2502   2512     1
   2502   2505     1
   2502   2506     1
   2503   5307     1
   2504   5307     1
   2505   5337     1
   2506   5337     1
   2507   2512     1
   2507   2509     1
   2507   2510     1
   2508   2512     1
   2508   2509     1
   2508   2510     1
   2509   2511     1
   2510   2511     1
   2513   2529     1
   2513   2530     1
   2513   2531     1
   2513   2532     1
   2513   2535     1
   2513   2536     1
   2514   2527     1
   2514   2528     1
   2514   2533     1
   2514   2534     1
   2515   2525     1
   2515   2526     1
   2515   2533     1
   2515   2534     1
   2516   2538     1
   2516   5368     1
   2517   2525     1
   2517   2526     1
   2517   5370     1
   2517   5372     1
   2518   2538     1
   2518   5398     1
   2519   2527     1
   2519   2528     1
   2519   5400     1
   2519   5402     1
   2520   2525     1
   2520   2526     1
   2520   2527     1
   2520   2528     1
   2520   2537     1
   2521   2538     1
   2522   2533     1
   2522   2534     1
   2523   2529     1
   2523   2530     1
   2523   5368     1
   2524   2531     1
   2524   2532     1
   2524   5398     1
   2525   2538     1
   2525   2529     1
   2525   2530     1
   2526   2538     1
   2526   2529     1
   2526   2530     1
   2527   2538     1
   2527   2531     1
   2527   2532     1
   2528   2538     1
   2528   2531     1
   2528   2532     1
   2529   5367     1
   2530   5367     1
   2531   5397     1
   2532   5397     1
   2533   2538     1
   2533   2535     1
   2533   2536     1
   2534   2538     1
   2534   2535     1
   2534   2536     1
   2535   2537     1
   2536   2537     1
   2539   2555     1
   2539   2556     1
   2539   2557     1
   2539   2558     1
   2539   2561     1
   2539   2562     1
   2540   2553     1
   2540   2554     1
   2540   2559     1
   2540   2560     1
   2541   2551     1
   2541   2552     1
   2541   2559     1
   2541   2560     1
   2542   2564     1
   2542   5428     1
   2543   2551     1
   2543   2552     1
   2543   5430     1
   2543   5432     1
   2544   2564     1
   2544   5458     1
   2545   2553     1
   2545   2554     1
   2545   5460     1
   2545   5462     1
   2546   2551     1
   2546   2552     1
   2546   2553     1
   2546   2554     1
   2546   2563     1
   2547   2564     1
   2548   2559     1
   2548   2560     1
   2549   2555     1
   2549   2556     1
   2549   5428     1
   2550   2557     1
   2550   2558     1
   2550   5458     1
   2551   2564     1
   2551   2555     1
   2551   2556     1
   2552   2564     1
   2552   2555     1
   2552   2556     1
   2553   2564     1
   2553   2557     1
   2553   2558     1
   2554   2564     1
   2554   2557     1
   2554   2558     1
   2555   5427     1
   2556   5427     1
   2557   5457     1
   2558   5457     1
   2559   2564     1
   2559   2561     1
   2559   2562     1
   2560   2564     1
   2560   2561     1
   2560   2562     1
   2561   2563     1
   2562   2563     1
   2565   2581     1
   2565   2582     1
   2565   2583     1
   2565   2584     1
   2565   2587     1
   2565   2588     1
   2566   2579     1
   2566   2580     1
   2566   2585     1
   2566   2586     1
   2567   2577     1
   2567   2578     1
   2567   2585     1
   2567   2586     1
   2568   2590     1
   2568   5488     1
   2569   2577     1
   2569   2578     1
   2569   5490     1
   2569   5492     1
   2570   2590     1
   2570   5518     1
   2571   2579     1
   2571   2580     1
   2571   5520     1
   2571   5522     1
   2572   2577     1
   2572   2578     1
   2572   2579     1
   2572   2580     1
   2572   2589     1
   2573   2590     1
   2574   2585     1
   2574   2586     1
   2575   2581     1
   2575   2582     1
   2575   5488     1
   2576   2583     1
   2576   2584     1
   2576   5518     1
   2577   2590     1
   2577   2581     1
   2577   2582     1
   2578   2590     1
   2578   2581     1
   2578   2582     1
   2579   2590     1
   2579   2583     1
   2579   2584     1
   2580   2590     1
   2580   2583     1
   2580   2584     1
   2581   5487     1
   2582   5487     1
   2583   5517     1
   2584   5517     1
   2585   2590     1
   2585   2587     1
   2585   2588     1
   2586   2590     1
   2586   2587     1
   2586   2588     1
   2587   2589     1
   2588   2589     1
   2591   2607     1
   2591   2608     1
   2591   2609     1
   2591   2610     1
   2591   2613     1
   2591   2614     1
   2592   2605     1
   2592   2606     1
   2592   2611     1
   2592   2612     1
   2593   2603     1
   2593   2604     1
   2593   2611     1
   2593   2612     1
   2594   2616     1
   2594   5548     1
   2595   2603     1
   2595   2604     1
   2595   5550     1
   2595   5552     1
   2596   2616     1
   2596   5578     1
   2597   2605     1
   2597   2606     1
   2597   5580     1
   2597   5582     1
   2598   2603     1
   2598   2604     1
   2598   2605     1
   2598   2606     1
   2598   2615     1
   2599   2616     1
   2600   2611     1
   2600   2612     1
   2601   2607     1
   2601   2608     1
   2601   5548     1
   2602   2609     1
   2602   2610     1
   2602   5578     1
   2603   2616     1
   2603   2607     1
   2603   2608     1
   2604   2616     1
   2604   2607     1
   2604   2608     1
   2605   2616     1
   2605   2609     1
   2605   2610     1
   2606   2616     1
   2606   2609     1
   2606   2610     1
   2607   5547     1
   2608   5547     1
   2609   5577     1
   2610   5577     1
   2611   2616     1
   2611   2613     1
   2611   2614     1
   2612   2616     1
   2612   2613     1
   2612   2614     1
   2613   2615     1
   2614   2615     1
   2617   2633     1
   2617   2634     1
   2617   2635     1
   2617   2636     1
   2617   2639     1
   2617   2640     1
   2618   2631     1
   2618   2632     1
   2618   2637     1
   2618   2638     1
   2619   2629     1
   2619   2630     1
   2619   2637     1
   2619   2638     1
   2620   2642     1
   2620   5608     1
   2621   2629     1
   2621   2630     1
   2621   5610     1
   2621   5612     1
   2622   2642     1
   2622   5638     1
   2623   2631     1
   2623   2632     1
   2623   5640     1
   2623   5642     1
   2624   2629     1
   2624   2630     1
   2624   2631     1
   2624   2632     1
   2624   2641     1
   2625   2642     1
   2626   2637     1
   2626   2638     1
   2627   2633     1
   2627   2634     1
   2627   5608     1
   2628   2635     1
   2628   2636     1
   2628   5638     1
   2629   2642     1
   2629   2633     1
   2629   2634     1
   2630   2642     1
   2630   2633     1
   2630   2634     1
   2631   2642     1
   2631   2635     1
   2631   2636     1
   2632   2642     1
   2632   2635     1
   2632   2636     1
   2633   5607     1
   2634   5607     1
   2635   5637     1
   2636   5637     1
   2637   2642     1
   2637   2639     1
   2637   2640     1
   2638   2642     1
   2638   2639     1
   2638   2640     1
   2639   2641     1
   2640   2641     1
   2643   2659     1
   2643   2660     1
   2643   2661     1
   2643   2662     1
   2643   2665     1
   2643   2666     1
   2644   2657     1
   2644   2658     1
   2644   2663     1
   2644   2664     1
   2645   2655     1
   2645   2656     1
   2645   2663     1
   2645   2664     1
   2646   2668     1
   2646   5668     1
   2647   2655     1
   2647   2656     1
   2647   5670     1
   2647   5672     1
   2648   2668     1
   2648   5698     1
   2649   2657     1
   2649   2658     1
   2649   5700     1
   2649   5702     1
   2650   2655     1
   2650   2656     1
   2650   2657     1
   2650   2658     1
   2650   2667     1
   2651   2668     1
   2652   2663     1
   2652   2664     1
   2653   2659     1
   2653   2660     1
   2653   5668     1
   2654   2661     1
   2654   2662     1
   2654   5698     1
   2655   2668     1
   2655   2659     1
   2655   2660     1
   2656   2668     1
   2656   2659     1
   2656   2660     1
   2657   2668     1
   2657   2661     1
   2657   2662     1
   2658   2668     1
   2658   2661     1
   2658   2662     1
   2659   5667     1
   2660   5667     1
   2661   5697     1
   2662   5697     1
   2663   2668     1
   2663   2665     1
   2663   2666     1
   2664   2668     1
   2664   2665     1
   2664   2666     1
   2665   2667     1
   2666   2667     1
   2669   2685     1
   2669   2686     1
   2669   2687     1
   2669   2688     1
   2669   2691     1
   2669   2692     1
   2670   2683     1
   2670   2684     1
   2670   2689     1
   2670   2690     1
   2671   2681     1
   2671   2682     1
   2671   2689     1
   2671   2690     1
   2672   2694     1
   2672   5728     1
   2673   2681     1
   2673   2682     1
   2673   5730     1
   2673   5732     1
   2674   2694     1
   2674   5758     1
   2675   2683     1
   2675   2684     1
   2675   5760     1
   2675   5762     1
   2676   2681     1
   2676   2682     1
   2676   2683     1
   2676   2684     1
   2676   2693     1
   2677   2694     1
   2678   2689     1
   2678   2690     1
   2679   2685     1
   2679   2686     1
   2679   5728     1
   2680   2687     1
   2680   2688     1
   2680   5758     1
   2681   2694     1
   2681   2685     1
   2681   2686     1
   2682   2694     1
   2682   2685     1
   2682   2686     1
   2683   2694     1
   2683   2687     1
   2683   2688     1
   2684   2694     1
   2684   2687     1
   2684   2688     1
   2685   5727     1
   2686   5727     1
   2687   5757     1
   2688   5757     1
   2689   2694     1
   2689   2691     1
   2689   2692     1
   2690   2694     1
   2690   2691     1
   2690   2692     1
   2691   2693     1
   2692   2693     1
   2695   2711     1
   2695   2712     1
   2695   2713     1
   2695   2714     1
   2695   2717     1
   2695   2718     1
   2696   2709     1
   2696   2710     1
   2696   2715     1
   2696   2716     1
   2697   2707     1
   2697   2708     1
   2697   2715     1
   2697   2716     1
   2698   2720     1
   2698   5788     1
   2699   2707     1
   2699   2708     1
   2699   5790     1
   2699   5792     1
   2700   2720     1
   2700   5818     1
   2701   2709     1
   2701   2710     1
   2701   5820     1
   2701   5822     1
   2702   2707     1
   2702   2708     1
   2702   2709     1
   2702   2710     1
   2702   2719     1
   2703   2720     1
   2704   2715     1
   2704   2716     1
   2705   2711     1
   2705   2712     1
   2705   5788     1
   2706   2713     1
   2706   2714     1
   2706   5818     1
   2707   2720     1
   2707   2711     1
   2707   2712     1
   2708   2720     1
   2708   2711     1
   2708   2712     1
   2709   2720     1
   2709   2713     1
   2709   2714     1
   2710   2720     1
   2710   2713     1
   2710   2714     1
   2711   5787     1
   2712   5787     1
   2713   5817     1
   2714   5817     1
   2715   2720     1
   2715   2717     1
   2715   2718     1
   2716   2720     1
   2716   2717     1
   2716   2718     1
   2717   2719     1
   2718   2719     1
   2721   2737     1
   2721   2738     1
   2721   2739     1
   2721   2740     1
   2721   2743     1
   2721   2744     1
   2722   2735     1
   2722   2736     1
   2722   2741     1
   2722   2742     1
   2723   2733     1
   2723   2734     1
   2723   2741     1
   2723   2742     1
   2724   2746     1
   2724   5848     1
   2725   2733     1
   2725   2734     1
   2725   5850     1
   2725   5852     1
   2726   2746     1
   2726   5878     1
   2727   2735     1
   2727   2736     1
   2727   5880     1
   2727   5882     1
   2728   2733     1
   2728   2734     1
   2728   2735     1
   2728   2736     1
   2728   2745     1
   2729   2746     1
   2730   2741     1
   2730   2742     1
   2731   2737     1
   2731   2738     1
   2731   5848     1
   2732   2739     1
   2732   2740     1
   2732   5878     1
   2733   2746     1
   2733   2737     1
   2733   2738     1
   2734   2746     1
   2734   2737     1
   2734   2738     1
   2735   2746     1
   2735   2739     1
   2735   2740     1
   2736   2746     1
   2736   2739     1
   2736   2740     1
   2737   5847     1
   2738   5847     1
   2739   5877     1
   2740   5877     1
   2741   2746     1
   2741   2743     1
   2741   2744     1
   2742   2746     1
   2742   2743     1
   2742   2744     1
   2743   2745     1
   2744   2745     1
   2747   2763     1
   2747   2764     1
   2747   2765     1
   2747   2766     1
   2747   2769     1
   2747   2770     1
   2748   2761     1
   2748   2762     1
   2748   2767     1
   2748   2768     1
   2749   2759     1
   2749   2760     1
   2749   2767     1
   2749   2768     1
   2750   2772     1
   2750   5908     1
   2751   2759     1
   2751   2760     1
   2751   5910     1
   2751   5912     1
   2752   2772     1
   2752   5938     1
   2753   2761     1
   2753   2762     1
   2753   5940     1
   2753   5942     1
   2754   2759     1
   2754   2760     1
   2754   2761     1
   2754   2762     1
   2754   2771     1
   2755   2772     1
   2756   2767     1
   2756   2768     1
   2757   2763     1
   2757   2764     1
   2757   5908     1
   2758   2765     1
   2758   2766     1
   2758   5938     1
   2759   2772     1
   2759   2763     1
   2759   2764     1
   2760   2772     1
   2760   2763     1
   2760   2764     1
   2761   2772     1
   2761   2765     1
   2761   2766     1
   2762   2772     1
   2762   2765     1
   2762   2766     1
   2763   5907     1
   2764   5907     1
   2765   5937     1
   2766   5937     1
   2767   2772     1
   2767   2769     1
   2767   2770     1
   2768   2772     1
   2768   2769     1
   2768   2770     1
   2769   2771     1
   2770   2771     1
   2773   2789     1
   2773   2790     1
   2773   2791     1
   2773   2792     1
   2773   2795     1
   2773   2796     1
   2774   2787     1
   2774   2788     1
   2774   2793     1
   2774   2794     1
   2775   2785     1
   2775   2786     1
   2775   2793     1
   2775   2794     1
   2776   2798     1
   2776   5968     1
   2777   2785     1
   2777   2786     1
   2777   5970     1
   2777   5972     1
   2778   2798     1
   2778   5998     1
   2779   2787     1
   2779   2788     1
   2779   6000     1
   2779   6002     1
   2780   2785     1
   2780   2786     1
   2780   2787     1
   2780   2788     1
   2780   2797     1
   2781   2798     1
   2782   2793     1
   2782   2794     1
   2783   2789     1
   2783   2790     1
   2783   5968     1
   2784   2791     1
   2784   2792     1
   2784   5998     1
   2785   2798     1
   2785   2789     1
   2785   2790     1
   2786   2798     1
   2786   2789     1
   2786   2790     1
   2787   2798     1
   2787   2791     1
   2787   2792     1
   2788   2798     1
   2788   2791     1
   2788   2792     1
   2789   5967     1
   2790   5967     1
   2791   5997     1
   2792   5997     1
   2793   2798     1
   2793   2795     1
   2793   2796     1
   2794   2798     1
   2794   2795     1
   2794   2796     1
   2795   2797     1
   2796   2797     1
   2799   2815     1
   2799   2816     1
   2799   2817     1
   2799   2818     1
   2799   2821     1
   2799   2822     1
   2800   2813     1
   2800   2814     1
   2800   2819     1
   2800   2820     1
   2801   2811     1
   2801   2812     1
   2801   2819     1
   2801   2820     1
   2802   2824     1
   2802   6028     1
   2803   2811     1
   2803   2812     1
   2803   6030     1
   2803   6032     1
   2804   2824     1
   2804   6058     1
   2805   2813     1
   2805   2814     1
   2805   6060     1
   2805   6062     1
   2806   2811     1
   2806   2812     1
   2806   2813     1
   2806   2814     1
   2806   2823     1
   2807   2824     1
   2808   2819     1
   2808   2820     1
   2809   2815     1
   2809   2816     1
   2809   6028     1
   2810   2817     1
   2810   2818     1
   2810   6058     1
   2811   2824     1
   2811   2815     1
   2811   2816     1
   2812   2824     1
   2812   2815     1
   2812   2816     1
   2813   2824     1
   2813   2817     1
   2813   2818     1
   2814   2824     1
   2814   2817     1
   2814   2818     1
   2815   6027     1
   2816   6027     1
   2817   6057     1
   2818   6057     1
   2819   2824     1
   2819   2821     1
   2819   2822     1
   2820   2824     1
   2820   2821     1
   2820   2822     1
   2821   2823     1
   2822   2823     1
   2825   2841     1
   2825   2842     1
   2825   2843     1
   2825   2844     1
   2825   2847     1
   2825   2848     1
   2826   2839     1
   2826   2840     1
   2826   2845     1
   2826   2846     1
   2827   2837     1
   2827   2838     1
   2827   2845     1
   2827   2846     1
   2828   2850     1
   2828   6088     1
   2829   2837     1
   2829   2838     1
   2829   6090     1
   2829   6092     1
   2830   2850     1
   2830   6118     1
   2831   2839     1
   2831   2840     1
   2831   6120     1
   2831   6122     1
   2832   2837     1
   2832   2838     1
   2832   2839     1
   2832   2840     1
   2832   2849     1
   2833   2850     1
   2834   2845     1
   2834   2846     1
   2835   2841     1
   2835   2842     1
   2835   6088     1
   2836   2843     1
   2836   2844     1
   2836   6118     1
   2837   2850     1
   2837   2841     1
   2837   2842     1
   2838   2850     1
   2838   2841     1
   2838   2842     1
   2839   2850     1
   2839   2843     1
   2839   2844     1
   2840   2850     1
   2840   2843     1
   2840   2844     1
   2841   6087     1
   2842   6087     1
   2843   6117     1
   2844   6117     1
   2845   2850     1
   2845   2847     1
   2845   2848     1
   2846   2850     1
   2846   2847     1
   2846   2848     1
   2847   2849     1
   2848   2849     1
   2851   2867     1
   2851   2868     1
   2851   2869     1
   2851   2870     1
   2851   2873     1
   2851   2874     1
   2852   2865     1
   2852   2866     1
   2852   2871     1
   2852   2872     1
   2853   2863     1
   2853   2864     1
   2853   2871     1
   2853   2872     1
   2854   2876     1
   2854   6148     1
   2855   2863     1
   2855   2864     1
   2855   6150     1
   2855   6152     1
   2856   2876     1
   2856   6178     1
   2857   2865     1
   2857   2866     1
   2857   6180     1
   2857   6182     1
   2858   2863     1
   2858   2864     1
   2858   2865     1
   2858   2866     1
   2858   2875     1
   2859   2876     1
   2860   2871     1
   2860   2872     1
   2861   2867     1
   2861   2868     1
   2861   6148     1
   2862   2869     1
   2862   2870     1
   2862   6178     1
   2863   2876     1
   2863   2867     1
   2863   2868     1
   2864   2876     1
   2864   2867     1
   2864   2868     1
   2865   2876     1
   2865   2869     1
   2865   2870     1
   2866   2876     1
   2866   2869     1
   2866   2870     1
   2867   6147     1
   2868   6147     1
   2869   6177     1
   2870   6177     1
   2871   2876     1
   2871   2873     1
   2871   2874     1
   2872   2876     1
   2872   2873     1
   2872   2874     1
   2873   2875     1
   2874   2875     1
   2877   2893     1
   2877   2894     1
   2877   2895     1
   2877   2896     1
   2877   2899     1
   2877   2900     1
   2878   2891     1
   2878   2892     1
   2878   2897     1
   2878   2898     1
   2879   2889     1
   2879   2890     1
   2879   2897     1
   2879   2898     1
   2880   2902     1
   2880   6208     1
   2881   2889     1
   2881   2890     1
   2881   6210     1
   2881   6212     1
   2882   2902     1
   2882   6238     1
   2883   2891     1
   2883   2892     1
   2883   6240     1
   2883   6242     1
   2884   2889     1
   2884   2890     1
   2884   2891     1
   2884   2892     1
   2884   2901     1
   2885   2902     1
   2886   2897     1
   2886   2898     1
   2887   2893     1
   2887   2894     1
   2887   6208     1
   2888   2895     1
   2888   2896     1
   2888   6238     1
   2889   2902     1
   2889   2893     1
   2889   2894     1
   2890   2902     1
   2890   2893     1
   2890   2894     1
   2891   2902     1
   2891   2895     1
   2891   2896     1
   2892   2902     1
   2892   2895     1
   2892   2896     1
   2893   6207     1
   2894   6207     1
   2895   6237     1
   2896   6237     1
   2897   2902     1
   2897   2899     1
   2897   2900     1
   2898   2902     1
   2898   2899     1
   2898   2900     1
   2899   2901     1
   2900   2901     1
   2903   2919     1
   2903   2920     1
   2903   2921     1
   2903   2922     1
   2903   2925     1
   2903   2926     1
   2904   2917     1
   2904   2918     1
   2904   2923     1
   2904   2924     1
   2905   2915     1
   2905   2916     1
   2905   2923     1
   2905   2924     1
   2906   2928     1
   2906   6268     1
   2907   2915     1
   2907   2916     1
   2907   6270     1
   2907   6272     1
   2908   2928     1
   2908   6298     1
   2909   2917     1
   2909   2918     1
   2909   6300     1
   2909   6302     1
   2910   2915     1
   2910   2916     1
   2910   2917     1
   2910   2918     1
   2910   2927     1
   2911   2928     1
   2912   2923     1
   2912   2924     1
   2913   2919     1
   2913   2920     1
   2913   6268     1
   2914   2921     1
   2914   2922     1
   2914   6298     1
   2915   2928     1
   2915   2919     1
   2915   2920     1
   2916   2928     1
   2916   2919     1
   2916   2920     1
   2917   2928     1
   2917   2921     1
   2917   2922     1
   2918   2928     1
   2918   2921     1
   2918   2922     1
   2919   6267     1
   2920   6267     1
   2921   6297     1
   2922   6297     1
   2923   2928     1
   2923   2925     1
   2923   2926     1
   2924   2928     1
   2924   2925     1
   2924   2926     1
   2925   2927     1
   2926   2927     1
   2929   2945     1
   2929   2946     1
   2929   2947     1
   2929   2948     1
   2929   2951     1
   2929   2952     1
   2930   2943     1
   2930   2944     1
   2930   2949     1
   2930   2950     1
   2931   2941     1
   2931   2942     1
   2931   2949     1
   2931   2950     1
   2932   2954     1
   2932   6328     1
   2933   2941     1
   2933   2942     1
   2933   6330     1
   2933   6332     1
   2934   2954     1
   2934   6358     1
   2935   2943     1
   2935   2944     1
   2935   6360     1
   2935   6362     1
   2936   2941     1
   2936   2942     1
   2936   2943     1
   2936   2944     1
   2936   2953     1
   2937   2954     1
   2938   2949     1
   2938   2950     1
   2939   2945     1
   2939   2946     1
   2939   6328     1
   2940   2947     1
   2940   2948     1
   2940   6358     1
   2941   2954     1
   2941   2945     1
   2941   2946     1
   2942   2954     1
   2942   2945     1
   2942   2946     1
   2943   2954     1
   2943   2947     1
   2943   2948     1
   2944   2954     1
   2944   2947     1
   2944   2948     1
   2945   6327     1
   2946   6327     1
   2947   6357     1
   2948   6357     1
   2949   2954     1
   2949   2951     1
   2949   2952     1
   2950   2954     1
   2950   2951     1
   2950   2952     1
   2951   2953     1
   2952   2953     1
   2955   2971     1
   2955   2972     1
   2955   2973     1
   2955   2974     1
   2955   2977     1
   2955   2978     1
   2956   2969     1
   2956   2970     1
   2956   2975     1
   2956   2976     1
   2957   2967     1
   2957   2968     1
   2957   2975     1
   2957   2976     1
   2958   2980     1
   2958   6388     1
   2959   2967     1
   2959   2968     1
   2959   6390     1
   2959   6392     1
   2960   2980     1
   2960   6418     1
   2961   2969     1
   2961   2970     1
   2961   6420     1
   2961   6422     1
   2962   2967     1
   2962   2968     1
   2962   2969     1
   2962   2970     1
   2962   2979     1
   2963   2980     1
   2964   2975     1
   2964   2976     1
   2965   2971     1
   2965   2972     1
   2965   6388     1
   2966   2973     1
   2966   2974     1
   2966   6418     1
   2967   2980     1
   2967   2971     1
   2967   2972     1
   2968   2980     1
   2968   2971     1
   2968   2972     1
   2969   2980     1
   2969   2973     1
   2969   2974     1
   2970   2980     1
   2970   2973     1
   2970   2974     1
   2971   6387     1
   2972   6387     1
   2973   6417     1
   2974   6417     1
   2975   2980     1
   2975   2977     1
   2975   2978     1
   2976   2980     1
   2976   2977     1
   2976   2978     1
   2977   2979     1
   2978   2979     1
   2981   2997     1
   2981   2998     1
   2981   2999     1
   2981   3000     1
   2981   3003     1
   2981   3004     1
   2982   2995     1
   2982   2996     1
   2982   3001     1
   2982   3002     1
   2983   2993     1
   2983   2994     1
   2983   3001     1
   2983   3002     1
   2984   3006     1
   2984   6448     1
   2985   2993     1
   2985   2994     1
   2985   6450     1
   2985   6452     1
   2986   3006     1
   2986   6478     1
   2987   2995     1
   2987   2996     1
   2987   6480     1
   2987   6482     1
   2988   2993     1
   2988   2994     1
   2988   2995     1
   2988   2996     1
   2988   3005     1
   2989   3006     1
   2990   3001     1
   2990   3002     1
   2991   2997     1
   2991   2998     1
   2991   6448     1
   2992   2999     1
   2992   3000     1
   2992   6478     1
   2993   3006     1
   2993   2997     1
   2993   2998     1
   2994   3006     1
   2994   2997     1
   2994   2998     1
   2995   3006     1
   2995   2999     1
   2995   3000     1
   2996   3006     1
   2996   2999     1
   2996   3000     1
   2997   6447     1
   2998   6447     1
   2999   6477     1
   3000   6477     1
   3001   3006     1
   3001   3003     1
   3001   3004     1
   3002   3006     1
   3002   3003     1
   3002   3004     1
   3003   3005     1
   3004   3005     1
   3007   3023     1
   3007   3024     1
   3007   3025     1
   3007   3026     1
   3007   3029     1
   3007   3030     1
   3008   3021     1
   3008   3022     1
   3008   3027     1
   3008   3028     1
   3009   3019     1
   3009   3020     1
   3009   3027     1
   3009   3028     1
   3010   3032     1
   3010   6508     1
   3011   3019     1
   3011   3020     1
   3011   6510     1
   3011   6512     1
   3012   3032     1
   3012   6538     1
   3013   3021     1
   3013   3022     1
   3013   6540     1
   3013   6542     1
   3014   3019     1
   3014   3020     1
   3014   3021     1
   3014   3022     1
   3014   3031     1
   3015   3032     1
   3016   3027     1
   3016   3028     1
   3017   3023     1
   3017   3024     1
   3017   6508     1
   3018   3025     1
   3018   3026     1
   3018   6538     1
   3019   3032     1
   3019   3023     1
   3019   3024     1
   3020   3032     1
   3020   3023     1
   3020   3024     1
   3021   3032     1
   3021   3025     1
   3021   3026     1
   3022   3032     1
   3022   3025     1
   3022   3026     1
   3023   6507     1
   3024   6507     1
   3025   6537     1
   3026   6537     1
   3027   3032     1
   3027   3029     1
   3027   3030     1
   3028   3032     1
   3028   3029     1
   3028   3030     1
   3029   3031     1
   3030   3031     1
   3033   3049     1
   3033   3050     1
   3033   3051     1
   3033   3052     1
   3033   3055     1
   3033   3056     1
   3034   3047     1
   3034   3048     1
   3034   3053     1
   3034   3054     1
   3035   3045     1
   3035   3046     1
   3035   3053     1
   3035   3054     1
   3036   3058     1
   3036   6568     1
   3037   3045     1
   3037   3046     1
   3037   6570     1
   3037   6572     1
   3038   3058     1
   3038   6598     1
   3039   3047     1
   3039   3048     1
   3039   6600     1
   3039   6602     1
   3040   3045     1
   3040   3046     1
   3040   3047     1
   3040   3048     1
   3040   3057     1
   3041   3058     1
   3042   3053     1
   3042   3054     1
   3043   3049     1
   3043   3050     1
   3043   6568     1
   3044   3051     1
   3044   3052     1
   3044   6598     1
   3045   3058     1
   3045   3049     1
   3045   3050     1
   3046   3058     1
   3046   3049     1
   3046   3050     1
   3047   3058     1
   3047   3051     1
   3047   3052     1
   3048   3058     1
   3048   3051     1
   3048   3052     1
   3049   6567     1
   3050   6567     1
   3051   6597     1
   3052   6597     1
   3053   3058     1
   3053   3055     1
   3053   3056     1
   3054   3058     1
   3054   3055     1
   3054   3056     1
   3055   3057     1
   3056   3057     1
   3059   3075     1
   3059   3076     1
   3059   3077     1
   3059   3078     1
   3059   3081     1
   3059   3082     1
   3060   3073     1
   3060   3074     1
   3060   3079     1
   3060   3080     1
   3061   3071     1
   3061   3072     1
   3061   3079     1
   3061   3080     1
   3062   3084     1
   3062   6628     1
   3063   3071     1
   3063   3072     1
   3063   6630     1
   3063   6632     1
   3064   3084     1
   3064   6658     1
   3065   3073     1
   3065   3074     1
   3065   6660     1
   3065   6662     1
   3066   3071     1
   3066   3072     1
   3066   3073     1
   3066   3074     1
   3066   3083     1
   3067   3084     1
   3068   3079     1
   3068   3080     1
   3069   3075     1
   3069   3076     1
   3069   6628     1
   3070   3077     1
   3070   3078     1
   3070   6658     1
   3071   3084     1
   3071   3075     1
   3071   3076     1
   3072   3084     1
   3072   3075     1
   3072   3076     1
   3073   3084     1
   3073   3077     1
   3073   3078     1
   3074   3084     1
   3074   3077     1
   3074   3078     1
   3075   6627     1
   3076   6627     1
   3077   6657     1
   3078   6657     1
   3079   3084     1
   3079   3081     1
   3079   3082     1
   3080   3084     1
   3080   3081     1
   3080   3082     1
   3081   3083     1
   3082   3083     1
   3085   3101     1
   3085   3102     1
   3085   3103     1
   3085   3104     1
   3085   3107     1
   3085   3108     1
   3086   3099     1
   3086   3100     1
   3086   3105     1
   3086   3106     1
   3087   3097     1
   3087   3098     1
   3087   3105     1
   3087   3106     1
   3088   3110     1
   3088   6688     1
   3089   3097     1
   3089   3098     1
   3089   6690     1
   3089   6692     1
   3090   3110     1
   3090   6718     1
   3091   3099     1
   3091   3100     1
   3091   6720     1
   3091   6722     1
   3092   3097     1
   3092   3098     1
   3092   3099     1
   3092   3100     1
   3092   3109     1
   3093   3110     1
   3094   3105     1
   3094   3106     1
   3095   3101     1
   3095   3102     1
   3095   6688     1
   3096   3103     1
   3096   3104     1
   3096   6718     1
   3097   3110     1
   3097   3101     1
   3097   3102     1
   3098   3110     1
   3098   3101     1
   3098   3102     1
   3099   3110     1
   3099   3103     1
   3099   3104     1
   3100   3110     1
   3100   3103     1
   3100   3104     1
   3101   6687     1
   3102   6687     1
   3103   6717     1
   3104   6717     1
   3105   3110     1
   3105   3107     1
   3105   3108     1
   3106   3110     1
   3106   3107     1
   3106   3108     1
   3107   3109     1
   3108   3109     1
   3111   3127     1
   3111   3128     1
   3111   3129     1
   3111   3130     1
   3111   3133     1
   3111   3134     1
   3112   3125     1
   3112   3126     1
   3112   3131     1
   3112   3132     1
   3113   3123     1
   3113   3124     1
   3113   3131     1
   3113   3132     1
   3114   3136     1
   3114   6748     1
   3115   3123     1
   3115   3124     1
   3115   6750     1
   3115   6752     1
   3116   3136     1
   3116   6778     1
   3117   3125     1
   3117   3126     1
   3117   6780     1
   3117   6782     1
   3118   3123     1
   3118   3124     1
   3118   3125     1
   3118   3126     1
   3118   3135     1
   3119   3136     1
   3120   3131     1
   3120   3132     1
   3121   3127     1
   3121   3128     1
   3121   6748     1
   3122   3129     1
   3122   3130     1
   3122   6778     1
   3123   3136     1
   3123   3127     1
   3123   3128     1
   3124   3136     1
   3124   3127     1
   3124   3128     1
   3125   3136     1
   3125   3129     1
   3125   3130     1
   3126   3136     1
   3126   3129     1
   3126   3130     1
   3127   6747     1
   3128   6747     1
   3129   6777     1
   3130   6777     1
   3131   3136     1
   3131   3133     1
   3131   3134     1
   3132   3136     1
   3132   3133     1
   3132   3134     1
   3133   3135     1
   3134   3135     1
   3137   3153     1
   3137   3154     1
   3137   3155     1
   3137   3156     1
   3137   3159     1
   3137   3160     1
   3138   3151     1
   3138   3152     1
   3138   3157     1
   3138   3158     1
   3139   3149     1
   3139   3150     1
   3139   3157     1
   3139   3158     1
   3140   3162     1
   3140   6808     1
   3141   3149     1
   3141   3150     1
   3141   6810     1
   3141   6812     1
   3142   3162     1
   3142   6838     1
   3143   3151     1
   3143   3152     1
   3143   6840     1
   3143   6842     1
   3144   3149     1
   3144   3150     1
   3144   3151     1
   3144   3152     1
   3144   3161     1
   3145   3162     1
   3146   3157     1
   3146   3158     1
   3147   3153     1
   3147   3154     1
   3147   6808     1
   3148   3155     1
   3148   3156     1
   3148   6838     1
   3149   3162     1
   3149   3153     1
   3149   3154     1
   3150   3162     1
   3150   3153     1
   3150   3154     1
   3151   3162     1
   3151   3155     1
   3151   3156     1
   3152   3162     1
   3152   3155     1
   3152   3156     1
   3153   6807     1
   3154   6807     1
   3155   6837     1
   3156   6837     1
   3157   3162     1
   3157   3159     1
   3157   3160     1
   3158   3162     1
   3158   3159     1
   3158   3160     1
   3159   3161     1
   3160   3161     1
   3163   3179     1
   3163   3180     1
   3163   3181     1
   3163   3182     1
   3163   3185     1
   3163   3186     1
   3164   3177     1
   3164   3178     1
   3164   3183     1
   3164   3184     1
   3165   3175     1
   3165   3176     1
   3165   3183     1
   3165   3184     1
   3166   3188     1
   3166   6868     1
   3167   3175     1
   3167   3176     1
   3167   6870     1
   3167   6872     1
   3168   3188     1
   3168   6898     1
   3169   3177     1
   3169   3178     1
   3169   6900     1
   3169   6902     1
   3170   3175     1
   3170   3176     1
   3170   3177     1
   3170   3178     1
   3170   3187     1
   3171   3188     1
   3172   3183     1
   3172   3184     1
   3173   3179     1
   3173   3180     1
   3173   6868     1
   3174   3181     1
   3174   3182     1
   3174   6898     1
   3175   3188     1
   3175   3179     1
   3175   3180     1
   3176   3188     1
   3176   3179     1
   3176   3180     1
   3177   3188     1
   3177   3181     1
   3177   3182     1
   3178   3188     1
   3178   3181     1
   3178   3182     1
   3179   6867     1
   3180   6867     1
   3181   6897     1
   3182   6897     1
   3183   3188     1
   3183   3185     1
   3183   3186     1
   3184   3188     1
   3184   3185     1
   3184   3186     1
   3185   3187     1
   3186   3187     1
   3189   3205     1
   3189   3206     1
   3189   3207     1
   3189   3208     1
   3189   3211     1
   3189   3212     1
   3190   3203     1
   3190   3204     1
   3190   3209     1
   3190   3210     1
   3191   3201     1
   3191   3202     1
   3191   3209     1
   3191   3210     1
   3192   3214     1
   3192   6928     1
   3193   3201     1
   3193   3202     1
   3193   6930     1
   3193   6932     1
   3194   3214     1
   3194   6958     1
   3195   3203     1
   3195   3204     1
   3195   6960     1
   3195   6962     1
   3196   3201     1
   3196   3202     1
   3196   3203     1
   3196   3204     1
   3196   3213     1
   3197   3214     1
   3198   3209     1
   3198   3210     1
   3199   3205     1
   3199   3206     1
   3199   6928     1
   3200   3207     1
   3200   3208     1
   3200   6958     1
   3201   3214     1
   3201   3205     1
   3201   3206     1
   3202   3214     1
   3202   3205     1
   3202   3206     1
   3203   3214     1
   3203   3207     1
   3203   3208     1
   3204   3214     1
   3204   3207     1
   3204   3208     1
   3205   6927     1
   3206   6927     1
   3207   6957     1
   3208   6957     1
   3209   3214     1
   3209   3211     1
   3209   3212     1
   3210   3214     1
   3210   3211     1
   3210   3212     1
   3211   3213     1
   3212   3213     1
   3215   3231     1
   3215   3232     1
   3215   3233     1
   3215   3234     1
   3215   3237     1
   3215   3238     1
   3216   3229     1
   3216   3230     1
   3216   3235     1
   3216   3236     1
   3217   3227     1
   3217   3228     1
   3217   3235     1
   3217   3236     1
   3218   3240     1
   3218   6988     1
   3219   3227     1
   3219   3228     1
   3219   6990     1
   3219   6992     1
   3220   3240     1
   3220   7018     1
   3221   3229     1
   3221   3230     1
   3221   7020     1
   3221   7022     1
   3222   3227     1
   3222   3228     1
   3222   3229     1
   3222   3230     1
   3222   3239     1
   3223   3240     1
   3224   3235     1
   3224   3236     1
   3225   3231     1
   3225   3232     1
   3225   6988     1
   3226   3233     1
   3226   3234     1
   3226   7018     1
   3227   3240     1
   3227   3231     1
   3227   3232     1
   3228   3240     1
   3228   3231     1
   3228   3232     1
   3229   3240     1
   3229   3233     1
   3229   3234     1
   3230   3240     1
   3230   3233     1
   3230   3234     1
   3231   6987     1
   3232   6987     1
   3233   7017     1
   3234   7017     1
   3235   3240     1
   3235   3237     1
   3235   3238     1
   3236   3240     1
   3236   3237     1
   3236   3238     1
   3237   3239     1
   3238   3239     1
   3241   3257     1
   3241   3258     1
   3241   3259     1
   3241   3260     1
   3241   3263     1
   3241   3264     1
   3242   3255     1
   3242   3256     1
   3242   3261     1
   3242   3262     1
   3243   3253     1
   3243   3254     1
   3243   3261     1
   3243   3262     1
   3244   3266     1
   3244   7048     1
   3245   3253     1
   3245   3254     1
   3245   7050     1
   3245   7052     1
   3246   3266     1
   3246   7078     1
   3247   3255     1
   3247   3256     1
   3247   7080     1
   3247   7082     1
   3248   3253     1
   3248   3254     1
   3248   3255     1
   3248   3256     1
   3248   3265     1
   3249   3266     1
   3250   3261     1
   3250   3262     1
   3251   3257     1
   3251   3258     1
   3251   7048     1
   3252   3259     1
   3252   3260     1
   3252   7078     1
   3253   3266     1
   3253   3257     1
   3253   3258     1
   3254   3266     1
   3254   3257     1
   3254   3258     1
   3255   3266     1
   3255   3259     1
   3255   3260     1
   3256   3266     1
   3256   3259     1
   3256   3260     1
   3257   7047     1
   3258   7047     1
   3259   7077     1
   3260   7077     1
   3261   3266     1
   3261   3263     1
   3261   3264     1
   3262   3266     1
   3262   3263     1
   3262   3264     1
   3263   3265     1
   3264   3265     1
   3267   3273     1
   3267   3274     1
   3268   3271     1
   3268   3270     1
   3268   3272     1
   3269   3296     1
   3270   3275     1
   3270   3273     1
   3270   3274     1
   3271   3286     1
   3271   3287     1
   3271   3278     1
   3271   3280     1
   3272   3275     1
   3272   3273     1
   3272   3274     1
   3273   3276     1
   3273   3277     1
   3273   3296     1
   3274   3276     1
   3274   3277     1
   3274   3296     1
   3275   3289     1
   3275   3290     1
   3275   3281     1
   3275   3282     1
   3276   3278     1
   3276   3280     1
   3277   3286     1
   3277   3287     1
   3278   3296     1
   3278   3283     1
   3278   3281     1
   3278   3282     1
   3279   3296     1
   3279   3294     1
   3280   3296     1
   3280   3283     1
   3280   3281     1
   3280   3282     1
   3281   3284     1
   3281   3285     1
   3282   3284     1
   3282   3285     1
   3285   3294     1
   3286   3296     1
   3286   3291     1
   3286   3289     1
   3286   3290     1
   3287   3296     1
   3287   3291     1
   3287   3289     1
   3287   3290     1
   3288   3296     1
   3288   3295     1
   3289   3292     1
   3289   3293     1
   3290   3292     1
   3290   3293     1
   3292   3295     1
   3297   3303     1
   3297   3304     1
   3298   3301     1
   3298   3300     1
   3298   3302     1
   3299   3326     1
   3300   3305     1
   3300   3303     1
   3300   3304     1
   3301   3316     1
   3301   3317     1
   3301   3308     1
   3301   3310     1
   3302   3305     1
   3302   3303     1
   3302   3304     1
   3303   3306     1
   3303   3307     1
   3303   3326     1
   3304   3306     1
   3304   3307     1
   3304   3326     1
   3305   3319     1
   3305   3320     1
   3305   3311     1
   3305   3312     1
   3306   3308     1
   3306   3310     1
   3307   3316     1
   3307   3317     1
   3308   3313     1
   3308   3311     1
   3308   3312     1
   3308   3326     1
   3309   3324     1
   3309   3326     1
   3310   3313     1
   3310   3311     1
   3310   3312     1
   3310   3326     1
   3311   3314     1
   3311   3315     1
   3312   3314     1
   3312   3315     1
   3315   3324     1
   3316   3321     1
   3316   3319     1
   3316   3320     1
   3316   3326     1
   3317   3321     1
   3317   3319     1
   3317   3320     1
   3317   3326     1
   3318   3325     1
   3318   3326     1
   3319   3322     1
   3319   3323     1
   3320   3322     1
   3320   3323     1
   3322   3325     1
   3327   3333     1
   3327   3334     1
   3328   3331     1
   3328   3330     1
   3328   3332     1
   3329   3356     1
   3330   3335     1
   3330   3333     1
   3330   3334     1
   3331   3346     1
   3331   3347     1
   3331   3338     1
   3331   3340     1
   3332   3335     1
   3332   3333     1
   3332   3334     1
   3333   3336     1
   3333   3337     1
   3333   3356     1
   3334   3336     1
   3334   3337     1
   3334   3356     1
   3335   3349     1
   3335   3350     1
   3335   3341     1
   3335   3342     1
   3336   3338     1
   3336   3340     1
   3337   3346     1
   3337   3347     1
   3338   3356     1
   3338   3343     1
   3338   3341     1
   3338   3342     1
   3339   3356     1
   3339   3354     1
   3340   3356     1
   3340   3343     1
   3340   3341     1
   3340   3342     1
   3341   3344     1
   3341   3345     1
   3342   3344     1
   3342   3345     1
   3345   3354     1
   3346   3356     1
   3346   3351     1
   3346   3349     1
   3346   3350     1
   3347   3356     1
   3347   3351     1
   3347   3349     1
   3347   3350     1
   3348   3356     1
   3348   3355     1
   3349   3352     1
   3349   3353     1
   3350   3352     1
   3350   3353     1
   3352   3355     1
   3357   3363     1
   3357   3364     1
   3358   3361     1
   3358   3360     1
   3358   3362     1
   3359   3386     1
   3360   3365     1
   3360   3363     1
   3360   3364     1
   3361   3376     1
   3361   3377     1
   3361   3368     1
   3361   3370     1
   3362   3365     1
   3362   3363     1
   3362   3364     1
   3363   3366     1
   3363   3367     1
   3363   3386     1
   3364   3366     1
   3364   3367     1
   3364   3386     1
   3365   3379     1
   3365   3380     1
   3365   3371     1
   3365   3372     1
   3366   3368     1
   3366   3370     1
   3367   3376     1
   3367   3377     1
   3368   3373     1
   3368   3371     1
   3368   3372     1
   3368   3386     1
   3369   3384     1
   3369   3386     1
   3370   3373     1
   3370   3371     1
   3370   3372     1
   3370   3386     1
   3371   3374     1
   3371   3375     1
   3372   3374     1
   3372   3375     1
   3375   3384     1
   3376   3381     1
   3376   3379     1
   3376   3380     1
   3376   3386     1
   3377   3381     1
   3377   3379     1
   3377   3380     1
   3377   3386     1
   3378   3385     1
   3378   3386     1
   3379   3382     1
   3379   3383     1
   3380   3382     1
   3380   3383     1
   3382   3385     1
   3387   3393     1
   3387   3394     1
   3388   3391     1
   3388   3390     1
   3388   3392     1
   3389   3416     1
   3390   3395     1
   3390   3393     1
   3390   3394     1
   3391   3406     1
   3391   3407     1
   3391   3398     1
   3391   3400     1
   3392   3395     1
   3392   3393     1
   3392   3394     1
   3393   3396     1
   3393   3397     1
   3393   3416     1
   3394   3396     1
   3394   3397     1
   3394   3416     1
   3395   3409     1
   3395   3410     1
   3395   3401     1
   3395   3402     1
   3396   3398     1
   3396   3400     1
   3397   3406     1
   3397   3407     1
   3398   3416     1
   3398   3403     1
   3398   3401     1
   3398   3402     1
   3399   3416     1
   3399   3414     1
   3400   3416     1
   3400   3403     1
   3400   3401     1
   3400   3402     1
   3401   3404     1
   3401   3405     1
   3402   3404     1
   3402   3405     1
   3405   3414     1
   3406   3416     1
   3406   3411     1
   3406   3409     1
   3406   3410     1
   3407   3416     1
   3407   3411     1
   3407   3409     1
   3407   3410     1
   3408   3416     1
   3408   3415     1
   3409   3412     1
   3409   3413     1
   3410   3412     1
   3410   3413     1
   3412   3415     1
   3417   3423     1
   3417   3424     1
   3418   3421     1
   3418   3420     1
   3418   3422     1
   3419   3446     1
   3420   3425     1
   3420   3423     1
   3420   3424     1
   3421   3436     1
   3421   3437     1
   3421   3428     1
   3421   3430     1
   3422   3425     1
   3422   3423     1
   3422   3424     1
   3423   3426     1
   3423   3427     1
   3423   3446     1
   3424   3426     1
   3424   3427     1
   3424   3446     1
   3425   3439     1
   3425   3440     1
   3425   3431     1
   3425   3432     1
   3426   3428     1
   3426   3430     1
   3427   3436     1
   3427   3437     1
   3428   3433     1
   3428   3431     1
   3428   3432     1
   3428   3446     1
   3429   3444     1
   3429   3446     1
   3430   3433     1
   3430   3431     1
   3430   3432     1
   3430   3446     1
   3431   3434     1
   3431   3435     1
   3432   3434     1
   3432   3435     1
   3435   3444     1
   3436   3441     1
   3436   3439     1
   3436   3440     1
   3436   3446     1
   3437   3441     1
   3437   3439     1
   3437   3440     1
   3437   3446     1
   3438   3445     1
   3438   3446     1
   3439   3442     1
   3439   3443     1
   3440   3442     1
   3440   3443     1
   3442   3445     1
   3447   3453     1
   3447   3454     1
   3448   3451     1
   3448   3450     1
   3448   3452     1
   3449   3476     1
   3450   3455     1
   3450   3453     1
   3450   3454     1
   3451   3466     1
   3451   3467     1
   3451   3458     1
   3451   3460     1
   3452   3455     1
   3452   3453     1
   3452   3454     1
   3453   3456     1
   3453   3457     1
   3453   3476     1
   3454   3456     1
   3454   3457     1
   3454   3476     1
   3455   3469     1
   3455   3470     1
   3455   3461     1
   3455   3462     1
   3456   3458     1
   3456   3460     1
   3457   3466     1
   3457   3467     1
   3458   3476     1
   3458   3463     1
   3458   3461     1
   3458   3462     1
   3459   3476     1
   3459   3474     1
   3460   3476     1
   3460   3463     1
   3460   3461     1
   3460   3462     1
   3461   3464     1
   3461   3465     1
   3462   3464     1
   3462   3465     1
   3465   3474     1
   3466   3476     1
   3466   3471     1
   3466   3469     1
   3466   3470     1
   3467   3476     1
   3467   3471     1
   3467   3469     1
   3467   3470     1
   3468   3476     1
   3468   3475     1
   3469   3472     1
   3469   3473     1
   3470   3472     1
   3470   3473     1
   3472   3475     1
   3477   3483     1
   3477   3484     1
   3478   3481     1
   3478   3480     1
   3478   3482     1
   3479   3506     1
   3480   3485     1
   3480   3483     1
   3480   3484     1
   3481   3496     1
   3481   3497     1
   3481   3488     1
   3481   3490     1
   3482   3485     1
   3482   3483     1
   3482   3484     1
   3483   3486     1
   3483   3487     1
   3483   3506     1
   3484   3486     1
   3484   3487     1
   3484   3506     1
   3485   3499     1
   3485   3500     1
   3485   3491     1
   3485   3492     1
   3486   3488     1
   3486   3490     1
   3487   3496     1
   3487   3497     1
   3488   3493     1
   3488   3491     1
   3488   3492     1
   3488   3506     1
   3489   3504     1
   3489   3506     1
   3490   3493     1
   3490   3491     1
   3490   3492     1
   3490   3506     1
   3491   3494     1
   3491   3495     1
   3492   3494     1
   3492   3495     1
   3495   3504     1
   3496   3501     1
   3496   3499     1
   3496   3500     1
   3496   3506     1
   3497   3501     1
   3497   3499     1
   3497   3500     1
   3497   3506     1
   3498   3505     1
   3498   3506     1
   3499   3502     1
   3499   3503     1
   3500   3502     1
   3500   3503     1
   3502   3505     1
   3507   3513     1
   3507   3514     1
   3508   3511     1
   3508   3510     1
   3508   3512     1
   3509   3536     1
   3510   3515     1
   3510   3513     1
   3510   3514     1
   3511   3526     1
   3511   3527     1
   3511   3518     1
   3511   3520     1
   3512   3515     1
   3512   3513     1
   3512   3514     1
   3513   3516     1
   3513   3517     1
   3513   3536     1
   3514   3516     1
   3514   3517     1
   3514   3536     1
   3515   3529     1
   3515   3530     1
   3515   3521     1
   3515   3522     1
   3516   3518     1
   3516   3520     1
   3517   3526     1
   3517   3527     1
   3518   3536     1
   3518   3523     1
   3518   3521     1
   3518   3522     1
   3519   3536     1
   3519   3534     1
   3520   3536     1
   3520   3523     1
   3520   3521     1
   3520   3522     1
   3521   3524     1
   3521   3525     1
   3522   3524     1
   3522   3525     1
   3525   3534     1
   3526   3536     1
   3526   3531     1
   3526   3529     1
   3526   3530     1
   3527   3536     1
   3527   3531     1
   3527   3529     1
   3527   3530     1
   3528   3536     1
   3528   3535     1
   3529   3532     1
   3529   3533     1
   3530   3532     1
   3530   3533     1
   3532   3535     1
   3537   3543     1
   3537   3544     1
   3538   3541     1
   3538   3540     1
   3538   3542     1
   3539   3566     1
   3540   3545     1
   3540   3543     1
   3540   3544     1
   3541   3556     1
   3541   3557     1
   3541   3548     1
   3541   3550     1
   3542   3545     1
   3542   3543     1
   3542   3544     1
   3543   3546     1
   3543   3547     1
   3543   3566     1
   3544   3546     1
   3544   3547     1
   3544   3566     1
   3545   3559     1
   3545   3560     1
   3545   3551     1
   3545   3552     1
   3546   3548     1
   3546   3550     1
   3547   3556     1
   3547   3557     1
   3548   3553     1
   3548   3551     1
   3548   3552     1
   3548   3566     1
   3549   3564     1
   3549   3566     1
   3550   3553     1
   3550   3551     1
   3550   3552     1
   3550   3566     1
   3551   3554     1
   3551   3555     1
   3552   3554     1
   3552   3555     1
   3555   3564     1
   3556   3561     1
   3556   3559     1
   3556   3560     1
   3556   3566     1
   3557   3561     1
   3557   3559     1
   3557   3560     1
   3557   3566     1
   3558   3565     1
   3558   3566     1
   3559   3562     1
   3559   3563     1
   3560   3562     1
   3560   3563     1
   3562   3565     1
   3567   3573     1
   3567   3574     1
   3568   3571     1
   3568   3570     1
   3568   3572     1
   3569   3596     1
   3570   3575     1
   3570   3573     1
   3570   3574     1
   3571   3586     1
   3571   3587     1
   3571   3578     1
   3571   3580     1
   3572   3575     1
   3572   3573     1
   3572   3574     1
   3573   3576     1
   3573   3577     1
   3573   3596     1
   3574   3576     1
   3574   3577     1
   3574   3596     1
   3575   3589     1
   3575   3590     1
   3575   3581     1
   3575   3582     1
   3576   3578     1
   3576   3580     1
   3577   3586     1
   3577   3587     1
   3578   3596     1
   3578   3583     1
   3578   3581     1
   3578   3582     1
   3579   3596     1
   3579   3594     1
   3580   3596     1
   3580   3583     1
   3580   3581     1
   3580   3582     1
   3581   3584     1
   3581   3585     1
   3582   3584     1
   3582   3585     1
   3585   3594     1
   3586   3596     1
   3586   3591     1
   3586   3589     1
   3586   3590     1
   3587   3596     1
   3587   3591     1
   3587   3589     1
   3587   3590     1
   3588   3596     1
   3588   3595     1
   3589   3592     1
   3589   3593     1
   3590   3592     1
   3590   3593     1
   3592   3595     1
   3597   3603     1
   3597   3604     1
   3598   3601     1
   3598   3600     1
   3598   3602     1
   3599   3626     1
   3600   3605     1
   3600   3603     1
   3600   3604     1
   3601   3616     1
   3601   3617     1
   3601   3608     1
   3601   3610     1
   3602   3605     1
   3602   3603     1
   3602   3604     1
   3603   3606     1
   3603   3607     1
   3603   3626     1
   3604   3606     1
   3604   3607     1
   3604   3626     1
   3605   3619     1
   3605   3620     1
   3605   3611     1
   3605   3612     1
   3606   3608     1
   3606   3610     1
   3607   3616     1
   3607   3617     1
   3608   3613     1
   3608   3611     1
   3608   3612     1
   3608   3626     1
   3609   3624     1
   3609   3626     1
   3610   3613     1
   3610   3611     1
   3610   3612     1
   3610   3626     1
   3611   3614     1
   3611   3615     1
   3612   3614     1
   3612   3615     1
   3615   3624     1
   3616   3621     1
   3616   3619     1
   3616   3620     1
   3616   3626     1
   3617   3621     1
   3617   3619     1
   3617   3620     1
   3617   3626     1
   3618   3625     1
   3618   3626     1
   3619   3622     1
   3619   3623     1
   3620   3622     1
   3620   3623     1
   3622   3625     1
   3627   3633     1
   3627   3634     1
   3628   3631     1
   3628   3630     1
   3628   3632     1
   3629   3656     1
   3630   3635     1
   3630   3633     1
   3630   3634     1
   3631   3646     1
   3631   3647     1
   3631   3638     1
   3631   3640     1
   3632   3635     1
   3632   3633     1
   3632   3634     1
   3633   3636     1
   3633   3637     1
   3633   3656     1
   3634   3636     1
   3634   3637     1
   3634   3656     1
   3635   3649     1
   3635   3650     1
   3635   3641     1
   3635   3642     1
   3636   3638     1
   3636   3640     1
   3637   3646     1
   3637   3647     1
   3638   3656     1
   3638   3643     1
   3638   3641     1
   3638   3642     1
   3639   3656     1
   3639   3654     1
   3640   3656     1
   3640   3643     1
   3640   3641     1
   3640   3642     1
   3641   3644     1
   3641   3645     1
   3642   3644     1
   3642   3645     1
   3645   3654     1
   3646   3656     1
   3646   3651     1
   3646   3649     1
   3646   3650     1
   3647   3656     1
   3647   3651     1
   3647   3649     1
   3647   3650     1
   3648   3656     1
   3648   3655     1
   3649   3652     1
   3649   3653     1
   3650   3652     1
   3650   3653     1
   3652   3655     1
   3657   3663     1
   3657   3664     1
   3658   3661     1
   3658   3660     1
   3658   3662     1
   3659   3686     1
   3660   3665     1
   3660   3663     1
   3660   3664     1
   3661   3676     1
   3661   3677     1
   3661   3668     1
   3661   3670     1
   3662   3665     1
   3662   3663     1
   3662   3664     1
   3663   3666     1
   3663   3667     1
   3663   3686     1
   3664   3666     1
   3664   3667     1
   3664   3686     1
   3665   3679     1
   3665   3680     1
   3665   3671     1
   3665   3672     1
   3666   3668     1
   3666   3670     1
   3667   3676     1
   3667   3677     1
   3668   3673     1
   3668   3671     1
   3668   3672     1
   3668   3686     1
   3669   3684     1
   3669   3686     1
   3670   3673     1
   3670   3671     1
   3670   3672     1
   3670   3686     1
   3671   3674     1
   3671   3675     1
   3672   3674     1
   3672   3675     1
   3675   3684     1
   3676   3681     1
   3676   3679     1
   3676   3680     1
   3676   3686     1
   3677   3681     1
   3677   3679     1
   3677   3680     1
   3677   3686     1
   3678   3685     1
   3678   3686     1
   3679   3682     1
   3679   3683     1
   3680   3682     1
   3680   3683     1
   3682   3685     1
   3687   3693     1
   3687   3694     1
   3688   3691     1
   3688   3690     1
   3688   3692     1
   3689   3716     1
   3690   3695     1
   3690   3693     1
   3690   3694     1
   3691   3706     1
   3691   3707     1
   3691   3698     1
   3691   3700     1
   3692   3695     1
   3692   3693     1
   3692   3694     1
   3693   3696     1
   3693   3697     1
   3693   3716     1
   3694   3696     1
   3694   3697     1
   3694   3716     1
   3695   3709     1
   3695   3710     1
   3695   3701     1
   3695   3702     1
   3696   3698     1
   3696   3700     1
   3697   3706     1
   3697   3707     1
   3698   3716     1
   3698   3703     1
   3698   3701     1
   3698   3702     1
   3699   3716     1
   3699   3714     1
   3700   3716     1
   3700   3703     1
   3700   3701     1
   3700   3702     1
   3701   3704     1
   3701   3705     1
   3702   3704     1
   3702   3705     1
   3705   3714     1
   3706   3716     1
   3706   3711     1
   3706   3709     1
   3706   3710     1
   3707   3716     1
   3707   3711     1
   3707   3709     1
   3707   3710     1
   3708   3716     1
   3708   3715     1
   3709   3712     1
   3709   3713     1
   3710   3712     1
   3710   3713     1
   3712   3715     1
   3717   3723     1
   3717   3724     1
   3718   3721     1
   3718   3720     1
   3718   3722     1
   3719   3746     1
   3720   3725     1
   3720   3723     1
   3720   3724     1
   3721   3736     1
   3721   3737     1
   3721   3728     1
   3721   3730     1
   3722   3725     1
   3722   3723     1
   3722   3724     1
   3723   3726     1
   3723   3727     1
   3723   3746     1
   3724   3726     1
   3724   3727     1
   3724   3746     1
   3725   3739     1
   3725   3740     1
   3725   3731     1
   3725   3732     1
   3726   3728     1
   3726   3730     1
   3727   3736     1
   3727   3737     1
   3728   3733     1
   3728   3731     1
   3728   3732     1
   3728   3746     1
   3729   3744     1
   3729   3746     1
   3730   3733     1
   3730   3731     1
   3730   3732     1
   3730   3746     1
   3731   3734     1
   3731   3735     1
   3732   3734     1
   3732   3735     1
   3735   3744     1
   3736   3741     1
   3736   3739     1
   3736   3740     1
   3736   3746     1
   3737   3741     1
   3737   3739     1
   3737   3740     1
   3737   3746     1
   3738   3745     1
   3738   3746     1
   3739   3742     1
   3739   3743     1
   3740   3742     1
   3740   3743     1
   3742   3745     1
   3747   3753     1
   3747   3754     1
   3748   3751     1
   3748   3750     1
   3748   3752     1
   3749   3776     1
   3750   3755     1
   3750   3753     1
   3750   3754     1
   3751   3766     1
   3751   3767     1
   3751   3758     1
   3751   3760     1
   3752   3755     1
   3752   3753     1
   3752   3754     1
   3753   3756     1
   3753   3757     1
   3753   3776     1
   3754   3756     1
   3754   3757     1
   3754   3776     1
   3755   3769     1
   3755   3770     1
   3755   3761     1
   3755   3762     1
   3756   3758     1
   3756   3760     1
   3757   3766     1
   3757   3767     1
   3758   3776     1
   3758   3763     1
   3758   3761     1
   3758   3762     1
   3759   3776     1
   3759   3774     1
   3760   3776     1
   3760   3763     1
   3760   3761     1
   3760   3762     1
   3761   3764     1
   3761   3765     1
   3762   3764     1
   3762   3765     1
   3765   3774     1
   3766   3776     1
   3766   3771     1
   3766   3769     1
   3766   3770     1
   3767   3776     1
   3767   3771     1
   3767   3769     1
   3767   3770     1
   3768   3776     1
   3768   3775     1
   3769   3772     1
   3769   3773     1
   3770   3772     1
   3770   3773     1
   3772   3775     1
   3777   3783     1
   3777   3784     1
   3778   3781     1
   3778   3780     1
   3778   3782     1
   3779   3806     1
   3780   3785     1
   3780   3783     1
   3780   3784     1
   3781   3796     1
   3781   3797     1
   3781   3788     1
   3781   3790     1
   3782   3785     1
   3782   3783     1
   3782   3784     1
   3783   3786     1
   3783   3787     1
   3783   3806     1
   3784   3786     1
   3784   3787     1
   3784   3806     1
   3785   3799     1
   3785   3800     1
   3785   3791     1
   3785   3792     1
   3786   3788     1
   3786   3790     1
   3787   3796     1
   3787   3797     1
   3788   3793     1
   3788   3791     1
   3788   3792     1
   3788   3806     1
   3789   3804     1
   3789   3806     1
   3790   3793     1
   3790   3791     1
   3790   3792     1
   3790   3806     1
   3791   3794     1
   3791   3795     1
   3792   3794     1
   3792   3795     1
   3795   3804     1
   3796   3801     1
   3796   3799     1
   3796   3800     1
   3796   3806     1
   3797   3801     1
   3797   3799     1
   3797   3800     1
   3797   3806     1
   3798   3805     1
   3798   3806     1
   3799   3802     1
   3799   3803     1
   3800   3802     1
   3800   3803     1
   3802   3805     1
   3807   3813     1
   3807   3814     1
   3808   3811     1
   3808   3810     1
   3808   3812     1
   3809   3836     1
   3810   3815     1
   3810   3813     1
   3810   3814     1
   3811   3826     1
   3811   3827     1
   3811   3818     1
   3811   3820     1
   3812   3815     1
   3812   3813     1
   3812   3814     1
   3813   3816     1
   3813   3817     1
   3813   3836     1
   3814   3816     1
   3814   3817     1
   3814   3836     1
   3815   3829     1
   3815   3830     1
   3815   3821     1
   3815   3822     1
   3816   3818     1
   3816   3820     1
   3817   3826     1
   3817   3827     1
   3818   3836     1
   3818   3823     1
   3818   3821     1
   3818   3822     1
   3819   3836     1
   3819   3834     1
   3820   3836     1
   3820   3823     1
   3820   3821     1
   3820   3822     1
   3821   3824     1
   3821   3825     1
   3822   3824     1
   3822   3825     1
   3825   3834     1
   3826   3836     1
   3826   3831     1
   3826   3829     1
   3826   3830     1
   3827   3836     1
   3827   3831     1
   3827   3829     1
   3827   3830     1
   3828   3836     1
   3828   3835     1
   3829   3832     1
   3829   3833     1
   3830   3832     1
   3830   3833     1
   3832   3835     1
   3837   3843     1
   3837   3844     1
   3838   3841     1
   3838   3840     1
   3838   3842     1
   3839   3866     1
   3840   3845     1
   3840   3843     1
   3840   3844     1
   3841   3856     1
   3841   3857     1
   3841   3848     1
   3841   3850     1
   3842   3845     1
   3842   3843     1
   3842   3844     1
   3843   3846     1
   3843   3847     1
   3843   3866     1
   3844   3846     1
   3844   3847     1
   3844   3866     1
   3845   3859     1
   3845   3860     1
   3845   3851     1
   3845   3852     1
   3846   3848     1
   3846   3850     1
   3847   3856     1
   3847   3857     1
   3848   3853     1
   3848   3851     1
   3848   3852     1
   3848   3866     1
   3849   3864     1
   3849   3866     1
   3850   3853     1
   3850   3851     1
   3850   3852     1
   3850   3866     1
   3851   3854     1
   3851   3855     1
   3852   3854     1
   3852   3855     1
   3855   3864     1
   3856   3861     1
   3856   3859     1
   3856   3860     1
   3856   3866     1
   3857   3861     1
   3857   3859     1
   3857   3860     1
   3857   3866     1
   3858   3865     1
   3858   3866     1
   3859   3862     1
   3859   3863     1
   3860   3862     1
   3860   3863     1
   3862   3865     1
   3867   3873     1
   3867   3874     1
   3868   3871     1
   3868   3870     1
   3868   3872     1
   3869   3896     1
   3870   3875     1
   3870   3873     1
   3870   3874     1
   3871   3886     1
   3871   3887     1
   3871   3878     1
   3871   3880     1
   3872   3875     1
   3872   3873     1
   3872   3874     1
   3873   3876     1
   3873   3877     1
   3873   3896     1
   3874   3876     1
   3874   3877     1
   3874   3896     1
   3875   3889     1
   3875   3890     1
   3875   3881     1
   3875   3882     1
   3876   3878     1
   3876   3880     1
   3877   3886     1
   3877   3887     1
   3878   3896     1
   3878   3883     1
   3878   3881     1
   3878   3882     1
   3879   3896     1
   3879   3894     1
   3880   3896     1
   3880   3883     1
   3880   3881     1
   3880   3882     1
   3881   3884     1
   3881   3885     1
   3882   3884     1
   3882   3885     1
   3885   3894     1
   3886   3896     1
   3886   3891     1
   3886   3889     1
   3886   3890     1
   3887   3896     1
   3887   3891     1
   3887   3889     1
   3887   3890     1
   3888   3896     1
   3888   3895     1
   3889   3892     1
   3889   3893     1
   3890   3892     1
   3890   3893     1
   3892   3895     1
   3897   3903     1
   3897   3904     1
   3898   3901     1
   3898   3900     1
   3898   3902     1
   3899   3926     1
   3900   3905     1
   3900   3903     1
   3900   3904     1
   3901   3916     1
   3901   3917     1
   3901   3908     1
   3901   3910     1
   3902   3905     1
   3902   3903     1
   3902   3904     1
   3903   3906     1
   3903   3907     1
   3903   3926     1
   3904   3906     1
   3904   3907     1
   3904   3926     1
   3905   3919     1
   3905   3920     1
   3905   3911     1
   3905   3912     1
   3906   3908     1
   3906   3910     1
   3907   3916     1
   3907   3917     1
   3908   3913     1
   3908   3911     1
   3908   3912     1
   3908   3926     1
   3909   3924     1
   3909   3926     1
   3910   3913     1
   3910   3911     1
   3910   3912     1
   3910   3926     1
   3911   3914     1
   3911   3915     1
   3912   3914     1
   3912   3915     1
   3915   3924     1
   3916   3921     1
   3916   3919     1
   3916   3920     1
   3916   3926     1
   3917   3921     1
   3917   3919     1
   3917   3920     1
   3917   3926     1
   3918   3925     1
   3918   3926     1
   3919   3922     1
   3919   3923     1
   3920   3922     1
   3920   3923     1
   3922   3925     1
   3927   3933     1
   3927   3934     1
   3928   3931     1
   3928   3930     1
   3928   3932     1
   3929   3956     1
   3930   3935     1
   3930   3933     1
   3930   3934     1
   3931   3946     1
   3931   3947     1
   3931   3938     1
   3931   3940     1
   3932   3935     1
   3932   3933     1
   3932   3934     1
   3933   3936     1
   3933   3937     1
   3933   3956     1
   3934   3936     1
   3934   3937     1
   3934   3956     1
   3935   3949     1
   3935   3950     1
   3935   3941     1
   3935   3942     1
   3936   3938     1
   3936   3940     1
   3937   3946     1
   3937   3947     1
   3938   3956     1
   3938   3943     1
   3938   3941     1
   3938   3942     1
   3939   3956     1
   3939   3954     1
   3940   3956     1
   3940   3943     1
   3940   3941     1
   3940   3942     1
   3941   3944     1
   3941   3945     1
   3942   3944     1
   3942   3945     1
   3945   3954     1
   3946   3956     1
   3946   3951     1
   3946   3949     1
   3946   3950     1
   3947   3956     1
   3947   3951     1
   3947   3949     1
   3947   3950     1
   3948   3956     1
   3948   3955     1
   3949   3952     1
   3949   3953     1
   3950   3952     1
   3950   3953     1
   3952   3955     1
   3957   3963     1
   3957   3964     1
   3958   3961     1
   3958   3960     1
   3958   3962     1
   3959   3986     1
   3960   3965     1
   3960   3963     1
   3960   3964     1
   3961   3976     1
   3961   3977     1
   3961   3968     1
   3961   3970     1
   3962   3965     1
   3962   3963     1
   3962   3964     1
   3963   3966     1
   3963   3967     1
   3963   3986     1
   3964   3966     1
   3964   3967     1
   3964   3986     1
   3965   3979     1
   3965   3980     1
   3965   3971     1
   3965   3972     1
   3966   3968     1
   3966   3970     1
   3967   3976     1
   3967   3977     1
   3968   3973     1
   3968   3971     1
   3968   3972     1
   3968   3986     1
   3969   3984     1
   3969   3986     1
   3970   3973     1
   3970   3971     1
   3970   3972     1
   3970   3986     1
   3971   3974     1
   3971   3975     1
   3972   3974     1
   3972   3975     1
   3975   3984     1
   3976   3981     1
   3976   3979     1
   3976   3980     1
   3976   3986     1
   3977   3981     1
   3977   3979     1
   3977   3980     1
   3977   3986     1
   3978   3985     1
   3978   3986     1
   3979   3982     1
   3979   3983     1
   3980   3982     1
   3980   3983     1
   3982   3985     1
   3987   3993     1
   3987   3994     1
   3988   3991     1
   3988   3990     1
   3988   3992     1
   3989   4016     1
   3990   3995     1
   3990   3993     1
   3990   3994     1
   3991   4006     1
   3991   4007     1
   3991   3998     1
   3991   4000     1
   3992   3995     1
   3992   3993     1
   3992   3994     1
   3993   3996     1
   3993   3997     1
   3993   4016     1
   3994   3996     1
   3994   3997     1
   3994   4016     1
   3995   4009     1
   3995   4010     1
   3995   4001     1
   3995   4002     1
   3996   3998     1
   3996   4000     1
   3997   4006     1
   3997   4007     1
   3998   4016     1
   3998   4003     1
   3998   4001     1
   3998   4002     1
   3999   4016     1
   3999   4014     1
   4000   4016     1
   4000   4003     1
   4000   4001     1
   4000   4002     1
   4001   4004     1
   4001   4005     1
   4002   4004     1
   4002   4005     1
   4005   4014     1
   4006   4016     1
   4006   4011     1
   4006   4009     1
   4006   4010     1
   4007   4016     1
   4007   4011     1
   4007   4009     1
   4007   4010     1
   4008   4016     1
   4008   4015     1
   4009   4012     1
   4009   4013     1
   4010   4012     1
   4010   4013     1
   4012   4015     1
   4017   4023     1
   4017   4024     1
   4018   4021     1
   4018   4020     1
   4018   4022     1
   4019   4046     1
   4020   4025     1
   4020   4023     1
   4020   4024     1
   4021   4036     1
   4021   4037     1
   4021   4028     1
   4021   4030     1
   4022   4025     1
   4022   4023     1
   4022   4024     1
   4023   4026     1
   4023   4027     1
   4023   4046     1
   4024   4026     1
   4024   4027     1
   4024   4046     1
   4025   4039     1
   4025   4040     1
   4025   4031     1
   4025   4032     1
   4026   4028     1
   4026   4030     1
   4027   4036     1
   4027   4037     1
   4028   4033     1
   4028   4031     1
   4028   4032     1
   4028   4046     1
   4029   4044     1
   4029   4046     1
   4030   4033     1
   4030   4031     1
   4030   4032     1
   4030   4046     1
   4031   4034     1
   4031   4035     1
   4032   4034     1
   4032   4035     1
   4035   4044     1
   4036   4041     1
   4036   4039     1
   4036   4040     1
   4036   4046     1
   4037   4041     1
   4037   4039     1
   4037   4040     1
   4037   4046     1
   4038   4045     1
   4038   4046     1
   4039   4042     1
   4039   4043     1
   4040   4042     1
   4040   4043     1
   4042   4045     1
   4047   4053     1
   4047   4054     1
   4048   4051     1
   4048   4050     1
   4048   4052     1
   4049   4076     1
   4050   4055     1
   4050   4053     1
   4050   4054     1
   4051   4066     1
   4051   4067     1
   4051   4058     1
   4051   4060     1
   4052   4055     1
   4052   4053     1
   4052   4054     1
   4053   4056     1
   4053   4057     1
   4053   4076     1
   4054   4056     1
   4054   4057     1
   4054   4076     1
   4055   4069     1
   4055   4070     1
   4055   4061     1
   4055   4062     1
   4056   4058     1
   4056   4060     1
   4057   4066     1
   4057   4067     1
   4058   4076     1
   4058   4063     1
   4058   4061     1
   4058   4062     1
   4059   4076     1
   4059   4074     1
   4060   4076     1
   4060   4063     1
   4060   4061     1
   4060   4062     1
   4061   4064     1
   4061   4065     1
   4062   4064     1
   4062   4065     1
   4065   4074     1
   4066   4076     1
   4066   4071     1
   4066   4069     1
   4066   4070     1
   4067   4076     1
   4067   4071     1
   4067   4069     1
   4067   4070     1
   4068   4076     1
   4068   4075     1
   4069   4072     1
   4069   4073     1
   4070   4072     1
   4070   4073     1
   4072   4075     1
   4077   4083     1
   4077   4084     1
   4078   4081     1
   4078   4080     1
   4078   4082     1
   4079   4106     1
   4080   4085     1
   4080   4083     1
   4080   4084     1
   4081   4096     1
   4081   4097     1
   4081   4088     1
   4081   4090     1
   4082   4085     1
   4082   4083     1
   4082   4084     1
   4083   4086     1
   4083   4087     1
   4083   4106     1
   4084   4086     1
   4084   4087     1
   4084   4106     1
   4085   4099     1
   4085   4100     1
   4085   4091     1
   4085   4092     1
   4086   4088     1
   4086   4090     1
   4087   4096     1
   4087   4097     1
   4088   4093     1
   4088   4091     1
   4088   4092     1
   4088   4106     1
   4089   4104     1
   4089   4106     1
   4090   4093     1
   4090   4091     1
   4090   4092     1
   4090   4106     1
   4091   4094     1
   4091   4095     1
   4092   4094     1
   4092   4095     1
   4095   4104     1
   4096   4101     1
   4096   4099     1
   4096   4100     1
   4096   4106     1
   4097   4101     1
   4097   4099     1
   4097   4100     1
   4097   4106     1
   4098   4105     1
   4098   4106     1
   4099   4102     1
   4099   4103     1
   4100   4102     1
   4100   4103     1
   4102   4105     1
   4107   4113     1
   4107   4114     1
   4108   4111     1
   4108   4110     1
   4108   4112     1
   4109   4136     1
   4110   4115     1
   4110   4113     1
   4110   4114     1
   4111   4126     1
   4111   4127     1
   4111   4118     1
   4111   4120     1
   4112   4115     1
   4112   4113     1
   4112   4114     1
   4113   4116     1
   4113   4117     1
   4113   4136     1
   4114   4116     1
   4114   4117     1
   4114   4136     1
   4115   4129     1
   4115   4130     1
   4115   4121     1
   4115   4122     1
   4116   4118     1
   4116   4120     1
   4117   4126     1
   4117   4127     1
   4118   4136     1
   4118   4123     1
   4118   4121     1
   4118   4122     1
   4119   4136     1
   4119   4134     1
   4120   4136     1
   4120   4123     1
   4120   4121     1
   4120   4122     1
   4121   4124     1
   4121   4125     1
   4122   4124     1
   4122   4125     1
   4125   4134     1
   4126   4136     1
   4126   4131     1
   4126   4129     1
   4126   4130     1
   4127   4136     1
   4127   4131     1
   4127   4129     1
   4127   4130     1
   4128   4136     1
   4128   4135     1
   4129   4132     1
   4129   4133     1
   4130   4132     1
   4130   4133     1
   4132   4135     1
   4137   4143     1
   4137   4144     1
   4138   4141     1
   4138   4140     1
   4138   4142     1
   4139   4166     1
   4140   4145     1
   4140   4143     1
   4140   4144     1
   4141   4156     1
   4141   4157     1
   4141   4148     1
   4141   4150     1
   4142   4145     1
   4142   4143     1
   4142   4144     1
   4143   4146     1
   4143   4147     1
   4143   4166     1
   4144   4146     1
   4144   4147     1
   4144   4166     1
   4145   4159     1
   4145   4160     1
   4145   4151     1
   4145   4152     1
   4146   4148     1
   4146   4150     1
   4147   4156     1
   4147   4157     1
   4148   4153     1
   4148   4151     1
   4148   4152     1
   4148   4166     1
   4149   4164     1
   4149   4166     1
   4150   4153     1
   4150   4151     1
   4150   4152     1
   4150   4166     1
   4151   4154     1
   4151   4155     1
   4152   4154     1
   4152   4155     1
   4155   4164     1
   4156   4161     1
   4156   4159     1
   4156   4160     1
   4156   4166     1
   4157   4161     1
   4157   4159     1
   4157   4160     1
   4157   4166     1
   4158   4165     1
   4158   4166     1
   4159   4162     1
   4159   4163     1
   4160   4162     1
   4160   4163     1
   4162   4165     1
   4167   4173     1
   4167   4174     1
   4168   4171     1
   4168   4170     1
   4168   4172     1
   4169   4196     1
   4170   4175     1
   4170   4173     1
   4170   4174     1
   4171   4186     1
   4171   4187     1
   4171   4178     1
   4171   4180     1
   4172   4175     1
   4172   4173     1
   4172   4174     1
   4173   4176     1
   4173   4177     1
   4173   4196     1
   4174   4176     1
   4174   4177     1
   4174   4196     1
   4175   4189     1
   4175   4190     1
   4175   4181     1
   4175   4182     1
   4176   4178     1
   4176   4180     1
   4177   4186     1
   4177   4187     1
   4178   4196     1
   4178   4183     1
   4178   4181     1
   4178   4182     1
   4179   4196     1
   4179   4194     1
   4180   4196     1
   4180   4183     1
   4180   4181     1
   4180   4182     1
   4181   4184     1
   4181   4185     1
   4182   4184     1
   4182   4185     1
   4185   4194     1
   4186   4196     1
   4186   4191     1
   4186   4189     1
   4186   4190     1
   4187   4196     1
   4187   4191     1
   4187   4189     1
   4187   4190     1
   4188   4196     1
   4188   4195     1
   4189   4192     1
   4189   4193     1
   4190   4192     1
   4190   4193     1
   4192   4195     1
   4197   4203     1
   4197   4204     1
   4198   4201     1
   4198   4200     1
   4198   4202     1
   4199   4226     1
   4200   4205     1
   4200   4203     1
   4200   4204     1
   4201   4216     1
   4201   4217     1
   4201   4208     1
   4201   4210     1
   4202   4205     1
   4202   4203     1
   4202   4204     1
   4203   4206     1
   4203   4207     1
   4203   4226     1
   4204   4206     1
   4204   4207     1
   4204   4226     1
   4205   4219     1
   4205   4220     1
   4205   4211     1
   4205   4212     1
   4206   4208     1
   4206   4210     1
   4207   4216     1
   4207   4217     1
   4208   4213     1
   4208   4211     1
   4208   4212     1
   4208   4226     1
   4209   4224     1
   4209   4226     1
   4210   4213     1
   4210   4211     1
   4210   4212     1
   4210   4226     1
   4211   4214     1
   4211   4215     1
   4212   4214     1
   4212   4215     1
   4215   4224     1
   4216   4221     1
   4216   4219     1
   4216   4220     1
   4216   4226     1
   4217   4221     1
   4217   4219     1
   4217   4220     1
   4217   4226     1
   4218   4225     1
   4218   4226     1
   4219   4222     1
   4219   4223     1
   4220   4222     1
   4220   4223     1
   4222   4225     1
   4227   4233     1
   4227   4234     1
   4228   4231     1
   4228   4230     1
   4228   4232     1
   4229   4256     1
   4230   4235     1
   4230   4233     1
   4230   4234     1
   4231   4246     1
   4231   4247     1
   4231   4238     1
   4231   4240     1
   4232   4235     1
   4232   4233     1
   4232   4234     1
   4233   4236     1
   4233   4237     1
   4233   4256     1
   4234   4236     1
   4234   4237     1
   4234   4256     1
   4235   4249     1
   4235   4250     1
   4235   4241     1
   4235   4242     1
   4236   4238     1
   4236   4240     1
   4237   4246     1
   4237   4247     1
   4238   4256     1
   4238   4243     1
   4238   4241     1
   4238   4242     1
   4239   4256     1
   4239   4254     1
   4240   4256     1
   4240   4243     1
   4240   4241     1
   4240   4242     1
   4241   4244     1
   4241   4245     1
   4242   4244     1
   4242   4245     1
   4245   4254     1
   4246   4256     1
   4246   4251     1
   4246   4249     1
   4246   4250     1
   4247   4256     1
   4247   4251     1
   4247   4249     1
   4247   4250     1
   4248   4256     1
   4248   4255     1
   4249   4252     1
   4249   4253     1
   4250   4252     1
   4250   4253     1
   4252   4255     1
   4257   4263     1
   4257   4264     1
   4258   4261     1
   4258   4260     1
   4258   4262     1
   4259   4286     1
   4260   4265     1
   4260   4263     1
   4260   4264     1
   4261   4276     1
   4261   4277     1
   4261   4268     1
   4261   4270     1
   4262   4265     1
   4262   4263     1
   4262   4264     1
   4263   4266     1
   4263   4267     1
   4263   4286     1
   4264   4266     1
   4264   4267     1
   4264   4286     1
   4265   4279     1
   4265   4280     1
   4265   4271     1
   4265   4272     1
   4266   4268     1
   4266   4270     1
   4267   4276     1
   4267   4277     1
   4268   4273     1
   4268   4271     1
   4268   4272     1
   4268   4286     1
   4269   4284     1
   4269   4286     1
   4270   4273     1
   4270   4271     1
   4270   4272     1
   4270   4286     1
   4271   4274     1
   4271   4275     1
   4272   4274     1
   4272   4275     1
   4275   4284     1
   4276   4281     1
   4276   4279     1
   4276   4280     1
   4276   4286     1
   4277   4281     1
   4277   4279     1
   4277   4280     1
   4277   4286     1
   4278   4285     1
   4278   4286     1
   4279   4282     1
   4279   4283     1
   4280   4282     1
   4280   4283     1
   4282   4285     1
   4287   4293     1
   4287   4294     1
   4288   4291     1
   4288   4290     1
   4288   4292     1
   4289   4316     1
   4290   4295     1
   4290   4293     1
   4290   4294     1
   4291   4306     1
   4291   4307     1
   4291   4298     1
   4291   4300     1
   4292   4295     1
   4292   4293     1
   4292   4294     1
   4293   4296     1
   4293   4297     1
   4293   4316     1
   4294   4296     1
   4294   4297     1
   4294   4316     1
   4295   4309     1
   4295   4310     1
   4295   4301     1
   4295   4302     1
   4296   4298     1
   4296   4300     1
   4297   4306     1
   4297   4307     1
   4298   4316     1
   4298   4303     1
   4298   4301     1
   4298   4302     1
   4299   4316     1
   4299   4314     1
   4300   4316     1
   4300   4303     1
   4300   4301     1
   4300   4302     1
   4301   4304     1
   4301   4305     1
   4302   4304     1
   4302   4305     1
   4305   4314     1
   4306   4316     1
   4306   4311     1
   4306   4309     1
   4306   4310     1
   4307   4316     1
   4307   4311     1
   4307   4309     1
   4307   4310     1
   4308   4316     1
   4308   4315     1
   4309   4312     1
   4309   4313     1
   4310   4312     1
   4310   4313     1
   4312   4315     1
   4317   4323     1
   4317   4324     1
   4318   4321     1
   4318   4320     1
   4318   4322     1
   4319   4346     1
   4320   4325     1
   4320   4323     1
   4320   4324     1
   4321   4336     1
   4321   4337     1
   4321   4328     1
   4321   4330     1
   4322   4325     1
   4322   4323     1
   4322   4324     1
   4323   4326     1
   4323   4327     1
   4323   4346     1
   4324   4326     1
   4324   4327     1
   4324   4346     1
   4325   4339     1
   4325   4340     1
   4325   4331     1
   4325   4332     1
   4326   4328     1
   4326   4330     1
   4327   4336     1
   4327   4337     1
   4328   4333     1
   4328   4331     1
   4328   4332     1
   4328   4346     1
   4329   4344     1
   4329   4346     1
   4330   4333     1
   4330   4331     1
   4330   4332     1
   4330   4346     1
   4331   4334     1
   4331   4335     1
   4332   4334     1
   4332   4335     1
   4335   4344     1
   4336   4341     1
   4336   4339     1
   4336   4340     1
   4336   4346     1
   4337   4341     1
   4337   4339     1
   4337   4340     1
   4337   4346     1
   4338   4345     1
   4338   4346     1
   4339   4342     1
   4339   4343     1
   4340   4342     1
   4340   4343     1
   4342   4345     1
   4347   4353     1
   4347   4354     1
   4348   4351     1
   4348   4350     1
   4348   4352     1
   4349   4376     1
   4350   4355     1
   4350   4353     1
   4350   4354     1
   4351   4366     1
   4351   4367     1
   4351   4358     1
   4351   4360     1
   4352   4355     1
   4352   4353     1
   4352   4354     1
   4353   4356     1
   4353   4357     1
   4353   4376     1
   4354   4356     1
   4354   4357     1
   4354   4376     1
   4355   4369     1
   4355   4370     1
   4355   4361     1
   4355   4362     1
   4356   4358     1
   4356   4360     1
   4357   4366     1
   4357   4367     1
   4358   4376     1
   4358   4363     1
   4358   4361     1
   4358   4362     1
   4359   4376     1
   4359   4374     1
   4360   4376     1
   4360   4363     1
   4360   4361     1
   4360   4362     1
   4361   4364     1
   4361   4365     1
   4362   4364     1
   4362   4365     1
   4365   4374     1
   4366   4376     1
   4366   4371     1
   4366   4369     1
   4366   4370     1
   4367   4376     1
   4367   4371     1
   4367   4369     1
   4367   4370     1
   4368   4376     1
   4368   4375     1
   4369   4372     1
   4369   4373     1
   4370   4372     1
   4370   4373     1
   4372   4375     1
   4377   4383     1
   4377   4384     1
   4378   4381     1
   4378   4380     1
   4378   4382     1
   4379   4406     1
   4380   4385     1
   4380   4383     1
   4380   4384     1
   4381   4396     1
   4381   4397     1
   4381   4388     1
   4381   4390     1
   4382   4385     1
   4382   4383     1
   4382   4384     1
   4383   4386     1
   4383   4387     1
   4383   4406     1
   4384   4386     1
   4384   4387     1
   4384   4406     1
   4385   4399     1
   4385   4400     1
   4385   4391     1
   4385   4392     1
   4386   4388     1
   4386   4390     1
   4387   4396     1
   4387   4397     1
   4388   4393     1
   4388   4391     1
   4388   4392     1
   4388   4406     1
   4389   4404     1
   4389   4406     1
   4390   4393     1
   4390   4391     1
   4390   4392     1
   4390   4406     1
   4391   4394     1
   4391   4395     1
   4392   4394     1
   4392   4395     1
   4395   4404     1
   4396   4401     1
   4396   4399     1
   4396   4400     1
   4396   4406     1
   4397   4401     1
   4397   4399     1
   4397   4400     1
   4397   4406     1
   4398   4405     1
   4398   4406     1
   4399   4402     1
   4399   4403     1
   4400   4402     1
   4400   4403     1
   4402   4405     1
   4407   4413     1
   4407   4414     1
   4408   4411     1
   4408   4410     1
   4408   4412     1
   4409   4436     1
   4410   4415     1
   4410   4413     1
   4410   4414     1
   4411   4426     1
   4411   4427     1
   4411   4418     1
   4411   4420     1
   4412   4415     1
   4412   4413     1
   4412   4414     1
   4413   4416     1
   4413   4417     1
   4413   4436     1
   4414   4416     1
   4414   4417     1
   4414   4436     1
   4415   4429     1
   4415   4430     1
   4415   4421     1
   4415   4422     1
   4416   4418     1
   4416   4420     1
   4417   4426     1
   4417   4427     1
   4418   4436     1
   4418   4423     1
   4418   4421     1
   4418   4422     1
   4419   4436     1
   4419   4434     1
   4420   4436     1
   4420   4423     1
   4420   4421     1
   4420   4422     1
   4421   4424     1
   4421   4425     1
   4422   4424     1
   4422   4425     1
   4425   4434     1
   4426   4436     1
   4426   4431     1
   4426   4429     1
   4426   4430     1
   4427   4436     1
   4427   4431     1
   4427   4429     1
   4427   4430     1
   4428   4436     1
   4428   4435     1
   4429   4432     1
   4429   4433     1
   4430   4432     1
   4430   4433     1
   4432   4435     1
   4437   4443     1
   4437   4444     1
   4438   4441     1
   4438   4440     1
   4438   4442     1
   4439   4466     1
   4440   4445     1
   4440   4443     1
   4440   4444     1
   4441   4456     1
   4441   4457     1
   4441   4448     1
   4441   4450     1
   4442   4445     1
   4442   4443     1
   4442   4444     1
   4443   4446     1
   4443   4447     1
   4443   4466     1
   4444   4446     1
   4444   4447     1
   4444   4466     1
   4445   4459     1
   4445   4460     1
   4445   4451     1
   4445   4452     1
   4446   4448     1
   4446   4450     1
   4447   4456     1
   4447   4457     1
   4448   4453     1
   4448   4451     1
   4448   4452     1
   4448   4466     1
   4449   4464     1
   4449   4466     1
   4450   4453     1
   4450   4451     1
   4450   4452     1
   4450   4466     1
   4451   4454     1
   4451   4455     1
   4452   4454     1
   4452   4455     1
   4455   4464     1
   4456   4461     1
   4456   4459     1
   4456   4460     1
   4456   4466     1
   4457   4461     1
   4457   4459     1
   4457   4460     1
   4457   4466     1
   4458   4465     1
   4458   4466     1
   4459   4462     1
   4459   4463     1
   4460   4462     1
   4460   4463     1
   4462   4465     1
   4467   4473     1
   4467   4474     1
   4468   4471     1
   4468   4470     1
   4468   4472     1
   4469   4496     1
   4470   4475     1
   4470   4473     1
   4470   4474     1
   4471   4486     1
   4471   4487     1
   4471   4478     1
   4471   4480     1
   4472   4475     1
   4472   4473     1
   4472   4474     1
   4473   4476     1
   4473   4477     1
   4473   4496     1
   4474   4476     1
   4474   4477     1
   4474   4496     1
   4475   4489     1
   4475   4490     1
   4475   4481     1
   4475   4482     1
   4476   4478     1
   4476   4480     1
   4477   4486     1
   4477   4487     1
   4478   4496     1
   4478   4483     1
   4478   4481     1
   4478   4482     1
   4479   4496     1
   4479   4494     1
   4480   4496     1
   4480   4483     1
   4480   4481     1
   4480   4482     1
   4481   4484     1
   4481   4485     1
   4482   4484     1
   4482   4485     1
   4485   4494     1
   4486   4496     1
   4486   4491     1
   4486   4489     1
   4486   4490     1
   4487   4496     1
   4487   4491     1
   4487   4489     1
   4487   4490     1
   4488   4496     1
   4488   4495     1
   4489   4492     1
   4489   4493     1
   4490   4492     1
   4490   4493     1
   4492   4495     1
   4497   4503     1
   4497   4504     1
   4498   4501     1
   4498   4500     1
   4498   4502     1
   4499   4526     1
   4500   4505     1
   4500   4503     1
   4500   4504     1
   4501   4516     1
   4501   4517     1
   4501   4508     1
   4501   4510     1
   4502   4505     1
   4502   4503     1
   4502   4504     1
   4503   4506     1
   4503   4507     1
   4503   4526     1
   4504   4506     1
   4504   4507     1
   4504   4526     1
   4505   4519     1
   4505   4520     1
   4505   4511     1
   4505   4512     1
   4506   4508     1
   4506   4510     1
   4507   4516     1
   4507   4517     1
   4508   4513     1
   4508   4511     1
   4508   4512     1
   4508   4526     1
   4509   4524     1
   4509   4526     1
   4510   4513     1
   4510   4511     1
   4510   4512     1
   4510   4526     1
   4511   4514     1
   4511   4515     1
   4512   4514     1
   4512   4515     1
   4515   4524     1
   4516   4521     1
   4516   4519     1
   4516   4520     1
   4516   4526     1
   4517   4521     1
   4517   4519     1
   4517   4520     1
   4517   4526     1
   4518   4525     1
   4518   4526     1
   4519   4522     1
   4519   4523     1
   4520   4522     1
   4520   4523     1
   4522   4525     1
   4527   4533     1
   4527   4534     1
   4528   4531     1
   4528   4530     1
   4528   4532     1
   4529   4556     1
   4530   4535     1
   4530   4533     1
   4530   4534     1
   4531   4546     1
   4531   4547     1
   4531   4538     1
   4531   4540     1
   4532   4535     1
   4532   4533     1
   4532   4534     1
   4533   4536     1
   4533   4537     1
   4533   4556     1
   4534   4536     1
   4534   4537     1
   4534   4556     1
   4535   4549     1
   4535   4550     1
   4535   4541     1
   4535   4542     1
   4536   4538     1
   4536   4540     1
   4537   4546     1
   4537   4547     1
   4538   4556     1
   4538   4543     1
   4538   4541     1
   4538   4542     1
   4539   4556     1
   4539   4554     1
   4540   4556     1
   4540   4543     1
   4540   4541     1
   4540   4542     1
   4541   4544     1
   4541   4545     1
   4542   4544     1
   4542   4545     1
   4545   4554     1
   4546   4556     1
   4546   4551     1
   4546   4549     1
   4546   4550     1
   4547   4556     1
   4547   4551     1
   4547   4549     1
   4547   4550     1
   4548   4556     1
   4548   4555     1
   4549   4552     1
   4549   4553     1
   4550   4552     1
   4550   4553     1
   4552   4555     1
   4557   4563     1
   4557   4564     1
   4558   4561     1
   4558   4560     1
   4558   4562     1
   4559   4586     1
   4560   4565     1
   4560   4563     1
   4560   4564     1
   4561   4576     1
   4561   4577     1
   4561   4568     1
   4561   4570     1
   4562   4565     1
   4562   4563     1
   4562   4564     1
   4563   4566     1
   4563   4567     1
   4563   4586     1
   4564   4566     1
   4564   4567     1
   4564   4586     1
   4565   4579     1
   4565   4580     1
   4565   4571     1
   4565   4572     1
   4566   4568     1
   4566   4570     1
   4567   4576     1
   4567   4577     1
   4568   4573     1
   4568   4571     1
   4568   4572     1
   4568   4586     1
   4569   4584     1
   4569   4586     1
   4570   4573     1
   4570   4571     1
   4570   4572     1
   4570   4586     1
   4571   4574     1
   4571   4575     1
   4572   4574     1
   4572   4575     1
   4575   4584     1
   4576   4581     1
   4576   4579     1
   4576   4580     1
   4576   4586     1
   4577   4581     1
   4577   4579     1
   4577   4580     1
   4577   4586     1
   4578   4585     1
   4578   4586     1
   4579   4582     1
   4579   4583     1
   4580   4582     1
   4580   4583     1
   4582   4585     1
   4587   4593     1
   4587   4594     1
   4588   4591     1
   4588   4590     1
   4588   4592     1
   4589   4616     1
   4590   4595     1
   4590   4593     1
   4590   4594     1
   4591   4606     1
   4591   4607     1
   4591   4598     1
   4591   4600     1
   4592   4595     1
   4592   4593     1
   4592   4594     1
   4593   4596     1
   4593   4597     1
   4593   4616     1
   4594   4596     1
   4594   4597     1
   4594   4616     1
   4595   4609     1
   4595   4610     1
   4595   4601     1
   4595   4602     1
   4596   4598     1
   4596   4600     1
   4597   4606     1
   4597   4607     1
   4598   4616     1
   4598   4603     1
   4598   4601     1
   4598   4602     1
   4599   4616     1
   4599   4614     1
   4600   4616     1
   4600   4603     1
   4600   4601     1
   4600   4602     1
   4601   4604     1
   4601   4605     1
   4602   4604     1
   4602   4605     1
   4605   4614     1
   4606   4616     1
   4606   4611     1
   4606   4609     1
   4606   4610     1
   4607   4616     1
   4607   4611     1
   4607   4609     1
   4607   4610     1
   4608   4616     1
   4608   4615     1
   4609   4612     1
   4609   4613     1
   4610   4612     1
   4610   4613     1
   4612   4615     1
   4617   4623     1
   4617   4624     1
   4618   4621     1
   4618   4620     1
   4618   4622     1
   4619   4646     1
   4620   4625     1
   4620   4623     1
   4620   4624     1
   4621   4636     1
   4621   4637     1
   4621   4628     1
   4621   4630     1
   4622   4625     1
   4622   4623     1
   4622   4624     1
   4623   4626     1
   4623   4627     1
   4623   4646     1
   4624   4626     1
   4624   4627     1
   4624   4646     1
   4625   4639     1
   4625   4640     1
   4625   4631     1
   4625   4632     1
   4626   4628     1
   4626   4630     1
   4627   4636     1
   4627   4637     1
   4628   4633     1
   4628   4631     1
   4628   4632     1
   4628   4646     1
   4629   4644     1
   4629   4646     1
   4630   4633     1
   4630   4631     1
   4630   4632     1
   4630   4646     1
   4631   4634     1
   4631   4635     1
   4632   4634     1
   4632   4635     1
   4635   4644     1
   4636   4641     1
   4636   4639     1
   4636   4640     1
   4636   4646     1
   4637   4641     1
   4637   4639     1
   4637   4640     1
   4637   4646     1
   4638   4645     1
   4638   4646     1
   4639   4642     1
   4639   4643     1
   4640   4642     1
   4640   4643     1
   4642   4645     1
   4647   4653     1
   4647   4654     1
   4648   4651     1
   4648   4650     1
   4648   4652     1
   4649   4676     1
   4650   4655     1
   4650   4653     1
   4650   4654     1
   4651   4666     1
   4651   4667     1
   4651   4658     1
   4651   4660     1
   4652   4655     1
   4652   4653     1
   4652   4654     1
   4653   4656     1
   4653   4657     1
   4653   4676     1
   4654   4656     1
   4654   4657     1
   4654   4676     1
   4655   4669     1
   4655   4670     1
   4655   4661     1
   4655   4662     1
   4656   4658     1
   4656   4660     1
   4657   4666     1
   4657   4667     1
   4658   4676     1
   4658   4663     1
   4658   4661     1
   4658   4662     1
   4659   4676     1
   4659   4674     1
   4660   4676     1
   4660   4663     1
   4660   4661     1
   4660   4662     1
   4661   4664     1
   4661   4665     1
   4662   4664     1
   4662   4665     1
   4665   4674     1
   4666   4676     1
   4666   4671     1
   4666   4669     1
   4666   4670     1
   4667   4676     1
   4667   4671     1
   4667   4669     1
   4667   4670     1
   4668   4676     1
   4668   4675     1
   4669   4672     1
   4669   4673     1
   4670   4672     1
   4670   4673     1
   4672   4675     1
   4677   4683     1
   4677   4684     1
   4678   4681     1
   4678   4680     1
   4678   4682     1
   4679   4706     1
   4680   4685     1
   4680   4683     1
   4680   4684     1
   4681   4696     1
   4681   4697     1
   4681   4688     1
   4681   4690     1
   4682   4685     1
   4682   4683     1
   4682   4684     1
   4683   4686     1
   4683   4687     1
   4683   4706     1
   4684   4686     1
   4684   4687     1
   4684   4706     1
   4685   4699     1
   4685   4700     1
   4685   4691     1
   4685   4692     1
   4686   4688     1
   4686   4690     1
   4687   4696     1
   4687   4697     1
   4688   4693     1
   4688   4691     1
   4688   4692     1
   4688   4706     1
   4689   4704     1
   4689   4706     1
   4690   4693     1
   4690   4691     1
   4690   4692     1
   4690   4706     1
   4691   4694     1
   4691   4695     1
   4692   4694     1
   4692   4695     1
   4695   4704     1
   4696   4701     1
   4696   4699     1
   4696   4700     1
   4696   4706     1
   4697   4701     1
   4697   4699     1
   4697   4700     1
   4697   4706     1
   4698   4705     1
   4698   4706     1
   4699   4702     1
   4699   4703     1
   4700   4702     1
   4700   4703     1
   4702   4705     1
   4707   4713     1
   4707   4714     1
   4708   4711     1
   4708   4710     1
   4708   4712     1
   4709   4736     1
   4710   4715     1
   4710   4713     1
   4710   4714     1
   4711   4726     1
   4711   4727     1
   4711   4718     1
   4711   4720     1
   4712   4715     1
   4712   4713     1
   4712   4714     1
   4713   4716     1
   4713   4717     1
   4713   4736     1
   4714   4716     1
   4714   4717     1
   4714   4736     1
   4715   4729     1
   4715   4730     1
   4715   4721     1
   4715   4722     1
   4716   4718     1
   4716   4720     1
   4717   4726     1
   4717   4727     1
   4718   4736     1
   4718   4723     1
   4718   4721     1
   4718   4722     1
   4719   4736     1
   4719   4734     1
   4720   4736     1
   4720   4723     1
   4720   4721     1
   4720   4722     1
   4721   4724     1
   4721   4725     1
   4722   4724     1
   4722   4725     1
   4725   4734     1
   4726   4736     1
   4726   4731     1
   4726   4729     1
   4726   4730     1
   4727   4736     1
   4727   4731     1
   4727   4729     1
   4727   4730     1
   4728   4736     1
   4728   4735     1
   4729   4732     1
   4729   4733     1
   4730   4732     1
   4730   4733     1
   4732   4735     1
   4737   4743     1
   4737   4744     1
   4738   4741     1
   4738   4740     1
   4738   4742     1
   4739   4766     1
   4740   4745     1
   4740   4743     1
   4740   4744     1
   4741   4756     1
   4741   4757     1
   4741   4748     1
   4741   4750     1
   4742   4745     1
   4742   4743     1
   4742   4744     1
   4743   4746     1
   4743   4747     1
   4743   4766     1
   4744   4746     1
   4744   4747     1
   4744   4766     1
   4745   4759     1
   4745   4760     1
   4745   4751     1
   4745   4752     1
   4746   4748     1
   4746   4750     1
   4747   4756     1
   4747   4757     1
   4748   4753     1
   4748   4751     1
   4748   4752     1
   4748   4766     1
   4749   4764     1
   4749   4766     1
   4750   4753     1
   4750   4751     1
   4750   4752     1
   4750   4766     1
   4751   4754     1
   4751   4755     1
   4752   4754     1
   4752   4755     1
   4755   4764     1
   4756   4761     1
   4756   4759     1
   4756   4760     1
   4756   4766     1
   4757   4761     1
   4757   4759     1
   4757   4760     1
   4757   4766     1
   4758   4765     1
   4758   4766     1
   4759   4762     1
   4759   4763     1
   4760   4762     1
   4760   4763     1
   4762   4765     1
   4767   4773     1
   4767   4774     1
   4768   4771     1
   4768   4770     1
   4768   4772     1
   4769   4796     1
   4770   4775     1
   4770   4773     1
   4770   4774     1
   4771   4786     1
   4771   4787     1
   4771   4778     1
   4771   4780     1
   4772   4775     1
   4772   4773     1
   4772   4774     1
   4773   4776     1
   4773   4777     1
   4773   4796     1
   4774   4776     1
   4774   4777     1
   4774   4796     1
   4775   4789     1
   4775   4790     1
   4775   4781     1
   4775   4782     1
   4776   4778     1
   4776   4780     1
   4777   4786     1
   4777   4787     1
   4778   4796     1
   4778   4783     1
   4778   4781     1
   4778   4782     1
   4779   4796     1
   4779   4794     1
   4780   4796     1
   4780   4783     1
   4780   4781     1
   4780   4782     1
   4781   4784     1
   4781   4785     1
   4782   4784     1
   4782   4785     1
   4785   4794     1
   4786   4796     1
   4786   4791     1
   4786   4789     1
   4786   4790     1
   4787   4796     1
   4787   4791     1
   4787   4789     1
   4787   4790     1
   4788   4796     1
   4788   4795     1
   4789   4792     1
   4789   4793     1
   4790   4792     1
   4790   4793     1
   4792   4795     1
   4797   4803     1
   4797   4804     1
   4798   4801     1
   4798   4800     1
   4798   4802     1
   4799   4826     1
   4800   4805     1
   4800   4803     1
   4800   4804     1
   4801   4816     1
   4801   4817     1
   4801   4808     1
   4801   4810     1
   4802   4805     1
   4802   4803     1
   4802   4804     1
   4803   4806     1
   4803   4807     1
   4803   4826     1
   4804   4806     1
   4804   4807     1
   4804   4826     1
   4805   4819     1
   4805   4820     1
   4805   4811     1
   4805   4812     1
   4806   4808     1
   4806   4810     1
   4807   4816     1
   4807   4817     1
   4808   4813     1
   4808   4811     1
   4808   4812     1
   4808   4826     1
   4809   4824     1
   4809   4826     1
   4810   4813     1
   4810   4811     1
   4810   4812     1
   4810   4826     1
   4811   4814     1
   4811   4815     1
   4812   4814     1
   4812   4815     1
   4815   4824     1
   4816   4821     1
   4816   4819     1
   4816   4820     1
   4816   4826     1
   4817   4821     1
   4817   4819     1
   4817   4820     1
   4817   4826     1
   4818   4825     1
   4818   4826     1
   4819   4822     1
   4819   4823     1
   4820   4822     1
   4820   4823     1
   4822   4825     1
   4827   4833     1
   4827   4834     1
   4828   4831     1
   4828   4830     1
   4828   4832     1
   4829   4856     1
   4830   4835     1
   4830   4833     1
   4830   4834     1
   4831   4846     1
   4831   4847     1
   4831   4838     1
   4831   4840     1
   4832   4835     1
   4832   4833     1
   4832   4834     1
   4833   4836     1
   4833   4837     1
   4833   4856     1
   4834   4836     1
   4834   4837     1
   4834   4856     1
   4835   4849     1
   4835   4850     1
   4835   4841     1
   4835   4842     1
   4836   4838     1
   4836   4840     1
   4837   4846     1
   4837   4847     1
   4838   4856     1
   4838   4843     1
   4838   4841     1
   4838   4842     1
   4839   4856     1
   4839   4854     1
   4840   4856     1
   4840   4843     1
   4840   4841     1
   4840   4842     1
   4841   4844     1
   4841   4845     1
   4842   4844     1
   4842   4845     1
   4845   4854     1
   4846   4856     1
   4846   4851     1
   4846   4849     1
   4846   4850     1
   4847   4856     1
   4847   4851     1
   4847   4849     1
   4847   4850     1
   4848   4856     1
   4848   4855     1
   4849   4852     1
   4849   4853     1
   4850   4852     1
   4850   4853     1
   4852   4855     1
   4857   4863     1
   4857   4864     1
   4858   4861     1
   4858   4860     1
   4858   4862     1
   4859   4886     1
   4860   4865     1
   4860   4863     1
   4860   4864     1
   4861   4876     1
   4861   4877     1
   4861   4868     1
   4861   4870     1
   4862   4865     1
   4862   4863     1
   4862   4864     1
   4863   4866     1
   4863   4867     1
   4863   4886     1
   4864   4866     1
   4864   4867     1
   4864   4886     1
   4865   4879     1
   4865   4880     1
   4865   4871     1
   4865   4872     1
   4866   4868     1
   4866   4870     1
   4867   4876     1
   4867   4877     1
   4868   4873     1
   4868   4871     1
   4868   4872     1
   4868   4886     1
   4869   4884     1
   4869   4886     1
   4870   4873     1
   4870   4871     1
   4870   4872     1
   4870   4886     1
   4871   4874     1
   4871   4875     1
   4872   4874     1
   4872   4875     1
   4875   4884     1
   4876   4881     1
   4876   4879     1
   4876   4880     1
   4876   4886     1
   4877   4881     1
   4877   4879     1
   4877   4880     1
   4877   4886     1
   4878   4885     1
   4878   4886     1
   4879   4882     1
   4879   4883     1
   4880   4882     1
   4880   4883     1
   4882   4885     1
   4887   4893     1
   4887   4894     1
   4888   4891     1
   4888   4890     1
   4888   4892     1
   4889   4916     1
   4890   4895     1
   4890   4893     1
   4890   4894     1
   4891   4906     1
   4891   4907     1
   4891   4898     1
   4891   4900     1
   4892   4895     1
   4892   4893     1
   4892   4894     1
   4893   4896     1
   4893   4897     1
   4893   4916     1
   4894   4896     1
   4894   4897     1
   4894   4916     1
   4895   4909     1
   4895   4910     1
   4895   4901     1
   4895   4902     1
   4896   4898     1
   4896   4900     1
   4897   4906     1
   4897   4907     1
   4898   4916     1
   4898   4903     1
   4898   4901     1
   4898   4902     1
   4899   4916     1
   4899   4914     1
   4900   4916     1
   4900   4903     1
   4900   4901     1
   4900   4902     1
   4901   4904     1
   4901   4905     1
   4902   4904     1
   4902   4905     1
   4905   4914     1
   4906   4916     1
   4906   4911     1
   4906   4909     1
   4906   4910     1
   4907   4916     1
   4907   4911     1
   4907   4909     1
   4907   4910     1
   4908   4916     1
   4908   4915     1
   4909   4912     1
   4909   4913     1
   4910   4912     1
   4910   4913     1
   4912   4915     1
   4917   4923     1
   4917   4924     1
   4918   4921     1
   4918   4920     1
   4918   4922     1
   4919   4946     1
   4920   4925     1
   4920   4923     1
   4920   4924     1
   4921   4936     1
   4921   4937     1
   4921   4928     1
   4921   4930     1
   4922   4925     1
   4922   4923     1
   4922   4924     1
   4923   4926     1
   4923   4927     1
   4923   4946     1
   4924   4926     1
   4924   4927     1
   4924   4946     1
   4925   4939     1
   4925   4940     1
   4925   4931     1
   4925   4932     1
   4926   4928     1
   4926   4930     1
   4927   4936     1
   4927   4937     1
   4928   4933     1
   4928   4931     1
   4928   4932     1
   4928   4946     1
   4929   4944     1
   4929   4946     1
   4930   4933     1
   4930   4931     1
   4930   4932     1
   4930   4946     1
   4931   4934     1
   4931   4935     1
   4932   4934     1
   4932   4935     1
   4935   4944     1
   4936   4941     1
   4936   4939     1
   4936   4940     1
   4936   4946     1
   4937   4941     1
   4937   4939     1
   4937   4940     1
   4937   4946     1
   4938   4945     1
   4938   4946     1
   4939   4942     1
   4939   4943     1
   4940   4942     1
   4940   4943     1
   4942   4945     1
   4947   4953     1
   4947   4954     1
   4948   4951     1
   4948   4950     1
   4948   4952     1
   4949   4976     1
   4950   4955     1
   4950   4953     1
   4950   4954     1
   4951   4966     1
   4951   4967     1
   4951   4958     1
   4951   4960     1
   4952   4955     1
   4952   4953     1
   4952   4954     1
   4953   4956     1
   4953   4957     1
   4953   4976     1
   4954   4956     1
   4954   4957     1
   4954   4976     1
   4955   4969     1
   4955   4970     1
   4955   4961     1
   4955   4962     1
   4956   4958     1
   4956   4960     1
   4957   4966     1
   4957   4967     1
   4958   4976     1
   4958   4963     1
   4958   4961     1
   4958   4962     1
   4959   4976     1
   4959   4974     1
   4960   4976     1
   4960   4963     1
   4960   4961     1
   4960   4962     1
   4961   4964     1
   4961   4965     1
   4962   4964     1
   4962   4965     1
   4965   4974     1
   4966   4976     1
   4966   4971     1
   4966   4969     1
   4966   4970     1
   4967   4976     1
   4967   4971     1
   4967   4969     1
   4967   4970     1
   4968   4976     1
   4968   4975     1
   4969   4972     1
   4969   4973     1
   4970   4972     1
   4970   4973     1
   4972   4975     1
   4977   4983     1
   4977   4984     1
   4978   4981     1
   4978   4980     1
   4978   4982     1
   4979   5006     1
   4980   4985     1
   4980   4983     1
   4980   4984     1
   4981   4996     1
   4981   4997     1
   4981   4988     1
   4981   4990     1
   4982   4985     1
   4982   4983     1
   4982   4984     1
   4983   4986     1
   4983   4987     1
   4983   5006     1
   4984   4986     1
   4984   4987     1
   4984   5006     1
   4985   4999     1
   4985   5000     1
   4985   4991     1
   4985   4992     1
   4986   4988     1
   4986   4990     1
   4987   4996     1
   4987   4997     1
   4988   4993     1
   4988   4991     1
   4988   4992     1
   4988   5006     1
   4989   5004     1
   4989   5006     1
   4990   4993     1
   4990   4991     1
   4990   4992     1
   4990   5006     1
   4991   4994     1
   4991   4995     1
   4992   4994     1
   4992   4995     1
   4995   5004     1
   4996   5001     1
   4996   4999     1
   4996   5000     1
   4996   5006     1
   4997   5001     1
   4997   4999     1
   4997   5000     1
   4997   5006     1
   4998   5005     1
   4998   5006     1
   4999   5002     1
   4999   5003     1
   5000   5002     1
   5000   5003     1
   5002   5005     1
   5007   5013     1
   5007   5014     1
   5008   5011     1
   5008   5010     1
   5008   5012     1
   5009   5036     1
   5010   5015     1
   5010   5013     1
   5010   5014     1
   5011   5026     1
   5011   5027     1
   5011   5018     1
   5011   5020     1
   5012   5015     1
   5012   5013     1
   5012   5014     1
   5013   5016     1
   5013   5017     1
   5013   5036     1
   5014   5016     1
   5014   5017     1
   5014   5036     1
   5015   5029     1
   5015   5030     1
   5015   5021     1
   5015   5022     1
   5016   5018     1
   5016   5020     1
   5017   5026     1
   5017   5027     1
   5018   5036     1
   5018   5023     1
   5018   5021     1
   5018   5022     1
   5019   5036     1
   5019   5034     1
   5020   5036     1
   5020   5023     1
   5020   5021     1
   5020   5022     1
   5021   5024     1
   5021   5025     1
   5022   5024     1
   5022   5025     1
   5025   5034     1
   5026   5036     1
   5026   5031     1
   5026   5029     1
   5026   5030     1
   5027   5036     1
   5027   5031     1
   5027   5029     1
   5027   5030     1
   5028   5036     1
   5028   5035     1
   5029   5032     1
   5029   5033     1
   5030   5032     1
   5030   5033     1
   5032   5035     1
   5037   5043     1
   5037   5044     1
   5038   5041     1
   5038   5040     1
   5038   5042     1
   5039   5066     1
   5040   5045     1
   5040   5043     1
   5040   5044     1
   5041   5056     1
   5041   5057     1
   5041   5048     1
   5041   5050     1
   5042   5045     1
   5042   5043     1
   5042   5044     1
   5043   5046     1
   5043   5047     1
   5043   5066     1
   5044   5046     1
   5044   5047     1
   5044   5066     1
   5045   5059     1
   5045   5060     1
   5045   5051     1
   5045   5052     1
   5046   5048     1
   5046   5050     1
   5047   5056     1
   5047   5057     1
   5048   5053     1
   5048   5051     1
   5048   5052     1
   5048   5066     1
   5049   5064     1
   5049   5066     1
   5050   5053     1
   5050   5051     1
   5050   5052     1
   5050   5066     1
   5051   5054     1
   5051   5055     1
   5052   5054     1
   5052   5055     1
   5055   5064     1
   5056   5061     1
   5056   5059     1
   5056   5060     1
   5056   5066     1
   5057   5061     1
   5057   5059     1
   5057   5060     1
   5057   5066     1
   5058   5065     1
   5058   5066     1
   5059   5062     1
   5059   5063     1
   5060   5062     1
   5060   5063     1
   5062   5065     1
   5067   5073     1
   5067   5074     1
   5068   5071     1
   5068   5070     1
   5068   5072     1
   5069   5096     1
   5070   5075     1
   5070   5073     1
   5070   5074     1
   5071   5086     1
   5071   5087     1
   5071   5078     1
   5071   5080     1
   5072   5075     1
   5072   5073     1
   5072   5074     1
   5073   5076     1
   5073   5077     1
   5073   5096     1
   5074   5076     1
   5074   5077     1
   5074   5096     1
   5075   5089     1
   5075   5090     1
   5075   5081     1
   5075   5082     1
   5076   5078     1
   5076   5080     1
   5077   5086     1
   5077   5087     1
   5078   5096     1
   5078   5083     1
   5078   5081     1
   5078   5082     1
   5079   5096     1
   5079   5094     1
   5080   5096     1
   5080   5083     1
   5080   5081     1
   5080   5082     1
   5081   5084     1
   5081   5085     1
   5082   5084     1
   5082   5085     1
   5085   5094     1
   5086   5096     1
   5086   5091     1
   5086   5089     1
   5086   5090     1
   5087   5096     1
   5087   5091     1
   5087   5089     1
   5087   5090     1
   5088   5096     1
   5088   5095     1
   5089   5092     1
   5089   5093     1
   5090   5092     1
   5090   5093     1
   5092   5095     1
   5097   5103     1
   5097   5104     1
   5098   5101     1
   5098   5100     1
   5098   5102     1
   5099   5126     1
   5100   5105     1
   5100   5103     1
   5100   5104     1
   5101   5116     1
   5101   5117     1
   5101   5108     1
   5101   5110     1
   5102   5105     1
   5102   5103     1
   5102   5104     1
   5103   5106     1
   5103   5107     1
   5103   5126     1
   5104   5106     1
   5104   5107     1
   5104   5126     1
   5105   5119     1
   5105   5120     1
   5105   5111     1
   5105   5112     1
   5106   5108     1
   5106   5110     1
   5107   5116     1
   5107   5117     1
   5108   5113     1
   5108   5111     1
   5108   5112     1
   5108   5126     1
   5109   5124     1
   5109   5126     1
   5110   5113     1
   5110   5111     1
   5110   5112     1
   5110   5126     1
   5111   5114     1
   5111   5115     1
   5112   5114     1
   5112   5115     1
   5115   5124     1
   5116   5121     1
   5116   5119     1
   5116   5120     1
   5116   5126     1
   5117   5121     1
   5117   5119     1
   5117   5120     1
   5117   5126     1
   5118   5125     1
   5118   5126     1
   5119   5122     1
   5119   5123     1
   5120   5122     1
   5120   5123     1
   5122   5125     1
   5127   5133     1
   5127   5134     1
   5128   5131     1
   5128   5130     1
   5128   5132     1
   5129   5156     1
   5130   5135     1
   5130   5133     1
   5130   5134     1
   5131   5146     1
   5131   5147     1
   5131   5138     1
   5131   5140     1
   5132   5135     1
   5132   5133     1
   5132   5134     1
   5133   5136     1
   5133   5137     1
   5133   5156     1
   5134   5136     1
   5134   5137     1
   5134   5156     1
   5135   5149     1
   5135   5150     1
   5135   5141     1
   5135   5142     1
   5136   5138     1
   5136   5140     1
   5137   5146     1
   5137   5147     1
   5138   5156     1
   5138   5143     1
   5138   5141     1
   5138   5142     1
   5139   5156     1
   5139   5154     1
   5140   5156     1
   5140   5143     1
   5140   5141     1
   5140   5142     1
   5141   5144     1
   5141   5145     1
   5142   5144     1
   5142   5145     1
   5145   5154     1
   5146   5156     1
   5146   5151     1
   5146   5149     1
   5146   5150     1
   5147   5156     1
   5147   5151     1
   5147   5149     1
   5147   5150     1
   5148   5156     1
   5148   5155     1
   5149   5152     1
   5149   5153     1
   5150   5152     1
   5150   5153     1
   5152   5155     1
   5157   5163     1
   5157   5164     1
   5158   5161     1
   5158   5160     1
   5158   5162     1
   5159   5186     1
   5160   5165     1
   5160   5163     1
   5160   5164     1
   5161   5176     1
   5161   5177     1
   5161   5168     1
   5161   5170     1
   5162   5165     1
   5162   5163     1
   5162   5164     1
   5163   5166     1
   5163   5167     1
   5163   5186     1
   5164   5166     1
   5164   5167     1
   5164   5186     1
   5165   5179     1
   5165   5180     1
   5165   5171     1
   5165   5172     1
   5166   5168     1
   5166   5170     1
   5167   5176     1
   5167   5177     1
   5168   5173     1
   5168   5171     1
   5168   5172     1
   5168   5186     1
   5169   5184     1
   5169   5186     1
   5170   5173     1
   5170   5171     1
   5170   5172     1
   5170   5186     1
   5171   5174     1
   5171   5175     1
   5172   5174     1
   5172   5175     1
   5175   5184     1
   5176   5181     1
   5176   5179     1
   5176   5180     1
   5176   5186     1
   5177   5181     1
   5177   5179     1
   5177   5180     1
   5177   5186     1
   5178   5185     1
   5178   5186     1
   5179   5182     1
   5179   5183     1
   5180   5182     1
   5180   5183     1
   5182   5185     1
   5187   5193     1
   5187   5194     1
   5188   5191     1
   5188   5190     1
   5188   5192     1
   5189   5216     1
   5190   5195     1
   5190   5193     1
   5190   5194     1
   5191   5206     1
   5191   5207     1
   5191   5198     1
   5191   5200     1
   5192   5195     1
   5192   5193     1
   5192   5194     1
   5193   5196     1
   5193   5197     1
   5193   5216     1
   5194   5196     1
   5194   5197     1
   5194   5216     1
   5195   5209     1
   5195   5210     1
   5195   5201     1
   5195   5202     1
   5196   5198     1
   5196   5200     1
   5197   5206     1
   5197   5207     1
   5198   5216     1
   5198   5203     1
   5198   5201     1
   5198   5202     1
   5199   5216     1
   5199   5214     1
   5200   5216     1
   5200   5203     1
   5200   5201     1
   5200   5202     1
   5201   5204     1
   5201   5205     1
   5202   5204     1
   5202   5205     1
   5205   5214     1
   5206   5216     1
   5206   5211     1
   5206   5209     1
   5206   5210     1
   5207   5216     1
   5207   5211     1
   5207   5209     1
   5207   5210     1
   5208   5216     1
   5208   5215     1
   5209   5212     1
   5209   5213     1
   5210   5212     1
   5210   5213     1
   5212   5215     1
   5217   5223     1
   5217   5224     1
   5218   5221     1
   5218   5220     1
   5218   5222     1
   5219   5246     1
   5220   5225     1
   5220   5223     1
   5220   5224     1
   5221   5236     1
   5221   5237     1
   5221   5228     1
   5221   5230     1
   5222   5225     1
   5222   5223     1
   5222   5224     1
   5223   5226     1
   5223   5227     1
   5223   5246     1
   5224   5226     1
   5224   5227     1
   5224   5246     1
   5225   5239     1
   5225   5240     1
   5225   5231     1
   5225   5232     1
   5226   5228     1
   5226   5230     1
   5227   5236     1
   5227   5237     1
   5228   5233     1
   5228   5231     1
   5228   5232     1
   5228   5246     1
   5229   5244     1
   5229   5246     1
   5230   5233     1
   5230   5231     1
   5230   5232     1
   5230   5246     1
   5231   5234     1
   5231   5235     1
   5232   5234     1
   5232   5235     1
   5235   5244     1
   5236   5241     1
   5236   5239     1
   5236   5240     1
   5236   5246     1
   5237   5241     1
   5237   5239     1
   5237   5240     1
   5237   5246     1
   5238   5245     1
   5238   5246     1
   5239   5242     1
   5239   5243     1
   5240   5242     1
   5240   5243     1
   5242   5245     1
   5247   5253     1
   5247   5254     1
   5248   5251     1
   5248   5250     1
   5248   5252     1
   5249   5276     1
   5250   5255     1
   5250   5253     1
   5250   5254     1
   5251   5266     1
   5251   5267     1
   5251   5258     1
   5251   5260     1
   5252   5255     1
   5252   5253     1
   5252   5254     1
   5253   5256     1
   5253   5257     1
   5253   5276     1
   5254   5256     1
   5254   5257     1
   5254   5276     1
   5255   5269     1
   5255   5270     1
   5255   5261     1
   5255   5262     1
   5256   5258     1
   5256   5260     1
   5257   5266     1
   5257   5267     1
   5258   5276     1
   5258   5263     1
   5258   5261     1
   5258   5262     1
   5259   5276     1
   5259   5274     1
   5260   5276     1
   5260   5263     1
   5260   5261     1
   5260   5262     1
   5261   5264     1
   5261   5265     1
   5262   5264     1
   5262   5265     1
   5265   5274     1
   5266   5276     1
   5266   5271     1
   5266   5269     1
   5266   5270     1
   5267   5276     1
   5267   5271     1
   5267   5269     1
   5267   5270     1
   5268   5276     1
   5268   5275     1
   5269   5272     1
   5269   5273     1
   5270   5272     1
   5270   5273     1
   5272   5275     1
   5277   5283     1
   5277   5284     1
   5278   5281     1
   5278   5280     1
   5278   5282     1
   5279   5306     1
   5280   5285     1
   5280   5283     1
   5280   5284     1
   5281   5296     1
   5281   5297     1
   5281   5288     1
   5281   5290     1
   5282   5285     1
   5282   5283     1
   5282   5284     1
   5283   5286     1
   5283   5287     1
   5283   5306     1
   5284   5286     1
   5284   5287     1
   5284   5306     1
   5285   5299     1
   5285   5300     1
   5285   5291     1
   5285   5292     1
   5286   5288     1
   5286   5290     1
   5287   5296     1
   5287   5297     1
   5288   5293     1
   5288   5291     1
   5288   5292     1
   5288   5306     1
   5289   5304     1
   5289   5306     1
   5290   5293     1
   5290   5291     1
   5290   5292     1
   5290   5306     1
   5291   5294     1
   5291   5295     1
   5292   5294     1
   5292   5295     1
   5295   5304     1
   5296   5301     1
   5296   5299     1
   5296   5300     1
   5296   5306     1
   5297   5301     1
   5297   5299     1
   5297   5300     1
   5297   5306     1
   5298   5305     1
   5298   5306     1
   5299   5302     1
   5299   5303     1
   5300   5302     1
   5300   5303     1
   5302   5305     1
   5307   5313     1
   5307   5314     1
   5308   5311     1
   5308   5310     1
   5308   5312     1
   5309   5336     1
   5310   5315     1
   5310   5313     1
   5310   5314     1
   5311   5326     1
   5311   5327     1
   5311   5318     1
   5311   5320     1
   5312   5315     1
   5312   5313     1
   5312   5314     1
   5313   5316     1
   5313   5317     1
   5313   5336     1
   5314   5316     1
   5314   5317     1
   5314   5336     1
   5315   5329     1
   5315   5330     1
   5315   5321     1
   5315   5322     1
   5316   5318     1
   5316   5320     1
   5317   5326     1
   5317   5327     1
   5318   5336     1
   5318   5323     1
   5318   5321     1
   5318   5322     1
   5319   5336     1
   5319   5334     1
   5320   5336     1
   5320   5323     1
   5320   5321     1
   5320   5322     1
   5321   5324     1
   5321   5325     1
   5322   5324     1
   5322   5325     1
   5325   5334     1
   5326   5336     1
   5326   5331     1
   5326   5329     1
   5326   5330     1
   5327   5336     1
   5327   5331     1
   5327   5329     1
   5327   5330     1
   5328   5336     1
   5328   5335     1
   5329   5332     1
   5329   5333     1
   5330   5332     1
   5330   5333     1
   5332   5335     1
   5337   5343     1
   5337   5344     1
   5338   5341     1
   5338   5340     1
   5338   5342     1
   5339   5366     1
   5340   5345     1
   5340   5343     1
   5340   5344     1
   5341   5356     1
   5341   5357     1
   5341   5348     1
   5341   5350     1
   5342   5345     1
   5342   5343     1
   5342   5344     1
   5343   5346     1
   5343   5347     1
   5343   5366     1
   5344   5346     1
   5344   5347     1
   5344   5366     1
   5345   5359     1
   5345   5360     1
   5345   5351     1
   5345   5352     1
   5346   5348     1
   5346   5350     1
   5347   5356     1
   5347   5357     1
   5348   5353     1
   5348   5351     1
   5348   5352     1
   5348   5366     1
   5349   5364     1
   5349   5366     1
   5350   5353     1
   5350   5351     1
   5350   5352     1
   5350   5366     1
   5351   5354     1
   5351   5355     1
   5352   5354     1
   5352   5355     1
   5355   5364     1
   5356   5361     1
   5356   5359     1
   5356   5360     1
   5356   5366     1
   5357   5361     1
   5357   5359     1
   5357   5360     1
   5357   5366     1
   5358   5365     1
   5358   5366     1
   5359   5362     1
   5359   5363     1
   5360   5362     1
   5360   5363     1
   5362   5365     1
   5367   5373     1
   5367   5374     1
   5368   5371     1
   5368   5370     1
   5368   5372     1
   5369   5396     1
   5370   5375     1
   5370   5373     1
   5370   5374     1
   5371   5386     1
   5371   5387     1
   5371   5378     1
   5371   5380     1
   5372   5375     1
   5372   5373     1
   5372   5374     1
   5373   5376     1
   5373   5377     1
   5373   5396     1
   5374   5376     1
   5374   5377     1
   5374   5396     1
   5375   5389     1
   5375   5390     1
   5375   5381     1
   5375   5382     1
   5376   5378     1
   5376   5380     1
   5377   5386     1
   5377   5387     1
   5378   5396     1
   5378   5383     1
   5378   5381     1
   5378   5382     1
   5379   5396     1
   5379   5394     1
   5380   5396     1
   5380   5383     1
   5380   5381     1
   5380   5382     1
   5381   5384     1
   5381   5385     1
   5382   5384     1
   5382   5385     1
   5385   5394     1
   5386   5396     1
   5386   5391     1
   5386   5389     1
   5386   5390     1
   5387   5396     1
   5387   5391     1
   5387   5389     1
   5387   5390     1
   5388   5396     1
   5388   5395     1
   5389   5392     1
   5389   5393     1
   5390   5392     1
   5390   5393     1
   5392   5395     1
   5397   5403     1
   5397   5404     1
   5398   5401     1
   5398   5400     1
   5398   5402     1
   5399   5426     1
   5400   5405     1
   5400   5403     1
   5400   5404     1
   5401   5416     1
   5401   5417     1
   5401   5408     1
   5401   5410     1
   5402   5405     1
   5402   5403     1
   5402   5404     1
   5403   5406     1
   5403   5407     1
   5403   5426     1
   5404   5406     1
   5404   5407     1
   5404   5426     1
   5405   5419     1
   5405   5420     1
   5405   5411     1
   5405   5412     1
   5406   5408     1
   5406   5410     1
   5407   5416     1
   5407   5417     1
   5408   5413     1
   5408   5411     1
   5408   5412     1
   5408   5426     1
   5409   5424     1
   5409   5426     1
   5410   5413     1
   5410   5411     1
   5410   5412     1
   5410   5426     1
   5411   5414     1
   5411   5415     1
   5412   5414     1
   5412   5415     1
   5415   5424     1
   5416   5421     1
   5416   5419     1
   5416   5420     1
   5416   5426     1
   5417   5421     1
   5417   5419     1
   5417   5420     1
   5417   5426     1
   5418   5425     1
   5418   5426     1
   5419   5422     1
   5419   5423     1
   5420   5422     1
   5420   5423     1
   5422   5425     1
   5427   5433     1
   5427   5434     1
   5428   5431     1
   5428   5430     1
   5428   5432     1
   5429   5456     1
   5430   5435     1
   5430   5433     1
   5430   5434     1
   5431   5446     1
   5431   5447     1
   5431   5438     1
   5431   5440     1
   5432   5435     1
   5432   5433     1
   5432   5434     1
   5433   5436     1
   5433   5437     1
   5433   5456     1
   5434   5436     1
   5434   5437     1
   5434   5456     1
   5435   5449     1
   5435   5450     1
   5435   5441     1
   5435   5442     1
   5436   5438     1
   5436   5440     1
   5437   5446     1
   5437   5447     1
   5438   5456     1
   5438   5443     1
   5438   5441     1
   5438   5442     1
   5439   5456     1
   5439   5454     1
   5440   5456     1
   5440   5443     1
   5440   5441     1
   5440   5442     1
   5441   5444     1
   5441   5445     1
   5442   5444     1
   5442   5445     1
   5445   5454     1
   5446   5456     1
   5446   5451     1
   5446   5449     1
   5446   5450     1
   5447   5456     1
   5447   5451     1
   5447   5449     1
   5447   5450     1
   5448   5456     1
   5448   5455     1
   5449   5452     1
   5449   5453     1
   5450   5452     1
   5450   5453     1
   5452   5455     1
   5457   5463     1
   5457   5464     1
   5458   5461     1
   5458   5460     1
   5458   5462     1
   5459   5486     1
   5460   5465     1
   5460   5463     1
   5460   5464     1
   5461   5476     1
   5461   5477     1
   5461   5468     1
   5461   5470     1
   5462   5465     1
   5462   5463     1
   5462   5464     1
   5463   5466     1
   5463   5467     1
   5463   5486     1
   5464   5466     1
   5464   5467     1
   5464   5486     1
   5465   5479     1
   5465   5480     1
   5465   5471     1
   5465   5472     1
   5466   5468     1
   5466   5470     1
   5467   5476     1
   5467   5477     1
   5468   5473     1
   5468   5471     1
   5468   5472     1
   5468   5486     1
   5469   5484     1
   5469   5486     1
   5470   5473     1
   5470   5471     1
   5470   5472     1
   5470   5486     1
   5471   5474     1
   5471   5475     1
   5472   5474     1
   5472   5475     1
   5475   5484     1
   5476   5481     1
   5476   5479     1
   5476   5480     1
   5476   5486     1
   5477   5481     1
   5477   5479     1
   5477   5480     1
   5477   5486     1
   5478   5485     1
   5478   5486     1
   5479   5482     1
   5479   5483     1
   5480   5482     1
   5480   5483     1
   5482   5485     1
   5487   5493     1
   5487   5494     1
   5488   5491     1
   5488   5490     1
   5488   5492     1
   5489   5516     1
   5490   5495     1
   5490   5493     1
   5490   5494     1
   5491   5506     1
   5491   5507     1
   5491   5498     1
   5491   5500     1
   5492   5495     1
   5492   5493     1
   5492   5494     1
   5493   5496     1
   5493   5497     1
   5493   5516     1
   5494   5496     1
   5494   5497     1
   5494   5516     1
   5495   5509     1
   5495   5510     1
   5495   5501     1
   5495   5502     1
   5496   5498     1
   5496   5500     1
   5497   5506     1
   5497   5507     1
   5498   5516     1
   5498   5503     1
   5498   5501     1
   5498   5502     1
   5499   5516     1
   5499   5514     1
   5500   5516     1
   5500   5503     1
   5500   5501     1
   5500   5502     1
   5501   5504     1
   5501   5505     1
   5502   5504     1
   5502   5505     1
   5505   5514     1
   5506   5516     1
   5506   5511     1
   5506   5509     1
   5506   5510     1
   5507   5516     1
   5507   5511     1
   5507   5509     1
   5507   5510     1
   5508   5516     1
   5508   5515     1
   5509   5512     1
   5509   5513     1
   5510   5512     1
   5510   5513     1
   5512   5515     1
   5517   5523     1
   5517   5524     1
   5518   5521     1
   5518   5520     1
   5518   5522     1
   5519   5546     1
   5520   5525     1
   5520   5523     1
   5520   5524     1
   5521   5536     1
   5521   5537     1
   5521   5528     1
   5521   5530     1
   5522   5525     1
   5522   5523     1
   5522   5524     1
   5523   5526     1
   5523   5527     1
   5523   5546     1
   5524   5526     1
   5524   5527     1
   5524   5546     1
   5525   5539     1
   5525   5540     1
   5525   5531     1
   5525   5532     1
   5526   5528     1
   5526   5530     1
   5527   5536     1
   5527   5537     1
   5528   5533     1
   5528   5531     1
   5528   5532     1
   5528   5546     1
   5529   5544     1
   5529   5546     1
   5530   5533     1
   5530   5531     1
   5530   5532     1
   5530   5546     1
   5531   5534     1
   5531   5535     1
   5532   5534     1
   5532   5535     1
   5535   5544     1
   5536   5541     1
   5536   5539     1
   5536   5540     1
   5536   5546     1
   5537   5541     1
   5537   5539     1
   5537   5540     1
   5537   5546     1
   5538   5545     1
   5538   5546     1
   5539   5542     1
   5539   5543     1
   5540   5542     1
   5540   5543     1
   5542   5545     1
   5547   5553     1
   5547   5554     1
   5548   5551     1
   5548   5550     1
   5548   5552     1
   5549   5576     1
   5550   5555     1
   5550   5553     1
   5550   5554     1
   5551   5566     1
   5551   5567     1
   5551   5558     1
   5551   5560     1
   5552   5555     1
   5552   5553     1
   5552   5554     1
   5553   5556     1
   5553   5557     1
   5553   5576     1
   5554   5556     1
   5554   5557     1
   5554   5576     1
   5555   5569     1
   5555   5570     1
   5555   5561     1
   5555   5562     1
   5556   5558     1
   5556   5560     1
   5557   5566     1
   5557   5567     1
   5558   5576     1
   5558   5563     1
   5558   5561     1
   5558   5562     1
   5559   5576     1
   5559   5574     1
   5560   5576     1
   5560   5563     1
   5560   5561     1
   5560   5562     1
   5561   5564     1
   5561   5565     1
   5562   5564     1
   5562   5565     1
   5565   5574     1
   5566   5576     1
   5566   5571     1
   5566   5569     1
   5566   5570     1
   5567   5576     1
   5567   5571     1
   5567   5569     1
   5567   5570     1
   5568   5576     1
   5568   5575     1
   5569   5572     1
   5569   5573     1
   5570   5572     1
   5570   5573     1
   5572   5575     1
   5577   5583     1
   5577   5584     1
   5578   5581     1
   5578   5580     1
   5578   5582     1
   5579   5606     1
   5580   5585     1
   5580   5583     1
   5580   5584     1
   5581   5596     1
   5581   5597     1
   5581   5588     1
   5581   5590     1
   5582   5585     1
   5582   5583     1
   5582   5584     1
   5583   5586     1
   5583   5587     1
   5583   5606     1
   5584   5586     1
   5584   5587     1
   5584   5606     1
   5585   5599     1
   5585   5600     1
   5585   5591     1
   5585   5592     1
   5586   5588     1
   5586   5590     1
   5587   5596     1
   5587   5597     1
   5588   5593     1
   5588   5591     1
   5588   5592     1
   5588   5606     1
   5589   5604     1
   5589   5606     1
   5590   5593     1
   5590   5591     1
   5590   5592     1
   5590   5606     1
   5591   5594     1
   5591   5595     1
   5592   5594     1
   5592   5595     1
   5595   5604     1
   5596   5601     1
   5596   5599     1
   5596   5600     1
   5596   5606     1
   5597   5601     1
   5597   5599     1
   5597   5600     1
   5597   5606     1
   5598   5605     1
   5598   5606     1
   5599   5602     1
   5599   5603     1
   5600   5602     1
   5600   5603     1
   5602   5605     1
   5607   5613     1
   5607   5614     1
   5608   5611     1
   5608   5610     1
   5608   5612     1
   5609   5636     1
   5610   5615     1
   5610   5613     1
   5610   5614     1
   5611   5626     1
   5611   5627     1
   5611   5618     1
   5611   5620     1
   5612   5615     1
   5612   5613     1
   5612   5614     1
   5613   5616     1
   5613   5617     1
   5613   5636     1
   5614   5616     1
   5614   5617     1
   5614   5636     1
   5615   5629     1
   5615   5630     1
   5615   5621     1
   5615   5622     1
   5616   5618     1
   5616   5620     1
   5617   5626     1
   5617   5627     1
   5618   5636     1
   5618   5623     1
   5618   5621     1
   5618   5622     1
   5619   5636     1
   5619   5634     1
   5620   5636     1
   5620   5623     1
   5620   5621     1
   5620   5622     1
   5621   5624     1
   5621   5625     1
   5622   5624     1
   5622   5625     1
   5625   5634     1
   5626   5636     1
   5626   5631     1
   5626   5629     1
   5626   5630     1
   5627   5636     1
   5627   5631     1
   5627   5629     1
   5627   5630     1
   5628   5636     1
   5628   5635     1
   5629   5632     1
   5629   5633     1
   5630   5632     1
   5630   5633     1
   5632   5635     1
   5637   5643     1
   5637   5644     1
   5638   5641     1
   5638   5640     1
   5638   5642     1
   5639   5666     1
   5640   5645     1
   5640   5643     1
   5640   5644     1
   5641   5656     1
   5641   5657     1
   5641   5648     1
   5641   5650     1
   5642   5645     1
   5642   5643     1
   5642   5644     1
   5643   5646     1
   5643   5647     1
   5643   5666     1
   5644   5646     1
   5644   5647     1
   5644   5666     1
   5645   5659     1
   5645   5660     1
   5645   5651     1
   5645   5652     1
   5646   5648     1
   5646   5650     1
   5647   5656     1
   5647   5657     1
   5648   5653     1
   5648   5651     1
   5648   5652     1
   5648   5666     1
   5649   5664     1
   5649   5666     1
   5650   5653     1
   5650   5651     1
   5650   5652     1
   5650   5666     1
   5651   5654     1
   5651   5655     1
   5652   5654     1
   5652   5655     1
   5655   5664     1
   5656   5661     1
   5656   5659     1
   5656   5660     1
   5656   5666     1
   5657   5661     1
   5657   5659     1
   5657   5660     1
   5657   5666     1
   5658   5665     1
   5658   5666     1
   5659   5662     1
   5659   5663     1
   5660   5662     1
   5660   5663     1
   5662   5665     1
   5667   5673     1
   5667   5674     1
   5668   5671     1
   5668   5670     1
   5668   5672     1
   5669   5696     1
   5670   5675     1
   5670   5673     1
   5670   5674     1
   5671   5686     1
   5671   5687     1
   5671   5678     1
   5671   5680     1
   5672   5675     1
   5672   5673     1
   5672   5674     1
   5673   5676     1
   5673   5677     1
   5673   5696     1
   5674   5676     1
   5674   5677     1
   5674   5696     1
   5675   5689     1
   5675   5690     1
   5675   5681     1
   5675   5682     1
   5676   5678     1
   5676   5680     1
   5677   5686     1
   5677   5687     1
   5678   5696     1
   5678   5683     1
   5678   5681     1
   5678   5682     1
   5679   5696     1
   5679   5694     1
   5680   5696     1
   5680   5683     1
   5680   5681     1
   5680   5682     1
   5681   5684     1
   5681   5685     1
   5682   5684     1
   5682   5685     1
   5685   5694     1
   5686   5696     1
   5686   5691     1
   5686   5689     1
   5686   5690     1
   5687   5696     1
   5687   5691     1
   5687   5689     1
   5687   5690     1
   5688   5696     1
   5688   5695     1
   5689   5692     1
   5689   5693     1
   5690   5692     1
   5690   5693     1
   5692   5695     1
   5697   5703     1
   5697   5704     1
   5698   5701     1
   5698   5700     1
   5698   5702     1
   5699   5726     1
   5700   5705     1
   5700   5703     1
   5700   5704     1
   5701   5716     1
   5701   5717     1
   5701   5708     1
   5701   5710     1
   5702   5705     1
   5702   5703     1
   5702   5704     1
   5703   5706     1
   5703   5707     1
   5703   5726     1
   5704   5706     1
   5704   5707     1
   5704   5726     1
   5705   5719     1
   5705   5720     1
   5705   5711     1
   5705   5712     1
   5706   5708     1
   5706   5710     1
   5707   5716     1
   5707   5717     1
   5708   5713     1
   5708   5711     1
   5708   5712     1
   5708   5726     1
   5709   5724     1
   5709   5726     1
   5710   5713     1
   5710   5711     1
   5710   5712     1
   5710   5726     1
   5711   5714     1
   5711   5715     1
   5712   5714     1
   5712   5715     1
   5715   5724     1
   5716   5721     1
   5716   5719     1
   5716   5720     1
   5716   5726     1
   5717   5721     1
   5717   5719     1
   5717   5720     1
   5717   5726     1
   5718   5725     1
   5718   5726     1
   5719   5722     1
   5719   5723     1
   5720   5722     1
   5720   5723     1
   5722   5725     1
   5727   5733     1
   5727   5734     1
   5728   5731     1
   5728   5730     1
   5728   5732     1
   5729   5756     1
   5730   5735     1
   5730   5733     1
   5730   5734     1
   5731   5746     1
   5731   5747     1
   5731   5738     1
   5731   5740     1
   5732   5735     1
   5732   5733     1
   5732   5734     1
   5733   5736     1
   5733   5737     1
   5733   5756     1
   5734   5736     1
   5734   5737     1
   5734   5756     1
   5735   5749     1
   5735   5750     1
   5735   5741     1
   5735   5742     1
   5736   5738     1
   5736   5740     1
   5737   5746     1
   5737   5747     1
   5738   5756     1
   5738   5743     1
   5738   5741     1
   5738   5742     1
   5739   5756     1
   5739   5754     1
   5740   5756     1
   5740   5743     1
   5740   5741     1
   5740   5742     1
   5741   5744     1
   5741   5745     1
   5742   5744     1
   5742   5745     1
   5745   5754     1
   5746   5756     1
   5746   5751     1
   5746   5749     1
   5746   5750     1
   5747   5756     1
   5747   5751     1
   5747   5749     1
   5747   5750     1
   5748   5756     1
   5748   5755     1
   5749   5752     1
   5749   5753     1
   5750   5752     1
   5750   5753     1
   5752   5755     1
   5757   5763     1
   5757   5764     1
   5758   5761     1
   5758   5760     1
   5758   5762     1
   5759   5786     1
   5760   5765     1
   5760   5763     1
   5760   5764     1
   5761   5776     1
   5761   5777     1
   5761   5768     1
   5761   5770     1
   5762   5765     1
   5762   5763     1
   5762   5764     1
   5763   5766     1
   5763   5767     1
   5763   5786     1
   5764   5766     1
   5764   5767     1
   5764   5786     1
   5765   5779     1
   5765   5780     1
   5765   5771     1
   5765   5772     1
   5766   5768     1
   5766   5770     1
   5767   5776     1
   5767   5777     1
   5768   5773     1
   5768   5771     1
   5768   5772     1
   5768   5786     1
   5769   5784     1
   5769   5786     1
   5770   5773     1
   5770   5771     1
   5770   5772     1
   5770   5786     1
   5771   5774     1
   5771   5775     1
   5772   5774     1
   5772   5775     1
   5775   5784     1
   5776   5781     1
   5776   5779     1
   5776   5780     1
   5776   5786     1
   5777   5781     1
   5777   5779     1
   5777   5780     1
   5777   5786     1
   5778   5785     1
   5778   5786     1
   5779   5782     1
   5779   5783     1
   5780   5782     1
   5780   5783     1
   5782   5785     1
   5787   5793     1
   5787   5794     1
   5788   5791     1
   5788   5790     1
   5788   5792     1
   5789   5816     1
   5790   5795     1
   5790   5793     1
   5790   5794     1
   5791   5806     1
   5791   5807     1
   5791   5798     1
   5791   5800     1
   5792   5795     1
   5792   5793     1
   5792   5794     1
   5793   5796     1
   5793   5797     1
   5793   5816     1
   5794   5796     1
   5794   5797     1
   5794   5816     1
   5795   5809     1
   5795   5810     1
   5795   5801     1
   5795   5802     1
   5796   5798     1
   5796   5800     1
   5797   5806     1
   5797   5807     1
   5798   5816     1
   5798   5803     1
   5798   5801     1
   5798   5802     1
   5799   5816     1
   5799   5814     1
   5800   5816     1
   5800   5803     1
   5800   5801     1
   5800   5802     1
   5801   5804     1
   5801   5805     1
   5802   5804     1
   5802   5805     1
   5805   5814     1
   5806   5816     1
   5806   5811     1
   5806   5809     1
   5806   5810     1
   5807   5816     1
   5807   5811     1
   5807   5809     1
   5807   5810     1
   5808   5816     1
   5808   5815     1
   5809   5812     1
   5809   5813     1
   5810   5812     1
   5810   5813     1
   5812   5815     1
   5817   5823     1
   5817   5824     1
   5818   5821     1
   5818   5820     1
   5818   5822     1
   5819   5846     1
   5820   5825     1
   5820   5823     1
   5820   5824     1
   5821   5836     1
   5821   5837     1
   5821   5828     1
   5821   5830     1
   5822   5825     1
   5822   5823     1
   5822   5824     1
   5823   5826     1
   5823   5827     1
   5823   5846     1
   5824   5826     1
   5824   5827     1
   5824   5846     1
   5825   5839     1
   5825   5840     1
   5825   5831     1
   5825   5832     1
   5826   5828     1
   5826   5830     1
   5827   5836     1
   5827   5837     1
   5828   5833     1
   5828   5831     1
   5828   5832     1
   5828   5846     1
   5829   5844     1
   5829   5846     1
   5830   5833     1
   5830   5831     1
   5830   5832     1
   5830   5846     1
   5831   5834     1
   5831   5835     1
   5832   5834     1
   5832   5835     1
   5835   5844     1
   5836   5841     1
   5836   5839     1
   5836   5840     1
   5836   5846     1
   5837   5841     1
   5837   5839     1
   5837   5840     1
   5837   5846     1
   5838   5845     1
   5838   5846     1
   5839   5842     1
   5839   5843     1
   5840   5842     1
   5840   5843     1
   5842   5845     1
   5847   5853     1
   5847   5854     1
   5848   5851     1
   5848   5850     1
   5848   5852     1
   5849   5876     1
   5850   5855     1
   5850   5853     1
   5850   5854     1
   5851   5866     1
   5851   5867     1
   5851   5858     1
   5851   5860     1
   5852   5855     1
   5852   5853     1
   5852   5854     1
   5853   5856     1
   5853   5857     1
   5853   5876     1
   5854   5856     1
   5854   5857     1
   5854   5876     1
   5855   5869     1
   5855   5870     1
   5855   5861     1
   5855   5862     1
   5856   5858     1
   5856   5860     1
   5857   5866     1
   5857   5867     1
   5858   5876     1
   5858   5863     1
   5858   5861     1
   5858   5862     1
   5859   5876     1
   5859   5874     1
   5860   5876     1
   5860   5863     1
   5860   5861     1
   5860   5862     1
   5861   5864     1
   5861   5865     1
   5862   5864     1
   5862   5865     1
   5865   5874     1
   5866   5876     1
   5866   5871     1
   5866   5869     1
   5866   5870     1
   5867   5876     1
   5867   5871     1
   5867   5869     1
   5867   5870     1
   5868   5876     1
   5868   5875     1
   5869   5872     1
   5869   5873     1
   5870   5872     1
   5870   5873     1
   5872   5875     1
   5877   5883     1
   5877   5884     1
   5878   5881     1
   5878   5880     1
   5878   5882     1
   5879   5906     1
   5880   5885     1
   5880   5883     1
   5880   5884     1
   5881   5896     1
   5881   5897     1
   5881   5888     1
   5881   5890     1
   5882   5885     1
   5882   5883     1
   5882   5884     1
   5883   5886     1
   5883   5887     1
   5883   5906     1
   5884   5886     1
   5884   5887     1
   5884   5906     1
   5885   5899     1
   5885   5900     1
   5885   5891     1
   5885   5892     1
   5886   5888     1
   5886   5890     1
   5887   5896     1
   5887   5897     1
   5888   5893     1
   5888   5891     1
   5888   5892     1
   5888   5906     1
   5889   5904     1
   5889   5906     1
   5890   5893     1
   5890   5891     1
   5890   5892     1
   5890   5906     1
   5891   5894     1
   5891   5895     1
   5892   5894     1
   5892   5895     1
   5895   5904     1
   5896   5901     1
   5896   5899     1
   5896   5900     1
   5896   5906     1
   5897   5901     1
   5897   5899     1
   5897   5900     1
   5897   5906     1
   5898   5905     1
   5898   5906     1
   5899   5902     1
   5899   5903     1
   5900   5902     1
   5900   5903     1
   5902   5905     1
   5907   5913     1
   5907   5914     1
   5908   5911     1
   5908   5910     1
   5908   5912     1
   5909   5936     1
   5910   5915     1
   5910   5913     1
   5910   5914     1
   5911   5926     1
   5911   5927     1
   5911   5918     1
   5911   5920     1
   5912   5915     1
   5912   5913     1
   5912   5914     1
   5913   5916     1
   5913   5917     1
   5913   5936     1
   5914   5916     1
   5914   5917     1
   5914   5936     1
   5915   5929     1
   5915   5930     1
   5915   5921     1
   5915   5922     1
   5916   5918     1
   5916   5920     1
   5917   5926     1
   5917   5927     1
   5918   5936     1
   5918   5923     1
   5918   5921     1
   5918   5922     1
   5919   5936     1
   5919   5934     1
   5920   5936     1
   5920   5923     1
   5920   5921     1
   5920   5922     1
   5921   5924     1
   5921   5925     1
   5922   5924     1
   5922   5925     1
   5925   5934     1
   5926   5936     1
   5926   5931     1
   5926   5929     1
   5926   5930     1
   5927   5936     1
   5927   5931     1
   5927   5929     1
   5927   5930     1
   5928   5936     1
   5928   5935     1
   5929   5932     1
   5929   5933     1
   5930   5932     1
   5930   5933     1
   5932   5935     1
   5937   5943     1
   5937   5944     1
   5938   5941     1
   5938   5940     1
   5938   5942     1
   5939   5966     1
   5940   5945     1
   5940   5943     1
   5940   5944     1
   5941   5956     1
   5941   5957     1
   5941   5948     1
   5941   5950     1
   5942   5945     1
   5942   5943     1
   5942   5944     1
   5943   5946     1
   5943   5947     1
   5943   5966     1
   5944   5946     1
   5944   5947     1
   5944   5966     1
   5945   5959     1
   5945   5960     1
   5945   5951     1
   5945   5952     1
   5946   5948     1
   5946   5950     1
   5947   5956     1
   5947   5957     1
   5948   5953     1
   5948   5951     1
   5948   5952     1
   5948   5966     1
   5949   5964     1
   5949   5966     1
   5950   5953     1
   5950   5951     1
   5950   5952     1
   5950   5966     1
   5951   5954     1
   5951   5955     1
   5952   5954     1
   5952   5955     1
   5955   5964     1
   5956   5961     1
   5956   5959     1
   5956   5960     1
   5956   5966     1
   5957   5961     1
   5957   5959     1
   5957   5960     1
   5957   5966     1
   5958   5965     1
   5958   5966     1
   5959   5962     1
   5959   5963     1
   5960   5962     1
   5960   5963     1
   5962   5965     1
   5967   5973     1
   5967   5974     1
   5968   5971     1
   5968   5970     1
   5968   5972     1
   5969   5996     1
   5970   5975     1
   5970   5973     1
   5970   5974     1
   5971   5986     1
   5971   5987     1
   5971   5978     1
   5971   5980     1
   5972   5975     1
   5972   5973     1
   5972   5974     1
   5973   5976     1
   5973   5977     1
   5973   5996     1
   5974   5976     1
   5974   5977     1
   5974   5996     1
   5975   5989     1
   5975   5990     1
   5975   5981     1
   5975   5982     1
   5976   5978     1
   5976   5980     1
   5977   5986     1
   5977   5987     1
   5978   5996     1
   5978   5983     1
   5978   5981     1
   5978   5982     1
   5979   5996     1
   5979   5994     1
   5980   5996     1
   5980   5983     1
   5980   5981     1
   5980   5982     1
   5981   5984     1
   5981   5985     1
   5982   5984     1
   5982   5985     1
   5985   5994     1
   5986   5996     1
   5986   5991     1
   5986   5989     1
   5986   5990     1
   5987   5996     1
   5987   5991     1
   5987   5989     1
   5987   5990     1
   5988   5996     1
   5988   5995     1
   5989   5992     1
   5989   5993     1
   5990   5992     1
   5990   5993     1
   5992   5995     1
   5997   6003     1
   5997   6004     1
   5998   6001     1
   5998   6000     1
   5998   6002     1
   5999   6026     1
   6000   6005     1
   6000   6003     1
   6000   6004     1
   6001   6016     1
   6001   6017     1
   6001   6008     1
   6001   6010     1
   6002   6005     1
   6002   6003     1
   6002   6004     1
   6003   6006     1
   6003   6007     1
   6003   6026     1
   6004   6006     1
   6004   6007     1
   6004   6026     1
   6005   6019     1
   6005   6020     1
   6005   6011     1
   6005   6012     1
   6006   6008     1
   6006   6010     1
   6007   6016     1
   6007   6017     1
   6008   6013     1
   6008   6011     1
   6008   6012     1
   6008   6026     1
   6009   6024     1
   6009   6026     1
   6010   6013     1
   6010   6011     1
   6010   6012     1
   6010   6026     1
   6011   6014     1
   6011   6015     1
   6012   6014     1
   6012   6015     1
   6015   6024     1
   6016   6021     1
   6016   6019     1
   6016   6020     1
   6016   6026     1
   6017   6021     1
   6017   6019     1
   6017   6020     1
   6017   6026     1
   6018   6025     1
   6018   6026     1
   6019   6022     1
   6019   6023     1
   6020   6022     1
   6020   6023     1
   6022   6025     1
   6027   6033     1
   6027   6034     1
   6028   6031     1
   6028   6030     1
   6028   6032     1
   6029   6056     1
   6030   6035     1
   6030   6033     1
   6030   6034     1
   6031   6046     1
   6031   6047     1
   6031   6038     1
   6031   6040     1
   6032   6035     1
   6032   6033     1
   6032   6034     1
   6033   6036     1
   6033   6037     1
   6033   6056     1
   6034   6036     1
   6034   6037     1
   6034   6056     1
   6035   6049     1
   6035   6050     1
   6035   6041     1
   6035   6042     1
   6036   6038     1
   6036   6040     1
   6037   6046     1
   6037   6047     1
   6038   6056     1
   6038   6043     1
   6038   6041     1
   6038   6042     1
   6039   6056     1
   6039   6054     1
   6040   6056     1
   6040   6043     1
   6040   6041     1
   6040   6042     1
   6041   6044     1
   6041   6045     1
   6042   6044     1
   6042   6045     1
   6045   6054     1
   6046   6056     1
   6046   6051     1
   6046   6049     1
   6046   6050     1
   6047   6056     1
   6047   6051     1
   6047   6049     1
   6047   6050     1
   6048   6056     1
   6048   6055     1
   6049   6052     1
   6049   6053     1
   6050   6052     1
   6050   6053     1
   6052   6055     1
   6057   6063     1
   6057   6064     1
   6058   6061     1
   6058   6060     1
   6058   6062     1
   6059   6086     1
   6060   6065     1
   6060   6063     1
   6060   6064     1
   6061   6076     1
   6061   6077     1
   6061   6068     1
   6061   6070     1
   6062   6065     1
   6062   6063     1
   6062   6064     1
   6063   6066     1
   6063   6067     1
   6063   6086     1
   6064   6066     1
   6064   6067     1
   6064   6086     1
   6065   6079     1
   6065   6080     1
   6065   6071     1
   6065   6072     1
   6066   6068     1
   6066   6070     1
   6067   6076     1
   6067   6077     1
   6068   6073     1
   6068   6071     1
   6068   6072     1
   6068   6086     1
   6069   6084     1
   6069   6086     1
   6070   6073     1
   6070   6071     1
   6070   6072     1
   6070   6086     1
   6071   6074     1
   6071   6075     1
   6072   6074     1
   6072   6075     1
   6075   6084     1
   6076   6081     1
   6076   6079     1
   6076   6080     1
   6076   6086     1
   6077   6081     1
   6077   6079     1
   6077   6080     1
   6077   6086     1
   6078   6085     1
   6078   6086     1
   6079   6082     1
   6079   6083     1
   6080   6082     1
   6080   6083     1
   6082   6085     1
   6087   6093     1
   6087   6094     1
   6088   6091     1
   6088   6090     1
   6088   6092     1
   6089   6116     1
   6090   6095     1
   6090   6093     1
   6090   6094     1
   6091   6106     1
   6091   6107     1
   6091   6098     1
   6091   6100     1
   6092   6095     1
   6092   6093     1
   6092   6094     1
   6093   6096     1
   6093   6097     1
   6093   6116     1
   6094   6096     1
   6094   6097     1
   6094   6116     1
   6095   6109     1
   6095   6110     1
   6095   6101     1
   6095   6102     1
   6096   6098     1
   6096   6100     1
   6097   6106     1
   6097   6107     1
   6098   6116     1
   6098   6103     1
   6098   6101     1
   6098   6102     1
   6099   6116     1
   6099   6114     1
   6100   6116     1
   6100   6103     1
   6100   6101     1
   6100   6102     1
   6101   6104     1
   6101   6105     1
   6102   6104     1
   6102   6105     1
   6105   6114     1
   6106   6116     1
   6106   6111     1
   6106   6109     1
   6106   6110     1
   6107   6116     1
   6107   6111     1
   6107   6109     1
   6107   6110     1
   6108   6116     1
   6108   6115     1
   6109   6112     1
   6109   6113     1
   6110   6112     1
   6110   6113     1
   6112   6115     1
   6117   6123     1
   6117   6124     1
   6118   6121     1
   6118   6120     1
   6118   6122     1
   6119   6146     1
   6120   6125     1
   6120   6123     1
   6120   6124     1
   6121   6136     1
   6121   6137     1
   6121   6128     1
   6121   6130     1
   6122   6125     1
   6122   6123     1
   6122   6124     1
   6123   6126     1
   6123   6127     1
   6123   6146     1
   6124   6126     1
   6124   6127     1
   6124   6146     1
   6125   6139     1
   6125   6140     1
   6125   6131     1
   6125   6132     1
   6126   6128     1
   6126   6130     1
   6127   6136     1
   6127   6137     1
   6128   6133     1
   6128   6131     1
   6128   6132     1
   6128   6146     1
   6129   6144     1
   6129   6146     1
   6130   6133     1
   6130   6131     1
   6130   6132     1
   6130   6146     1
   6131   6134     1
   6131   6135     1
   6132   6134     1
   6132   6135     1
   6135   6144     1
   6136   6141     1
   6136   6139     1
   6136   6140     1
   6136   6146     1
   6137   6141     1
   6137   6139     1
   6137   6140     1
   6137   6146     1
   6138   6145     1
   6138   6146     1
   6139   6142     1
   6139   6143     1
   6140   6142     1
   6140   6143     1
   6142   6145     1
   6147   6153     1
   6147   6154     1
   6148   6151     1
   6148   6150     1
   6148   6152     1
   6149   6176     1
   6150   6155     1
   6150   6153     1
   6150   6154     1
   6151   6166     1
   6151   6167     1
   6151   6158     1
   6151   6160     1
   6152   6155     1
   6152   6153     1
   6152   6154     1
   6153   6156     1
   6153   6157     1
   6153   6176     1
   6154   6156     1
   6154   6157     1
   6154   6176     1
   6155   6169     1
   6155   6170     1
   6155   6161     1
   6155   6162     1
   6156   6158     1
   6156   6160     1
   6157   6166     1
   6157   6167     1
   6158   6176     1
   6158   6163     1
   6158   6161     1
   6158   6162     1
   6159   6176     1
   6159   6174     1
   6160   6176     1
   6160   6163     1
   6160   6161     1
   6160   6162     1
   6161   6164     1
   6161   6165     1
   6162   6164     1
   6162   6165     1
   6165   6174     1
   6166   6176     1
   6166   6171     1
   6166   6169     1
   6166   6170     1
   6167   6176     1
   6167   6171     1
   6167   6169     1
   6167   6170     1
   6168   6176     1
   6168   6175     1
   6169   6172     1
   6169   6173     1
   6170   6172     1
   6170   6173     1
   6172   6175     1
   6177   6183     1
   6177   6184     1
   6178   6181     1
   6178   6180     1
   6178   6182     1
   6179   6206     1
   6180   6185     1
   6180   6183     1
   6180   6184     1
   6181   6196     1
   6181   6197     1
   6181   6188     1
   6181   6190     1
   6182   6185     1
   6182   6183     1
   6182   6184     1
   6183   6186     1
   6183   6187     1
   6183   6206     1
   6184   6186     1
   6184   6187     1
   6184   6206     1
   6185   6199     1
   6185   6200     1
   6185   6191     1
   6185   6192     1
   6186   6188     1
   6186   6190     1
   6187   6196     1
   6187   6197     1
   6188   6193     1
   6188   6191     1
   6188   6192     1
   6188   6206     1
   6189   6204     1
   6189   6206     1
   6190   6193     1
   6190   6191     1
   6190   6192     1
   6190   6206     1
   6191   6194     1
   6191   6195     1
   6192   6194     1
   6192   6195     1
   6195   6204     1
   6196   6201     1
   6196   6199     1
   6196   6200     1
   6196   6206     1
   6197   6201     1
   6197   6199     1
   6197   6200     1
   6197   6206     1
   6198   6205     1
   6198   6206     1
   6199   6202     1
   6199   6203     1
   6200   6202     1
   6200   6203     1
   6202   6205     1
   6207   6213     1
   6207   6214     1
   6208   6211     1
   6208   6210     1
   6208   6212     1
   6209   6236     1
   6210   6215     1
   6210   6213     1
   6210   6214     1
   6211   6226     1
   6211   6227     1
   6211   6218     1
   6211   6220     1
   6212   6215     1
   6212   6213     1
   6212   6214     1
   6213   6216     1
   6213   6217     1
   6213   6236     1
   6214   6216     1
   6214   6217     1
   6214   6236     1
   6215   6229     1
   6215   6230     1
   6215   6221     1
   6215   6222     1
   6216   6218     1
   6216   6220     1
   6217   6226     1
   6217   6227     1
   6218   6236     1
   6218   6223     1
   6218   6221     1
   6218   6222     1
   6219   6236     1
   6219   6234     1
   6220   6236     1
   6220   6223     1
   6220   6221     1
   6220   6222     1
   6221   6224     1
   6221   6225     1
   6222   6224     1
   6222   6225     1
   6225   6234     1
   6226   6236     1
   6226   6231     1
   6226   6229     1
   6226   6230     1
   6227   6236     1
   6227   6231     1
   6227   6229     1
   6227   6230     1
   6228   6236     1
   6228   6235     1
   6229   6232     1
   6229   6233     1
   6230   6232     1
   6230   6233     1
   6232   6235     1
   6237   6243     1
   6237   6244     1
   6238   6241     1
   6238   6240     1
   6238   6242     1
   6239   6266     1
   6240   6245     1
   6240   6243     1
   6240   6244     1
   6241   6256     1
   6241   6257     1
   6241   6248     1
   6241   6250     1
   6242   6245     1
   6242   6243     1
   6242   6244     1
   6243   6246     1
   6243   6247     1
   6243   6266     1
   6244   6246     1
   6244   6247     1
   6244   6266     1
   6245   6259     1
   6245   6260     1
   6245   6251     1
   6245   6252     1
   6246   6248     1
   6246   6250     1
   6247   6256     1
   6247   6257     1
   6248   6253     1
   6248   6251     1
   6248   6252     1
   6248   6266     1
   6249   6264     1
   6249   6266     1
   6250   6253     1
   6250   6251     1
   6250   6252     1
   6250   6266     1
   6251   6254     1
   6251   6255     1
   6252   6254     1
   6252   6255     1
   6255   6264     1
   6256   6261     1
   6256   6259     1
   6256   6260     1
   6256   6266     1
   6257   6261     1
   6257   6259     1
   6257   6260     1
   6257   6266     1
   6258   6265     1
   6258   6266     1
   6259   6262     1
   6259   6263     1
   6260   6262     1
   6260   6263     1
   6262   6265     1
   6267   6273     1
   6267   6274     1
   6268   6271     1
   6268   6270     1
   6268   6272     1
   6269   6296     1
   6270   6275     1
   6270   6273     1
   6270   6274     1
   6271   6286     1
   6271   6287     1
   6271   6278     1
   6271   6280     1
   6272   6275     1
   6272   6273     1
   6272   6274     1
   6273   6276     1
   6273   6277     1
   6273   6296     1
   6274   6276     1
   6274   6277     1
   6274   6296     1
   6275   6289     1
   6275   6290     1
   6275   6281     1
   6275   6282     1
   6276   6278     1
   6276   6280     1
   6277   6286     1
   6277   6287     1
   6278   6296     1
   6278   6283     1
   6278   6281     1
   6278   6282     1
   6279   6296     1
   6279   6294     1
   6280   6296     1
   6280   6283     1
   6280   6281     1
   6280   6282     1
   6281   6284     1
   6281   6285     1
   6282   6284     1
   6282   6285     1
   6285   6294     1
   6286   6296     1
   6286   6291     1
   6286   6289     1
   6286   6290     1
   6287   6296     1
   6287   6291     1
   6287   6289     1
   6287   6290     1
   6288   6296     1
   6288   6295     1
   6289   6292     1
   6289   6293     1
   6290   6292     1
   6290   6293     1
   6292   6295     1
   6297   6303     1
   6297   6304     1
   6298   6301     1
   6298   6300     1
   6298   6302     1
   6299   6326     1
   6300   6305     1
   6300   6303     1
   6300   6304     1
   6301   6316     1
   6301   6317     1
   6301   6308     1
   6301   6310     1
   6302   6305     1
   6302   6303     1
   6302   6304     1
   6303   6306     1
   6303   6307     1
   6303   6326     1
   6304   6306     1
   6304   6307     1
   6304   6326     1
   6305   6319     1
   6305   6320     1
   6305   6311     1
   6305   6312     1
   6306   6308     1
   6306   6310     1
   6307   6316     1
   6307   6317     1
   6308   6313     1
   6308   6311     1
   6308   6312     1
   6308   6326     1
   6309   6324     1
   6309   6326     1
   6310   6313     1
   6310   6311     1
   6310   6312     1
   6310   6326     1
   6311   6314     1
   6311   6315     1
   6312   6314     1
   6312   6315     1
   6315   6324     1
   6316   6321     1
   6316   6319     1
   6316   6320     1
   6316   6326     1
   6317   6321     1
   6317   6319     1
   6317   6320     1
   6317   6326     1
   6318   6325     1
   6318   6326     1
   6319   6322     1
   6319   6323     1
   6320   6322     1
   6320   6323     1
   6322   6325     1
   6327   6333     1
   6327   6334     1
   6328   6331     1
   6328   6330     1
   6328   6332     1
   6329   6356     1
   6330   6335     1
   6330   6333     1
   6330   6334     1
   6331   6346     1
   6331   6347     1
   6331   6338     1
   6331   6340     1
   6332   6335     1
   6332   6333     1
   6332   6334     1
   6333   6336     1
   6333   6337     1
   6333   6356     1
   6334   6336     1
   6334   6337     1
   6334   6356     1
   6335   6349     1
   6335   6350     1
   6335   6341     1
   6335   6342     1
   6336   6338     1
   6336   6340     1
   6337   6346     1
   6337   6347     1
   6338   6356     1
   6338   6343     1
   6338   6341     1
   6338   6342     1
   6339   6356     1
   6339   6354     1
   6340   6356     1
   6340   6343     1
   6340   6341     1
   6340   6342     1
   6341   6344     1
   6341   6345     1
   6342   6344     1
   6342   6345     1
   6345   6354     1
   6346   6356     1
   6346   6351     1
   6346   6349     1
   6346   6350     1
   6347   6356     1
   6347   6351     1
   6347   6349     1
   6347   6350     1
   6348   6356     1
   6348   6355     1
   6349   6352     1
   6349   6353     1
   6350   6352     1
   6350   6353     1
   6352   6355     1
   6357   6363     1
   6357   6364     1
   6358   6361     1
   6358   6360     1
   6358   6362     1
   6359   6386     1
   6360   6365     1
   6360   6363     1
   6360   6364     1
   6361   6376     1
   6361   6377     1
   6361   6368     1
   6361   6370     1
   6362   6365     1
   6362   6363     1
   6362   6364     1
   6363   6366     1
   6363   6367     1
   6363   6386     1
   6364   6366     1
   6364   6367     1
   6364   6386     1
   6365   6379     1
   6365   6380     1
   6365   6371     1
   6365   6372     1
   6366   6368     1
   6366   6370     1
   6367   6376     1
   6367   6377     1
   6368   6373     1
   6368   6371     1
   6368   6372     1
   6368   6386     1
   6369   6384     1
   6369   6386     1
   6370   6373     1
   6370   6371     1
   6370   6372     1
   6370   6386     1
   6371   6374     1
   6371   6375     1
   6372   6374     1
   6372   6375     1
   6375   6384     1
   6376   6381     1
   6376   6379     1
   6376   6380     1
   6376   6386     1
   6377   6381     1
   6377   6379     1
   6377   6380     1
   6377   6386     1
   6378   6385     1
   6378   6386     1
   6379   6382     1
   6379   6383     1
   6380   6382     1
   6380   6383     1
   6382   6385     1
   6387   6393     1
   6387   6394     1
   6388   6391     1
   6388   6390     1
   6388   6392     1
   6389   6416     1
   6390   6395     1
   6390   6393     1
   6390   6394     1
   6391   6406     1
   6391   6407     1
   6391   6398     1
   6391   6400     1
   6392   6395     1
   6392   6393     1
   6392   6394     1
   6393   6396     1
   6393   6397     1
   6393   6416     1
   6394   6396     1
   6394   6397     1
   6394   6416     1
   6395   6409     1
   6395   6410     1
   6395   6401     1
   6395   6402     1
   6396   6398     1
   6396   6400     1
   6397   6406     1
   6397   6407     1
   6398   6416     1
   6398   6403     1
   6398   6401     1
   6398   6402     1
   6399   6416     1
   6399   6414     1
   6400   6416     1
   6400   6403     1
   6400   6401     1
   6400   6402     1
   6401   6404     1
   6401   6405     1
   6402   6404     1
   6402   6405     1
   6405   6414     1
   6406   6416     1
   6406   6411     1
   6406   6409     1
   6406   6410     1
   6407   6416     1
   6407   6411     1
   6407   6409     1
   6407   6410     1
   6408   6416     1
   6408   6415     1
   6409   6412     1
   6409   6413     1
   6410   6412     1
   6410   6413     1
   6412   6415     1
   6417   6423     1
   6417   6424     1
   6418   6421     1
   6418   6420     1
   6418   6422     1
   6419   6446     1
   6420   6425     1
   6420   6423     1
   6420   6424     1
   6421   6436     1
   6421   6437     1
   6421   6428     1
   6421   6430     1
   6422   6425     1
   6422   6423     1
   6422   6424     1
   6423   6426     1
   6423   6427     1
   6423   6446     1
   6424   6426     1
   6424   6427     1
   6424   6446     1
   6425   6439     1
   6425   6440     1
   6425   6431     1
   6425   6432     1
   6426   6428     1
   6426   6430     1
   6427   6436     1
   6427   6437     1
   6428   6433     1
   6428   6431     1
   6428   6432     1
   6428   6446     1
   6429   6444     1
   6429   6446     1
   6430   6433     1
   6430   6431     1
   6430   6432     1
   6430   6446     1
   6431   6434     1
   6431   6435     1
   6432   6434     1
   6432   6435     1
   6435   6444     1
   6436   6441     1
   6436   6439     1
   6436   6440     1
   6436   6446     1
   6437   6441     1
   6437   6439     1
   6437   6440     1
   6437   6446     1
   6438   6445     1
   6438   6446     1
   6439   6442     1
   6439   6443     1
   6440   6442     1
   6440   6443     1
   6442   6445     1
   6447   6453     1
   6447   6454     1
   6448   6451     1
   6448   6450     1
   6448   6452     1
   6449   6476     1
   6450   6455     1
   6450   6453     1
   6450   6454     1
   6451   6466     1
   6451   6467     1
   6451   6458     1
   6451   6460     1
   6452   6455     1
   6452   6453     1
   6452   6454     1
   6453   6456     1
   6453   6457     1
   6453   6476     1
   6454   6456     1
   6454   6457     1
   6454   6476     1
   6455   6469     1
   6455   6470     1
   6455   6461     1
   6455   6462     1
   6456   6458     1
   6456   6460     1
   6457   6466     1
   6457   6467     1
   6458   6476     1
   6458   6463     1
   6458   6461     1
   6458   6462     1
   6459   6476     1
   6459   6474     1
   6460   6476     1
   6460   6463     1
   6460   6461     1
   6460   6462     1
   6461   6464     1
   6461   6465     1
   6462   6464     1
   6462   6465     1
   6465   6474     1
   6466   6476     1
   6466   6471     1
   6466   6469     1
   6466   6470     1
   6467   6476     1
   6467   6471     1
   6467   6469     1
   6467   6470     1
   6468   6476     1
   6468   6475     1
   6469   6472     1
   6469   6473     1
   6470   6472     1
   6470   6473     1
   6472   6475     1
   6477   6483     1
   6477   6484     1
   6478   6481     1
   6478   6480     1
   6478   6482     1
   6479   6506     1
   6480   6485     1
   6480   6483     1
   6480   6484     1
   6481   6496     1
   6481   6497     1
   6481   6488     1
   6481   6490     1
   6482   6485     1
   6482   6483     1
   6482   6484     1
   6483   6486     1
   6483   6487     1
   6483   6506     1
   6484   6486     1
   6484   6487     1
   6484   6506     1
   6485   6499     1
   6485   6500     1
   6485   6491     1
   6485   6492     1
   6486   6488     1
   6486   6490     1
   6487   6496     1
   6487   6497     1
   6488   6493     1
   6488   6491     1
   6488   6492     1
   6488   6506     1
   6489   6504     1
   6489   6506     1
   6490   6493     1
   6490   6491     1
   6490   6492     1
   6490   6506     1
   6491   6494     1
   6491   6495     1
   6492   6494     1
   6492   6495     1
   6495   6504     1
   6496   6501     1
   6496   6499     1
   6496   6500     1
   6496   6506     1
   6497   6501     1
   6497   6499     1
   6497   6500     1
   6497   6506     1
   6498   6505     1
   6498   6506     1
   6499   6502     1
   6499   6503     1
   6500   6502     1
   6500   6503     1
   6502   6505     1
   6507   6513     1
   6507   6514     1
   6508   6511     1
   6508   6510     1
   6508   6512     1
   6509   6536     1
   6510   6515     1
   6510   6513     1
   6510   6514     1
   6511   6526     1
   6511   6527     1
   6511   6518     1
   6511   6520     1
   6512   6515     1
   6512   6513     1
   6512   6514     1
   6513   6516     1
   6513   6517     1
   6513   6536     1
   6514   6516     1
   6514   6517     1
   6514   6536     1
   6515   6529     1
   6515   6530     1
   6515   6521     1
   6515   6522     1
   6516   6518     1
   6516   6520     1
   6517   6526     1
   6517   6527     1
   6518   6536     1
   6518   6523     1
   6518   6521     1
   6518   6522     1
   6519   6536     1
   6519   6534     1
   6520   6536     1
   6520   6523     1
   6520   6521     1
   6520   6522     1
   6521   6524     1
   6521   6525     1
   6522   6524     1
   6522   6525     1
   6525   6534     1
   6526   6536     1
   6526   6531     1
   6526   6529     1
   6526   6530     1
   6527   6536     1
   6527   6531     1
   6527   6529     1
   6527   6530     1
   6528   6536     1
   6528   6535     1
   6529   6532     1
   6529   6533     1
   6530   6532     1
   6530   6533     1
   6532   6535     1
   6537   6543     1
   6537   6544     1
   6538   6541     1
   6538   6540     1
   6538   6542     1
   6539   6566     1
   6540   6545     1
   6540   6543     1
   6540   6544     1
   6541   6556     1
   6541   6557     1
   6541   6548     1
   6541   6550     1
   6542   6545     1
   6542   6543     1
   6542   6544     1
   6543   6546     1
   6543   6547     1
   6543   6566     1
   6544   6546     1
   6544   6547     1
   6544   6566     1
   6545   6559     1
   6545   6560     1
   6545   6551     1
   6545   6552     1
   6546   6548     1
   6546   6550     1
   6547   6556     1
   6547   6557     1
   6548   6553     1
   6548   6551     1
   6548   6552     1
   6548   6566     1
   6549   6564     1
   6549   6566     1
   6550   6553     1
   6550   6551     1
   6550   6552     1
   6550   6566     1
   6551   6554     1
   6551   6555     1
   6552   6554     1
   6552   6555     1
   6555   6564     1
   6556   6561     1
   6556   6559     1
   6556   6560     1
   6556   6566     1
   6557   6561     1
   6557   6559     1
   6557   6560     1
   6557   6566     1
   6558   6565     1
   6558   6566     1
   6559   6562     1
   6559   6563     1
   6560   6562     1
   6560   6563     1
   6562   6565     1
   6567   6573     1
   6567   6574     1
   6568   6571     1
   6568   6570     1
   6568   6572     1
   6569   6596     1
   6570   6575     1
   6570   6573     1
   6570   6574     1
   6571   6586     1
   6571   6587     1
   6571   6578     1
   6571   6580     1
   6572   6575     1
   6572   6573     1
   6572   6574     1
   6573   6576     1
   6573   6577     1
   6573   6596     1
   6574   6576     1
   6574   6577     1
   6574   6596     1
   6575   6589     1
   6575   6590     1
   6575   6581     1
   6575   6582     1
   6576   6578     1
   6576   6580     1
   6577   6586     1
   6577   6587     1
   6578   6596     1
   6578   6583     1
   6578   6581     1
   6578   6582     1
   6579   6596     1
   6579   6594     1
   6580   6596     1
   6580   6583     1
   6580   6581     1
   6580   6582     1
   6581   6584     1
   6581   6585     1
   6582   6584     1
   6582   6585     1
   6585   6594     1
   6586   6596     1
   6586   6591     1
   6586   6589     1
   6586   6590     1
   6587   6596     1
   6587   6591     1
   6587   6589     1
   6587   6590     1
   6588   6596     1
   6588   6595     1
   6589   6592     1
   6589   6593     1
   6590   6592     1
   6590   6593     1
   6592   6595     1
   6597   6603     1
   6597   6604     1
   6598   6601     1
   6598   6600     1
   6598   6602     1
   6599   6626     1
   6600   6605     1
   6600   6603     1
   6600   6604     1
   6601   6616     1
   6601   6617     1
   6601   6608     1
   6601   6610     1
   6602   6605     1
   6602   6603     1
   6602   6604     1
   6603   6606     1
   6603   6607     1
   6603   6626     1
   6604   6606     1
   6604   6607     1
   6604   6626     1
   6605   6619     1
   6605   6620     1
   6605   6611     1
   6605   6612     1
   6606   6608     1
   6606   6610     1
   6607   6616     1
   6607   6617     1
   6608   6613     1
   6608   6611     1
   6608   6612     1
   6608   6626     1
   6609   6624     1
   6609   6626     1
   6610   6613     1
   6610   6611     1
   6610   6612     1
   6610   6626     1
   6611   6614     1
   6611   6615     1
   6612   6614     1
   6612   6615     1
   6615   6624     1
   6616   6621     1
   6616   6619     1
   6616   6620     1
   6616   6626     1
   6617   6621     1
   6617   6619     1
   6617   6620     1
   6617   6626     1
   6618   6625     1
   6618   6626     1
   6619   6622     1
   6619   6623     1
   6620   6622     1
   6620   6623     1
   6622   6625     1
   6627   6633     1
   6627   6634     1
   6628   6631     1
   6628   6630     1
   6628   6632     1
   6629   6656     1
   6630   6635     1
   6630   6633     1
   6630   6634     1
   6631   6646     1
   6631   6647     1
   6631   6638     1
   6631   6640     1
   6632   6635     1
   6632   6633     1
   6632   6634     1
   6633   6636     1
   6633   6637     1
   6633   6656     1
   6634   6636     1
   6634   6637     1
   6634   6656     1
   6635   6649     1
   6635   6650     1
   6635   6641     1
   6635   6642     1
   6636   6638     1
   6636   6640     1
   6637   6646     1
   6637   6647     1
   6638   6656     1
   6638   6643     1
   6638   6641     1
   6638   6642     1
   6639   6656     1
   6639   6654     1
   6640   6656     1
   6640   6643     1
   6640   6641     1
   6640   6642     1
   6641   6644     1
   6641   6645     1
   6642   6644     1
   6642   6645     1
   6645   6654     1
   6646   6656     1
   6646   6651     1
   6646   6649     1
   6646   6650     1
   6647   6656     1
   6647   6651     1
   6647   6649     1
   6647   6650     1
   6648   6656     1
   6648   6655     1
   6649   6652     1
   6649   6653     1
   6650   6652     1
   6650   6653     1
   6652   6655     1
   6657   6663     1
   6657   6664     1
   6658   6661     1
   6658   6660     1
   6658   6662     1
   6659   6686     1
   6660   6665     1
   6660   6663     1
   6660   6664     1
   6661   6676     1
   6661   6677     1
   6661   6668     1
   6661   6670     1
   6662   6665     1
   6662   6663     1
   6662   6664     1
   6663   6666     1
   6663   6667     1
   6663   6686     1
   6664   6666     1
   6664   6667     1
   6664   6686     1
   6665   6679     1
   6665   6680     1
   6665   6671     1
   6665   6672     1
   6666   6668     1
   6666   6670     1
   6667   6676     1
   6667   6677     1
   6668   6673     1
   6668   6671     1
   6668   6672     1
   6668   6686     1
   6669   6684     1
   6669   6686     1
   6670   6673     1
   6670   6671     1
   6670   6672     1
   6670   6686     1
   6671   6674     1
   6671   6675     1
   6672   6674     1
   6672   6675     1
   6675   6684     1
   6676   6681     1
   6676   6679     1
   6676   6680     1
   6676   6686     1
   6677   6681     1
   6677   6679     1
   6677   6680     1
   6677   6686     1
   6678   6685     1
   6678   6686     1
   6679   6682     1
   6679   6683     1
   6680   6682     1
   6680   6683     1
   6682   6685     1
   6687   6693     1
   6687   6694     1
   6688   6691     1
   6688   6690     1
   6688   6692     1
   6689   6716     1
   6690   6695     1
   6690   6693     1
   6690   6694     1
   6691   6706     1
   6691   6707     1
   6691   6698     1
   6691   6700     1
   6692   6695     1
   6692   6693     1
   6692   6694     1
   6693   6696     1
   6693   6697     1
   6693   6716     1
   6694   6696     1
   6694   6697     1
   6694   6716     1
   6695   6709     1
   6695   6710     1
   6695   6701     1
   6695   6702     1
   6696   6698     1
   6696   6700     1
   6697   6706     1
   6697   6707     1
   6698   6716     1
   6698   6703     1
   6698   6701     1
   6698   6702     1
   6699   6716     1
   6699   6714     1
   6700   6716     1
   6700   6703     1
   6700   6701     1
   6700   6702     1
   6701   6704     1
   6701   6705     1
   6702   6704     1
   6702   6705     1
   6705   6714     1
   6706   6716     1
   6706   6711     1
   6706   6709     1
   6706   6710     1
   6707   6716     1
   6707   6711     1
   6707   6709     1
   6707   6710     1
   6708   6716     1
   6708   6715     1
   6709   6712     1
   6709   6713     1
   6710   6712     1
   6710   6713     1
   6712   6715     1
   6717   6723     1
   6717   6724     1
   6718   6721     1
   6718   6720     1
   6718   6722     1
   6719   6746     1
   6720   6725     1
   6720   6723     1
   6720   6724     1
   6721   6736     1
   6721   6737     1
   6721   6728     1
   6721   6730     1
   6722   6725     1
   6722   6723     1
   6722   6724     1
   6723   6726     1
   6723   6727     1
   6723   6746     1
   6724   6726     1
   6724   6727     1
   6724   6746     1
   6725   6739     1
   6725   6740     1
   6725   6731     1
   6725   6732     1
   6726   6728     1
   6726   6730     1
   6727   6736     1
   6727   6737     1
   6728   6733     1
   6728   6731     1
   6728   6732     1
   6728   6746     1
   6729   6744     1
   6729   6746     1
   6730   6733     1
   6730   6731     1
   6730   6732     1
   6730   6746     1
   6731   6734     1
   6731   6735     1
   6732   6734     1
   6732   6735     1
   6735   6744     1
   6736   6741     1
   6736   6739     1
   6736   6740     1
   6736   6746     1
   6737   6741     1
   6737   6739     1
   6737   6740     1
   6737   6746     1
   6738   6745     1
   6738   6746     1
   6739   6742     1
   6739   6743     1
   6740   6742     1
   6740   6743     1
   6742   6745     1
   6747   6753     1
   6747   6754     1
   6748   6751     1
   6748   6750     1
   6748   6752     1
   6749   6776     1
   6750   6755     1
   6750   6753     1
   6750   6754     1
   6751   6766     1
   6751   6767     1
   6751   6758     1
   6751   6760     1
   6752   6755     1
   6752   6753     1
   6752   6754     1
   6753   6756     1
   6753   6757     1
   6753   6776     1
   6754   6756     1
   6754   6757     1
   6754   6776     1
   6755   6769     1
   6755   6770     1
   6755   6761     1
   6755   6762     1
   6756   6758     1
   6756   6760     1
   6757   6766     1
   6757   6767     1
   6758   6776     1
   6758   6763     1
   6758   6761     1
   6758   6762     1
   6759   6776     1
   6759   6774     1
   6760   6776     1
   6760   6763     1
   6760   6761     1
   6760   6762     1
   6761   6764     1
   6761   6765     1
   6762   6764     1
   6762   6765     1
   6765   6774     1
   6766   6776     1
   6766   6771     1
   6766   6769     1
   6766   6770     1
   6767   6776     1
   6767   6771     1
   6767   6769     1
   6767   6770     1
   6768   6776     1
   6768   6775     1
   6769   6772     1
   6769   6773     1
   6770   6772     1
   6770   6773     1
   6772   6775     1
   6777   6783     1
   6777   6784     1
   6778   6781     1
   6778   6780     1
   6778   6782     1
   6779   6806     1
   6780   6785     1
   6780   6783     1
   6780   6784     1
   6781   6796     1
   6781   6797     1
   6781   6788     1
   6781   6790     1
   6782   6785     1
   6782   6783     1
   6782   6784     1
   6783   6786     1
   6783   6787     1
   6783   6806     1
   6784   6786     1
   6784   6787     1
   6784   6806     1
   6785   6799     1
   6785   6800     1
   6785   6791     1
   6785   6792     1
   6786   6788     1
   6786   6790     1
   6787   6796     1
   6787   6797     1
   6788   6793     1
   6788   6791     1
   6788   6792     1
   6788   6806     1
   6789   6804     1
   6789   6806     1
   6790   6793     1
   6790   6791     1
   6790   6792     1
   6790   6806     1
   6791   6794     1
   6791   6795     1
   6792   6794     1
   6792   6795     1
   6795   6804     1
   6796   6801     1
   6796   6799     1
   6796   6800     1
   6796   6806     1
   6797   6801     1
   6797   6799     1
   6797   6800     1
   6797   6806     1
   6798   6805     1
   6798   6806     1
   6799   6802     1
   6799   6803     1
   6800   6802     1
   6800   6803     1
   6802   6805     1
   6807   6813     1
   6807   6814     1
   6808   6811     1
   6808   6810     1
   6808   6812     1
   6809   6836     1
   6810   6815     1
   6810   6813     1
   6810   6814     1
   6811   6826     1
   6811   6827     1
   6811   6818     1
   6811   6820     1
   6812   6815     1
   6812   6813     1
   6812   6814     1
   6813   6816     1
   6813   6817     1
   6813   6836     1
   6814   6816     1
   6814   6817     1
   6814   6836     1
   6815   6829     1
   6815   6830     1
   6815   6821     1
   6815   6822     1
   6816   6818     1
   6816   6820     1
   6817   6826     1
   6817   6827     1
   6818   6836     1
   6818   6823     1
   6818   6821     1
   6818   6822     1
   6819   6836     1
   6819   6834     1
   6820   6836     1
   6820   6823     1
   6820   6821     1
   6820   6822     1
   6821   6824     1
   6821   6825     1
   6822   6824     1
   6822   6825     1
   6825   6834     1
   6826   6836     1
   6826   6831     1
   6826   6829     1
   6826   6830     1
   6827   6836     1
   6827   6831     1
   6827   6829     1
   6827   6830     1
   6828   6836     1
   6828   6835     1
   6829   6832     1
   6829   6833     1
   6830   6832     1
   6830   6833     1
   6832   6835     1
   6837   6843     1
   6837   6844     1
   6838   6841     1
   6838   6840     1
   6838   6842     1
   6839   6866     1
   6840   6845     1
   6840   6843     1
   6840   6844     1
   6841   6856     1
   6841   6857     1
   6841   6848     1
   6841   6850     1
   6842   6845     1
   6842   6843     1
   6842   6844     1
   6843   6846     1
   6843   6847     1
   6843   6866     1
   6844   6846     1
   6844   6847     1
   6844   6866     1
   6845   6859     1
   6845   6860     1
   6845   6851     1
   6845   6852     1
   6846   6848     1
   6846   6850     1
   6847   6856     1
   6847   6857     1
   6848   6853     1
   6848   6851     1
   6848   6852     1
   6848   6866     1
   6849   6864     1
   6849   6866     1
   6850   6853     1
   6850   6851     1
   6850   6852     1
   6850   6866     1
   6851   6854     1
   6851   6855     1
   6852   6854     1
   6852   6855     1
   6855   6864     1
   6856   6861     1
   6856   6859     1
   6856   6860     1
   6856   6866     1
   6857   6861     1
   6857   6859     1
   6857   6860     1
   6857   6866     1
   6858   6865     1
   6858   6866     1
   6859   6862     1
   6859   6863     1
   6860   6862     1
   6860   6863     1
   6862   6865     1
   6867   6873     1
   6867   6874     1
   6868   6871     1
   6868   6870     1
   6868   6872     1
   6869   6896     1
   6870   6875     1
   6870   6873     1
   6870   6874     1
   6871   6886     1
   6871   6887     1
   6871   6878     1
   6871   6880     1
   6872   6875     1
   6872   6873     1
   6872   6874     1
   6873   6876     1
   6873   6877     1
   6873   6896     1
   6874   6876     1
   6874   6877     1
   6874   6896     1
   6875   6889     1
   6875   6890     1
   6875   6881     1
   6875   6882     1
   6876   6878     1
   6876   6880     1
   6877   6886     1
   6877   6887     1
   6878   6896     1
   6878   6883     1
   6878   6881     1
   6878   6882     1
   6879   6896     1
   6879   6894     1
   6880   6896     1
   6880   6883     1
   6880   6881     1
   6880   6882     1
   6881   6884     1
   6881   6885     1
   6882   6884     1
   6882   6885     1
   6885   6894     1
   6886   6896     1
   6886   6891     1
   6886   6889     1
   6886   6890     1
   6887   6896     1
   6887   6891     1
   6887   6889     1
   6887   6890     1
   6888   6896     1
   6888   6895     1
   6889   6892     1
   6889   6893     1
   6890   6892     1
   6890   6893     1
   6892   6895     1
   6897   6903     1
   6897   6904     1
   6898   6901     1
   6898   6900     1
   6898   6902     1
   6899   6926     1
   6900   6905     1
   6900   6903     1
   6900   6904     1
   6901   6916     1
   6901   6917     1
   6901   6908     1
   6901   6910     1
   6902   6905     1
   6902   6903     1
   6902   6904     1
   6903   6906     1
   6903   6907     1
   6903   6926     1
   6904   6906     1
   6904   6907     1
   6904   6926     1
   6905   6919     1
   6905   6920     1
   6905   6911     1
   6905   6912     1
   6906   6908     1
   6906   6910     1
   6907   6916     1
   6907   6917     1
   6908   6913     1
   6908   6911     1
   6908   6912     1
   6908   6926     1
   6909   6924     1
   6909   6926     1
   6910   6913     1
   6910   6911     1
   6910   6912     1
   6910   6926     1
   6911   6914     1
   6911   6915     1
   6912   6914     1
   6912   6915     1
   6915   6924     1
   6916   6921     1
   6916   6919     1
   6916   6920     1
   6916   6926     1
   6917   6921     1
   6917   6919     1
   6917   6920     1
   6917   6926     1
   6918   6925     1
   6918   6926     1
   6919   6922     1
   6919   6923     1
   6920   6922     1
   6920   6923     1
   6922   6925     1
   6927   6933     1
   6927   6934     1
   6928   6931     1
   6928   6930     1
   6928   6932     1
   6929   6956     1
   6930   6935     1
   6930   6933     1
   6930   6934     1
   6931   6946     1
   6931   6947     1
   6931   6938     1
   6931   6940     1
   6932   6935     1
   6932   6933     1
   6932   6934     1
   6933   6936     1
   6933   6937     1
   6933   6956     1
   6934   6936     1
   6934   6937     1
   6934   6956     1
   6935   6949     1
   6935   6950     1
   6935   6941     1
   6935   6942     1
   6936   6938     1
   6936   6940     1
   6937   6946     1
   6937   6947     1
   6938   6956     1
   6938   6943     1
   6938   6941     1
   6938   6942     1
   6939   6956     1
   6939   6954     1
   6940   6956     1
   6940   6943     1
   6940   6941     1
   6940   6942     1
   6941   6944     1
   6941   6945     1
   6942   6944     1
   6942   6945     1
   6945   6954     1
   6946   6956     1
   6946   6951     1
   6946   6949     1
   6946   6950     1
   6947   6956     1
   6947   6951     1
   6947   6949     1
   6947   6950     1
   6948   6956     1
   6948   6955     1
   6949   6952     1
   6949   6953     1
   6950   6952     1
   6950   6953     1
   6952   6955     1
   6957   6963     1
   6957   6964     1
   6958   6961     1
   6958   6960     1
   6958   6962     1
   6959   6986     1
   6960   6965     1
   6960   6963     1
   6960   6964     1
   6961   6976     1
   6961   6977     1
   6961   6968     1
   6961   6970     1
   6962   6965     1
   6962   6963     1
   6962   6964     1
   6963   6966     1
   6963   6967     1
   6963   6986     1
   6964   6966     1
   6964   6967     1
   6964   6986     1
   6965   6979     1
   6965   6980     1
   6965   6971     1
   6965   6972     1
   6966   6968     1
   6966   6970     1
   6967   6976     1
   6967   6977     1
   6968   6973     1
   6968   6971     1
   6968   6972     1
   6968   6986     1
   6969   6984     1
   6969   6986     1
   6970   6973     1
   6970   6971     1
   6970   6972     1
   6970   6986     1
   6971   6974     1
   6971   6975     1
   6972   6974     1
   6972   6975     1
   6975   6984     1
   6976   6981     1
   6976   6979     1
   6976   6980     1
   6976   6986     1
   6977   6981     1
   6977   6979     1
   6977   6980     1
   6977   6986     1
   6978   6985     1
   6978   6986     1
   6979   6982     1
   6979   6983     1
   6980   6982     1
   6980   6983     1
   6982   6985     1
   6987   6993     1
   6987   6994     1
   6988   6991     1
   6988   6990     1
   6988   6992     1
   6989   7016     1
   6990   6995     1
   6990   6993     1
   6990   6994     1
   6991   7006     1
   6991   7007     1
   6991   6998     1
   6991   7000     1
   6992   6995     1
   6992   6993     1
   6992   6994     1
   6993   6996     1
   6993   6997     1
   6993   7016     1
   6994   6996     1
   6994   6997     1
   6994   7016     1
   6995   7009     1
   6995   7010     1
   6995   7001     1
   6995   7002     1
   6996   6998     1
   6996   7000     1
   6997   7006     1
   6997   7007     1
   6998   7016     1
   6998   7003     1
   6998   7001     1
   6998   7002     1
   6999   7016     1
   6999   7014     1
   7000   7016     1
   7000   7003     1
   7000   7001     1
   7000   7002     1
   7001   7004     1
   7001   7005     1
   7002   7004     1
   7002   7005     1
   7005   7014     1
   7006   7016     1
   7006   7011     1
   7006   7009     1
   7006   7010     1
   7007   7016     1
   7007   7011     1
   7007   7009     1
   7007   7010     1
   7008   7016     1
   7008   7015     1
   7009   7012     1
   7009   7013     1
   7010   7012     1
   7010   7013     1
   7012   7015     1
   7017   7023     1
   7017   7024     1
   7018   7021     1
   7018   7020     1
   7018   7022     1
   7019   7046     1
   7020   7025     1
   7020   7023     1
   7020   7024     1
   7021   7036     1
   7021   7037     1
   7021   7028     1
   7021   7030     1
   7022   7025     1
   7022   7023     1
   7022   7024     1
   7023   7026     1
   7023   7027     1
   7023   7046     1
   7024   7026     1
   7024   7027     1
   7024   7046     1
   7025   7039     1
   7025   7040     1
   7025   7031     1
   7025   7032     1
   7026   7028     1
   7026   7030     1
   7027   7036     1
   7027   7037     1
   7028   7033     1
   7028   7031     1
   7028   7032     1
   7028   7046     1
   7029   7044     1
   7029   7046     1
   7030   7033     1
   7030   7031     1
   7030   7032     1
   7030   7046     1
   7031   7034     1
   7031   7035     1
   7032   7034     1
   7032   7035     1
   7035   7044     1
   7036   7041     1
   7036   7039     1
   7036   7040     1
   7036   7046     1
   7037   7041     1
   7037   7039     1
   7037   7040     1
   7037   7046     1
   7038   7045     1
   7038   7046     1
   7039   7042     1
   7039   7043     1
   7040   7042     1
   7040   7043     1
   7042   7045     1
   7047   7053     1
   7047   7054     1
   7048   7051     1
   7048   7050     1
   7048   7052     1
   7049   7076     1
   7050   7055     1
   7050   7053     1
   7050   7054     1
   7051   7066     1
   7051   7067     1
   7051   7058     1
   7051   7060     1
   7052   7055     1
   7052   7053     1
   7052   7054     1
   7053   7056     1
   7053   7057     1
   7053   7076     1
   7054   7056     1
   7054   7057     1
   7054   7076     1
   7055   7069     1
   7055   7070     1
   7055   7061     1
   7055   7062     1
   7056   7058     1
   7056   7060     1
   7057   7066     1
   7057   7067     1
   7058   7076     1
   7058   7063     1
   7058   7061     1
   7058   7062     1
   7059   7076     1
   7059   7074     1
   7060   7076     1
   7060   7063     1
   7060   7061     1
   7060   7062     1
   7061   7064     1
   7061   7065     1
   7062   7064     1
   7062   7065     1
   7065   7074     1
   7066   7076     1
   7066   7071     1
   7066   7069     1
   7066   7070     1
   7067   7076     1
   7067   7071     1
   7067   7069     1
   7067   7070     1
   7068   7076     1
   7068   7075     1
   7069   7072     1
   7069   7073     1
   7070   7072     1
   7070   7073     1
   7072   7075     1
   7077   7083     1
   7077   7084     1
   7078   7081     1
   7078   7080     1
   7078   7082     1
   7079   7106     1
   7080   7085     1
   7080   7083     1
   7080   7084     1
   7081   7096     1
   7081   7097     1
   7081   7088     1
   7081   7090     1
   7082   7085     1
   7082   7083     1
   7082   7084     1
   7083   7086     1
   7083   7087     1
   7083   7106     1
   7084   7086     1
   7084   7087     1
   7084   7106     1
   7085   7099     1
   7085   7100     1
   7085   7091     1
   7085   7092     1
   7086   7088     1
   7086   7090     1
   7087   7096     1
   7087   7097     1
   7088   7093     1
   7088   7091     1
   7088   7092     1
   7088   7106     1
   7089   7104     1
   7089   7106     1
   7090   7093     1
   7090   7091     1
   7090   7092     1
   7090   7106     1
   7091   7094     1
   7091   7095     1
   7092   7094     1
   7092   7095     1
   7095   7104     1
   7096   7101     1
   7096   7099     1
   7096   7100     1
   7096   7106     1
   7097   7101     1
   7097   7099     1
   7097   7100     1
   7097   7106     1
   7098   7105     1
   7098   7106     1
   7099   7102     1
   7099   7103     1
   7100   7102     1
   7100   7103     1
   7102   7105     1

[ angles ]
;    ai     aj     ak funct         c0         c1         c2         c3
      1      2      3     1   114.2100488 537.225600
      1      7     13     1   114.2100488 537.225600
      1      8     15     1   114.2100488 537.225600
      2      1      7     1   109.6600471 523.836800
      2      1      8     1   109.6600471 523.836800
      2      3      4     1   114.2100488 537.225600
      3      4      5     1   109.6600471 523.836800
      3      4      6     1   109.6600471 523.836800
      4      5     11     1   114.2100488 537.225600
      4      6      9     1   114.2100488 537.225600
      5      4      6     1   109.6600471 523.836800
      5     11     12     1   111.0400475 529.694400
      6      9     10     1   111.0400475 529.694400
      7      1      8     1   109.6600471 523.836800
      7     13     14     1   111.0400475 529.694400
      8     15     16     1   111.0400475 529.694400
      9     10     18     1   123.2000528 564.003200
      9     10     52     1   115.1800491 558.982400
     10     52     51     1   120.6900519 530.531200
     11     12     17     1   123.2000528 564.003200
     11     12     78     1   115.1800491 558.982400
     12     78     77     1   120.6900519 530.531200
     13     14     20     1   123.2000528 564.003200
     13     14    104     1   115.1800491 558.982400
     14    104    103     1   120.6900519 530.531200
     15     16     19     1   123.2000528 564.003200
     15     16    130     1   115.1800491 558.982400
     16    130    129     1   120.6900519 530.531200
     17     12     78     1   123.0500530 620.905600
     18     10     52     1   123.0500530 620.905600
     19     16    130     1   123.0500530 620.905600
     20     14    104     1   123.0500530 620.905600
     43     44     46     1   114.2100488 537.225600
     43     45     48     1   114.2100488 537.225600
     43     50     51     1   114.2100488 537.225600
     44     43     45     1   109.6600471 523.836800
     44     43     50     1   109.6600471 523.836800
     44     46     47     1   111.0400475 529.694400
     45     43     50     1   109.6600471 523.836800
     45     48     49     1   111.0400475 529.694400
     46     47     53     1   123.2000528 564.003200
     46     47    156     1   115.1800491 558.982400
     47    156    155     1   120.6900519 530.531200
     48     49     54     1   123.2000528 564.003200
     48     49    182     1   115.1800491 558.982400
     49    182    181     1   120.6900519 530.531200
     50     51     52     1   111.6100477 551.451200
     53     47    156     1   123.0500530 620.905600
     54     49    182     1   123.0500530 620.905600
     69     70     72     1   114.2100488 537.225600
     69     71     74     1   114.2100488 537.225600
     69     76     77     1   114.2100488 537.225600
     70     69     71     1   109.6600471 523.836800
     70     69     76     1   109.6600471 523.836800
     70     72     73     1   111.0400475 529.694400
     71     69     76     1   109.6600471 523.836800
     71     74     75     1   111.0400475 529.694400
     72     73     79     1   123.2000528 564.003200
     72     73    208     1   115.1800491 558.982400
     73    208    207     1   120.6900519 530.531200
     74     75     80     1   123.2000528 564.003200
     74     75    234     1   115.1800491 558.982400
     75    234    233     1   120.6900519 530.531200
     76     77     78     1   111.6100477 551.451200
     79     73    208     1   123.0500530 620.905600
     80     75    234     1   123.0500530 620.905600
     95     96     98     1   114.2100488 537.225600
     95     97    100     1   114.2100488 537.225600
     95    102    103     1   114.2100488 537.225600
     96     95     97     1   109.6600471 523.836800
     96     95    102     1   109.6600471 523.836800
     96     98     99     1   111.0400475 529.694400
     97     95    102     1   109.6600471 523.836800
     97    100    101     1   111.0400475 529.694400
     98     99    105     1   123.2000528 564.003200
     98     99    260     1   115.1800491 558.982400
     99    260    259     1   120.6900519 530.531200
    100    101    106     1   123.2000528 564.003200
    100    101    286     1   115.1800491 558.982400
    101    286    285     1   120.6900519 530.531200
    102    103    104     1   111.6100477 551.451200
    105     99    260     1   123.0500530 620.905600
    106    101    286     1   123.0500530 620.905600
    121    122    124     1   114.2100488 537.225600
    121    123    126     1   114.2100488 537.225600
    121    128    129     1   114.2100488 537.225600
    122    121    123     1   109.6600471 523.836800
    122    121    128     1   109.6600471 523.836800
    122    124    125     1   111.0400475 529.694400
    123    121    128     1   109.6600471 523.836800
    123    126    127     1   111.0400475 529.694400
    124    125    131     1   123.2000528 564.003200
    124    125    312     1   115.1800491 558.982400
    125    312    311     1   120.6900519 530.531200
    126    127    132     1   123.2000528 564.003200
    126    127    338     1   115.1800491 558.982400
    127    338    337     1   120.6900519 530.531200
    128    129    130     1   111.6100477 551.451200
    131    125    312     1   123.0500530 620.905600
    132    127    338     1   123.0500530 620.905600
    147    148    150     1   114.2100488 537.225600
    147    149    152     1   114.2100488 537.225600
    147    154    155     1   114.2100488 537.225600
    148    147    149     1   109.6600471 523.836800
    148    147    154     1   109.6600471 523.836800
    148    150    151     1   111.0400475 529.694400
    149    147    154     1   109.6600471 523.836800
    149    152    153     1   111.0400475 529.694400
    150    151    157     1   123.2000528 564.003200
    150    151    364     1   115.1800491 558.982400
    151    364    363     1   120.6900519 530.531200
    152    153    158     1   123.2000528 564.003200
    152    153    390     1   115.1800491 558.982400
    153    390    389     1   120.6900519 530.531200
    154    155    156     1   111.6100477 551.451200
    157    151    364     1   123.0500530 620.905600
    158    153    390     1   123.0500530 620.905600
    173    174    176     1   114.2100488 537.225600
    173    175    178     1   114.2100488 537.225600
    173    180    181     1   114.2100488 537.225600
    174    173    175     1   109.6600471 523.836800
    174    173    180     1   109.6600471 523.836800
    174    176    177     1   111.0400475 529.694400
    175    173    180     1   109.6600471 523.836800
    175    178    179     1   111.0400475 529.694400
    176    177    183     1   123.2000528 564.003200
    176    177    416     1   115.1800491 558.982400
    177    416    415     1   120.6900519 530.531200
    178    179    184     1   123.2000528 564.003200
    178    179    442     1   115.1800491 558.982400
    179    442    441     1   120.6900519 530.531200
    180    181    182     1   111.6100477 551.451200
    183    177    416     1   123.0500530 620.905600
    184    179    442     1   123.0500530 620.905600
    199    200    202     1   114.2100488 537.225600
    199    201    204     1   114.2100488 537.225600
    199    206    207     1   114.2100488 537.225600
    200    199    201     1   109.6600471 523.836800
    200    199    206     1   109.6600471 523.836800
    200    202    203     1   111.0400475 529.694400
    201    199    206     1   109.6600471 523.836800
    201    204    205     1   111.0400475 529.694400
    202    203    209     1   123.2000528 564.003200
    202    203    468     1   115.1800491 558.982400
    203    468    467     1   120.6900519 530.531200
    204    205    210     1   123.2000528 564.003200
    204    205    494     1   115.1800491 558.982400
    205    494    493     1   120.6900519 530.531200
    206    207    208     1   111.6100477 551.451200
    209    203    468     1   123.0500530 620.905600
    210    205    494     1   123.0500530 620.905600
    225    226    228     1   114.2100488 537.225600
    225    227    230     1   114.2100488 537.225600
    225    232    233     1   114.2100488 537.225600
    226    225    227     1   109.6600471 523.836800
    226    225    232     1   109.6600471 523.836800
    226    228    229     1   111.0400475 529.694400
    227    225    232     1   109.6600471 523.836800
    227    230    231     1   111.0400475 529.694400
    228    229    235     1   123.2000528 564.003200
    228    229    520     1   115.1800491 558.982400
    229    520    519     1   120.6900519 530.531200
    230    231    236     1   123.2000528 564.003200
    230    231    546     1   115.1800491 558.982400
    231    546    545     1   120.6900519 530.531200
    232    233    234     1   111.6100477 551.451200
    235    229    520     1   123.0500530 620.905600
    236    231    546     1   123.0500530 620.905600
    251    252    254     1   114.2100488 537.225600
    251    253    256     1   114.2100488 537.225600
    251    258    259     1   114.2100488 537.225600
    252    251    253     1   109.6600471 523.836800
    252    251    258     1   109.6600471 523.836800
    252    254    255     1   111.0400475 529.694400
    253    251    258     1   109.6600471 523.836800
    253    256    257     1   111.0400475 529.694400
    254    255    261     1   123.2000528 564.003200
    254    255    572     1   115.1800491 558.982400
    255    572    571     1   120.6900519 530.531200
    256    257    262     1   123.2000528 564.003200
    256    257    598     1   115.1800491 558.982400
    257    598    597     1   120.6900519 530.531200
    258    259    260     1   111.6100477 551.451200
    261    255    572     1   123.0500530 620.905600
    262    257    598     1   123.0500530 620.905600
    277    278    280     1   114.2100488 537.225600
    277    279    282     1   114.2100488 537.225600
    277    284    285     1   114.2100488 537.225600
    278    277    279     1   109.6600471 523.836800
    278    277    284     1   109.6600471 523.836800
    278    280    281     1   111.0400475 529.694400
    279    277    284     1   109.6600471 523.836800
    279    282    283     1   111.0400475 529.694400
    280    281    287     1   123.2000528 564.003200
    280    281    624     1   115.1800491 558.982400
    281    624    623     1   120.6900519 530.531200
    282    283    288     1   123.2000528 564.003200
    282    283    650     1   115.1800491 558.982400
    283    650    649     1   120.6900519 530.531200
    284    285    286     1   111.6100477 551.451200
    287    281    624     1   123.0500530 620.905600
    288    283    650     1   123.0500530 620.905600
    303    304    306     1   114.2100488 537.225600
    303    305    308     1   114.2100488 537.225600
    303    310    311     1   114.2100488 537.225600
    304    303    305     1   109.6600471 523.836800
    304    303    310     1   109.6600471 523.836800
    304    306    307     1   111.0400475 529.694400
    305    303    310     1   109.6600471 523.836800
    305    308    309     1   111.0400475 529.694400
    306    307    313     1   123.2000528 564.003200
    306    307    676     1   115.1800491 558.982400
    307    676    675     1   120.6900519 530.531200
    308    309    314     1   123.2000528 564.003200
    308    309    702     1   115.1800491 558.982400
    309    702    701     1   120.6900519 530.531200
    310    311    312     1   111.6100477 551.451200
    313    307    676     1   123.0500530 620.905600
    314    309    702     1   123.0500530 620.905600
    329    330    332     1   114.2100488 537.225600
    329    331    334     1   114.2100488 537.225600
    329    336    337     1   114.2100488 537.225600
    330    329    331     1   109.6600471 523.836800
    330    329    336     1   109.6600471 523.836800
    330    332    333     1   111.0400475 529.694400
    331    329    336     1   109.6600471 523.836800
    331    334    335     1   111.0400475 529.694400
    332    333    339     1   123.2000528 564.003200
    332    333    728     1   115.1800491 558.982400
    333    728    727     1   120.6900519 530.531200
    334    335    340     1   123.2000528 564.003200
    334    335    754     1   115.1800491 558.982400
    335    754    753     1   120.6900519 530.531200
    336    337    338     1   111.6100477 551.451200
    339    333    728     1   123.0500530 620.905600
    340    335    754     1   123.0500530 620.905600
    355    356    358     1   114.2100488 537.225600
    355    357    360     1   114.2100488 537.225600
    355    362    363     1   114.2100488 537.225600
    356    355    357     1   109.6600471 523.836800
    356    355    362     1   109.6600471 523.836800
    356    358    359     1   111.0400475 529.694400
    357    355    362     1   109.6600471 523.836800
    357    360    361     1   111.0400475 529.694400
    358    359    365     1   123.2000528 564.003200
    358    359    780     1   115.1800491 558.982400
    359    780    779     1   120.6900519 530.531200
    360    361    366     1   123.2000528 564.003200
    360    361    806     1   115.1800491 558.982400
    361    806    805     1   120.6900519 530.531200
    362    363    364     1   111.6100477 551.451200
    365    359    780     1   123.0500530 620.905600
    366    361    806     1   123.0500530 620.905600
    381    382    384     1   114.2100488 537.225600
    381    383    386     1   114.2100488 537.225600
    381    388    389     1   114.2100488 537.225600
    382    381    383     1   109.6600471 523.836800
    382    381    388     1   109.6600471 523.836800
    382    384    385     1   111.0400475 529.694400
    383    381    388     1   109.6600471 523.836800
    383    386    387     1   111.0400475 529.694400
    384    385    391     1   123.2000528 564.003200
    384    385    832     1   115.1800491 558.982400
    385    832    831     1   120.6900519 530.531200
    386    387    392     1   123.2000528 564.003200
    386    387    858     1   115.1800491 558.982400
    387    858    857     1   120.6900519 530.531200
    388    389    390     1   111.6100477 551.451200
    391    385    832     1   123.0500530 620.905600
    392    387    858     1   123.0500530 620.905600
    407    408    410     1   114.2100488 537.225600
    407    409    412     1   114.2100488 537.225600
    407    414    415     1   114.2100488 537.225600
    408    407    409     1   109.6600471 523.836800
    408    407    414     1   109.6600471 523.836800
    408    410    411     1   111.0400475 529.694400
    409    407    414     1   109.6600471 523.836800
    409    412    413     1   111.0400475 529.694400
    410    411    417     1   123.2000528 564.003200
    410    411    884     1   115.1800491 558.982400
    411    884    883     1   120.6900519 530.531200
    412    413    418     1   123.2000528 564.003200
    412    413    910     1   115.1800491 558.982400
    413    910    909     1   120.6900519 530.531200
    414    415    416     1   111.6100477 551.451200
    417    411    884     1   123.0500530 620.905600
    418    413    910     1   123.0500530 620.905600
    433    434    436     1   114.2100488 537.225600
    433    435    438     1   114.2100488 537.225600
    433    440    441     1   114.2100488 537.225600
    434    433    435     1   109.6600471 523.836800
    434    433    440     1   109.6600471 523.836800
    434    436    437     1   111.0400475 529.694400
    435    433    440     1   109.6600471 523.836800
    435    438    439     1   111.0400475 529.694400
    436    437    443     1   123.2000528 564.003200
    436    437    936     1   115.1800491 558.982400
    437    936    935     1   120.6900519 530.531200
    438    439    444     1   123.2000528 564.003200
    438    439    962     1   115.1800491 558.982400
    439    962    961     1   120.6900519 530.531200
    440    441    442     1   111.6100477 551.451200
    443    437    936     1   123.0500530 620.905600
    444    439    962     1   123.0500530 620.905600
    459    460    462     1   114.2100488 537.225600
    459    461    464     1   114.2100488 537.225600
    459    466    467     1   114.2100488 537.225600
    460    459    461     1   109.6600471 523.836800
    460    459    466     1   109.6600471 523.836800
    460    462    463     1   111.0400475 529.694400
    461    459    466     1   109.6600471 523.836800
    461    464    465     1   111.0400475 529.694400
    462    463    469     1   123.2000528 564.003200
    462    463    988     1   115.1800491 558.982400
    463    988    987     1   120.6900519 530.531200
    464    465    470     1   123.2000528 564.003200
    464    465   1014     1   115.1800491 558.982400
    465   1014   1013     1   120.6900519 530.531200
    466    467    468     1   111.6100477 551.451200
    469    463    988     1   123.0500530 620.905600
    470    465   1014     1   123.0500530 620.905600
    485    486    488     1   114.2100488 537.225600
    485    487    490     1   114.2100488 537.225600
    485    492    493     1   114.2100488 537.225600
    486    485    487     1   109.6600471 523.836800
    486    485    492     1   109.6600471 523.836800
    486    488    489     1   111.0400475 529.694400
    487    485    492     1   109.6600471 523.836800
    487    490    491     1   111.0400475 529.694400
    488    489    495     1   123.2000528 564.003200
    488    489   1040     1   115.1800491 558.982400
    489   1040   1039     1   120.6900519 530.531200
    490    491    496     1   123.2000528 564.003200
    490    491   1066     1   115.1800491 558.982400
    491   1066   1065     1   120.6900519 530.531200
    492    493    494     1   111.6100477 551.451200
    495    489   1040     1   123.0500530 620.905600
    496    491   1066     1   123.0500530 620.905600
    511    512    514     1   114.2100488 537.225600
    511    513    516     1   114.2100488 537.225600
    511    518    519     1   114.2100488 537.225600
    512    511    513     1   109.6600471 523.836800
    512    511    518     1   109.6600471 523.836800
    512    514    515     1   111.0400475 529.694400
    513    511    518     1   109.6600471 523.836800
    513    516    517     1   111.0400475 529.694400
    514    515    521     1   123.2000528 564.003200
    514    515   1092     1   115.1800491 558.982400
    515   1092   1091     1   120.6900519 530.531200
    516    517    522     1   123.2000528 564.003200
    516    517   1118     1   115.1800491 558.982400
    517   1118   1117     1   120.6900519 530.531200
    518    519    520     1   111.6100477 551.451200
    521    515   1092     1   123.0500530 620.905600
    522    517   1118     1   123.0500530 620.905600
    537    538    540     1   114.2100488 537.225600
    537    539    542     1   114.2100488 537.225600
    537    544    545     1   114.2100488 537.225600
    538    537    539     1   109.6600471 523.836800
    538    537    544     1   109.6600471 523.836800
    538    540    541     1   111.0400475 529.694400
    539    537    544     1   109.6600471 523.836800
    539    542    543     1   111.0400475 529.694400
    540    541    547     1   123.2000528 564.003200
    540    541   1144     1   115.1800491 558.982400
    541   1144   1143     1   120.6900519 530.531200
    542    543    548     1   123.2000528 564.003200
    542    543   1170     1   115.1800491 558.982400
    543   1170   1169     1   120.6900519 530.531200
    544    545    546     1   111.6100477 551.451200
    547    541   1144     1   123.0500530 620.905600
    548    543   1170     1   123.0500530 620.905600
    563    564    566     1   114.2100488 537.225600
    563    565    568     1   114.2100488 537.225600
    563    570    571     1   114.2100488 537.225600
    564    563    565     1   109.6600471 523.836800
    564    563    570     1   109.6600471 523.836800
    564    566    567     1   111.0400475 529.694400
    565    563    570     1   109.6600471 523.836800
    565    568    569     1   111.0400475 529.694400
    566    567    573     1   123.2000528 564.003200
    566    567   1196     1   115.1800491 558.982400
    567   1196   1195     1   120.6900519 530.531200
    568    569    574     1   123.2000528 564.003200
    568    569   1222     1   115.1800491 558.982400
    569   1222   1221     1   120.6900519 530.531200
    570    571    572     1   111.6100477 551.451200
    573    567   1196     1   123.0500530 620.905600
    574    569   1222     1   123.0500530 620.905600
    589    590    592     1   114.2100488 537.225600
    589    591    594     1   114.2100488 537.225600
    589    596    597     1   114.2100488 537.225600
    590    589    591     1   109.6600471 523.836800
    590    589    596     1   109.6600471 523.836800
    590    592    593     1   111.0400475 529.694400
    591    589    596     1   109.6600471 523.836800
    591    594    595     1   111.0400475 529.694400
    592    593    599     1   123.2000528 564.003200
    592    593   1248     1   115.1800491 558.982400
    593   1248   1247     1   120.6900519 530.531200
    594    595    600     1   123.2000528 564.003200
    594    595   1274     1   115.1800491 558.982400
    595   1274   1273     1   120.6900519 530.531200
    596    597    598     1   111.6100477 551.451200
    599    593   1248     1   123.0500530 620.905600
    600    595   1274     1   123.0500530 620.905600
    615    616    618     1   114.2100488 537.225600
    615    617    620     1   114.2100488 537.225600
    615    622    623     1   114.2100488 537.225600
    616    615    617     1   109.6600471 523.836800
    616    615    622     1   109.6600471 523.836800
    616    618    619     1   111.0400475 529.694400
    617    615    622     1   109.6600471 523.836800
    617    620    621     1   111.0400475 529.694400
    618    619    625     1   123.2000528 564.003200
    618    619   1300     1   115.1800491 558.982400
    619   1300   1299     1   120.6900519 530.531200
    620    621    626     1   123.2000528 564.003200
    620    621   1326     1   115.1800491 558.982400
    621   1326   1325     1   120.6900519 530.531200
    622    623    624     1   111.6100477 551.451200
    625    619   1300     1   123.0500530 620.905600
    626    621   1326     1   123.0500530 620.905600
    641    642    644     1   114.2100488 537.225600
    641    643    646     1   114.2100488 537.225600
    641    648    649     1   114.2100488 537.225600
    642    641    643     1   109.6600471 523.836800
    642    641    648     1   109.6600471 523.836800
    642    644    645     1   111.0400475 529.694400
    643    641    648     1   109.6600471 523.836800
    643    646    647     1   111.0400475 529.694400
    644    645    651     1   123.2000528 564.003200
    644    645   1352     1   115.1800491 558.982400
    645   1352   1351     1   120.6900519 530.531200
    646    647    652     1   123.2000528 564.003200
    646    647   1378     1   115.1800491 558.982400
    647   1378   1377     1   120.6900519 530.531200
    648    649    650     1   111.6100477 551.451200
    651    645   1352     1   123.0500530 620.905600
    652    647   1378     1   123.0500530 620.905600
    667    668    670     1   114.2100488 537.225600
    667    669    672     1   114.2100488 537.225600
    667    674    675     1   114.2100488 537.225600
    668    667    669     1   109.6600471 523.836800
    668    667    674     1   109.6600471 523.836800
    668    670    671     1   111.0400475 529.694400
    669    667    674     1   109.6600471 523.836800
    669    672    673     1   111.0400475 529.694400
    670    671    677     1   123.2000528 564.003200
    670    671   1404     1   115.1800491 558.982400
    671   1404   1403     1   120.6900519 530.531200
    672    673    678     1   123.2000528 564.003200
    672    673   1430     1   115.1800491 558.982400
    673   1430   1429     1   120.6900519 530.531200
    674    675    676     1   111.6100477 551.451200
    677    671   1404     1   123.0500530 620.905600
    678    673   1430     1   123.0500530 620.905600
    693    694    696     1   114.2100488 537.225600
    693    695    698     1   114.2100488 537.225600
    693    700    701     1   114.2100488 537.225600
    694    693    695     1   109.6600471 523.836800
    694    693    700     1   109.6600471 523.836800
    694    696    697     1   111.0400475 529.694400
    695    693    700     1   109.6600471 523.836800
    695    698    699     1   111.0400475 529.694400
    696    697    703     1   123.2000528 564.003200
    696    697   1456     1   115.1800491 558.982400
    697   1456   1455     1   120.6900519 530.531200
    698    699    704     1   123.2000528 564.003200
    698    699   1482     1   115.1800491 558.982400
    699   1482   1481     1   120.6900519 530.531200
    700    701    702     1   111.6100477 551.451200
    703    697   1456     1   123.0500530 620.905600
    704    699   1482     1   123.0500530 620.905600
    719    720    722     1   114.2100488 537.225600
    719    721    724     1   114.2100488 537.225600
    719    726    727     1   114.2100488 537.225600
    720    719    721     1   109.6600471 523.836800
    720    719    726     1   109.6600471 523.836800
    720    722    723     1   111.0400475 529.694400
    721    719    726     1   109.6600471 523.836800
    721    724    725     1   111.0400475 529.694400
    722    723    729     1   123.2000528 564.003200
    722    723   1508     1   115.1800491 558.982400
    723   1508   1507     1   120.6900519 530.531200
    724    725    730     1   123.2000528 564.003200
    724    725   1534     1   115.1800491 558.982400
    725   1534   1533     1   120.6900519 530.531200
    726    727    728     1   111.6100477 551.451200
    729    723   1508     1   123.0500530 620.905600
    730    725   1534     1   123.0500530 620.905600
    745    746    748     1   114.2100488 537.225600
    745    747    750     1   114.2100488 537.225600
    745    752    753     1   114.2100488 537.225600
    746    745    747     1   109.6600471 523.836800
    746    745    752     1   109.6600471 523.836800
    746    748    749     1   111.0400475 529.694400
    747    745    752     1   109.6600471 523.836800
    747    750    751     1   111.0400475 529.694400
    748    749    755     1   123.2000528 564.003200
    748    749   1560     1   115.1800491 558.982400
    749   1560   1559     1   120.6900519 530.531200
    750    751    756     1   123.2000528 564.003200
    750    751   1586     1   115.1800491 558.982400
    751   1586   1585     1   120.6900519 530.531200
    752    753    754     1   111.6100477 551.451200
    755    749   1560     1   123.0500530 620.905600
    756    751   1586     1   123.0500530 620.905600
    771    772    774     1   114.2100488 537.225600
    771    773    776     1   114.2100488 537.225600
    771    778    779     1   114.2100488 537.225600
    772    771    773     1   109.6600471 523.836800
    772    771    778     1   109.6600471 523.836800
    772    774    775     1   111.0400475 529.694400
    773    771    778     1   109.6600471 523.836800
    773    776    777     1   111.0400475 529.694400
    774    775    781     1   123.2000528 564.003200
    774    775   1612     1   115.1800491 558.982400
    775   1612   1611     1   120.6900519 530.531200
    776    777    782     1   123.2000528 564.003200
    776    777   1638     1   115.1800491 558.982400
    777   1638   1637     1   120.6900519 530.531200
    778    779    780     1   111.6100477 551.451200
    781    775   1612     1   123.0500530 620.905600
    782    777   1638     1   123.0500530 620.905600
    797    798    800     1   114.2100488 537.225600
    797    799    802     1   114.2100488 537.225600
    797    804    805     1   114.2100488 537.225600
    798    797    799     1   109.6600471 523.836800
    798    797    804     1   109.6600471 523.836800
    798    800    801     1   111.0400475 529.694400
    799    797    804     1   109.6600471 523.836800
    799    802    803     1   111.0400475 529.694400
    800    801    807     1   123.2000528 564.003200
    800    801   1664     1   115.1800491 558.982400
    801   1664   1663     1   120.6900519 530.531200
    802    803    808     1   123.2000528 564.003200
    802    803   1690     1   115.1800491 558.982400
    803   1690   1689     1   120.6900519 530.531200
    804    805    806     1   111.6100477 551.451200
    807    801   1664     1   123.0500530 620.905600
    808    803   1690     1   123.0500530 620.905600
    823    824    826     1   114.2100488 537.225600
    823    825    828     1   114.2100488 537.225600
    823    830    831     1   114.2100488 537.225600
    824    823    825     1   109.6600471 523.836800
    824    823    830     1   109.6600471 523.836800
    824    826    827     1   111.0400475 529.694400
    825    823    830     1   109.6600471 523.836800
    825    828    829     1   111.0400475 529.694400
    826    827    833     1   123.2000528 564.003200
    826    827   1716     1   115.1800491 558.982400
    827   1716   1715     1   120.6900519 530.531200
    828    829    834     1   123.2000528 564.003200
    828    829   1742     1   115.1800491 558.982400
    829   1742   1741     1   120.6900519 530.531200
    830    831    832     1   111.6100477 551.451200
    833    827   1716     1   123.0500530 620.905600
    834    829   1742     1   123.0500530 620.905600
    849    850    852     1   114.2100488 537.225600
    849    851    854     1   114.2100488 537.225600
    849    856    857     1   114.2100488 537.225600
    850    849    851     1   109.6600471 523.836800
    850    849    856     1   109.6600471 523.836800
    850    852    853     1   111.0400475 529.694400
    851    849    856     1   109.6600471 523.836800
    851    854    855     1   111.0400475 529.694400
    852    853    859     1   123.2000528 564.003200
    852    853   1768     1   115.1800491 558.982400
    853   1768   1767     1   120.6900519 530.531200
    854    855    860     1   123.2000528 564.003200
    854    855   1794     1   115.1800491 558.982400
    855   1794   1793     1   120.6900519 530.531200
    856    857    858     1   111.6100477 551.451200
    859    853   1768     1   123.0500530 620.905600
    860    855   1794     1   123.0500530 620.905600
    875    876    878     1   114.2100488 537.225600
    875    877    880     1   114.2100488 537.225600
    875    882    883     1   114.2100488 537.225600
    876    875    877     1   109.6600471 523.836800
    876    875    882     1   109.6600471 523.836800
    876    878    879     1   111.0400475 529.694400
    877    875    882     1   109.6600471 523.836800
    877    880    881     1   111.0400475 529.694400
    878    879    885     1   123.2000528 564.003200
    878    879   1820     1   115.1800491 558.982400
    879   1820   1819     1   120.6900519 530.531200
    880    881    886     1   123.2000528 564.003200
    880    881   1846     1   115.1800491 558.982400
    881   1846   1845     1   120.6900519 530.531200
    882    883    884     1   111.6100477 551.451200
    885    879   1820     1   123.0500530 620.905600
    886    881   1846     1   123.0500530 620.905600
    901    902    904     1   114.2100488 537.225600
    901    903    906     1   114.2100488 537.225600
    901    908    909     1   114.2100488 537.225600
    902    901    903     1   109.6600471 523.836800
    902    901    908     1   109.6600471 523.836800
    902    904    905     1   111.0400475 529.694400
    903    901    908     1   109.6600471 523.836800
    903    906    907     1   111.0400475 529.694400
    904    905    911     1   123.2000528 564.003200
    904    905   1872     1   115.1800491 558.982400
    905   1872   1871     1   120.6900519 530.531200
    906    907    912     1   123.2000528 564.003200
    906    907   1898     1   115.1800491 558.982400
    907   1898   1897     1   120.6900519 530.531200
    908    909    910     1   111.6100477 551.451200
    911    905   1872     1   123.0500530 620.905600
    912    907   1898     1   123.0500530 620.905600
    927    928    930     1   114.2100488 537.225600
    927    929    932     1   114.2100488 537.225600
    927    934    935     1   114.2100488 537.225600
    928    927    929     1   109.6600471 523.836800
    928    927    934     1   109.6600471 523.836800
    928    930    931     1   111.0400475 529.694400
    929    927    934     1   109.6600471 523.836800
    929    932    933     1   111.0400475 529.694400
    930    931    937     1   123.2000528 564.003200
    930    931   1924     1   115.1800491 558.982400
    931   1924   1923     1   120.6900519 530.531200
    932    933    938     1   123.2000528 564.003200
    932    933   1950     1   115.1800491 558.982400
    933   1950   1949     1   120.6900519 530.531200
    934    935    936     1   111.6100477 551.451200
    937    931   1924     1   123.0500530 620.905600
    938    933   1950     1   123.0500530 620.905600
    953    954    956     1   114.2100488 537.225600
    953    955    958     1   114.2100488 537.225600
    953    960    961     1   114.2100488 537.225600
    954    953    955     1   109.6600471 523.836800
    954    953    960     1   109.6600471 523.836800
    954    956    957     1   111.0400475 529.694400
    955    953    960     1   109.6600471 523.836800
    955    958    959     1   111.0400475 529.694400
    956    957    963     1   123.2000528 564.003200
    956    957   1976     1   115.1800491 558.982400
    957   1976   1975     1   120.6900519 530.531200
    958    959    964     1   123.2000528 564.003200
    958    959   2002     1   115.1800491 558.982400
    959   2002   2001     1   120.6900519 530.531200
    960    961    962     1   111.6100477 551.451200
    963    957   1976     1   123.0500530 620.905600
    964    959   2002     1   123.0500530 620.905600
    979    980    982     1   114.2100488 537.225600
    979    981    984     1   114.2100488 537.225600
    979    986    987     1   114.2100488 537.225600
    980    979    981     1   109.6600471 523.836800
    980    979    986     1   109.6600471 523.836800
    980    982    983     1   111.0400475 529.694400
    981    979    986     1   109.6600471 523.836800
    981    984    985     1   111.0400475 529.694400
    982    983    989     1   123.2000528 564.003200
    982    983   2028     1   115.1800491 558.982400
    983   2028   2027     1   120.6900519 530.531200
    984    985    990     1   123.2000528 564.003200
    984    985   2054     1   115.1800491 558.982400
    985   2054   2053     1   120.6900519 530.531200
    986    987    988     1   111.6100477 551.451200
    989    983   2028     1   123.0500530 620.905600
    990    985   2054     1   123.0500530 620.905600
   1005   1006   1008     1   114.2100488 537.225600
   1005   1007   1010     1   114.2100488 537.225600
   1005   1012   1013     1   114.2100488 537.225600
   1006   1005   1007     1   109.6600471 523.836800
   1006   1005   1012     1   109.6600471 523.836800
   1006   1008   1009     1   111.0400475 529.694400
   1007   1005   1012     1   109.6600471 523.836800
   1007   1010   1011     1   111.0400475 529.694400
   1008   1009   1015     1   123.2000528 564.003200
   1008   1009   2080     1   115.1800491 558.982400
   1009   2080   2079     1   120.6900519 530.531200
   1010   1011   1016     1   123.2000528 564.003200
   1010   1011   2106     1   115.1800491 558.982400
   1011   2106   2105     1   120.6900519 530.531200
   1012   1013   1014     1   111.6100477 551.451200
   1015   1009   2080     1   123.0500530 620.905600
   1016   1011   2106     1   123.0500530 620.905600
   1031   1032   1034     1   114.2100488 537.225600
   1031   1033   1036     1   114.2100488 537.225600
   1031   1038   1039     1   114.2100488 537.225600
   1032   1031   1033     1   109.6600471 523.836800
   1032   1031   1038     1   109.6600471 523.836800
   1032   1034   1035     1   111.0400475 529.694400
   1033   1031   1038     1   109.6600471 523.836800
   1033   1036   1037     1   111.0400475 529.694400
   1034   1035   1041     1   123.2000528 564.003200
   1034   1035   2132     1   115.1800491 558.982400
   1035   2132   2131     1   120.6900519 530.531200
   1036   1037   1042     1   123.2000528 564.003200
   1036   1037   2158     1   115.1800491 558.982400
   1037   2158   2157     1   120.6900519 530.531200
   1038   1039   1040     1   111.6100477 551.451200
   1041   1035   2132     1   123.0500530 620.905600
   1042   1037   2158     1   123.0500530 620.905600
   1057   1058   1060     1   114.2100488 537.225600
   1057   1059   1062     1   114.2100488 537.225600
   1057   1064   1065     1   114.2100488 537.225600
   1058   1057   1059     1   109.6600471 523.836800
   1058   1057   1064     1   109.6600471 523.836800
   1058   1060   1061     1   111.0400475 529.694400
   1059   1057   1064     1   109.6600471 523.836800
   1059   1062   1063     1   111.0400475 529.694400
   1060   1061   1067     1   123.2000528 564.003200
   1060   1061   2184     1   115.1800491 558.982400
   1061   2184   2183     1   120.6900519 530.531200
   1062   1063   1068     1   123.2000528 564.003200
   1062   1063   2210     1   115.1800491 558.982400
   1063   2210   2209     1   120.6900519 530.531200
   1064   1065   1066     1   111.6100477 551.451200
   1067   1061   2184     1   123.0500530 620.905600
   1068   1063   2210     1   123.0500530 620.905600
   1083   1084   1086     1   114.2100488 537.225600
   1083   1085   1088     1   114.2100488 537.225600
   1083   1090   1091     1   114.2100488 537.225600
   1084   1083   1085     1   109.6600471 523.836800
   1084   1083   1090     1   109.6600471 523.836800
   1084   1086   1087     1   111.0400475 529.694400
   1085   1083   1090     1   109.6600471 523.836800
   1085   1088   1089     1   111.0400475 529.694400
   1086   1087   1093     1   123.2000528 564.003200
   1086   1087   2236     1   115.1800491 558.982400
   1087   2236   2235     1   120.6900519 530.531200
   1088   1089   1094     1   123.2000528 564.003200
   1088   1089   2262     1   115.1800491 558.982400
   1089   2262   2261     1   120.6900519 530.531200
   1090   1091   1092     1   111.6100477 551.451200
   1093   1087   2236     1   123.0500530 620.905600
   1094   1089   2262     1   123.0500530 620.905600
   1109   1110   1112     1   114.2100488 537.225600
   1109   1111   1114     1   114.2100488 537.225600
   1109   1116   1117     1   114.2100488 537.225600
   1110   1109   1111     1   109.6600471 523.836800
   1110   1109   1116     1   109.6600471 523.836800
   1110   1112   1113     1   111.0400475 529.694400
   1111   1109   1116     1   109.6600471 523.836800
   1111   1114   1115     1   111.0400475 529.694400
   1112   1113   1119     1   123.2000528 564.003200
   1112   1113   2288     1   115.1800491 558.982400
   1113   2288   2287     1   120.6900519 530.531200
   1114   1115   1120     1   123.2000528 564.003200
   1114   1115   2314     1   115.1800491 558.982400
   1115   2314   2313     1   120.6900519 530.531200
   1116   1117   1118     1   111.6100477 551.451200
   1119   1113   2288     1   123.0500530 620.905600
   1120   1115   2314     1   123.0500530 620.905600
   1135   1136   1138     1   114.2100488 537.225600
   1135   1137   1140     1   114.2100488 537.225600
   1135   1142   1143     1   114.2100488 537.225600
   1136   1135   1137     1   109.6600471 523.836800
   1136   1135   1142     1   109.6600471 523.836800
   1136   1138   1139     1   111.0400475 529.694400
   1137   1135   1142     1   109.6600471 523.836800
   1137   1140   1141     1   111.0400475 529.694400
   1138   1139   1145     1   123.2000528 564.003200
   1138   1139   2340     1   115.1800491 558.982400
   1139   2340   2339     1   120.6900519 530.531200
   1140   1141   1146     1   123.2000528 564.003200
   1140   1141   2366     1   115.1800491 558.982400
   1141   2366   2365     1   120.6900519 530.531200
   1142   1143   1144     1   111.6100477 551.451200
   1145   1139   2340     1   123.0500530 620.905600
   1146   1141   2366     1   123.0500530 620.905600
   1161   1162   1164     1   114.2100488 537.225600
   1161   1163   1166     1   114.2100488 537.225600
   1161   1168   1169     1   114.2100488 537.225600
   1162   1161   1163     1   109.6600471 523.836800
   1162   1161   1168     1   109.6600471 523.836800
   1162   1164   1165     1   111.0400475 529.694400
   1163   1161   1168     1   109.6600471 523.836800
   1163   1166   1167     1   111.0400475 529.694400
   1164   1165   1171     1   123.2000528 564.003200
   1164   1165   2392     1   115.1800491 558.982400
   1165   2392   2391     1   120.6900519 530.531200
   1166   1167   1172     1   123.2000528 564.003200
   1166   1167   2418     1   115.1800491 558.982400
   1167   2418   2417     1   120.6900519 530.531200
   1168   1169   1170     1   111.6100477 551.451200
   1171   1165   2392     1   123.0500530 620.905600
   1172   1167   2418     1   123.0500530 620.905600
   1187   1188   1190     1   114.2100488 537.225600
   1187   1189   1192     1   114.2100488 537.225600
   1187   1194   1195     1   114.2100488 537.225600
   1188   1187   1189     1   109.6600471 523.836800
   1188   1187   1194     1   109.6600471 523.836800
   1188   1190   1191     1   111.0400475 529.694400
   1189   1187   1194     1   109.6600471 523.836800
   1189   1192   1193     1   111.0400475 529.694400
   1190   1191   1197     1   123.2000528 564.003200
   1190   1191   2444     1   115.1800491 558.982400
   1191   2444   2443     1   120.6900519 530.531200
   1192   1193   1198     1   123.2000528 564.003200
   1192   1193   2470     1   115.1800491 558.982400
   1193   2470   2469     1   120.6900519 530.531200
   1194   1195   1196     1   111.6100477 551.451200
   1197   1191   2444     1   123.0500530 620.905600
   1198   1193   2470     1   123.0500530 620.905600
   1213   1214   1216     1   114.2100488 537.225600
   1213   1215   1218     1   114.2100488 537.225600
   1213   1220   1221     1   114.2100488 537.225600
   1214   1213   1215     1   109.6600471 523.836800
   1214   1213   1220     1   109.6600471 523.836800
   1214   1216   1217     1   111.0400475 529.694400
   1215   1213   1220     1   109.6600471 523.836800
   1215   1218   1219     1   111.0400475 529.694400
   1216   1217   1223     1   123.2000528 564.003200
   1216   1217   2496     1   115.1800491 558.982400
   1217   2496   2495     1   120.6900519 530.531200
   1218   1219   1224     1   123.2000528 564.003200
   1218   1219   2522     1   115.1800491 558.982400
   1219   2522   2521     1   120.6900519 530.531200
   1220   1221   1222     1   111.6100477 551.451200
   1223   1217   2496     1   123.0500530 620.905600
   1224   1219   2522     1   123.0500530 620.905600
   1239   1240   1242     1   114.2100488 537.225600
   1239   1241   1244     1   114.2100488 537.225600
   1239   1246   1247     1   114.2100488 537.225600
   1240   1239   1241     1   109.6600471 523.836800
   1240   1239   1246     1   109.6600471 523.836800
   1240   1242   1243     1   111.0400475 529.694400
   1241   1239   1246     1   109.6600471 523.836800
   1241   1244   1245     1   111.0400475 529.694400
   1242   1243   1249     1   123.2000528 564.003200
   1242   1243   2548     1   115.1800491 558.982400
   1243   2548   2547     1   120.6900519 530.531200
   1244   1245   1250     1   123.2000528 564.003200
   1244   1245   2574     1   115.1800491 558.982400
   1245   2574   2573     1   120.6900519 530.531200
   1246   1247   1248     1   111.6100477 551.451200
   1249   1243   2548     1   123.0500530 620.905600
   1250   1245   2574     1   123.0500530 620.905600
   1265   1266   1268     1   114.2100488 537.225600
   1265   1267   1270     1   114.2100488 537.225600
   1265   1272   1273     1   114.2100488 537.225600
   1266   1265   1267     1   109.6600471 523.836800
   1266   1265   1272     1   109.6600471 523.836800
   1266   1268   1269     1   111.0400475 529.694400
   1267   1265   1272     1   109.6600471 523.836800
   1267   1270   1271     1   111.0400475 529.694400
   1268   1269   1275     1   123.2000528 564.003200
   1268   1269   2600     1   115.1800491 558.982400
   1269   2600   2599     1   120.6900519 530.531200
   1270   1271   1276     1   123.2000528 564.003200
   1270   1271   2626     1   115.1800491 558.982400
   1271   2626   2625     1   120.6900519 530.531200
   1272   1273   1274     1   111.6100477 551.451200
   1275   1269   2600     1   123.0500530 620.905600
   1276   1271   2626     1   123.0500530 620.905600
   1291   1292   1294     1   114.2100488 537.225600
   1291   1293   1296     1   114.2100488 537.225600
   1291   1298   1299     1   114.2100488 537.225600
   1292   1291   1293     1   109.6600471 523.836800
   1292   1291   1298     1   109.6600471 523.836800
   1292   1294   1295     1   111.0400475 529.694400
   1293   1291   1298     1   109.6600471 523.836800
   1293   1296   1297     1   111.0400475 529.694400
   1294   1295   1301     1   123.2000528 564.003200
   1294   1295   2652     1   115.1800491 558.982400
   1295   2652   2651     1   120.6900519 530.531200
   1296   1297   1302     1   123.2000528 564.003200
   1296   1297   2678     1   115.1800491 558.982400
   1297   2678   2677     1   120.6900519 530.531200
   1298   1299   1300     1   111.6100477 551.451200
   1301   1295   2652     1   123.0500530 620.905600
   1302   1297   2678     1   123.0500530 620.905600
   1317   1318   1320     1   114.2100488 537.225600
   1317   1319   1322     1   114.2100488 537.225600
   1317   1324   1325     1   114.2100488 537.225600
   1318   1317   1319     1   109.6600471 523.836800
   1318   1317   1324     1   109.6600471 523.836800
   1318   1320   1321     1   111.0400475 529.694400
   1319   1317   1324     1   109.6600471 523.836800
   1319   1322   1323     1   111.0400475 529.694400
   1320   1321   1327     1   123.2000528 564.003200
   1320   1321   2704     1   115.1800491 558.982400
   1321   2704   2703     1   120.6900519 530.531200
   1322   1323   1328     1   123.2000528 564.003200
   1322   1323   2730     1   115.1800491 558.982400
   1323   2730   2729     1   120.6900519 530.531200
   1324   1325   1326     1   111.6100477 551.451200
   1327   1321   2704     1   123.0500530 620.905600
   1328   1323   2730     1   123.0500530 620.905600
   1343   1344   1346     1   114.2100488 537.225600
   1343   1345   1348     1   114.2100488 537.225600
   1343   1350   1351     1   114.2100488 537.225600
   1344   1343   1345     1   109.6600471 523.836800
   1344   1343   1350     1   109.6600471 523.836800
   1344   1346   1347     1   111.0400475 529.694400
   1345   1343   1350     1   109.6600471 523.836800
   1345   1348   1349     1   111.0400475 529.694400
   1346   1347   1353     1   123.2000528 564.003200
   1346   1347   2756     1   115.1800491 558.982400
   1347   2756   2755     1   120.6900519 530.531200
   1348   1349   1354     1   123.2000528 564.003200
   1348   1349   2782     1   115.1800491 558.982400
   1349   2782   2781     1   120.6900519 530.531200
   1350   1351   1352     1   111.6100477 551.451200
   1353   1347   2756     1   123.0500530 620.905600
   1354   1349   2782     1   123.0500530 620.905600
   1369   1370   1372     1   114.2100488 537.225600
   1369   1371   1374     1   114.2100488 537.225600
   1369   1376   1377     1   114.2100488 537.225600
   1370   1369   1371     1   109.6600471 523.836800
   1370   1369   1376     1   109.6600471 523.836800
   1370   1372   1373     1   111.0400475 529.694400
   1371   1369   1376     1   109.6600471 523.836800
   1371   1374   1375     1   111.0400475 529.694400
   1372   1373   1379     1   123.2000528 564.003200
   1372   1373   2808     1   115.1800491 558.982400
   1373   2808   2807     1   120.6900519 530.531200
   1374   1375   1380     1   123.2000528 564.003200
   1374   1375   2834     1   115.1800491 558.982400
   1375   2834   2833     1   120.6900519 530.531200
   1376   1377   1378     1   111.6100477 551.451200
   1379   1373   2808     1   123.0500530 620.905600
   1380   1375   2834     1   123.0500530 620.905600
   1395   1396   1398     1   114.2100488 537.225600
   1395   1397   1400     1   114.2100488 537.225600
   1395   1402   1403     1   114.2100488 537.225600
   1396   1395   1397     1   109.6600471 523.836800
   1396   1395   1402     1   109.6600471 523.836800
   1396   1398   1399     1   111.0400475 529.694400
   1397   1395   1402     1   109.6600471 523.836800
   1397   1400   1401     1   111.0400475 529.694400
   1398   1399   1405     1   123.2000528 564.003200
   1398   1399   2860     1   115.1800491 558.982400
   1399   2860   2859     1   120.6900519 530.531200
   1400   1401   1406     1   123.2000528 564.003200
   1400   1401   2886     1   115.1800491 558.982400
   1401   2886   2885     1   120.6900519 530.531200
   1402   1403   1404     1   111.6100477 551.451200
   1405   1399   2860     1   123.0500530 620.905600
   1406   1401   2886     1   123.0500530 620.905600
   1421   1422   1424     1   114.2100488 537.225600
   1421   1423   1426     1   114.2100488 537.225600
   1421   1428   1429     1   114.2100488 537.225600
   1422   1421   1423     1   109.6600471 523.836800
   1422   1421   1428     1   109.6600471 523.836800
   1422   1424   1425     1   111.0400475 529.694400
   1423   1421   1428     1   109.6600471 523.836800
   1423   1426   1427     1   111.0400475 529.694400
   1424   1425   1431     1   123.2000528 564.003200
   1424   1425   2912     1   115.1800491 558.982400
   1425   2912   2911     1   120.6900519 530.531200
   1426   1427   1432     1   123.2000528 564.003200
   1426   1427   2938     1   115.1800491 558.982400
   1427   2938   2937     1   120.6900519 530.531200
   1428   1429   1430     1   111.6100477 551.451200
   1431   1425   2912     1   123.0500530 620.905600
   1432   1427   2938     1   123.0500530 620.905600
   1447   1448   1450     1   114.2100488 537.225600
   1447   1449   1452     1   114.2100488 537.225600
   1447   1454   1455     1   114.2100488 537.225600
   1448   1447   1449     1   109.6600471 523.836800
   1448   1447   1454     1   109.6600471 523.836800
   1448   1450   1451     1   111.0400475 529.694400
   1449   1447   1454     1   109.6600471 523.836800
   1449   1452   1453     1   111.0400475 529.694400
   1450   1451   1457     1   123.2000528 564.003200
   1450   1451   2964     1   115.1800491 558.982400
   1451   2964   2963     1   120.6900519 530.531200
   1452   1453   1458     1   123.2000528 564.003200
   1452   1453   2990     1   115.1800491 558.982400
   1453   2990   2989     1   120.6900519 530.531200
   1454   1455   1456     1   111.6100477 551.451200
   1457   1451   2964     1   123.0500530 620.905600
   1458   1453   2990     1   123.0500530 620.905600
   1473   1474   1476     1   114.2100488 537.225600
   1473   1475   1478     1   114.2100488 537.225600
   1473   1480   1481     1   114.2100488 537.225600
   1474   1473   1475     1   109.6600471 523.836800
   1474   1473   1480     1   109.6600471 523.836800
   1474   1476   1477     1   111.0400475 529.694400
   1475   1473   1480     1   109.6600471 523.836800
   1475   1478   1479     1   111.0400475 529.694400
   1476   1477   1483     1   123.2000528 564.003200
   1476   1477   3016     1   115.1800491 558.982400
   1477   3016   3015     1   120.6900519 530.531200
   1478   1479   1484     1   123.2000528 564.003200
   1478   1479   3042     1   115.1800491 558.982400
   1479   3042   3041     1   120.6900519 530.531200
   1480   1481   1482     1   111.6100477 551.451200
   1483   1477   3016     1   123.0500530 620.905600
   1484   1479   3042     1   123.0500530 620.905600
   1499   1500   1502     1   114.2100488 537.225600
   1499   1501   1504     1   114.2100488 537.225600
   1499   1506   1507     1   114.2100488 537.225600
   1500   1499   1501     1   109.6600471 523.836800
   1500   1499   1506     1   109.6600471 523.836800
   1500   1502   1503     1   111.0400475 529.694400
   1501   1499   1506     1   109.6600471 523.836800
   1501   1504   1505     1   111.0400475 529.694400
   1502   1503   1509     1   123.2000528 564.003200
   1502   1503   3068     1   115.1800491 558.982400
   1503   3068   3067     1   120.6900519 530.531200
   1504   1505   1510     1   123.2000528 564.003200
   1504   1505   3094     1   115.1800491 558.982400
   1505   3094   3093     1   120.6900519 530.531200
   1506   1507   1508     1   111.6100477 551.451200
   1509   1503   3068     1   123.0500530 620.905600
   1510   1505   3094     1   123.0500530 620.905600
   1525   1526   1528     1   114.2100488 537.225600
   1525   1527   1530     1   114.2100488 537.225600
   1525   1532   1533     1   114.2100488 537.225600
   1526   1525   1527     1   109.6600471 523.836800
   1526   1525   1532     1   109.6600471 523.836800
   1526   1528   1529     1   111.0400475 529.694400
   1527   1525   1532     1   109.6600471 523.836800
   1527   1530   1531     1   111.0400475 529.694400
   1528   1529   1535     1   123.2000528 564.003200
   1528   1529   3120     1   115.1800491 558.982400
   1529   3120   3119     1   120.6900519 530.531200
   1530   1531   1536     1   123.2000528 564.003200
   1530   1531   3146     1   115.1800491 558.982400
   1531   3146   3145     1   120.6900519 530.531200
   1532   1533   1534     1   111.6100477 551.451200
   1535   1529   3120     1   123.0500530 620.905600
   1536   1531   3146     1   123.0500530 620.905600
   1551   1552   1554     1   114.2100488 537.225600
   1551   1553   1556     1   114.2100488 537.225600
   1551   1558   1559     1   114.2100488 537.225600
   1552   1551   1553     1   109.6600471 523.836800
   1552   1551   1558     1   109.6600471 523.836800
   1552   1554   1555     1   111.0400475 529.694400
   1553   1551   1558     1   109.6600471 523.836800
   1553   1556   1557     1   111.0400475 529.694400
   1554   1555   1561     1   123.2000528 564.003200
   1554   1555   3172     1   115.1800491 558.982400
   1555   3172   3171     1   120.6900519 530.531200
   1556   1557   1562     1   123.2000528 564.003200
   1556   1557   3198     1   115.1800491 558.982400
   1557   3198   3197     1   120.6900519 530.531200
   1558   1559   1560     1   111.6100477 551.451200
   1561   1555   3172     1   123.0500530 620.905600
   1562   1557   3198     1   123.0500530 620.905600
   1577   1578   1580     1   114.2100488 537.225600
   1577   1579   1582     1   114.2100488 537.225600
   1577   1584   1585     1   114.2100488 537.225600
   1578   1577   1579     1   109.6600471 523.836800
   1578   1577   1584     1   109.6600471 523.836800
   1578   1580   1581     1   111.0400475 529.694400
   1579   1577   1584     1   109.6600471 523.836800
   1579   1582   1583     1   111.0400475 529.694400
   1580   1581   1587     1   123.2000528 564.003200
   1580   1581   3224     1   115.1800491 558.982400
   1581   3224   3223     1   120.6900519 530.531200
   1582   1583   1588     1   123.2000528 564.003200
   1582   1583   3250     1   115.1800491 558.982400
   1583   3250   3249     1   120.6900519 530.531200
   1584   1585   1586     1   111.6100477 551.451200
   1587   1581   3224     1   123.0500530 620.905600
   1588   1583   3250     1   123.0500530 620.905600
   1603   1604   1606     1   114.2100488 537.225600
   1603   1605   1608     1   114.2100488 537.225600
   1603   1610   1611     1   114.2100488 537.225600
   1604   1603   1605     1   109.6600471 523.836800
   1604   1603   1610     1   109.6600471 523.836800
   1604   1606   1607     1   111.0400475 529.694400
   1605   1603   1610     1   109.6600471 523.836800
   1605   1608   1609     1   111.0400475 529.694400
   1606   1607   3267     1   115.1800491 558.982400
   1606   1607   1613     1   123.2000528 564.003200
   1607   3267   3269     1   120.6900519 530.531200
   1608   1609   1614     1   123.2000528 564.003200
   1608   1609   3297     1   115.1800491 558.982400
   1609   3297   3299     1   120.6900519 530.531200
   1610   1611   1612     1   111.6100477 551.451200
   1613   1607   3267     1   123.0500530 620.905600
   1614   1609   3297     1   123.0500530 620.905600
   1629   1630   1632     1   114.2100488 537.225600
   1629   1631   1634     1   114.2100488 537.225600
   1629   1636   1637     1   114.2100488 537.225600
   1630   1629   1631     1   109.6600471 523.836800
   1630   1629   1636     1   109.6600471 523.836800
   1630   1632   1633     1   111.0400475 529.694400
   1631   1629   1636     1   109.6600471 523.836800
   1631   1634   1635     1   111.0400475 529.694400
   1632   1633   3327     1   115.1800491 558.982400
   1632   1633   1639     1   123.2000528 564.003200
   1633   3327   3329     1   120.6900519 530.531200
   1634   1635   1640     1   123.2000528 564.003200
   1634   1635   3357     1   115.1800491 558.982400
   1635   3357   3359     1   120.6900519 530.531200
   1636   1637   1638     1   111.6100477 551.451200
   1639   1633   3327     1   123.0500530 620.905600
   1640   1635   3357     1   123.0500530 620.905600
   1655   1656   1658     1   114.2100488 537.225600
   1655   1657   1660     1   114.2100488 537.225600
   1655   1662   1663     1   114.2100488 537.225600
   1656   1655   1657     1   109.6600471 523.836800
   1656   1655   1662     1   109.6600471 523.836800
   1656   1658   1659     1   111.0400475 529.694400
   1657   1655   1662     1   109.6600471 523.836800
   1657   1660   1661     1   111.0400475 529.694400
   1658   1659   3387     1   115.1800491 558.982400
   1658   1659   1665     1   123.2000528 564.003200
   1659   3387   3389     1   120.6900519 530.531200
   1660   1661   1666     1   123.2000528 564.003200
   1660   1661   3417     1   115.1800491 558.982400
   1661   3417   3419     1   120.6900519 530.531200
   1662   1663   1664     1   111.6100477 551.451200
   1665   1659   3387     1   123.0500530 620.905600
   1666   1661   3417     1   123.0500530 620.905600
   1681   1682   1684     1   114.2100488 537.225600
   1681   1683   1686     1   114.2100488 537.225600
   1681   1688   1689     1   114.2100488 537.225600
   1682   1681   1683     1   109.6600471 523.836800
   1682   1681   1688     1   109.6600471 523.836800
   1682   1684   1685     1   111.0400475 529.694400
   1683   1681   1688     1   109.6600471 523.836800
   1683   1686   1687     1   111.0400475 529.694400
   1684   1685   3447     1   115.1800491 558.982400
   1684   1685   1691     1   123.2000528 564.003200
   1685   3447   3449     1   120.6900519 530.531200
   1686   1687   1692     1   123.2000528 564.003200
   1686   1687   3477     1   115.1800491 558.982400
   1687   3477   3479     1   120.6900519 530.531200
   1688   1689   1690     1   111.6100477 551.451200
   1691   1685   3447     1   123.0500530 620.905600
   1692   1687   3477     1   123.0500530 620.905600
   1707   1708   1710     1   114.2100488 537.225600
   1707   1709   1712     1   114.2100488 537.225600
   1707   1714   1715     1   114.2100488 537.225600
   1708   1707   1709     1   109.6600471 523.836800
   1708   1707   1714     1   109.6600471 523.836800
   1708   1710   1711     1   111.0400475 529.694400
   1709   1707   1714     1   109.6600471 523.836800
   1709   1712   1713     1   111.0400475 529.694400
   1710   1711   3507     1   115.1800491 558.982400
   1710   1711   1717     1   123.2000528 564.003200
   1711   3507   3509     1   120.6900519 530.531200
   1712   1713   1718     1   123.2000528 564.003200
   1712   1713   3537     1   115.1800491 558.982400
   1713   3537   3539     1   120.6900519 530.531200
   1714   1715   1716     1   111.6100477 551.451200
   1717   1711   3507     1   123.0500530 620.905600
   1718   1713   3537     1   123.0500530 620.905600
   1733   1734   1736     1   114.2100488 537.225600
   1733   1735   1738     1   114.2100488 537.225600
   1733   1740   1741     1   114.2100488 537.225600
   1734   1733   1735     1   109.6600471 523.836800
   1734   1733   1740     1   109.6600471 523.836800
   1734   1736   1737     1   111.0400475 529.694400
   1735   1733   1740     1   109.6600471 523.836800
   1735   1738   1739     1   111.0400475 529.694400
   1736   1737   3567     1   115.1800491 558.982400
   1736   1737   1743     1   123.2000528 564.003200
   1737   3567   3569     1   120.6900519 530.531200
   1738   1739   1744     1   123.2000528 564.003200
   1738   1739   3597     1   115.1800491 558.982400
   1739   3597   3599     1   120.6900519 530.531200
   1740   1741   1742     1   111.6100477 551.451200
   1743   1737   3567     1   123.0500530 620.905600
   1744   1739   3597     1   123.0500530 620.905600
   1759   1760   1762     1   114.2100488 537.225600
   1759   1761   1764     1   114.2100488 537.225600
   1759   1766   1767     1   114.2100488 537.225600
   1760   1759   1761     1   109.6600471 523.836800
   1760   1759   1766     1   109.6600471 523.836800
   1760   1762   1763     1   111.0400475 529.694400
   1761   1759   1766     1   109.6600471 523.836800
   1761   1764   1765     1   111.0400475 529.694400
   1762   1763   3627     1   115.1800491 558.982400
   1762   1763   1769     1   123.2000528 564.003200
   1763   3627   3629     1   120.6900519 530.531200
   1764   1765   1770     1   123.2000528 564.003200
   1764   1765   3657     1   115.1800491 558.982400
   1765   3657   3659     1   120.6900519 530.531200
   1766   1767   1768     1   111.6100477 551.451200
   1769   1763   3627     1   123.0500530 620.905600
   1770   1765   3657     1   123.0500530 620.905600
   1785   1786   1788     1   114.2100488 537.225600
   1785   1787   1790     1   114.2100488 537.225600
   1785   1792   1793     1   114.2100488 537.225600
   1786   1785   1787     1   109.6600471 523.836800
   1786   1785   1792     1   109.6600471 523.836800
   1786   1788   1789     1   111.0400475 529.694400
   1787   1785   1792     1   109.6600471 523.836800
   1787   1790   1791     1   111.0400475 529.694400
   1788   1789   3687     1   115.1800491 558.982400
   1788   1789   1795     1   123.2000528 564.003200
   1789   3687   3689     1   120.6900519 530.531200
   1790   1791   1796     1   123.2000528 564.003200
   1790   1791   3717     1   115.1800491 558.982400
   1791   3717   3719     1   120.6900519 530.531200
   1792   1793   1794     1   111.6100477 551.451200
   1795   1789   3687     1   123.0500530 620.905600
   1796   1791   3717     1   123.0500530 620.905600
   1811   1812   1814     1   114.2100488 537.225600
   1811   1813   1816     1   114.2100488 537.225600
   1811   1818   1819     1   114.2100488 537.225600
   1812   1811   1813     1   109.6600471 523.836800
   1812   1811   1818     1   109.6600471 523.836800
   1812   1814   1815     1   111.0400475 529.694400
   1813   1811   1818     1   109.6600471 523.836800
   1813   1816   1817     1   111.0400475 529.694400
   1814   1815   3747     1   115.1800491 558.982400
   1814   1815   1821     1   123.2000528 564.003200
   1815   3747   3749     1   120.6900519 530.531200
   1816   1817   1822     1   123.2000528 564.003200
   1816   1817   3777     1   115.1800491 558.982400
   1817   3777   3779     1   120.6900519 530.531200
   1818   1819   1820     1   111.6100477 551.451200
   1821   1815   3747     1   123.0500530 620.905600
   1822   1817   3777     1   123.0500530 620.905600
   1837   1838   1840     1   114.2100488 537.225600
   1837   1839   1842     1   114.2100488 537.225600
   1837   1844   1845     1   114.2100488 537.225600
   1838   1837   1839     1   109.6600471 523.836800
   1838   1837   1844     1   109.6600471 523.836800
   1838   1840   1841     1   111.0400475 529.694400
   1839   1837   1844     1   109.6600471 523.836800
   1839   1842   1843     1   111.0400475 529.694400
   1840   1841   3807     1   115.1800491 558.982400
   1840   1841   1847     1   123.2000528 564.003200
   1841   3807   3809     1   120.6900519 530.531200
   1842   1843   1848     1   123.2000528 564.003200
   1842   1843   3837     1   115.1800491 558.982400
   1843   3837   3839     1   120.6900519 530.531200
   1844   1845   1846     1   111.6100477 551.451200
   1847   1841   3807     1   123.0500530 620.905600
   1848   1843   3837     1   123.0500530 620.905600
   1863   1864   1866     1   114.2100488 537.225600
   1863   1865   1868     1   114.2100488 537.225600
   1863   1870   1871     1   114.2100488 537.225600
   1864   1863   1865     1   109.6600471 523.836800
   1864   1863   1870     1   109.6600471 523.836800
   1864   1866   1867     1   111.0400475 529.694400
   1865   1863   1870     1   109.6600471 523.836800
   1865   1868   1869     1   111.0400475 529.694400
   1866   1867   3867     1   115.1800491 558.982400
   1866   1867   1873     1   123.2000528 564.003200
   1867   3867   3869     1   120.6900519 530.531200
   1868   1869   1874     1   123.2000528 564.003200
   1868   1869   3897     1   115.1800491 558.982400
   1869   3897   3899     1   120.6900519 530.531200
   1870   1871   1872     1   111.6100477 551.451200
   1873   1867   3867     1   123.0500530 620.905600
   1874   1869   3897     1   123.0500530 620.905600
   1889   1890   1892     1   114.2100488 537.225600
   1889   1891   1894     1   114.2100488 537.225600
   1889   1896   1897     1   114.2100488 537.225600
   1890   1889   1891     1   109.6600471 523.836800
   1890   1889   1896     1   109.6600471 523.836800
   1890   1892   1893     1   111.0400475 529.694400
   1891   1889   1896     1   109.6600471 523.836800
   1891   1894   1895     1   111.0400475 529.694400
   1892   1893   3927     1   115.1800491 558.982400
   1892   1893   1899     1   123.2000528 564.003200
   1893   3927   3929     1   120.6900519 530.531200
   1894   1895   1900     1   123.2000528 564.003200
   1894   1895   3957     1   115.1800491 558.982400
   1895   3957   3959     1   120.6900519 530.531200
   1896   1897   1898     1   111.6100477 551.451200
   1899   1893   3927     1   123.0500530 620.905600
   1900   1895   3957     1   123.0500530 620.905600
   1915   1916   1918     1   114.2100488 537.225600
   1915   1917   1920     1   114.2100488 537.225600
   1915   1922   1923     1   114.2100488 537.225600
   1916   1915   1917     1   109.6600471 523.836800
   1916   1915   1922     1   109.6600471 523.836800
   1916   1918   1919     1   111.0400475 529.694400
   1917   1915   1922     1   109.6600471 523.836800
   1917   1920   1921     1   111.0400475 529.694400
   1918   1919   3987     1   115.1800491 558.982400
   1918   1919   1925     1   123.2000528 564.003200
   1919   3987   3989     1   120.6900519 530.531200
   1920   1921   1926     1   123.2000528 564.003200
   1920   1921   4017     1   115.1800491 558.982400
   1921   4017   4019     1   120.6900519 530.531200
   1922   1923   1924     1   111.6100477 551.451200
   1925   1919   3987     1   123.0500530 620.905600
   1926   1921   4017     1   123.0500530 620.905600
   1941   1942   1944     1   114.2100488 537.225600
   1941   1943   1946     1   114.2100488 537.225600
   1941   1948   1949     1   114.2100488 537.225600
   1942   1941   1943     1   109.6600471 523.836800
   1942   1941   1948     1   109.6600471 523.836800
   1942   1944   1945     1   111.0400475 529.694400
   1943   1941   1948     1   109.6600471 523.836800
   1943   1946   1947     1   111.0400475 529.694400
   1944   1945   4047     1   115.1800491 558.982400
   1944   1945   1951     1   123.2000528 564.003200
   1945   4047   4049     1   120.6900519 530.531200
   1946   1947   1952     1   123.2000528 564.003200
   1946   1947   4077     1   115.1800491 558.982400
   1947   4077   4079     1   120.6900519 530.531200
   1948   1949   1950     1   111.6100477 551.451200
   1951   1945   4047     1   123.0500530 620.905600
   1952   1947   4077     1   123.0500530 620.905600
   1967   1968   1970     1   114.2100488 537.225600
   1967   1969   1972     1   114.2100488 537.225600
   1967   1974   1975     1   114.2100488 537.225600
   1968   1967   1969     1   109.6600471 523.836800
   1968   1967   1974     1   109.6600471 523.836800
   1968   1970   1971     1   111.0400475 529.694400
   1969   1967   1974     1   109.6600471 523.836800
   1969   1972   1973     1   111.0400475 529.694400
   1970   1971   4107     1   115.1800491 558.982400
   1970   1971   1977     1   123.2000528 564.003200
   1971   4107   4109     1   120.6900519 530.531200
   1972   1973   1978     1   123.2000528 564.003200
   1972   1973   4137     1   115.1800491 558.982400
   1973   4137   4139     1   120.6900519 530.531200
   1974   1975   1976     1   111.6100477 551.451200
   1977   1971   4107     1   123.0500530 620.905600
   1978   1973   4137     1   123.0500530 620.905600
   1993   1994   1996     1   114.2100488 537.225600
   1993   1995   1998     1   114.2100488 537.225600
   1993   2000   2001     1   114.2100488 537.225600
   1994   1993   1995     1   109.6600471 523.836800
   1994   1993   2000     1   109.6600471 523.836800
   1994   1996   1997     1   111.0400475 529.694400
   1995   1993   2000     1   109.6600471 523.836800
   1995   1998   1999     1   111.0400475 529.694400
   1996   1997   4167     1   115.1800491 558.982400
   1996   1997   2003     1   123.2000528 564.003200
   1997   4167   4169     1   120.6900519 530.531200
   1998   1999   2004     1   123.2000528 564.003200
   1998   1999   4197     1   115.1800491 558.982400
   1999   4197   4199     1   120.6900519 530.531200
   2000   2001   2002     1   111.6100477 551.451200
   2003   1997   4167     1   123.0500530 620.905600
   2004   1999   4197     1   123.0500530 620.905600
   2019   2020   2022     1   114.2100488 537.225600
   2019   2021   2024     1   114.2100488 537.225600
   2019   2026   2027     1   114.2100488 537.225600
   2020   2019   2021     1   109.6600471 523.836800
   2020   2019   2026     1   109.6600471 523.836800
   2020   2022   2023     1   111.0400475 529.694400
   2021   2019   2026     1   109.6600471 523.836800
   2021   2024   2025     1   111.0400475 529.694400
   2022   2023   4227     1   115.1800491 558.982400
   2022   2023   2029     1   123.2000528 564.003200
   2023   4227   4229     1   120.6900519 530.531200
   2024   2025   2030     1   123.2000528 564.003200
   2024   2025   4257     1   115.1800491 558.982400
   2025   4257   4259     1   120.6900519 530.531200
   2026   2027   2028     1   111.6100477 551.451200
   2029   2023   4227     1   123.0500530 620.905600
   2030   2025   4257     1   123.0500530 620.905600
   2045   2046   2048     1   114.2100488 537.225600
   2045   2047   2050     1   114.2100488 537.225600
   2045   2052   2053     1   114.2100488 537.225600
   2046   2045   2047     1   109.6600471 523.836800
   2046   2045   2052     1   109.6600471 523.836800
   2046   2048   2049     1   111.0400475 529.694400
   2047   2045   2052     1   109.6600471 523.836800
   2047   2050   2051     1   111.0400475 529.694400
   2048   2049   4287     1   115.1800491 558.982400
   2048   2049   2055     1   123.2000528 564.003200
   2049   4287   4289     1   120.6900519 530.531200
   2050   2051   2056     1   123.2000528 564.003200
   2050   2051   4317     1   115.1800491 558.982400
   2051   4317   4319     1   120.6900519 530.531200
   2052   2053   2054     1   111.6100477 551.451200
   2055   2049   4287     1   123.0500530 620.905600
   2056   2051   4317     1   123.0500530 620.905600
   2071   2072   2074     1   114.2100488 537.225600
   2071   2073   2076     1   114.2100488 537.225600
   2071   2078   2079     1   114.2100488 537.225600
   2072   2071   2073     1   109.6600471 523.836800
   2072   2071   2078     1   109.6600471 523.836800
   2072   2074   2075     1   111.0400475 529.694400
   2073   2071   2078     1   109.6600471 523.836800
   2073   2076   2077     1   111.0400475 529.694400
   2074   2075   4347     1   115.1800491 558.982400
   2074   2075   2081     1   123.2000528 564.003200
   2075   4347   4349     1   120.6900519 530.531200
   2076   2077   2082     1   123.2000528 564.003200
   2076   2077   4377     1   115.1800491 558.982400
   2077   4377   4379     1   120.6900519 530.531200
   2078   2079   2080     1   111.6100477 551.451200
   2081   2075   4347     1   123.0500530 620.905600
   2082   2077   4377     1   123.0500530 620.905600
   2097   2098   2100     1   114.2100488 537.225600
   2097   2099   2102     1   114.2100488 537.225600
   2097   2104   2105     1   114.2100488 537.225600
   2098   2097   2099     1   109.6600471 523.836800
   2098   2097   2104     1   109.6600471 523.836800
   2098   2100   2101     1   111.0400475 529.694400
   2099   2097   2104     1   109.6600471 523.836800
   2099   2102   2103     1   111.0400475 529.694400
   2100   2101   4407     1   115.1800491 558.982400
   2100   2101   2107     1   123.2000528 564.003200
   2101   4407   4409     1   120.6900519 530.531200
   2102   2103   2108     1   123.2000528 564.003200
   2102   2103   4437     1   115.1800491 558.982400
   2103   4437   4439     1   120.6900519 530.531200
   2104   2105   2106     1   111.6100477 551.451200
   2107   2101   4407     1   123.0500530 620.905600
   2108   2103   4437     1   123.0500530 620.905600
   2123   2124   2126     1   114.2100488 537.225600
   2123   2125   2128     1   114.2100488 537.225600
   2123   2130   2131     1   114.2100488 537.225600
   2124   2123   2125     1   109.6600471 523.836800
   2124   2123   2130     1   109.6600471 523.836800
   2124   2126   2127     1   111.0400475 529.694400
   2125   2123   2130     1   109.6600471 523.836800
   2125   2128   2129     1   111.0400475 529.694400
   2126   2127   4467     1   115.1800491 558.982400
   2126   2127   2133     1   123.2000528 564.003200
   2127   4467   4469     1   120.6900519 530.531200
   2128   2129   2134     1   123.2000528 564.003200
   2128   2129   4497     1   115.1800491 558.982400
   2129   4497   4499     1   120.6900519 530.531200
   2130   2131   2132     1   111.6100477 551.451200
   2133   2127   4467     1   123.0500530 620.905600
   2134   2129   4497     1   123.0500530 620.905600
   2149   2150   2152     1   114.2100488 537.225600
   2149   2151   2154     1   114.2100488 537.225600
   2149   2156   2157     1   114.2100488 537.225600
   2150   2149   2151     1   109.6600471 523.836800
   2150   2149   2156     1   109.6600471 523.836800
   2150   2152   2153     1   111.0400475 529.694400
   2151   2149   2156     1   109.6600471 523.836800
   2151   2154   2155     1   111.0400475 529.694400
   2152   2153   4527     1   115.1800491 558.982400
   2152   2153   2159     1   123.2000528 564.003200
   2153   4527   4529     1   120.6900519 530.531200
   2154   2155   2160     1   123.2000528 564.003200
   2154   2155   4557     1   115.1800491 558.982400
   2155   4557   4559     1   120.6900519 530.531200
   2156   2157   2158     1   111.6100477 551.451200
   2159   2153   4527     1   123.0500530 620.905600
   2160   2155   4557     1   123.0500530 620.905600
   2175   2176   2178     1   114.2100488 537.225600
   2175   2177   2180     1   114.2100488 537.225600
   2175   2182   2183     1   114.2100488 537.225600
   2176   2175   2177     1   109.6600471 523.836800
   2176   2175   2182     1   109.6600471 523.836800
   2176   2178   2179     1   111.0400475 529.694400
   2177   2175   2182     1   109.6600471 523.836800
   2177   2180   2181     1   111.0400475 529.694400
   2178   2179   4587     1   115.1800491 558.982400
   2178   2179   2185     1   123.2000528 564.003200
   2179   4587   4589     1   120.6900519 530.531200
   2180   2181   2186     1   123.2000528 564.003200
   2180   2181   4617     1   115.1800491 558.982400
   2181   4617   4619     1   120.6900519 530.531200
   2182   2183   2184     1   111.6100477 551.451200
   2185   2179   4587     1   123.0500530 620.905600
   2186   2181   4617     1   123.0500530 620.905600
   2201   2202   2204     1   114.2100488 537.225600
   2201   2203   2206     1   114.2100488 537.225600
   2201   2208   2209     1   114.2100488 537.225600
   2202   2201   2203     1   109.6600471 523.836800
   2202   2201   2208     1   109.6600471 523.836800
   2202   2204   2205     1   111.0400475 529.694400
   2203   2201   2208     1   109.6600471 523.836800
   2203   2206   2207     1   111.0400475 529.694400
   2204   2205   4647     1   115.1800491 558.982400
   2204   2205   2211     1   123.2000528 564.003200
   2205   4647   4649     1   120.6900519 530.531200
   2206   2207   2212     1   123.2000528 564.003200
   2206   2207   4677     1   115.1800491 558.982400
   2207   4677   4679     1   120.6900519 530.531200
   2208   2209   2210     1   111.6100477 551.451200
   2211   2205   4647     1   123.0500530 620.905600
   2212   2207   4677     1   123.0500530 620.905600
   2227   2228   2230     1   114.2100488 537.225600
   2227   2229   2232     1   114.2100488 537.225600
   2227   2234   2235     1   114.2100488 537.225600
   2228   2227   2229     1   109.6600471 523.836800
   2228   2227   2234     1   109.6600471 523.836800
   2228   2230   2231     1   111.0400475 529.694400
   2229   2227   2234     1   109.6600471 523.836800
   2229   2232   2233     1   111.0400475 529.694400
   2230   2231   4707     1   115.1800491 558.982400
   2230   2231   2237     1   123.2000528 564.003200
   2231   4707   4709     1   120.6900519 530.531200
   2232   2233   2238     1   123.2000528 564.003200
   2232   2233   4737     1   115.1800491 558.982400
   2233   4737   4739     1   120.6900519 530.531200
   2234   2235   2236     1   111.6100477 551.451200
   2237   2231   4707     1   123.0500530 620.905600
   2238   2233   4737     1   123.0500530 620.905600
   2253   2254   2256     1   114.2100488 537.225600
   2253   2255   2258     1   114.2100488 537.225600
   2253   2260   2261     1   114.2100488 537.225600
   2254   2253   2255     1   109.6600471 523.836800
   2254   2253   2260     1   109.6600471 523.836800
   2254   2256   2257     1   111.0400475 529.694400
   2255   2253   2260     1   109.6600471 523.836800
   2255   2258   2259     1   111.0400475 529.694400
   2256   2257   4767     1   115.1800491 558.982400
   2256   2257   2263     1   123.2000528 564.003200
   2257   4767   4769     1   120.6900519 530.531200
   2258   2259   2264     1   123.2000528 564.003200
   2258   2259   4797     1   115.1800491 558.982400
   2259   4797   4799     1   120.6900519 530.531200
   2260   2261   2262     1   111.6100477 551.451200
   2263   2257   4767     1   123.0500530 620.905600
   2264   2259   4797     1   123.0500530 620.905600
   2279   2280   2282     1   114.2100488 537.225600
   2279   2281   2284     1   114.2100488 537.225600
   2279   2286   2287     1   114.2100488 537.225600
   2280   2279   2281     1   109.6600471 523.836800
   2280   2279   2286     1   109.6600471 523.836800
   2280   2282   2283     1   111.0400475 529.694400
   2281   2279   2286     1   109.6600471 523.836800
   2281   2284   2285     1   111.0400475 529.694400
   2282   2283   4827     1   115.1800491 558.982400
   2282   2283   2289     1   123.2000528 564.003200
   2283   4827   4829     1   120.6900519 530.531200
   2284   2285   2290     1   123.2000528 564.003200
   2284   2285   4857     1   115.1800491 558.982400
   2285   4857   4859     1   120.6900519 530.531200
   2286   2287   2288     1   111.6100477 551.451200
   2289   2283   4827     1   123.0500530 620.905600
   2290   2285   4857     1   123.0500530 620.905600
   2305   2306   2308     1   114.2100488 537.225600
   2305   2307   2310     1   114.2100488 537.225600
   2305   2312   2313     1   114.2100488 537.225600
   2306   2305   2307     1   109.6600471 523.836800
   2306   2305   2312     1   109.6600471 523.836800
   2306   2308   2309     1   111.0400475 529.694400
   2307   2305   2312     1   109.6600471 523.836800
   2307   2310   2311     1   111.0400475 529.694400
   2308   2309   4887     1   115.1800491 558.982400
   2308   2309   2315     1   123.2000528 564.003200
   2309   4887   4889     1   120.6900519 530.531200
   2310   2311   2316     1   123.2000528 564.003200
   2310   2311   4917     1   115.1800491 558.982400
   2311   4917   4919     1   120.6900519 530.531200
   2312   2313   2314     1   111.6100477 551.451200
   2315   2309   4887     1   123.0500530 620.905600
   2316   2311   4917     1   123.0500530 620.905600
   2331   2332   2334     1   114.2100488 537.225600
   2331   2333   2336     1   114.2100488 537.225600
   2331   2338   2339     1   114.2100488 537.225600
   2332   2331   2333     1   109.6600471 523.836800
   2332   2331   2338     1   109.6600471 523.836800
   2332   2334   2335     1   111.0400475 529.694400
   2333   2331   2338     1   109.6600471 523.836800
   2333   2336   2337     1   111.0400475 529.694400
   2334   2335   4947     1   115.1800491 558.982400
   2334   2335   2341     1   123.2000528 564.003200
   2335   4947   4949     1   120.6900519 530.531200
   2336   2337   2342     1   123.2000528 564.003200
   2336   2337   4977     1   115.1800491 558.982400
   2337   4977   4979     1   120.6900519 530.531200
   2338   2339   2340     1   111.6100477 551.451200
   2341   2335   4947     1   123.0500530 620.905600
   2342   2337   4977     1   123.0500530 620.905600
   2357   2358   2360     1   114.2100488 537.225600
   2357   2359   2362     1   114.2100488 537.225600
   2357   2364   2365     1   114.2100488 537.225600
   2358   2357   2359     1   109.6600471 523.836800
   2358   2357   2364     1   109.6600471 523.836800
   2358   2360   2361     1   111.0400475 529.694400
   2359   2357   2364     1   109.6600471 523.836800
   2359   2362   2363     1   111.0400475 529.694400
   2360   2361   5007     1   115.1800491 558.982400
   2360   2361   2367     1   123.2000528 564.003200
   2361   5007   5009     1   120.6900519 530.531200
   2362   2363   2368     1   123.2000528 564.003200
   2362   2363   5037     1   115.1800491 558.982400
   2363   5037   5039     1   120.6900519 530.531200
   2364   2365   2366     1   111.6100477 551.451200
   2367   2361   5007     1   123.0500530 620.905600
   2368   2363   5037     1   123.0500530 620.905600
   2383   2384   2386     1   114.2100488 537.225600
   2383   2385   2388     1   114.2100488 537.225600
   2383   2390   2391     1   114.2100488 537.225600
   2384   2383   2385     1   109.6600471 523.836800
   2384   2383   2390     1   109.6600471 523.836800
   2384   2386   2387     1   111.0400475 529.694400
   2385   2383   2390     1   109.6600471 523.836800
   2385   2388   2389     1   111.0400475 529.694400
   2386   2387   5067     1   115.1800491 558.982400
   2386   2387   2393     1   123.2000528 564.003200
   2387   5067   5069     1   120.6900519 530.531200
   2388   2389   2394     1   123.2000528 564.003200
   2388   2389   5097     1   115.1800491 558.982400
   2389   5097   5099     1   120.6900519 530.531200
   2390   2391   2392     1   111.6100477 551.451200
   2393   2387   5067     1   123.0500530 620.905600
   2394   2389   5097     1   123.0500530 620.905600
   2409   2410   2412     1   114.2100488 537.225600
   2409   2411   2414     1   114.2100488 537.225600
   2409   2416   2417     1   114.2100488 537.225600
   2410   2409   2411     1   109.6600471 523.836800
   2410   2409   2416     1   109.6600471 523.836800
   2410   2412   2413     1   111.0400475 529.694400
   2411   2409   2416     1   109.6600471 523.836800
   2411   2414   2415     1   111.0400475 529.694400
   2412   2413   5127     1   115.1800491 558.982400
   2412   2413   2419     1   123.2000528 564.003200
   2413   5127   5129     1   120.6900519 530.531200
   2414   2415   2420     1   123.2000528 564.003200
   2414   2415   5157     1   115.1800491 558.982400
   2415   5157   5159     1   120.6900519 530.531200
   2416   2417   2418     1   111.6100477 551.451200
   2419   2413   5127     1   123.0500530 620.905600
   2420   2415   5157     1   123.0500530 620.905600
   2435   2436   2438     1   114.2100488 537.225600
   2435   2437   2440     1   114.2100488 537.225600
   2435   2442   2443     1   114.2100488 537.225600
   2436   2435   2437     1   109.6600471 523.836800
   2436   2435   2442     1   109.6600471 523.836800
   2436   2438   2439     1   111.0400475 529.694400
   2437   2435   2442     1   109.6600471 523.836800
   2437   2440   2441     1   111.0400475 529.694400
   2438   2439   5187     1   115.1800491 558.982400
   2438   2439   2445     1   123.2000528 564.003200
   2439   5187   5189     1   120.6900519 530.531200
   2440   2441   2446     1   123.2000528 564.003200
   2440   2441   5217     1   115.1800491 558.982400
   2441   5217   5219     1   120.6900519 530.531200
   2442   2443   2444     1   111.6100477 551.451200
   2445   2439   5187     1   123.0500530 620.905600
   2446   2441   5217     1   123.0500530 620.905600
   2461   2462   2464     1   114.2100488 537.225600
   2461   2463   2466     1   114.2100488 537.225600
   2461   2468   2469     1   114.2100488 537.225600
   2462   2461   2463     1   109.6600471 523.836800
   2462   2461   2468     1   109.6600471 523.836800
   2462   2464   2465     1   111.0400475 529.694400
   2463   2461   2468     1   109.6600471 523.836800
   2463   2466   2467     1   111.0400475 529.694400
   2464   2465   5247     1   115.1800491 558.982400
   2464   2465   2471     1   123.2000528 564.003200
   2465   5247   5249     1   120.6900519 530.531200
   2466   2467   2472     1   123.2000528 564.003200
   2466   2467   5277     1   115.1800491 558.982400
   2467   5277   5279     1   120.6900519 530.531200
   2468   2469   2470     1   111.6100477 551.451200
   2471   2465   5247     1   123.0500530 620.905600
   2472   2467   5277     1   123.0500530 620.905600
   2487   2488   2490     1   114.2100488 537.225600
   2487   2489   2492     1   114.2100488 537.225600
   2487   2494   2495     1   114.2100488 537.225600
   2488   2487   2489     1   109.6600471 523.836800
   2488   2487   2494     1   109.6600471 523.836800
   2488   2490   2491     1   111.0400475 529.694400
   2489   2487   2494     1   109.6600471 523.836800
   2489   2492   2493     1   111.0400475 529.694400
   2490   2491   5307     1   115.1800491 558.982400
   2490   2491   2497     1   123.2000528 564.003200
   2491   5307   5309     1   120.6900519 530.531200
   2492   2493   2498     1   123.2000528 564.003200
   2492   2493   5337     1   115.1800491 558.982400
   2493   5337   5339     1   120.6900519 530.531200
   2494   2495   2496     1   111.6100477 551.451200
   2497   2491   5307     1   123.0500530 620.905600
   2498   2493   5337     1   123.0500530 620.905600
   2513   2514   2516     1   114.2100488 537.225600
   2513   2515   2518     1   114.2100488 537.225600
   2513   2520   2521     1   114.2100488 537.225600
   2514   2513   2515     1   109.6600471 523.836800
   2514   2513   2520     1   109.6600471 523.836800
   2514   2516   2517     1   111.0400475 529.694400
   2515   2513   2520     1   109.6600471 523.836800
   2515   2518   2519     1   111.0400475 529.694400
   2516   2517   5367     1   115.1800491 558.982400
   2516   2517   2523     1   123.2000528 564.003200
   2517   5367   5369     1   120.6900519 530.531200
   2518   2519   2524     1   123.2000528 564.003200
   2518   2519   5397     1   115.1800491 558.982400
   2519   5397   5399     1   120.6900519 530.531200
   2520   2521   2522     1   111.6100477 551.451200
   2523   2517   5367     1   123.0500530 620.905600
   2524   2519   5397     1   123.0500530 620.905600
   2539   2540   2542     1   114.2100488 537.225600
   2539   2541   2544     1   114.2100488 537.225600
   2539   2546   2547     1   114.2100488 537.225600
   2540   2539   2541     1   109.6600471 523.836800
   2540   2539   2546     1   109.6600471 523.836800
   2540   2542   2543     1   111.0400475 529.694400
   2541   2539   2546     1   109.6600471 523.836800
   2541   2544   2545     1   111.0400475 529.694400
   2542   2543   5427     1   115.1800491 558.982400
   2542   2543   2549     1   123.2000528 564.003200
   2543   5427   5429     1   120.6900519 530.531200
   2544   2545   2550     1   123.2000528 564.003200
   2544   2545   5457     1   115.1800491 558.982400
   2545   5457   5459     1   120.6900519 530.531200
   2546   2547   2548     1   111.6100477 551.451200
   2549   2543   5427     1   123.0500530 620.905600
   2550   2545   5457     1   123.0500530 620.905600
   2565   2566   2568     1   114.2100488 537.225600
   2565   2567   2570     1   114.2100488 537.225600
   2565   2572   2573     1   114.2100488 537.225600
   2566   2565   2567     1   109.6600471 523.836800
   2566   2565   2572     1   109.6600471 523.836800
   2566   2568   2569     1   111.0400475 529.694400
   2567   2565   2572     1   109.6600471 523.836800
   2567   2570   2571     1   111.0400475 529.694400
   2568   2569   5487     1   115.1800491 558.982400
   2568   2569   2575     1   123.2000528 564.003200
   2569   5487   5489     1   120.6900519 530.531200
   2570   2571   2576     1   123.2000528 564.003200
   2570   2571   5517     1   115.1800491 558.982400
   2571   5517   5519     1   120.6900519 530.531200
   2572   2573   2574     1   111.6100477 551.451200
   2575   2569   5487     1   123.0500530 620.905600
   2576   2571   5517     1   123.0500530 620.905600
   2591   2592   2594     1   114.2100488 537.225600
   2591   2593   2596     1   114.2100488 537.225600
   2591   2598   2599     1   114.2100488 537.225600
   2592   2591   2593     1   109.6600471 523.836800
   2592   2591   2598     1   109.6600471 523.836800
   2592   2594   2595     1   111.0400475 529.694400
   2593   2591   2598     1   109.6600471 523.836800
   2593   2596   2597     1   111.0400475 529.694400
   2594   2595   5547     1   115.1800491 558.982400
   2594   2595   2601     1   123.2000528 564.003200
   2595   5547   5549     1   120.6900519 530.531200
   2596   2597   2602     1   123.2000528 564.003200
   2596   2597   5577     1   115.1800491 558.982400
   2597   5577   5579     1   120.6900519 530.531200
   2598   2599   2600     1   111.6100477 551.451200
   2601   2595   5547     1   123.0500530 620.905600
   2602   2597   5577     1   123.0500530 620.905600
   2617   2618   2620     1   114.2100488 537.225600
   2617   2619   2622     1   114.2100488 537.225600
   2617   2624   2625     1   114.2100488 537.225600
   2618   2617   2619     1   109.6600471 523.836800
   2618   2617   2624     1   109.6600471 523.836800
   2618   2620   2621     1   111.0400475 529.694400
   2619   2617   2624     1   109.6600471 523.836800
   2619   2622   2623     1   111.0400475 529.694400
   2620   2621   5607     1   115.1800491 558.982400
   2620   2621   2627     1   123.2000528 564.003200
   2621   5607   5609     1   120.6900519 530.531200
   2622   2623   2628     1   123.2000528 564.003200
   2622   2623   5637     1   115.1800491 558.982400
   2623   5637   5639     1   120.6900519 530.531200
   2624   2625   2626     1   111.6100477 551.451200
   2627   2621   5607     1   123.0500530 620.905600
   2628   2623   5637     1   123.0500530 620.905600
   2643   2644   2646     1   114.2100488 537.225600
   2643   2645   2648     1   114.2100488 537.225600
   2643   2650   2651     1   114.2100488 537.225600
   2644   2643   2645     1   109.6600471 523.836800
   2644   2643   2650     1   109.6600471 523.836800
   2644   2646   2647     1   111.0400475 529.694400
   2645   2643   2650     1   109.6600471 523.836800
   2645   2648   2649     1   111.0400475 529.694400
   2646   2647   5667     1   115.1800491 558.982400
   2646   2647   2653     1   123.2000528 564.003200
   2647   5667   5669     1   120.6900519 530.531200
   2648   2649   2654     1   123.2000528 564.003200
   2648   2649   5697     1   115.1800491 558.982400
   2649   5697   5699     1   120.6900519 530.531200
   2650   2651   2652     1   111.6100477 551.451200
   2653   2647   5667     1   123.0500530 620.905600
   2654   2649   5697     1   123.0500530 620.905600
   2669   2670   2672     1   114.2100488 537.225600
   2669   2671   2674     1   114.2100488 537.225600
   2669   2676   2677     1   114.2100488 537.225600
   2670   2669   2671     1   109.6600471 523.836800
   2670   2669   2676     1   109.6600471 523.836800
   2670   2672   2673     1   111.0400475 529.694400
   2671   2669   2676     1   109.6600471 523.836800
   2671   2674   2675     1   111.0400475 529.694400
   2672   2673   5727     1   115.1800491 558.982400
   2672   2673   2679     1   123.2000528 564.003200
   2673   5727   5729     1   120.6900519 530.531200
   2674   2675   2680     1   123.2000528 564.003200
   2674   2675   5757     1   115.1800491 558.982400
   2675   5757   5759     1   120.6900519 530.531200
   2676   2677   2678     1   111.6100477 551.451200
   2679   2673   5727     1   123.0500530 620.905600
   2680   2675   5757     1   123.0500530 620.905600
   2695   2696   2698     1   114.2100488 537.225600
   2695   2697   2700     1   114.2100488 537.225600
   2695   2702   2703     1   114.2100488 537.225600
   2696   2695   2697     1   109.6600471 523.836800
   2696   2695   2702     1   109.6600471 523.836800
   2696   2698   2699     1   111.0400475 529.694400
   2697   2695   2702     1   109.6600471 523.836800
   2697   2700   2701     1   111.0400475 529.694400
   2698   2699   5787     1   115.1800491 558.982400
   2698   2699   2705     1   123.2000528 564.003200
   2699   5787   5789     1   120.6900519 530.531200
   2700   2701   2706     1   123.2000528 564.003200
   2700   2701   5817     1   115.1800491 558.982400
   2701   5817   5819     1   120.6900519 530.531200
   2702   2703   2704     1   111.6100477 551.451200
   2705   2699   5787     1   123.0500530 620.905600
   2706   2701   5817     1   123.0500530 620.905600
   2721   2722   2724     1   114.2100488 537.225600
   2721   2723   2726     1   114.2100488 537.225600
   2721   2728   2729     1   114.2100488 537.225600
   2722   2721   2723     1   109.6600471 523.836800
   2722   2721   2728     1   109.6600471 523.836800
   2722   2724   2725     1   111.0400475 529.694400
   2723   2721   2728     1   109.6600471 523.836800
   2723   2726   2727     1   111.0400475 529.694400
   2724   2725   5847     1   115.1800491 558.982400
   2724   2725   2731     1   123.2000528 564.003200
   2725   5847   5849     1   120.6900519 530.531200
   2726   2727   2732     1   123.2000528 564.003200
   2726   2727   5877     1   115.1800491 558.982400
   2727   5877   5879     1   120.6900519 530.531200
   2728   2729   2730     1   111.6100477 551.451200
   2731   2725   5847     1   123.0500530 620.905600
   2732   2727   5877     1   123.0500530 620.905600
   2747   2748   2750     1   114.2100488 537.225600
   2747   2749   2752     1   114.2100488 537.225600
   2747   2754   2755     1   114.2100488 537.225600
   2748   2747   2749     1   109.6600471 523.836800
   2748   2747   2754     1   109.6600471 523.836800
   2748   2750   2751     1   111.0400475 529.694400
   2749   2747   2754     1   109.6600471 523.836800
   2749   2752   2753     1   111.0400475 529.694400
   2750   2751   5907     1   115.1800491 558.982400
   2750   2751   2757     1   123.2000528 564.003200
   2751   5907   5909     1   120.6900519 530.531200
   2752   2753   2758     1   123.2000528 564.003200
   2752   2753   5937     1   115.1800491 558.982400
   2753   5937   5939     1   120.6900519 530.531200
   2754   2755   2756     1   111.6100477 551.451200
   2757   2751   5907     1   123.0500530 620.905600
   2758   2753   5937     1   123.0500530 620.905600
   2773   2774   2776     1   114.2100488 537.225600
   2773   2775   2778     1   114.2100488 537.225600
   2773   2780   2781     1   114.2100488 537.225600
   2774   2773   2775     1   109.6600471 523.836800
   2774   2773   2780     1   109.6600471 523.836800
   2774   2776   2777     1   111.0400475 529.694400
   2775   2773   2780     1   109.6600471 523.836800
   2775   2778   2779     1   111.0400475 529.694400
   2776   2777   5967     1   115.1800491 558.982400
   2776   2777   2783     1   123.2000528 564.003200
   2777   5967   5969     1   120.6900519 530.531200
   2778   2779   2784     1   123.2000528 564.003200
   2778   2779   5997     1   115.1800491 558.982400
   2779   5997   5999     1   120.6900519 530.531200
   2780   2781   2782     1   111.6100477 551.451200
   2783   2777   5967     1   123.0500530 620.905600
   2784   2779   5997     1   123.0500530 620.905600
   2799   2800   2802     1   114.2100488 537.225600
   2799   2801   2804     1   114.2100488 537.225600
   2799   2806   2807     1   114.2100488 537.225600
   2800   2799   2801     1   109.6600471 523.836800
   2800   2799   2806     1   109.6600471 523.836800
   2800   2802   2803     1   111.0400475 529.694400
   2801   2799   2806     1   109.6600471 523.836800
   2801   2804   2805     1   111.0400475 529.694400
   2802   2803   6027     1   115.1800491 558.982400
   2802   2803   2809     1   123.2000528 564.003200
   2803   6027   6029     1   120.6900519 530.531200
   2804   2805   2810     1   123.2000528 564.003200
   2804   2805   6057     1   115.1800491 558.982400
   2805   6057   6059     1   120.6900519 530.531200
   2806   2807   2808     1   111.6100477 551.451200
   2809   2803   6027     1   123.0500530 620.905600
   2810   2805   6057     1   123.0500530 620.905600
   2825   2826   2828     1   114.2100488 537.225600
   2825   2827   2830     1   114.2100488 537.225600
   2825   2832   2833     1   114.2100488 537.225600
   2826   2825   2827     1   109.6600471 523.836800
   2826   2825   2832     1   109.6600471 523.836800
   2826   2828   2829     1   111.0400475 529.694400
   2827   2825   2832     1   109.6600471 523.836800
   2827   2830   2831     1   111.0400475 529.694400
   2828   2829   6087     1   115.1800491 558.982400
   2828   2829   2835     1   123.2000528 564.003200
   2829   6087   6089     1   120.6900519 530.531200
   2830   2831   2836     1   123.2000528 564.003200
   2830   2831   6117     1   115.1800491 558.982400
   2831   6117   6119     1   120.6900519 530.531200
   2832   2833   2834     1   111.6100477 551.451200
   2835   2829   6087     1   123.0500530 620.905600
   2836   2831   6117     1   123.0500530 620.905600
   2851   2852   2854     1   114.2100488 537.225600
   2851   2853   2856     1   114.2100488 537.225600
   2851   2858   2859     1   114.2100488 537.225600
   2852   2851   2853     1   109.6600471 523.836800
   2852   2851   2858     1   109.6600471 523.836800
   2852   2854   2855     1   111.0400475 529.694400
   2853   2851   2858     1   109.6600471 523.836800
   2853   2856   2857     1   111.0400475 529.694400
   2854   2855   6147     1   115.1800491 558.982400
   2854   2855   2861     1   123.2000528 564.003200
   2855   6147   6149     1   120.6900519 530.531200
   2856   2857   2862     1   123.2000528 564.003200
   2856   2857   6177     1   115.1800491 558.982400
   2857   6177   6179     1   120.6900519 530.531200
   2858   2859   2860     1   111.6100477 551.451200
   2861   2855   6147     1   123.0500530 620.905600
   2862   2857   6177     1   123.0500530 620.905600
   2877   2878   2880     1   114.2100488 537.225600
   2877   2879   2882     1   114.2100488 537.225600
   2877   2884   2885     1   114.2100488 537.225600
   2878   2877   2879     1   109.6600471 523.836800
   2878   2877   2884     1   109.6600471 523.836800
   2878   2880   2881     1   111.0400475 529.694400
   2879   2877   2884     1   109.6600471 523.836800
   2879   2882   2883     1   111.0400475 529.694400
   2880   2881   6207     1   115.1800491 558.982400
   2880   2881   2887     1   123.2000528 564.003200
   2881   6207   6209     1   120.6900519 530.531200
   2882   2883   2888     1   123.2000528 564.003200
   2882   2883   6237     1   115.1800491 558.982400
   2883   6237   6239     1   120.6900519 530.531200
   2884   2885   2886     1   111.6100477 551.451200
   2887   2881   6207     1   123.0500530 620.905600
   2888   2883   6237     1   123.0500530 620.905600
   2903   2904   2906     1   114.2100488 537.225600
   2903   2905   2908     1   114.2100488 537.225600
   2903   2910   2911     1   114.2100488 537.225600
   2904   2903   2905     1   109.6600471 523.836800
   2904   2903   2910     1   109.6600471 523.836800
   2904   2906   2907     1   111.0400475 529.694400
   2905   2903   2910     1   109.6600471 523.836800
   2905   2908   2909     1   111.0400475 529.694400
   2906   2907   6267     1   115.1800491 558.982400
   2906   2907   2913     1   123.2000528 564.003200
   2907   6267   6269     1   120.6900519 530.531200
   2908   2909   2914     1   123.2000528 564.003200
   2908   2909   6297     1   115.1800491 558.982400
   2909   6297   6299     1   120.6900519 530.531200
   2910   2911   2912     1   111.6100477 551.451200
   2913   2907   6267     1   123.0500530 620.905600
   2914   2909   6297     1   123.0500530 620.905600
   2929   2930   2932     1   114.2100488 537.225600
   2929   2931   2934     1   114.2100488 537.225600
   2929   2936   2937     1   114.2100488 537.225600
   2930   2929   2931     1   109.6600471 523.836800
   2930   2929   2936     1   109.6600471 523.836800
   2930   2932   2933     1   111.0400475 529.694400
   2931   2929   2936     1   109.6600471 523.836800
   2931   2934   2935     1   111.0400475 529.694400
   2932   2933   6327     1   115.1800491 558.982400
   2932   2933   2939     1   123.2000528 564.003200
   2933   6327   6329     1   120.6900519 530.531200
   2934   2935   2940     1   123.2000528 564.003200
   2934   2935   6357     1   115.1800491 558.982400
   2935   6357   6359     1   120.6900519 530.531200
   2936   2937   2938     1   111.6100477 551.451200
   2939   2933   6327     1   123.0500530 620.905600
   2940   2935   6357     1   123.0500530 620.905600
   2955   2956   2958     1   114.2100488 537.225600
   2955   2957   2960     1   114.2100488 537.225600
   2955   2962   2963     1   114.2100488 537.225600
   2956   2955   2957     1   109.6600471 523.836800
   2956   2955   2962     1   109.6600471 523.836800
   2956   2958   2959     1   111.0400475 529.694400
   2957   2955   2962     1   109.6600471 523.836800
   2957   2960   2961     1   111.0400475 529.694400
   2958   2959   6387     1   115.1800491 558.982400
   2958   2959   2965     1   123.2000528 564.003200
   2959   6387   6389     1   120.6900519 530.531200
   2960   2961   2966     1   123.2000528 564.003200
   2960   2961   6417     1   115.1800491 558.982400
   2961   6417   6419     1   120.6900519 530.531200
   2962   2963   2964     1   111.6100477 551.451200
   2965   2959   6387     1   123.0500530 620.905600
   2966   2961   6417     1   123.0500530 620.905600
   2981   2982   2984     1   114.2100488 537.225600
   2981   2983   2986     1   114.2100488 537.225600
   2981   2988   2989     1   114.2100488 537.225600
   2982   2981   2983     1   109.6600471 523.836800
   2982   2981   2988     1   109.6600471 523.836800
   2982   2984   2985     1   111.0400475 529.694400
   2983   2981   2988     1   109.6600471 523.836800
   2983   2986   2987     1   111.0400475 529.694400
   2984   2985   6447     1   115.1800491 558.982400
   2984   2985   2991     1   123.2000528 564.003200
   2985   6447   6449     1   120.6900519 530.531200
   2986   2987   2992     1   123.2000528 564.003200
   2986   2987   6477     1   115.1800491 558.982400
   2987   6477   6479     1   120.6900519 530.531200
   2988   2989   2990     1   111.6100477 551.451200
   2991   2985   6447     1   123.0500530 620.905600
   2992   2987   6477     1   123.0500530 620.905600
   3007   3008   3010     1   114.2100488 537.225600
   3007   3009   3012     1   114.2100488 537.225600
   3007   3014   3015     1   114.2100488 537.225600
   3008   3007   3009     1   109.6600471 523.836800
   3008   3007   3014     1   109.6600471 523.836800
   3008   3010   3011     1   111.0400475 529.694400
   3009   3007   3014     1   109.6600471 523.836800
   3009   3012   3013     1   111.0400475 529.694400
   3010   3011   6507     1   115.1800491 558.982400
   3010   3011   3017     1   123.2000528 564.003200
   3011   6507   6509     1   120.6900519 530.531200
   3012   3013   3018     1   123.2000528 564.003200
   3012   3013   6537     1   115.1800491 558.982400
   3013   6537   6539     1   120.6900519 530.531200
   3014   3015   3016     1   111.6100477 551.451200
   3017   3011   6507     1   123.0500530 620.905600
   3018   3013   6537     1   123.0500530 620.905600
   3033   3034   3036     1   114.2100488 537.225600
   3033   3035   3038     1   114.2100488 537.225600
   3033   3040   3041     1   114.2100488 537.225600
   3034   3033   3035     1   109.6600471 523.836800
   3034   3033   3040     1   109.6600471 523.836800
   3034   3036   3037     1   111.0400475 529.694400
   3035   3033   3040     1   109.6600471 523.836800
   3035   3038   3039     1   111.0400475 529.694400
   3036   3037   6567     1   115.1800491 558.982400
   3036   3037   3043     1   123.2000528 564.003200
   3037   6567   6569     1   120.6900519 530.531200
   3038   3039   3044     1   123.2000528 564.003200
   3038   3039   6597     1   115.1800491 558.982400
   3039   6597   6599     1   120.6900519 530.531200
   3040   3041   3042     1   111.6100477 551.451200
   3043   3037   6567     1   123.0500530 620.905600
   3044   3039   6597     1   123.0500530 620.905600
   3059   3060   3062     1   114.2100488 537.225600
   3059   3061   3064     1   114.2100488 537.225600
   3059   3066   3067     1   114.2100488 537.225600
   3060   3059   3061     1   109.6600471 523.836800
   3060   3059   3066     1   109.6600471 523.836800
   3060   3062   3063     1   111.0400475 529.694400
   3061   3059   3066     1   109.6600471 523.836800
   3061   3064   3065     1   111.0400475 529.694400
   3062   3063   6627     1   115.1800491 558.982400
   3062   3063   3069     1   123.2000528 564.003200
   3063   6627   6629     1   120.6900519 530.531200
   3064   3065   3070     1   123.2000528 564.003200
   3064   3065   6657     1   115.1800491 558.982400
   3065   6657   6659     1   120.6900519 530.531200
   3066   3067   3068     1   111.6100477 551.451200
   3069   3063   6627     1   123.0500530 620.905600
   3070   3065   6657     1   123.0500530 620.905600
   3085   3086   3088     1   114.2100488 537.225600
   3085   3087   3090     1   114.2100488 537.225600
   3085   3092   3093     1   114.2100488 537.225600
   3086   3085   3087     1   109.6600471 523.836800
   3086   3085   3092     1   109.6600471 523.836800
   3086   3088   3089     1   111.0400475 529.694400
   3087   3085   3092     1   109.6600471 523.836800
   3087   3090   3091     1   111.0400475 529.694400
   3088   3089   6687     1   115.1800491 558.982400
   3088   3089   3095     1   123.2000528 564.003200
   3089   6687   6689     1   120.6900519 530.531200
   3090   3091   3096     1   123.2000528 564.003200
   3090   3091   6717     1   115.1800491 558.982400
   3091   6717   6719     1   120.6900519 530.531200
   3092   3093   3094     1   111.6100477 551.451200
   3095   3089   6687     1   123.0500530 620.905600
   3096   3091   6717     1   123.0500530 620.905600
   3111   3112   3114     1   114.2100488 537.225600
   3111   3113   3116     1   114.2100488 537.225600
   3111   3118   3119     1   114.2100488 537.225600
   3112   3111   3113     1   109.6600471 523.836800
   3112   3111   3118     1   109.6600471 523.836800
   3112   3114   3115     1   111.0400475 529.694400
   3113   3111   3118     1   109.6600471 523.836800
   3113   3116   3117     1   111.0400475 529.694400
   3114   3115   6747     1   115.1800491 558.982400
   3114   3115   3121     1   123.2000528 564.003200
   3115   6747   6749     1   120.6900519 530.531200
   3116   3117   3122     1   123.2000528 564.003200
   3116   3117   6777     1   115.1800491 558.982400
   3117   6777   6779     1   120.6900519 530.531200
   3118   3119   3120     1   111.6100477 551.451200
   3121   3115   6747     1   123.0500530 620.905600
   3122   3117   6777     1   123.0500530 620.905600
   3137   3138   3140     1   114.2100488 537.225600
   3137   3139   3142     1   114.2100488 537.225600
   3137   3144   3145     1   114.2100488 537.225600
   3138   3137   3139     1   109.6600471 523.836800
   3138   3137   3144     1   109.6600471 523.836800
   3138   3140   3141     1   111.0400475 529.694400
   3139   3137   3144     1   109.6600471 523.836800
   3139   3142   3143     1   111.0400475 529.694400
   3140   3141   6807     1   115.1800491 558.982400
   3140   3141   3147     1   123.2000528 564.003200
   3141   6807   6809     1   120.6900519 530.531200
   3142   3143   3148     1   123.2000528 564.003200
   3142   3143   6837     1   115.1800491 558.982400
   3143   6837   6839     1   120.6900519 530.531200
   3144   3145   3146     1   111.6100477 551.451200
   3147   3141   6807     1   123.0500530 620.905600
   3148   3143   6837     1   123.0500530 620.905600
   3163   3164   3166     1   114.2100488 537.225600
   3163   3165   3168     1   114.2100488 537.225600
   3163   3170   3171     1   114.2100488 537.225600
   3164   3163   3165     1   109.6600471 523.836800
   3164   3163   3170     1   109.6600471 523.836800
   3164   3166   3167     1   111.0400475 529.694400
   3165   3163   3170     1   109.6600471 523.836800
   3165   3168   3169     1   111.0400475 529.694400
   3166   3167   6867     1   115.1800491 558.982400
   3166   3167   3173     1   123.2000528 564.003200
   3167   6867   6869     1   120.6900519 530.531200
   3168   3169   3174     1   123.2000528 564.003200
   3168   3169   6897     1   115.1800491 558.982400
   3169   6897   6899     1   120.6900519 530.531200
   3170   3171   3172     1   111.6100477 551.451200
   3173   3167   6867     1   123.0500530 620.905600
   3174   3169   6897     1   123.0500530 620.905600
   3189   3190   3192     1   114.2100488 537.225600
   3189   3191   3194     1   114.2100488 537.225600
   3189   3196   3197     1   114.2100488 537.225600
   3190   3189   3191     1   109.6600471 523.836800
   3190   3189   3196     1   109.6600471 523.836800
   3190   3192   3193     1   111.0400475 529.694400
   3191   3189   3196     1   109.6600471 523.836800
   3191   3194   3195     1   111.0400475 529.694400
   3192   3193   6927     1   115.1800491 558.982400
   3192   3193   3199     1   123.2000528 564.003200
   3193   6927   6929     1   120.6900519 530.531200
   3194   3195   3200     1   123.2000528 564.003200
   3194   3195   6957     1   115.1800491 558.982400
   3195   6957   6959     1   120.6900519 530.531200
   3196   3197   3198     1   111.6100477 551.451200
   3199   3193   6927     1   123.0500530 620.905600
   3200   3195   6957     1   123.0500530 620.905600
   3215   3216   3218     1   114.2100488 537.225600
   3215   3217   3220     1   114.2100488 537.225600
   3215   3222   3223     1   114.2100488 537.225600
   3216   3215   3217     1   109.6600471 523.836800
   3216   3215   3222     1   109.6600471 523.836800
   3216   3218   3219     1   111.0400475 529.694400
   3217   3215   3222     1   109.6600471 523.836800
   3217   3220   3221     1   111.0400475 529.694400
   3218   3219   6987     1   115.1800491 558.982400
   3218   3219   3225     1   123.2000528 564.003200
   3219   6987   6989     1   120.6900519 530.531200
   3220   3221   3226     1   123.2000528 564.003200
   3220   3221   7017     1   115.1800491 558.982400
   3221   7017   7019     1   120.6900519 530.531200
   3222   3223   3224     1   111.6100477 551.451200
   3225   3219   6987     1   123.0500530 620.905600
   3226   3221   7017     1   123.0500530 620.905600
   3241   3242   3244     1   114.2100488 537.225600
   3241   3243   3246     1   114.2100488 537.225600
   3241   3248   3249     1   114.2100488 537.225600
   3242   3241   3243     1   109.6600471 523.836800
   3242   3241   3248     1   109.6600471 523.836800
   3242   3244   3245     1   111.0400475 529.694400
   3243   3241   3248     1   109.6600471 523.836800
   3243   3246   3247     1   111.0400475 529.694400
   3244   3245   7047     1   115.1800491 558.982400
   3244   3245   3251     1   123.2000528 564.003200
   3245   7047   7049     1   120.6900519 530.531200
   3246   3247   7077     1   115.1800491 558.982400
   3246   3247   3252     1   123.2000528 564.003200
   3247   7077   7079     1   120.6900519 530.531200
   3248   3249   3250     1   111.6100477 551.451200
   3251   3245   7047     1   123.0500530 620.905600
   3252   3247   7077     1   123.0500530 620.905600
   3267   3269   3271     1   111.6100477 551.451200
   3269   3271   3275     1   114.2100488 537.225600
   3271   3275   3276     1   109.6600471 523.836800
   3271   3275   3277     1   109.6600471 523.836800
   3275   3276   3288     1   114.2100488 537.225600
   3275   3277   3279     1   114.2100488 537.225600
   3276   3275   3277     1   109.6600471 523.836800
   3276   3288   3291     1   111.0400475 529.694400
   3277   3279   3283     1   111.0400475 529.694400
   3279   3283   3284     1   112.7300484 572.371200
   3279   3283   3285     1   123.2000528 564.003200
   3284   3283   3285     1   122.1000523 635.131200
   3288   3291   3292     1   123.2000528 564.003200
   3288   3291   3293     1   112.7300484 572.371200
   3292   3291   3293     1   122.1000523 635.131200
   3297   3299   3301     1   111.6100477 551.451200
   3299   3301   3305     1   114.2100488 537.225600
   3301   3305   3306     1   109.6600471 523.836800
   3301   3305   3307     1   109.6600471 523.836800
   3305   3306   3318     1   114.2100488 537.225600
   3305   3307   3309     1   114.2100488 537.225600
   3306   3318   3321     1   111.0400475 529.694400
   3306   3305   3307     1   109.6600471 523.836800
   3307   3309   3313     1   111.0400475 529.694400
   3309   3313   3314     1   112.7300484 572.371200
   3309   3313   3315     1   123.2000528 564.003200
   3314   3313   3315     1   122.1000523 635.131200
   3318   3321   3322     1   123.2000528 564.003200
   3318   3321   3323     1   112.7300484 572.371200
   3322   3321   3323     1   122.1000523 635.131200
   3327   3329   3331     1   111.6100477 551.451200
   3329   3331   3335     1   114.2100488 537.225600
   3331   3335   3336     1   109.6600471 523.836800
   3331   3335   3337     1   109.6600471 523.836800
   3335   3336   3348     1   114.2100488 537.225600
   3335   3337   3339     1   114.2100488 537.225600
   3336   3335   3337     1   109.6600471 523.836800
   3336   3348   3351     1   111.0400475 529.694400
   3337   3339   3343     1   111.0400475 529.694400
   3339   3343   3344     1   112.7300484 572.371200
   3339   3343   3345     1   123.2000528 564.003200
   3344   3343   3345     1   122.1000523 635.131200
   3348   3351   3352     1   123.2000528 564.003200
   3348   3351   3353     1   112.7300484 572.371200
   3352   3351   3353     1   122.1000523 635.131200
   3357   3359   3361     1   111.6100477 551.451200
   3359   3361   3365     1   114.2100488 537.225600
   3361   3365   3366     1   109.6600471 523.836800
   3361   3365   3367     1   109.6600471 523.836800
   3365   3366   3378     1   114.2100488 537.225600
   3365   3367   3369     1   114.2100488 537.225600
   3366   3378   3381     1   111.0400475 529.694400
   3366   3365   3367     1   109.6600471 523.836800
   3367   3369   3373     1   111.0400475 529.694400
   3369   3373   3374     1   112.7300484 572.371200
   3369   3373   3375     1   123.2000528 564.003200
   3374   3373   3375     1   122.1000523 635.131200
   3378   3381   3382     1   123.2000528 564.003200
   3378   3381   3383     1   112.7300484 572.371200
   3382   3381   3383     1   122.1000523 635.131200
   3387   3389   3391     1   111.6100477 551.451200
   3389   3391   3395     1   114.2100488 537.225600
   3391   3395   3396     1   109.6600471 523.836800
   3391   3395   3397     1   109.6600471 523.836800
   3395   3396   3408     1   114.2100488 537.225600
   3395   3397   3399     1   114.2100488 537.225600
   3396   3395   3397     1   109.6600471 523.836800
   3396   3408   3411     1   111.0400475 529.694400
   3397   3399   3403     1   111.0400475 529.694400
   3399   3403   3404     1   112.7300484 572.371200
   3399   3403   3405     1   123.2000528 564.003200
   3404   3403   3405     1   122.1000523 635.131200
   3408   3411   3412     1   123.2000528 564.003200
   3408   3411   3413     1   112.7300484 572.371200
   3412   3411   3413     1   122.1000523 635.131200
   3417   3419   3421     1   111.6100477 551.451200
   3419   3421   3425     1   114.2100488 537.225600
   3421   3425   3426     1   109.6600471 523.836800
   3421   3425   3427     1   109.6600471 523.836800
   3425   3426   3438     1   114.2100488 537.225600
   3425   3427   3429     1   114.2100488 537.225600
   3426   3438   3441     1   111.0400475 529.694400
   3426   3425   3427     1   109.6600471 523.836800
   3427   3429   3433     1   111.0400475 529.694400
   3429   3433   3434     1   112.7300484 572.371200
   3429   3433   3435     1   123.2000528 564.003200
   3434   3433   3435     1   122.1000523 635.131200
   3438   3441   3442     1   123.2000528 564.003200
   3438   3441   3443     1   112.7300484 572.371200
   3442   3441   3443     1   122.1000523 635.131200
   3447   3449   3451     1   111.6100477 551.451200
   3449   3451   3455     1   114.2100488 537.225600
   3451   3455   3456     1   109.6600471 523.836800
   3451   3455   3457     1   109.6600471 523.836800
   3455   3456   3468     1   114.2100488 537.225600
   3455   3457   3459     1   114.2100488 537.225600
   3456   3455   3457     1   109.6600471 523.836800
   3456   3468   3471     1   111.0400475 529.694400
   3457   3459   3463     1   111.0400475 529.694400
   3459   3463   3464     1   112.7300484 572.371200
   3459   3463   3465     1   123.2000528 564.003200
   3464   3463   3465     1   122.1000523 635.131200
   3468   3471   3472     1   123.2000528 564.003200
   3468   3471   3473     1   112.7300484 572.371200
   3472   3471   3473     1   122.1000523 635.131200
   3477   3479   3481     1   111.6100477 551.451200
   3479   3481   3485     1   114.2100488 537.225600
   3481   3485   3486     1   109.6600471 523.836800
   3481   3485   3487     1   109.6600471 523.836800
   3485   3486   3498     1   114.2100488 537.225600
   3485   3487   3489     1   114.2100488 537.225600
   3486   3498   3501     1   111.0400475 529.694400
   3486   3485   3487     1   109.6600471 523.836800
   3487   3489   3493     1   111.0400475 529.694400
   3489   3493   3494     1   112.7300484 572.371200
   3489   3493   3495     1   123.2000528 564.003200
   3494   3493   3495     1   122.1000523 635.131200
   3498   3501   3502     1   123.2000528 564.003200
   3498   3501   3503     1   112.7300484 572.371200
   3502   3501   3503     1   122.1000523 635.131200
   3507   3509   3511     1   111.6100477 551.451200
   3509   3511   3515     1   114.2100488 537.225600
   3511   3515   3516     1   109.6600471 523.836800
   3511   3515   3517     1   109.6600471 523.836800
   3515   3516   3528     1   114.2100488 537.225600
   3515   3517   3519     1   114.2100488 537.225600
   3516   3515   3517     1   109.6600471 523.836800
   3516   3528   3531     1   111.0400475 529.694400
   3517   3519   3523     1   111.0400475 529.694400
   3519   3523   3524     1   112.7300484 572.371200
   3519   3523   3525     1   123.2000528 564.003200
   3524   3523   3525     1   122.1000523 635.131200
   3528   3531   3532     1   123.2000528 564.003200
   3528   3531   3533     1   112.7300484 572.371200
   3532   3531   3533     1   122.1000523 635.131200
   3537   3539   3541     1   111.6100477 551.451200
   3539   3541   3545     1   114.2100488 537.225600
   3541   3545   3546     1   109.6600471 523.836800
   3541   3545   3547     1   109.6600471 523.836800
   3545   3546   3558     1   114.2100488 537.225600
   3545   3547   3549     1   114.2100488 537.225600
   3546   3558   3561     1   111.0400475 529.694400
   3546   3545   3547     1   109.6600471 523.836800
   3547   3549   3553     1   111.0400475 529.694400
   3549   3553   3554     1   112.7300484 572.371200
   3549   3553   3555     1   123.2000528 564.003200
   3554   3553   3555     1   122.1000523 635.131200
   3558   3561   3562     1   123.2000528 564.003200
   3558   3561   3563     1   112.7300484 572.371200
   3562   3561   3563     1   122.1000523 635.131200
   3567   3569   3571     1   111.6100477 551.451200
   3569   3571   3575     1   114.2100488 537.225600
   3571   3575   3576     1   109.6600471 523.836800
   3571   3575   3577     1   109.6600471 523.836800
   3575   3576   3588     1   114.2100488 537.225600
   3575   3577   3579     1   114.2100488 537.225600
   3576   3575   3577     1   109.6600471 523.836800
   3576   3588   3591     1   111.0400475 529.694400
   3577   3579   3583     1   111.0400475 529.694400
   3579   3583   3584     1   112.7300484 572.371200
   3579   3583   3585     1   123.2000528 564.003200
   3584   3583   3585     1   122.1000523 635.131200
   3588   3591   3592     1   123.2000528 564.003200
   3588   3591   3593     1   112.7300484 572.371200
   3592   3591   3593     1   122.1000523 635.131200
   3597   3599   3601     1   111.6100477 551.451200
   3599   3601   3605     1   114.2100488 537.225600
   3601   3605   3606     1   109.6600471 523.836800
   3601   3605   3607     1   109.6600471 523.836800
   3605   3606   3618     1   114.2100488 537.225600
   3605   3607   3609     1   114.2100488 537.225600
   3606   3618   3621     1   111.0400475 529.694400
   3606   3605   3607     1   109.6600471 523.836800
   3607   3609   3613     1   111.0400475 529.694400
   3609   3613   3614     1   112.7300484 572.371200
   3609   3613   3615     1   123.2000528 564.003200
   3614   3613   3615     1   122.1000523 635.131200
   3618   3621   3622     1   123.2000528 564.003200
   3618   3621   3623     1   112.7300484 572.371200
   3622   3621   3623     1   122.1000523 635.131200
   3627   3629   3631     1   111.6100477 551.451200
   3629   3631   3635     1   114.2100488 537.225600
   3631   3635   3636     1   109.6600471 523.836800
   3631   3635   3637     1   109.6600471 523.836800
   3635   3636   3648     1   114.2100488 537.225600
   3635   3637   3639     1   114.2100488 537.225600
   3636   3635   3637     1   109.6600471 523.836800
   3636   3648   3651     1   111.0400475 529.694400
   3637   3639   3643     1   111.0400475 529.694400
   3639   3643   3644     1   112.7300484 572.371200
   3639   3643   3645     1   123.2000528 564.003200
   3644   3643   3645     1   122.1000523 635.131200
   3648   3651   3652     1   123.2000528 564.003200
   3648   3651   3653     1   112.7300484 572.371200
   3652   3651   3653     1   122.1000523 635.131200
   3657   3659   3661     1   111.6100477 551.451200
   3659   3661   3665     1   114.2100488 537.225600
   3661   3665   3666     1   109.6600471 523.836800
   3661   3665   3667     1   109.6600471 523.836800
   3665   3666   3678     1   114.2100488 537.225600
   3665   3667   3669     1   114.2100488 537.225600
   3666   3678   3681     1   111.0400475 529.694400
   3666   3665   3667     1   109.6600471 523.836800
   3667   3669   3673     1   111.0400475 529.694400
   3669   3673   3674     1   112.7300484 572.371200
   3669   3673   3675     1   123.2000528 564.003200
   3674   3673   3675     1   122.1000523 635.131200
   3678   3681   3682     1   123.2000528 564.003200
   3678   3681   3683     1   112.7300484 572.371200
   3682   3681   3683     1   122.1000523 635.131200
   3687   3689   3691     1   111.6100477 551.451200
   3689   3691   3695     1   114.2100488 537.225600
   3691   3695   3696     1   109.6600471 523.836800
   3691   3695   3697     1   109.6600471 523.836800
   3695   3696   3708     1   114.2100488 537.225600
   3695   3697   3699     1   114.2100488 537.225600
   3696   3695   3697     1   109.6600471 523.836800
   3696   3708   3711     1   111.0400475 529.694400
   3697   3699   3703     1   111.0400475 529.694400
   3699   3703   3704     1   112.7300484 572.371200
   3699   3703   3705     1   123.2000528 564.003200
   3704   3703   3705     1   122.1000523 635.131200
   3708   3711   3712     1   123.2000528 564.003200
   3708   3711   3713     1   112.7300484 572.371200
   3712   3711   3713     1   122.1000523 635.131200
   3717   3719   3721     1   111.6100477 551.451200
   3719   3721   3725     1   114.2100488 537.225600
   3721   3725   3726     1   109.6600471 523.836800
   3721   3725   3727     1   109.6600471 523.836800
   3725   3726   3738     1   114.2100488 537.225600
   3725   3727   3729     1   114.2100488 537.225600
   3726   3738   3741     1   111.0400475 529.694400
   3726   3725   3727     1   109.6600471 523.836800
   3727   3729   3733     1   111.0400475 529.694400
   3729   3733   3734     1   112.7300484 572.371200
   3729   3733   3735     1   123.2000528 564.003200
   3734   3733   3735     1   122.1000523 635.131200
   3738   3741   3742     1   123.2000528 564.003200
   3738   3741   3743     1   112.7300484 572.371200
   3742   3741   3743     1   122.1000523 635.131200
   3747   3749   3751     1   111.6100477 551.451200
   3749   3751   3755     1   114.2100488 537.225600
   3751   3755   3756     1   109.6600471 523.836800
   3751   3755   3757     1   109.6600471 523.836800
   3755   3756   3768     1   114.2100488 537.225600
   3755   3757   3759     1   114.2100488 537.225600
   3756   3755   3757     1   109.6600471 523.836800
   3756   3768   3771     1   111.0400475 529.694400
   3757   3759   3763     1   111.0400475 529.694400
   3759   3763   3764     1   112.7300484 572.371200
   3759   3763   3765     1   123.2000528 564.003200
   3764   3763   3765     1   122.1000523 635.131200
   3768   3771   3772     1   123.2000528 564.003200
   3768   3771   3773     1   112.7300484 572.371200
   3772   3771   3773     1   122.1000523 635.131200
   3777   3779   3781     1   111.6100477 551.451200
   3779   3781   3785     1   114.2100488 537.225600
   3781   3785   3786     1   109.6600471 523.836800
   3781   3785   3787     1   109.6600471 523.836800
   3785   3786   3798     1   114.2100488 537.225600
   3785   3787   3789     1   114.2100488 537.225600
   3786   3798   3801     1   111.0400475 529.694400
   3786   3785   3787     1   109.6600471 523.836800
   3787   3789   3793     1   111.0400475 529.694400
   3789   3793   3794     1   112.7300484 572.371200
   3789   3793   3795     1   123.2000528 564.003200
   3794   3793   3795     1   122.1000523 635.131200
   3798   3801   3802     1   123.2000528 564.003200
   3798   3801   3803     1   112.7300484 572.371200
   3802   3801   3803     1   122.1000523 635.131200
   3807   3809   3811     1   111.6100477 551.451200
   3809   3811   3815     1   114.2100488 537.225600
   3811   3815   3816     1   109.6600471 523.836800
   3811   3815   3817     1   109.6600471 523.836800
   3815   3816   3828     1   114.2100488 537.225600
   3815   3817   3819     1   114.2100488 537.225600
   3816   3815   3817     1   109.6600471 523.836800
   3816   3828   3831     1   111.0400475 529.694400
   3817   3819   3823     1   111.0400475 529.694400
   3819   3823   3824     1   112.7300484 572.371200
   3819   3823   3825     1   123.2000528 564.003200
   3824   3823   3825     1   122.1000523 635.131200
   3828   3831   3832     1   123.2000528 564.003200
   3828   3831   3833     1   112.7300484 572.371200
   3832   3831   3833     1   122.1000523 635.131200
   3837   3839   3841     1   111.6100477 551.451200
   3839   3841   3845     1   114.2100488 537.225600
   3841   3845   3846     1   109.6600471 523.836800
   3841   3845   3847     1   109.6600471 523.836800
   3845   3846   3858     1   114.2100488 537.225600
   3845   3847   3849     1   114.2100488 537.225600
   3846   3858   3861     1   111.0400475 529.694400
   3846   3845   3847     1   109.6600471 523.836800
   3847   3849   3853     1   111.0400475 529.694400
   3849   3853   3854     1   112.7300484 572.371200
   3849   3853   3855     1   123.2000528 564.003200
   3854   3853   3855     1   122.1000523 635.131200
   3858   3861   3862     1   123.2000528 564.003200
   3858   3861   3863     1   112.7300484 572.371200
   3862   3861   3863     1   122.1000523 635.131200
   3867   3869   3871     1   111.6100477 551.451200
   3869   3871   3875     1   114.2100488 537.225600
   3871   3875   3876     1   109.6600471 523.836800
   3871   3875   3877     1   109.6600471 523.836800
   3875   3876   3888     1   114.2100488 537.225600
   3875   3877   3879     1   114.2100488 537.225600
   3876   3875   3877     1   109.6600471 523.836800
   3876   3888   3891     1   111.0400475 529.694400
   3877   3879   3883     1   111.0400475 529.694400
   3879   3883   3884     1   112.7300484 572.371200
   3879   3883   3885     1   123.2000528 564.003200
   3884   3883   3885     1   122.1000523 635.131200
   3888   3891   3892     1   123.2000528 564.003200
   3888   3891   3893     1   112.7300484 572.371200
   3892   3891   3893     1   122.1000523 635.131200
   3897   3899   3901     1   111.6100477 551.451200
   3899   3901   3905     1   114.2100488 537.225600
   3901   3905   3906     1   109.6600471 523.836800
   3901   3905   3907     1   109.6600471 523.836800
   3905   3906   3918     1   114.2100488 537.225600
   3905   3907   3909     1   114.2100488 537.225600
   3906   3918   3921     1   111.0400475 529.694400
   3906   3905   3907     1   109.6600471 523.836800
   3907   3909   3913     1   111.0400475 529.694400
   3909   3913   3914     1   112.7300484 572.371200
   3909   3913   3915     1   123.2000528 564.003200
   3914   3913   3915     1   122.1000523 635.131200
   3918   3921   3922     1   123.2000528 564.003200
   3918   3921   3923     1   112.7300484 572.371200
   3922   3921   3923     1   122.1000523 635.131200
   3927   3929   3931     1   111.6100477 551.451200
   3929   3931   3935     1   114.2100488 537.225600
   3931   3935   3936     1   109.6600471 523.836800
   3931   3935   3937     1   109.6600471 523.836800
   3935   3936   3948     1   114.2100488 537.225600
   3935   3937   3939     1   114.2100488 537.225600
   3936   3935   3937     1   109.6600471 523.836800
   3936   3948   3951     1   111.0400475 529.694400
   3937   3939   3943     1   111.0400475 529.694400
   3939   3943   3944     1   112.7300484 572.371200
   3939   3943   3945     1   123.2000528 564.003200
   3944   3943   3945     1   122.1000523 635.131200
   3948   3951   3952     1   123.2000528 564.003200
   3948   3951   3953     1   112.7300484 572.371200
   3952   3951   3953     1   122.1000523 635.131200
   3957   3959   3961     1   111.6100477 551.451200
   3959   3961   3965     1   114.2100488 537.225600
   3961   3965   3966     1   109.6600471 523.836800
   3961   3965   3967     1   109.6600471 523.836800
   3965   3966   3978     1   114.2100488 537.225600
   3965   3967   3969     1   114.2100488 537.225600
   3966   3978   3981     1   111.0400475 529.694400
   3966   3965   3967     1   109.6600471 523.836800
   3967   3969   3973     1   111.0400475 529.694400
   3969   3973   3974     1   112.7300484 572.371200
   3969   3973   3975     1   123.2000528 564.003200
   3974   3973   3975     1   122.1000523 635.131200
   3978   3981   3982     1   123.2000528 564.003200
   3978   3981   3983     1   112.7300484 572.371200
   3982   3981   3983     1   122.1000523 635.131200
   3987   3989   3991     1   111.6100477 551.451200
   3989   3991   3995     1   114.2100488 537.225600
   3991   3995   3996     1   109.6600471 523.836800
   3991   3995   3997     1   109.6600471 523.836800
   3995   3996   4008     1   114.2100488 537.225600
   3995   3997   3999     1   114.2100488 537.225600
   3996   3995   3997     1   109.6600471 523.836800
   3996   4008   4011     1   111.0400475 529.694400
   3997   3999   4003     1   111.0400475 529.694400
   3999   4003   4004     1   112.7300484 572.371200
   3999   4003   4005     1   123.2000528 564.003200
   4004   4003   4005     1   122.1000523 635.131200
   4008   4011   4012     1   123.2000528 564.003200
   4008   4011   4013     1   112.7300484 572.371200
   4012   4011   4013     1   122.1000523 635.131200
   4017   4019   4021     1   111.6100477 551.451200
   4019   4021   4025     1   114.2100488 537.225600
   4021   4025   4026     1   109.6600471 523.836800
   4021   4025   4027     1   109.6600471 523.836800
   4025   4026   4038     1   114.2100488 537.225600
   4025   4027   4029     1   114.2100488 537.225600
   4026   4038   4041     1   111.0400475 529.694400
   4026   4025   4027     1   109.6600471 523.836800
   4027   4029   4033     1   111.0400475 529.694400
   4029   4033   4034     1   112.7300484 572.371200
   4029   4033   4035     1   123.2000528 564.003200
   4034   4033   4035     1   122.1000523 635.131200
   4038   4041   4042     1   123.2000528 564.003200
   4038   4041   4043     1   112.7300484 572.371200
   4042   4041   4043     1   122.1000523 635.131200
   4047   4049   4051     1   111.6100477 551.451200
   4049   4051   4055     1   114.2100488 537.225600
   4051   4055   4056     1   109.6600471 523.836800
   4051   4055   4057     1   109.6600471 523.836800
   4055   4056   4068     1   114.2100488 537.225600
   4055   4057   4059     1   114.2100488 537.225600
   4056   4055   4057     1   109.6600471 523.836800
   4056   4068   4071     1   111.0400475 529.694400
   4057   4059   4063     1   111.0400475 529.694400
   4059   4063   4064     1   112.7300484 572.371200
   4059   4063   4065     1   123.2000528 564.003200
   4064   4063   4065     1   122.1000523 635.131200
   4068   4071   4072     1   123.2000528 564.003200
   4068   4071   4073     1   112.7300484 572.371200
   4072   4071   4073     1   122.1000523 635.131200
   4077   4079   4081     1   111.6100477 551.451200
   4079   4081   4085     1   114.2100488 537.225600
   4081   4085   4086     1   109.6600471 523.836800
   4081   4085   4087     1   109.6600471 523.836800
   4085   4086   4098     1   114.2100488 537.225600
   4085   4087   4089     1   114.2100488 537.225600
   4086   4098   4101     1   111.0400475 529.694400
   4086   4085   4087     1   109.6600471 523.836800
   4087   4089   4093     1   111.0400475 529.694400
   4089   4093   4094     1   112.7300484 572.371200
   4089   4093   4095     1   123.2000528 564.003200
   4094   4093   4095     1   122.1000523 635.131200
   4098   4101   4102     1   123.2000528 564.003200
   4098   4101   4103     1   112.7300484 572.371200
   4102   4101   4103     1   122.1000523 635.131200
   4107   4109   4111     1   111.6100477 551.451200
   4109   4111   4115     1   114.2100488 537.225600
   4111   4115   4116     1   109.6600471 523.836800
   4111   4115   4117     1   109.6600471 523.836800
   4115   4116   4128     1   114.2100488 537.225600
   4115   4117   4119     1   114.2100488 537.225600
   4116   4115   4117     1   109.6600471 523.836800
   4116   4128   4131     1   111.0400475 529.694400
   4117   4119   4123     1   111.0400475 529.694400
   4119   4123   4124     1   112.7300484 572.371200
   4119   4123   4125     1   123.2000528 564.003200
   4124   4123   4125     1   122.1000523 635.131200
   4128   4131   4132     1   123.2000528 564.003200
   4128   4131   4133     1   112.7300484 572.371200
   4132   4131   4133     1   122.1000523 635.131200
   4137   4139   4141     1   111.6100477 551.451200
   4139   4141   4145     1   114.2100488 537.225600
   4141   4145   4146     1   109.6600471 523.836800
   4141   4145   4147     1   109.6600471 523.836800
   4145   4146   4158     1   114.2100488 537.225600
   4145   4147   4149     1   114.2100488 537.225600
   4146   4158   4161     1   111.0400475 529.694400
   4146   4145   4147     1   109.6600471 523.836800
   4147   4149   4153     1   111.0400475 529.694400
   4149   4153   4154     1   112.7300484 572.371200
   4149   4153   4155     1   123.2000528 564.003200
   4154   4153   4155     1   122.1000523 635.131200
   4158   4161   4162     1   123.2000528 564.003200
   4158   4161   4163     1   112.7300484 572.371200
   4162   4161   4163     1   122.1000523 635.131200
   4167   4169   4171     1   111.6100477 551.451200
   4169   4171   4175     1   114.2100488 537.225600
   4171   4175   4176     1   109.6600471 523.836800
   4171   4175   4177     1   109.6600471 523.836800
   4175   4176   4188     1   114.2100488 537.225600
   4175   4177   4179     1   114.2100488 537.225600
   4176   4175   4177     1   109.6600471 523.836800
   4176   4188   4191     1   111.0400475 529.694400
   4177   4179   4183     1   111.0400475 529.694400
   4179   4183   4184     1   112.7300484 572.371200
   4179   4183   4185     1   123.2000528 564.003200
   4184   4183   4185     1   122.1000523 635.131200
   4188   4191   4192     1   123.2000528 564.003200
   4188   4191   4193     1   112.7300484 572.371200
   4192   4191   4193     1   122.1000523 635.131200
   4197   4199   4201     1   111.6100477 551.451200
   4199   4201   4205     1   114.2100488 537.225600
   4201   4205   4206     1   109.6600471 523.836800
   4201   4205   4207     1   109.6600471 523.836800
   4205   4206   4218     1   114.2100488 537.225600
   4205   4207   4209     1   114.2100488 537.225600
   4206   4218   4221     1   111.0400475 529.694400
   4206   4205   4207     1   109.6600471 523.836800
   4207   4209   4213     1   111.0400475 529.694400
   4209   4213   4214     1   112.7300484 572.371200
   4209   4213   4215     1   123.2000528 564.003200
   4214   4213   4215     1   122.1000523 635.131200
   4218   4221   4222     1   123.2000528 564.003200
   4218   4221   4223     1   112.7300484 572.371200
   4222   4221   4223     1   122.1000523 635.131200
   4227   4229   4231     1   111.6100477 551.451200
   4229   4231   4235     1   114.2100488 537.225600
   4231   4235   4236     1   109.6600471 523.836800
   4231   4235   4237     1   109.6600471 523.836800
   4235   4236   4248     1   114.2100488 537.225600
   4235   4237   4239     1   114.2100488 537.225600
   4236   4235   4237     1   109.6600471 523.836800
   4236   4248   4251     1   111.0400475 529.694400
   4237   4239   4243     1   111.0400475 529.694400
   4239   4243   4244     1   112.7300484 572.371200
   4239   4243   4245     1   123.2000528 564.003200
   4244   4243   4245     1   122.1000523 635.131200
   4248   4251   4252     1   123.2000528 564.003200
   4248   4251   4253     1   112.7300484 572.371200
   4252   4251   4253     1   122.1000523 635.131200
   4257   4259   4261     1   111.6100477 551.451200
   4259   4261   4265     1   114.2100488 537.225600
   4261   4265   4266     1   109.6600471 523.836800
   4261   4265   4267     1   109.6600471 523.836800
   4265   4266   4278     1   114.2100488 537.225600
   4265   4267   4269     1   114.2100488 537.225600
   4266   4278   4281     1   111.0400475 529.694400
   4266   4265   4267     1   109.6600471 523.836800
   4267   4269   4273     1   111.0400475 529.694400
   4269   4273   4274     1   112.7300484 572.371200
   4269   4273   4275     1   123.2000528 564.003200
   4274   4273   4275     1   122.1000523 635.131200
   4278   4281   4282     1   123.2000528 564.003200
   4278   4281   4283     1   112.7300484 572.371200
   4282   4281   4283     1   122.1000523 635.131200
   4287   4289   4291     1   111.6100477 551.451200
   4289   4291   4295     1   114.2100488 537.225600
   4291   4295   4296     1   109.6600471 523.836800
   4291   4295   4297     1   109.6600471 523.836800
   4295   4296   4308     1   114.2100488 537.225600
   4295   4297   4299     1   114.2100488 537.225600
   4296   4295   4297     1   109.6600471 523.836800
   4296   4308   4311     1   111.0400475 529.694400
   4297   4299   4303     1   111.0400475 529.694400
   4299   4303   4304     1   112.7300484 572.371200
   4299   4303   4305     1   123.2000528 564.003200
   4304   4303   4305     1   122.1000523 635.131200
   4308   4311   4312     1   123.2000528 564.003200
   4308   4311   4313     1   112.7300484 572.371200
   4312   4311   4313     1   122.1000523 635.131200
   4317   4319   4321     1   111.6100477 551.451200
   4319   4321   4325     1   114.2100488 537.225600
   4321   4325   4326     1   109.6600471 523.836800
   4321   4325   4327     1   109.6600471 523.836800
   4325   4326   4338     1   114.2100488 537.225600
   4325   4327   4329     1   114.2100488 537.225600
   4326   4338   4341     1   111.0400475 529.694400
   4326   4325   4327     1   109.6600471 523.836800
   4327   4329   4333     1   111.0400475 529.694400
   4329   4333   4334     1   112.7300484 572.371200
   4329   4333   4335     1   123.2000528 564.003200
   4334   4333   4335     1   122.1000523 635.131200
   4338   4341   4342     1   123.2000528 564.003200
   4338   4341   4343     1   112.7300484 572.371200
   4342   4341   4343     1   122.1000523 635.131200
   4347   4349   4351     1   111.6100477 551.451200
   4349   4351   4355     1   114.2100488 537.225600
   4351   4355   4356     1   109.6600471 523.836800
   4351   4355   4357     1   109.6600471 523.836800
   4355   4356   4368     1   114.2100488 537.225600
   4355   4357   4359     1   114.2100488 537.225600
   4356   4355   4357     1   109.6600471 523.836800
   4356   4368   4371     1   111.0400475 529.694400
   4357   4359   4363     1   111.0400475 529.694400
   4359   4363   4364     1   112.7300484 572.371200
   4359   4363   4365     1   123.2000528 564.003200
   4364   4363   4365     1   122.1000523 635.131200
   4368   4371   4372     1   123.2000528 564.003200
   4368   4371   4373     1   112.7300484 572.371200
   4372   4371   4373     1   122.1000523 635.131200
   4377   4379   4381     1   111.6100477 551.451200
   4379   4381   4385     1   114.2100488 537.225600
   4381   4385   4386     1   109.6600471 523.836800
   4381   4385   4387     1   109.6600471 523.836800
   4385   4386   4398     1   114.2100488 537.225600
   4385   4387   4389     1   114.2100488 537.225600
   4386   4398   4401     1   111.0400475 529.694400
   4386   4385   4387     1   109.6600471 523.836800
   4387   4389   4393     1   111.0400475 529.694400
   4389   4393   4394     1   112.7300484 572.371200
   4389   4393   4395     1   123.2000528 564.003200
   4394   4393   4395     1   122.1000523 635.131200
   4398   4401   4402     1   123.2000528 564.003200
   4398   4401   4403     1   112.7300484 572.371200
   4402   4401   4403     1   122.1000523 635.131200
   4407   4409   4411     1   111.6100477 551.451200
   4409   4411   4415     1   114.2100488 537.225600
   4411   4415   4416     1   109.6600471 523.836800
   4411   4415   4417     1   109.6600471 523.836800
   4415   4416   4428     1   114.2100488 537.225600
   4415   4417   4419     1   114.2100488 537.225600
   4416   4415   4417     1   109.6600471 523.836800
   4416   4428   4431     1   111.0400475 529.694400
   4417   4419   4423     1   111.0400475 529.694400
   4419   4423   4424     1   112.7300484 572.371200
   4419   4423   4425     1   123.2000528 564.003200
   4424   4423   4425     1   122.1000523 635.131200
   4428   4431   4432     1   123.2000528 564.003200
   4428   4431   4433     1   112.7300484 572.371200
   4432   4431   4433     1   122.1000523 635.131200
   4437   4439   4441     1   111.6100477 551.451200
   4439   4441   4445     1   114.2100488 537.225600
   4441   4445   4446     1   109.6600471 523.836800
   4441   4445   4447     1   109.6600471 523.836800
   4445   4446   4458     1   114.2100488 537.225600
   4445   4447   4449     1   114.2100488 537.225600
   4446   4458   4461     1   111.0400475 529.694400
   4446   4445   4447     1   109.6600471 523.836800
   4447   4449   4453     1   111.0400475 529.694400
   4449   4453   4454     1   112.7300484 572.371200
   4449   4453   4455     1   123.2000528 564.003200
   4454   4453   4455     1   122.1000523 635.131200
   4458   4461   4462     1   123.2000528 564.003200
   4458   4461   4463     1   112.7300484 572.371200
   4462   4461   4463     1   122.1000523 635.131200
   4467   4469   4471     1   111.6100477 551.451200
   4469   4471   4475     1   114.2100488 537.225600
   4471   4475   4476     1   109.6600471 523.836800
   4471   4475   4477     1   109.6600471 523.836800
   4475   4476   4488     1   114.2100488 537.225600
   4475   4477   4479     1   114.2100488 537.225600
   4476   4475   4477     1   109.6600471 523.836800
   4476   4488   4491     1   111.0400475 529.694400
   4477   4479   4483     1   111.0400475 529.694400
   4479   4483   4484     1   112.7300484 572.371200
   4479   4483   4485     1   123.2000528 564.003200
   4484   4483   4485     1   122.1000523 635.131200
   4488   4491   4492     1   123.2000528 564.003200
   4488   4491   4493     1   112.7300484 572.371200
   4492   4491   4493     1   122.1000523 635.131200
   4497   4499   4501     1   111.6100477 551.451200
   4499   4501   4505     1   114.2100488 537.225600
   4501   4505   4506     1   109.6600471 523.836800
   4501   4505   4507     1   109.6600471 523.836800
   4505   4506   4518     1   114.2100488 537.225600
   4505   4507   4509     1   114.2100488 537.225600
   4506   4518   4521     1   111.0400475 529.694400
   4506   4505   4507     1   109.6600471 523.836800
   4507   4509   4513     1   111.0400475 529.694400
   4509   4513   4514     1   112.7300484 572.371200
   4509   4513   4515     1   123.2000528 564.003200
   4514   4513   4515     1   122.1000523 635.131200
   4518   4521   4522     1   123.2000528 564.003200
   4518   4521   4523     1   112.7300484 572.371200
   4522   4521   4523     1   122.1000523 635.131200
   4527   4529   4531     1   111.6100477 551.451200
   4529   4531   4535     1   114.2100488 537.225600
   4531   4535   4536     1   109.6600471 523.836800
   4531   4535   4537     1   109.6600471 523.836800
   4535   4536   4548     1   114.2100488 537.225600
   4535   4537   4539     1   114.2100488 537.225600
   4536   4535   4537     1   109.6600471 523.836800
   4536   4548   4551     1   111.0400475 529.694400
   4537   4539   4543     1   111.0400475 529.694400
   4539   4543   4544     1   112.7300484 572.371200
   4539   4543   4545     1   123.2000528 564.003200
   4544   4543   4545     1   122.1000523 635.131200
   4548   4551   4552     1   123.2000528 564.003200
   4548   4551   4553     1   112.7300484 572.371200
   4552   4551   4553     1   122.1000523 635.131200
   4557   4559   4561     1   111.6100477 551.451200
   4559   4561   4565     1   114.2100488 537.225600
   4561   4565   4566     1   109.6600471 523.836800
   4561   4565   4567     1   109.6600471 523.836800
   4565   4566   4578     1   114.2100488 537.225600
   4565   4567   4569     1   114.2100488 537.225600
   4566   4578   4581     1   111.0400475 529.694400
   4566   4565   4567     1   109.6600471 523.836800
   4567   4569   4573     1   111.0400475 529.694400
   4569   4573   4574     1   112.7300484 572.371200
   4569   4573   4575     1   123.2000528 564.003200
   4574   4573   4575     1   122.1000523 635.131200
   4578   4581   4582     1   123.2000528 564.003200
   4578   4581   4583     1   112.7300484 572.371200
   4582   4581   4583     1   122.1000523 635.131200
   4587   4589   4591     1   111.6100477 551.451200
   4589   4591   4595     1   114.2100488 537.225600
   4591   4595   4596     1   109.6600471 523.836800
   4591   4595   4597     1   109.6600471 523.836800
   4595   4596   4608     1   114.2100488 537.225600
   4595   4597   4599     1   114.2100488 537.225600
   4596   4595   4597     1   109.6600471 523.836800
   4596   4608   4611     1   111.0400475 529.694400
   4597   4599   4603     1   111.0400475 529.694400
   4599   4603   4604     1   112.7300484 572.371200
   4599   4603   4605     1   123.2000528 564.003200
   4604   4603   4605     1   122.1000523 635.131200
   4608   4611   4612     1   123.2000528 564.003200
   4608   4611   4613     1   112.7300484 572.371200
   4612   4611   4613     1   122.1000523 635.131200
   4617   4619   4621     1   111.6100477 551.451200
   4619   4621   4625     1   114.2100488 537.225600
   4621   4625   4626     1   109.6600471 523.836800
   4621   4625   4627     1   109.6600471 523.836800
   4625   4626   4638     1   114.2100488 537.225600
   4625   4627   4629     1   114.2100488 537.225600
   4626   4638   4641     1   111.0400475 529.694400
   4626   4625   4627     1   109.6600471 523.836800
   4627   4629   4633     1   111.0400475 529.694400
   4629   4633   4634     1   112.7300484 572.371200
   4629   4633   4635     1   123.2000528 564.003200
   4634   4633   4635     1   122.1000523 635.131200
   4638   4641   4642     1   123.2000528 564.003200
   4638   4641   4643     1   112.7300484 572.371200
   4642   4641   4643     1   122.1000523 635.131200
   4647   4649   4651     1   111.6100477 551.451200
   4649   4651   4655     1   114.2100488 537.225600
   4651   4655   4656     1   109.6600471 523.836800
   4651   4655   4657     1   109.6600471 523.836800
   4655   4656   4668     1   114.2100488 537.225600
   4655   4657   4659     1   114.2100488 537.225600
   4656   4655   4657     1   109.6600471 523.836800
   4656   4668   4671     1   111.0400475 529.694400
   4657   4659   4663     1   111.0400475 529.694400
   4659   4663   4664     1   112.7300484 572.371200
   4659   4663   4665     1   123.2000528 564.003200
   4664   4663   4665     1   122.1000523 635.131200
   4668   4671   4672     1   123.2000528 564.003200
   4668   4671   4673     1   112.7300484 572.371200
   4672   4671   4673     1   122.1000523 635.131200
   4677   4679   4681     1   111.6100477 551.451200
   4679   4681   4685     1   114.2100488 537.225600
   4681   4685   4686     1   109.6600471 523.836800
   4681   4685   4687     1   109.6600471 523.836800
   4685   4686   4698     1   114.2100488 537.225600
   4685   4687   4689     1   114.2100488 537.225600
   4686   4698   4701     1   111.0400475 529.694400
   4686   4685   4687     1   109.6600471 523.836800
   4687   4689   4693     1   111.0400475 529.694400
   4689   4693   4694     1   112.7300484 572.371200
   4689   4693   4695     1   123.2000528 564.003200
   4694   4693   4695     1   122.1000523 635.131200
   4698   4701   4702     1   123.2000528 564.003200
   4698   4701   4703     1   112.7300484 572.371200
   4702   4701   4703     1   122.1000523 635.131200
   4707   4709   4711     1   111.6100477 551.451200
   4709   4711   4715     1   114.2100488 537.225600
   4711   4715   4716     1   109.6600471 523.836800
   4711   4715   4717     1   109.6600471 523.836800
   4715   4716   4728     1   114.2100488 537.225600
   4715   4717   4719     1   114.2100488 537.225600
   4716   4715   4717     1   109.6600471 523.836800
   4716   4728   4731     1   111.0400475 529.694400
   4717   4719   4723     1   111.0400475 529.694400
   4719   4723   4724     1   112.7300484 572.371200
   4719   4723   4725     1   123.2000528 564.003200
   4724   4723   4725     1   122.1000523 635.131200
   4728   4731   4732     1   123.2000528 564.003200
   4728   4731   4733     1   112.7300484 572.371200
   4732   4731   4733     1   122.1000523 635.131200
   4737   4739   4741     1   111.6100477 551.451200
   4739   4741   4745     1   114.2100488 537.225600
   4741   4745   4746     1   109.6600471 523.836800
   4741   4745   4747     1   109.6600471 523.836800
   4745   4746   4758     1   114.2100488 537.225600
   4745   4747   4749     1   114.2100488 537.225600
   4746   4758   4761     1   111.0400475 529.694400
   4746   4745   4747     1   109.6600471 523.836800
   4747   4749   4753     1   111.0400475 529.694400
   4749   4753   4754     1   112.7300484 572.371200
   4749   4753   4755     1   123.2000528 564.003200
   4754   4753   4755     1   122.1000523 635.131200
   4758   4761   4762     1   123.2000528 564.003200
   4758   4761   4763     1   112.7300484 572.371200
   4762   4761   4763     1   122.1000523 635.131200
   4767   4769   4771     1   111.6100477 551.451200
   4769   4771   4775     1   114.2100488 537.225600
   4771   4775   4776     1   109.6600471 523.836800
   4771   4775   4777     1   109.6600471 523.836800
   4775   4776   4788     1   114.2100488 537.225600
   4775   4777   4779     1   114.2100488 537.225600
   4776   4775   4777     1   109.6600471 523.836800
   4776   4788   4791     1   111.0400475 529.694400
   4777   4779   4783     1   111.0400475 529.694400
   4779   4783   4784     1   112.7300484 572.371200
   4779   4783   4785     1   123.2000528 564.003200
   4784   4783   4785     1   122.1000523 635.131200
   4788   4791   4792     1   123.2000528 564.003200
   4788   4791   4793     1   112.7300484 572.371200
   4792   4791   4793     1   122.1000523 635.131200
   4797   4799   4801     1   111.6100477 551.451200
   4799   4801   4805     1   114.2100488 537.225600
   4801   4805   4806     1   109.6600471 523.836800
   4801   4805   4807     1   109.6600471 523.836800
   4805   4806   4818     1   114.2100488 537.225600
   4805   4807   4809     1   114.2100488 537.225600
   4806   4818   4821     1   111.0400475 529.694400
   4806   4805   4807     1   109.6600471 523.836800
   4807   4809   4813     1   111.0400475 529.694400
   4809   4813   4814     1   112.7300484 572.371200
   4809   4813   4815     1   123.2000528 564.003200
   4814   4813   4815     1   122.1000523 635.131200
   4818   4821   4822     1   123.2000528 564.003200
   4818   4821   4823     1   112.7300484 572.371200
   4822   4821   4823     1   122.1000523 635.131200
   4827   4829   4831     1   111.6100477 551.451200
   4829   4831   4835     1   114.2100488 537.225600
   4831   4835   4836     1   109.6600471 523.836800
   4831   4835   4837     1   109.6600471 523.836800
   4835   4836   4848     1   114.2100488 537.225600
   4835   4837   4839     1   114.2100488 537.225600
   4836   4835   4837     1   109.6600471 523.836800
   4836   4848   4851     1   111.0400475 529.694400
   4837   4839   4843     1   111.0400475 529.694400
   4839   4843   4844     1   112.7300484 572.371200
   4839   4843   4845     1   123.2000528 564.003200
   4844   4843   4845     1   122.1000523 635.131200
   4848   4851   4852     1   123.2000528 564.003200
   4848   4851   4853     1   112.7300484 572.371200
   4852   4851   4853     1   122.1000523 635.131200
   4857   4859   4861     1   111.6100477 551.451200
   4859   4861   4865     1   114.2100488 537.225600
   4861   4865   4866     1   109.6600471 523.836800
   4861   4865   4867     1   109.6600471 523.836800
   4865   4866   4878     1   114.2100488 537.225600
   4865   4867   4869     1   114.2100488 537.225600
   4866   4878   4881     1   111.0400475 529.694400
   4866   4865   4867     1   109.6600471 523.836800
   4867   4869   4873     1   111.0400475 529.694400
   4869   4873   4874     1   112.7300484 572.371200
   4869   4873   4875     1   123.2000528 564.003200
   4874   4873   4875     1   122.1000523 635.131200
   4878   4881   4882     1   123.2000528 564.003200
   4878   4881   4883     1   112.7300484 572.371200
   4882   4881   4883     1   122.1000523 635.131200
   4887   4889   4891     1   111.6100477 551.451200
   4889   4891   4895     1   114.2100488 537.225600
   4891   4895   4896     1   109.6600471 523.836800
   4891   4895   4897     1   109.6600471 523.836800
   4895   4896   4908     1   114.2100488 537.225600
   4895   4897   4899     1   114.2100488 537.225600
   4896   4895   4897     1   109.6600471 523.836800
   4896   4908   4911     1   111.0400475 529.694400
   4897   4899   4903     1   111.0400475 529.694400
   4899   4903   4904     1   112.7300484 572.371200
   4899   4903   4905     1   123.2000528 564.003200
   4904   4903   4905     1   122.1000523 635.131200
   4908   4911   4912     1   123.2000528 564.003200
   4908   4911   4913     1   112.7300484 572.371200
   4912   4911   4913     1   122.1000523 635.131200
   4917   4919   4921     1   111.6100477 551.451200
   4919   4921   4925     1   114.2100488 537.225600
   4921   4925   4926     1   109.6600471 523.836800
   4921   4925   4927     1   109.6600471 523.836800
   4925   4926   4938     1   114.2100488 537.225600
   4925   4927   4929     1   114.2100488 537.225600
   4926   4938   4941     1   111.0400475 529.694400
   4926   4925   4927     1   109.6600471 523.836800
   4927   4929   4933     1   111.0400475 529.694400
   4929   4933   4934     1   112.7300484 572.371200
   4929   4933   4935     1   123.2000528 564.003200
   4934   4933   4935     1   122.1000523 635.131200
   4938   4941   4942     1   123.2000528 564.003200
   4938   4941   4943     1   112.7300484 572.371200
   4942   4941   4943     1   122.1000523 635.131200
   4947   4949   4951     1   111.6100477 551.451200
   4949   4951   4955     1   114.2100488 537.225600
   4951   4955   4956     1   109.6600471 523.836800
   4951   4955   4957     1   109.6600471 523.836800
   4955   4956   4968     1   114.2100488 537.225600
   4955   4957   4959     1   114.2100488 537.225600
   4956   4955   4957     1   109.6600471 523.836800
   4956   4968   4971     1   111.0400475 529.694400
   4957   4959   4963     1   111.0400475 529.694400
   4959   4963   4964     1   112.7300484 572.371200
   4959   4963   4965     1   123.2000528 564.003200
   4964   4963   4965     1   122.1000523 635.131200
   4968   4971   4972     1   123.2000528 564.003200
   4968   4971   4973     1   112.7300484 572.371200
   4972   4971   4973     1   122.1000523 635.131200
   4977   4979   4981     1   111.6100477 551.451200
   4979   4981   4985     1   114.2100488 537.225600
   4981   4985   4986     1   109.6600471 523.836800
   4981   4985   4987     1   109.6600471 523.836800
   4985   4986   4998     1   114.2100488 537.225600
   4985   4987   4989     1   114.2100488 537.225600
   4986   4998   5001     1   111.0400475 529.694400
   4986   4985   4987     1   109.6600471 523.836800
   4987   4989   4993     1   111.0400475 529.694400
   4989   4993   4994     1   112.7300484 572.371200
   4989   4993   4995     1   123.2000528 564.003200
   4994   4993   4995     1   122.1000523 635.131200
   4998   5001   5002     1   123.2000528 564.003200
   4998   5001   5003     1   112.7300484 572.371200
   5002   5001   5003     1   122.1000523 635.131200
   5007   5009   5011     1   111.6100477 551.451200
   5009   5011   5015     1   114.2100488 537.225600
   5011   5015   5016     1   109.6600471 523.836800
   5011   5015   5017     1   109.6600471 523.836800
   5015   5016   5028     1   114.2100488 537.225600
   5015   5017   5019     1   114.2100488 537.225600
   5016   5015   5017     1   109.6600471 523.836800
   5016   5028   5031     1   111.0400475 529.694400
   5017   5019   5023     1   111.0400475 529.694400
   5019   5023   5024     1   112.7300484 572.371200
   5019   5023   5025     1   123.2000528 564.003200
   5024   5023   5025     1   122.1000523 635.131200
   5028   5031   5032     1   123.2000528 564.003200
   5028   5031   5033     1   112.7300484 572.371200
   5032   5031   5033     1   122.1000523 635.131200
   5037   5039   5041     1   111.6100477 551.451200
   5039   5041   5045     1   114.2100488 537.225600
   5041   5045   5046     1   109.6600471 523.836800
   5041   5045   5047     1   109.6600471 523.836800
   5045   5046   5058     1   114.2100488 537.225600
   5045   5047   5049     1   114.2100488 537.225600
   5046   5058   5061     1   111.0400475 529.694400
   5046   5045   5047     1   109.6600471 523.836800
   5047   5049   5053     1   111.0400475 529.694400
   5049   5053   5054     1   112.7300484 572.371200
   5049   5053   5055     1   123.2000528 564.003200
   5054   5053   5055     1   122.1000523 635.131200
   5058   5061   5062     1   123.2000528 564.003200
   5058   5061   5063     1   112.7300484 572.371200
   5062   5061   5063     1   122.1000523 635.131200
   5067   5069   5071     1   111.6100477 551.451200
   5069   5071   5075     1   114.2100488 537.225600
   5071   5075   5076     1   109.6600471 523.836800
   5071   5075   5077     1   109.6600471 523.836800
   5075   5076   5088     1   114.2100488 537.225600
   5075   5077   5079     1   114.2100488 537.225600
   5076   5075   5077     1   109.6600471 523.836800
   5076   5088   5091     1   111.0400475 529.694400
   5077   5079   5083     1   111.0400475 529.694400
   5079   5083   5084     1   112.7300484 572.371200
   5079   5083   5085     1   123.2000528 564.003200
   5084   5083   5085     1   122.1000523 635.131200
   5088   5091   5092     1   123.2000528 564.003200
   5088   5091   5093     1   112.7300484 572.371200
   5092   5091   5093     1   122.1000523 635.131200
   5097   5099   5101     1   111.6100477 551.451200
   5099   5101   5105     1   114.2100488 537.225600
   5101   5105   5106     1   109.6600471 523.836800
   5101   5105   5107     1   109.6600471 523.836800
   5105   5106   5118     1   114.2100488 537.225600
   5105   5107   5109     1   114.2100488 537.225600
   5106   5118   5121     1   111.0400475 529.694400
   5106   5105   5107     1   109.6600471 523.836800
   5107   5109   5113     1   111.0400475 529.694400
   5109   5113   5114     1   112.7300484 572.371200
   5109   5113   5115     1   123.2000528 564.003200
   5114   5113   5115     1   122.1000523 635.131200
   5118   5121   5122     1   123.2000528 564.003200
   5118   5121   5123     1   112.7300484 572.371200
   5122   5121   5123     1   122.1000523 635.131200
   5127   5129   5131     1   111.6100477 551.451200
   5129   5131   5135     1   114.2100488 537.225600
   5131   5135   5136     1   109.6600471 523.836800
   5131   5135   5137     1   109.6600471 523.836800
   5135   5136   5148     1   114.2100488 537.225600
   5135   5137   5139     1   114.2100488 537.225600
   5136   5135   5137     1   109.6600471 523.836800
   5136   5148   5151     1   111.0400475 529.694400
   5137   5139   5143     1   111.0400475 529.694400
   5139   5143   5144     1   112.7300484 572.371200
   5139   5143   5145     1   123.2000528 564.003200
   5144   5143   5145     1   122.1000523 635.131200
   5148   5151   5152     1   123.2000528 564.003200
   5148   5151   5153     1   112.7300484 572.371200
   5152   5151   5153     1   122.1000523 635.131200
   5157   5159   5161     1   111.6100477 551.451200
   5159   5161   5165     1   114.2100488 537.225600
   5161   5165   5166     1   109.6600471 523.836800
   5161   5165   5167     1   109.6600471 523.836800
   5165   5166   5178     1   114.2100488 537.225600
   5165   5167   5169     1   114.2100488 537.225600
   5166   5178   5181     1   111.0400475 529.694400
   5166   5165   5167     1   109.6600471 523.836800
   5167   5169   5173     1   111.0400475 529.694400
   5169   5173   5174     1   112.7300484 572.371200
   5169   5173   5175     1   123.2000528 564.003200
   5174   5173   5175     1   122.1000523 635.131200
   5178   5181   5182     1   123.2000528 564.003200
   5178   5181   5183     1   112.7300484 572.371200
   5182   5181   5183     1   122.1000523 635.131200
   5187   5189   5191     1   111.6100477 551.451200
   5189   5191   5195     1   114.2100488 537.225600
   5191   5195   5196     1   109.6600471 523.836800
   5191   5195   5197     1   109.6600471 523.836800
   5195   5196   5208     1   114.2100488 537.225600
   5195   5197   5199     1   114.2100488 537.225600
   5196   5195   5197     1   109.6600471 523.836800
   5196   5208   5211     1   111.0400475 529.694400
   5197   5199   5203     1   111.0400475 529.694400
   5199   5203   5204     1   112.7300484 572.371200
   5199   5203   5205     1   123.2000528 564.003200
   5204   5203   5205     1   122.1000523 635.131200
   5208   5211   5212     1   123.2000528 564.003200
   5208   5211   5213     1   112.7300484 572.371200
   5212   5211   5213     1   122.1000523 635.131200
   5217   5219   5221     1   111.6100477 551.451200
   5219   5221   5225     1   114.2100488 537.225600
   5221   5225   5226     1   109.6600471 523.836800
   5221   5225   5227     1   109.6600471 523.836800
   5225   5226   5238     1   114.2100488 537.225600
   5225   5227   5229     1   114.2100488 537.225600
   5226   5238   5241     1   111.0400475 529.694400
   5226   5225   5227     1   109.6600471 523.836800
   5227   5229   5233     1   111.0400475 529.694400
   5229   5233   5234     1   112.7300484 572.371200
   5229   5233   5235     1   123.2000528 564.003200
   5234   5233   5235     1   122.1000523 635.131200
   5238   5241   5242     1   123.2000528 564.003200
   5238   5241   5243     1   112.7300484 572.371200
   5242   5241   5243     1   122.1000523 635.131200
   5247   5249   5251     1   111.6100477 551.451200
   5249   5251   5255     1   114.2100488 537.225600
   5251   5255   5256     1   109.6600471 523.836800
   5251   5255   5257     1   109.6600471 523.836800
   5255   5256   5268     1   114.2100488 537.225600
   5255   5257   5259     1   114.2100488 537.225600
   5256   5255   5257     1   109.6600471 523.836800
   5256   5268   5271     1   111.0400475 529.694400
   5257   5259   5263     1   111.0400475 529.694400
   5259   5263   5264     1   112.7300484 572.371200
   5259   5263   5265     1   123.2000528 564.003200
   5264   5263   5265     1   122.1000523 635.131200
   5268   5271   5272     1   123.2000528 564.003200
   5268   5271   5273     1   112.7300484 572.371200
   5272   5271   5273     1   122.1000523 635.131200
   5277   5279   5281     1   111.6100477 551.451200
   5279   5281   5285     1   114.2100488 537.225600
   5281   5285   5286     1   109.6600471 523.836800
   5281   5285   5287     1   109.6600471 523.836800
   5285   5286   5298     1   114.2100488 537.225600
   5285   5287   5289     1   114.2100488 537.225600
   5286   5298   5301     1   111.0400475 529.694400
   5286   5285   5287     1   109.6600471 523.836800
   5287   5289   5293     1   111.0400475 529.694400
   5289   5293   5294     1   112.7300484 572.371200
   5289   5293   5295     1   123.2000528 564.003200
   5294   5293   5295     1   122.1000523 635.131200
   5298   5301   5302     1   123.2000528 564.003200
   5298   5301   5303     1   112.7300484 572.371200
   5302   5301   5303     1   122.1000523 635.131200
   5307   5309   5311     1   111.6100477 551.451200
   5309   5311   5315     1   114.2100488 537.225600
   5311   5315   5316     1   109.6600471 523.836800
   5311   5315   5317     1   109.6600471 523.836800
   5315   5316   5328     1   114.2100488 537.225600
   5315   5317   5319     1   114.2100488 537.225600
   5316   5315   5317     1   109.6600471 523.836800
   5316   5328   5331     1   111.0400475 529.694400
   5317   5319   5323     1   111.0400475 529.694400
   5319   5323   5324     1   112.7300484 572.371200
   5319   5323   5325     1   123.2000528 564.003200
   5324   5323   5325     1   122.1000523 635.131200
   5328   5331   5332     1   123.2000528 564.003200
   5328   5331   5333     1   112.7300484 572.371200
   5332   5331   5333     1   122.1000523 635.131200
   5337   5339   5341     1   111.6100477 551.451200
   5339   5341   5345     1   114.2100488 537.225600
   5341   5345   5346     1   109.6600471 523.836800
   5341   5345   5347     1   109.6600471 523.836800
   5345   5346   5358     1   114.2100488 537.225600
   5345   5347   5349     1   114.2100488 537.225600
   5346   5358   5361     1   111.0400475 529.694400
   5346   5345   5347     1   109.6600471 523.836800
   5347   5349   5353     1   111.0400475 529.694400
   5349   5353   5354     1   112.7300484 572.371200
   5349   5353   5355     1   123.2000528 564.003200
   5354   5353   5355     1   122.1000523 635.131200
   5358   5361   5362     1   123.2000528 564.003200
   5358   5361   5363     1   112.7300484 572.371200
   5362   5361   5363     1   122.1000523 635.131200
   5367   5369   5371     1   111.6100477 551.451200
   5369   5371   5375     1   114.2100488 537.225600
   5371   5375   5376     1   109.6600471 523.836800
   5371   5375   5377     1   109.6600471 523.836800
   5375   5376   5388     1   114.2100488 537.225600
   5375   5377   5379     1   114.2100488 537.225600
   5376   5375   5377     1   109.6600471 523.836800
   5376   5388   5391     1   111.0400475 529.694400
   5377   5379   5383     1   111.0400475 529.694400
   5379   5383   5384     1   112.7300484 572.371200
   5379   5383   5385     1   123.2000528 564.003200
   5384   5383   5385     1   122.1000523 635.131200
   5388   5391   5392     1   123.2000528 564.003200
   5388   5391   5393     1   112.7300484 572.371200
   5392   5391   5393     1   122.1000523 635.131200
   5397   5399   5401     1   111.6100477 551.451200
   5399   5401   5405     1   114.2100488 537.225600
   5401   5405   5406     1   109.6600471 523.836800
   5401   5405   5407     1   109.6600471 523.836800
   5405   5406   5418     1   114.2100488 537.225600
   5405   5407   5409     1   114.2100488 537.225600
   5406   5418   5421     1   111.0400475 529.694400
   5406   5405   5407     1   109.6600471 523.836800
   5407   5409   5413     1   111.0400475 529.694400
   5409   5413   5414     1   112.7300484 572.371200
   5409   5413   5415     1   123.2000528 564.003200
   5414   5413   5415     1   122.1000523 635.131200
   5418   5421   5422     1   123.2000528 564.003200
   5418   5421   5423     1   112.7300484 572.371200
   5422   5421   5423     1   122.1000523 635.131200
   5427   5429   5431     1   111.6100477 551.451200
   5429   5431   5435     1   114.2100488 537.225600
   5431   5435   5436     1   109.6600471 523.836800
   5431   5435   5437     1   109.6600471 523.836800
   5435   5436   5448     1   114.2100488 537.225600
   5435   5437   5439     1   114.2100488 537.225600
   5436   5435   5437     1   109.6600471 523.836800
   5436   5448   5451     1   111.0400475 529.694400
   5437   5439   5443     1   111.0400475 529.694400
   5439   5443   5444     1   112.7300484 572.371200
   5439   5443   5445     1   123.2000528 564.003200
   5444   5443   5445     1   122.1000523 635.131200
   5448   5451   5452     1   123.2000528 564.003200
   5448   5451   5453     1   112.7300484 572.371200
   5452   5451   5453     1   122.1000523 635.131200
   5457   5459   5461     1   111.6100477 551.451200
   5459   5461   5465     1   114.2100488 537.225600
   5461   5465   5466     1   109.6600471 523.836800
   5461   5465   5467     1   109.6600471 523.836800
   5465   5466   5478     1   114.2100488 537.225600
   5465   5467   5469     1   114.2100488 537.225600
   5466   5478   5481     1   111.0400475 529.694400
   5466   5465   5467     1   109.6600471 523.836800
   5467   5469   5473     1   111.0400475 529.694400
   5469   5473   5474     1   112.7300484 572.371200
   5469   5473   5475     1   123.2000528 564.003200
   5474   5473   5475     1   122.1000523 635.131200
   5478   5481   5482     1   123.2000528 564.003200
   5478   5481   5483     1   112.7300484 572.371200
   5482   5481   5483     1   122.1000523 635.131200
   5487   5489   5491     1   111.6100477 551.451200
   5489   5491   5495     1   114.2100488 537.225600
   5491   5495   5496     1   109.6600471 523.836800
   5491   5495   5497     1   109.6600471 523.836800
   5495   5496   5508     1   114.2100488 537.225600
   5495   5497   5499     1   114.2100488 537.225600
   5496   5495   5497     1   109.6600471 523.836800
   5496   5508   5511     1   111.0400475 529.694400
   5497   5499   5503     1   111.0400475 529.694400
   5499   5503   5504     1   112.7300484 572.371200
   5499   5503   5505     1   123.2000528 564.003200
   5504   5503   5505     1   122.1000523 635.131200
   5508   5511   5512     1   123.2000528 564.003200
   5508   5511   5513     1   112.7300484 572.371200
   5512   5511   5513     1   122.1000523 635.131200
   5517   5519   5521     1   111.6100477 551.451200
   5519   5521   5525     1   114.2100488 537.225600
   5521   5525   5526     1   109.6600471 523.836800
   5521   5525   5527     1   109.6600471 523.836800
   5525   5526   5538     1   114.2100488 537.225600
   5525   5527   5529     1   114.2100488 537.225600
   5526   5538   5541     1   111.0400475 529.694400
   5526   5525   5527     1   109.6600471 523.836800
   5527   5529   5533     1   111.0400475 529.694400
   5529   5533   5534     1   112.7300484 572.371200
   5529   5533   5535     1   123.2000528 564.003200
   5534   5533   5535     1   122.1000523 635.131200
   5538   5541   5542     1   123.2000528 564.003200
   5538   5541   5543     1   112.7300484 572.371200
   5542   5541   5543     1   122.1000523 635.131200
   5547   5549   5551     1   111.6100477 551.451200
   5549   5551   5555     1   114.2100488 537.225600
   5551   5555   5556     1   109.6600471 523.836800
   5551   5555   5557     1   109.6600471 523.836800
   5555   5556   5568     1   114.2100488 537.225600
   5555   5557   5559     1   114.2100488 537.225600
   5556   5555   5557     1   109.6600471 523.836800
   5556   5568   5571     1   111.0400475 529.694400
   5557   5559   5563     1   111.0400475 529.694400
   5559   5563   5564     1   112.7300484 572.371200
   5559   5563   5565     1   123.2000528 564.003200
   5564   5563   5565     1   122.1000523 635.131200
   5568   5571   5572     1   123.2000528 564.003200
   5568   5571   5573     1   112.7300484 572.371200
   5572   5571   5573     1   122.1000523 635.131200
   5577   5579   5581     1   111.6100477 551.451200
   5579   5581   5585     1   114.2100488 537.225600
   5581   5585   5586     1   109.6600471 523.836800
   5581   5585   5587     1   109.6600471 523.836800
   5585   5586   5598     1   114.2100488 537.225600
   5585   5587   5589     1   114.2100488 537.225600
   5586   5598   5601     1   111.0400475 529.694400
   5586   5585   5587     1   109.6600471 523.836800
   5587   5589   5593     1   111.0400475 529.694400
   5589   5593   5594     1   112.7300484 572.371200
   5589   5593   5595     1   123.2000528 564.003200
   5594   5593   5595     1   122.1000523 635.131200
   5598   5601   5602     1   123.2000528 564.003200
   5598   5601   5603     1   112.7300484 572.371200
   5602   5601   5603     1   122.1000523 635.131200
   5607   5609   5611     1   111.6100477 551.451200
   5609   5611   5615     1   114.2100488 537.225600
   5611   5615   5616     1   109.6600471 523.836800
   5611   5615   5617     1   109.6600471 523.836800
   5615   5616   5628     1   114.2100488 537.225600
   5615   5617   5619     1   114.2100488 537.225600
   5616   5615   5617     1   109.6600471 523.836800
   5616   5628   5631     1   111.0400475 529.694400
   5617   5619   5623     1   111.0400475 529.694400
   5619   5623   5624     1   112.7300484 572.371200
   5619   5623   5625     1   123.2000528 564.003200
   5624   5623   5625     1   122.1000523 635.131200
   5628   5631   5632     1   123.2000528 564.003200
   5628   5631   5633     1   112.7300484 572.371200
   5632   5631   5633     1   122.1000523 635.131200
   5637   5639   5641     1   111.6100477 551.451200
   5639   5641   5645     1   114.2100488 537.225600
   5641   5645   5646     1   109.6600471 523.836800
   5641   5645   5647     1   109.6600471 523.836800
   5645   5646   5658     1   114.2100488 537.225600
   5645   5647   5649     1   114.2100488 537.225600
   5646   5658   5661     1   111.0400475 529.694400
   5646   5645   5647     1   109.6600471 523.836800
   5647   5649   5653     1   111.0400475 529.694400
   5649   5653   5654     1   112.7300484 572.371200
   5649   5653   5655     1   123.2000528 564.003200
   5654   5653   5655     1   122.1000523 635.131200
   5658   5661   5662     1   123.2000528 564.003200
   5658   5661   5663     1   112.7300484 572.371200
   5662   5661   5663     1   122.1000523 635.131200
   5667   5669   5671     1   111.6100477 551.451200
   5669   5671   5675     1   114.2100488 537.225600
   5671   5675   5676     1   109.6600471 523.836800
   5671   5675   5677     1   109.6600471 523.836800
   5675   5676   5688     1   114.2100488 537.225600
   5675   5677   5679     1   114.2100488 537.225600
   5676   5675   5677     1   109.6600471 523.836800
   5676   5688   5691     1   111.0400475 529.694400
   5677   5679   5683     1   111.0400475 529.694400
   5679   5683   5684     1   112.7300484 572.371200
   5679   5683   5685     1   123.2000528 564.003200
   5684   5683   5685     1   122.1000523 635.131200
   5688   5691   5692     1   123.2000528 564.003200
   5688   5691   5693     1   112.7300484 572.371200
   5692   5691   5693     1   122.1000523 635.131200
   5697   5699   5701     1   111.6100477 551.451200
   5699   5701   5705     1   114.2100488 537.225600
   5701   5705   5706     1   109.6600471 523.836800
   5701   5705   5707     1   109.6600471 523.836800
   5705   5706   5718     1   114.2100488 537.225600
   5705   5707   5709     1   114.2100488 537.225600
   5706   5718   5721     1   111.0400475 529.694400
   5706   5705   5707     1   109.6600471 523.836800
   5707   5709   5713     1   111.0400475 529.694400
   5709   5713   5714     1   112.7300484 572.371200
   5709   5713   5715     1   123.2000528 564.003200
   5714   5713   5715     1   122.1000523 635.131200
   5718   5721   5722     1   123.2000528 564.003200
   5718   5721   5723     1   112.7300484 572.371200
   5722   5721   5723     1   122.1000523 635.131200
   5727   5729   5731     1   111.6100477 551.451200
   5729   5731   5735     1   114.2100488 537.225600
   5731   5735   5736     1   109.6600471 523.836800
   5731   5735   5737     1   109.6600471 523.836800
   5735   5736   5748     1   114.2100488 537.225600
   5735   5737   5739     1   114.2100488 537.225600
   5736   5735   5737     1   109.6600471 523.836800
   5736   5748   5751     1   111.0400475 529.694400
   5737   5739   5743     1   111.0400475 529.694400
   5739   5743   5744     1   112.7300484 572.371200
   5739   5743   5745     1   123.2000528 564.003200
   5744   5743   5745     1   122.1000523 635.131200
   5748   5751   5752     1   123.2000528 564.003200
   5748   5751   5753     1   112.7300484 572.371200
   5752   5751   5753     1   122.1000523 635.131200
   5757   5759   5761     1   111.6100477 551.451200
   5759   5761   5765     1   114.2100488 537.225600
   5761   5765   5766     1   109.6600471 523.836800
   5761   5765   5767     1   109.6600471 523.836800
   5765   5766   5778     1   114.2100488 537.225600
   5765   5767   5769     1   114.2100488 537.225600
   5766   5778   5781     1   111.0400475 529.694400
   5766   5765   5767     1   109.6600471 523.836800
   5767   5769   5773     1   111.0400475 529.694400
   5769   5773   5774     1   112.7300484 572.371200
   5769   5773   5775     1   123.2000528 564.003200
   5774   5773   5775     1   122.1000523 635.131200
   5778   5781   5782     1   123.2000528 564.003200
   5778   5781   5783     1   112.7300484 572.371200
   5782   5781   5783     1   122.1000523 635.131200
   5787   5789   5791     1   111.6100477 551.451200
   5789   5791   5795     1   114.2100488 537.225600
   5791   5795   5796     1   109.6600471 523.836800
   5791   5795   5797     1   109.6600471 523.836800
   5795   5796   5808     1   114.2100488 537.225600
   5795   5797   5799     1   114.2100488 537.225600
   5796   5795   5797     1   109.6600471 523.836800
   5796   5808   5811     1   111.0400475 529.694400
   5797   5799   5803     1   111.0400475 529.694400
   5799   5803   5804     1   112.7300484 572.371200
   5799   5803   5805     1   123.2000528 564.003200
   5804   5803   5805     1   122.1000523 635.131200
   5808   5811   5812     1   123.2000528 564.003200
   5808   5811   5813     1   112.7300484 572.371200
   5812   5811   5813     1   122.1000523 635.131200
   5817   5819   5821     1   111.6100477 551.451200
   5819   5821   5825     1   114.2100488 537.225600
   5821   5825   5826     1   109.6600471 523.836800
   5821   5825   5827     1   109.6600471 523.836800
   5825   5826   5838     1   114.2100488 537.225600
   5825   5827   5829     1   114.2100488 537.225600
   5826   5838   5841     1   111.0400475 529.694400
   5826   5825   5827     1   109.6600471 523.836800
   5827   5829   5833     1   111.0400475 529.694400
   5829   5833   5834     1   112.7300484 572.371200
   5829   5833   5835     1   123.2000528 564.003200
   5834   5833   5835     1   122.1000523 635.131200
   5838   5841   5842     1   123.2000528 564.003200
   5838   5841   5843     1   112.7300484 572.371200
   5842   5841   5843     1   122.1000523 635.131200
   5847   5849   5851     1   111.6100477 551.451200
   5849   5851   5855     1   114.2100488 537.225600
   5851   5855   5856     1   109.6600471 523.836800
   5851   5855   5857     1   109.6600471 523.836800
   5855   5856   5868     1   114.2100488 537.225600
   5855   5857   5859     1   114.2100488 537.225600
   5856   5855   5857     1   109.6600471 523.836800
   5856   5868   5871     1   111.0400475 529.694400
   5857   5859   5863     1   111.0400475 529.694400
   5859   5863   5864     1   112.7300484 572.371200
   5859   5863   5865     1   123.2000528 564.003200
   5864   5863   5865     1   122.1000523 635.131200
   5868   5871   5872     1   123.2000528 564.003200
   5868   5871   5873     1   112.7300484 572.371200
   5872   5871   5873     1   122.1000523 635.131200
   5877   5879   5881     1   111.6100477 551.451200
   5879   5881   5885     1   114.2100488 537.225600
   5881   5885   5886     1   109.6600471 523.836800
   5881   5885   5887     1   109.6600471 523.836800
   5885   5886   5898     1   114.2100488 537.225600
   5885   5887   5889     1   114.2100488 537.225600
   5886   5898   5901     1   111.0400475 529.694400
   5886   5885   5887     1   109.6600471 523.836800
   5887   5889   5893     1   111.0400475 529.694400
   5889   5893   5894     1   112.7300484 572.371200
   5889   5893   5895     1   123.2000528 564.003200
   5894   5893   5895     1   122.1000523 635.131200
   5898   5901   5902     1   123.2000528 564.003200
   5898   5901   5903     1   112.7300484 572.371200
   5902   5901   5903     1   122.1000523 635.131200
   5907   5909   5911     1   111.6100477 551.451200
   5909   5911   5915     1   114.2100488 537.225600
   5911   5915   5916     1   109.6600471 523.836800
   5911   5915   5917     1   109.6600471 523.836800
   5915   5916   5928     1   114.2100488 537.225600
   5915   5917   5919     1   114.2100488 537.225600
   5916   5915   5917     1   109.6600471 523.836800
   5916   5928   5931     1   111.0400475 529.694400
   5917   5919   5923     1   111.0400475 529.694400
   5919   5923   5924     1   112.7300484 572.371200
   5919   5923   5925     1   123.2000528 564.003200
   5924   5923   5925     1   122.1000523 635.131200
   5928   5931   5932     1   123.2000528 564.003200
   5928   5931   5933     1   112.7300484 572.371200
   5932   5931   5933     1   122.1000523 635.131200
   5937   5939   5941     1   111.6100477 551.451200
   5939   5941   5945     1   114.2100488 537.225600
   5941   5945   5946     1   109.6600471 523.836800
   5941   5945   5947     1   109.6600471 523.836800
   5945   5946   5958     1   114.2100488 537.225600
   5945   5947   5949     1   114.2100488 537.225600
   5946   5958   5961     1   111.0400475 529.694400
   5946   5945   5947     1   109.6600471 523.836800
   5947   5949   5953     1   111.0400475 529.694400
   5949   5953   5954     1   112.7300484 572.371200
   5949   5953   5955     1   123.2000528 564.003200
   5954   5953   5955     1   122.1000523 635.131200
   5958   5961   5962     1   123.2000528 564.003200
   5958   5961   5963     1   112.7300484 572.371200
   5962   5961   5963     1   122.1000523 635.131200
   5967   5969   5971     1   111.6100477 551.451200
   5969   5971   5975     1   114.2100488 537.225600
   5971   5975   5976     1   109.6600471 523.836800
   5971   5975   5977     1   109.6600471 523.836800
   5975   5976   5988     1   114.2100488 537.225600
   5975   5977   5979     1   114.2100488 537.225600
   5976   5975   5977     1   109.6600471 523.836800
   5976   5988   5991     1   111.0400475 529.694400
   5977   5979   5983     1   111.0400475 529.694400
   5979   5983   5984     1   112.7300484 572.371200
   5979   5983   5985     1   123.2000528 564.003200
   5984   5983   5985     1   122.1000523 635.131200
   5988   5991   5992     1   123.2000528 564.003200
   5988   5991   5993     1   112.7300484 572.371200
   5992   5991   5993     1   122.1000523 635.131200
   5997   5999   6001     1   111.6100477 551.451200
   5999   6001   6005     1   114.2100488 537.225600
   6001   6005   6006     1   109.6600471 523.836800
   6001   6005   6007     1   109.6600471 523.836800
   6005   6006   6018     1   114.2100488 537.225600
   6005   6007   6009     1   114.2100488 537.225600
   6006   6018   6021     1   111.0400475 529.694400
   6006   6005   6007     1   109.6600471 523.836800
   6007   6009   6013     1   111.0400475 529.694400
   6009   6013   6014     1   112.7300484 572.371200
   6009   6013   6015     1   123.2000528 564.003200
   6014   6013   6015     1   122.1000523 635.131200
   6018   6021   6022     1   123.2000528 564.003200
   6018   6021   6023     1   112.7300484 572.371200
   6022   6021   6023     1   122.1000523 635.131200
   6027   6029   6031     1   111.6100477 551.451200
   6029   6031   6035     1   114.2100488 537.225600
   6031   6035   6036     1   109.6600471 523.836800
   6031   6035   6037     1   109.6600471 523.836800
   6035   6036   6048     1   114.2100488 537.225600
   6035   6037   6039     1   114.2100488 537.225600
   6036   6035   6037     1   109.6600471 523.836800
   6036   6048   6051     1   111.0400475 529.694400
   6037   6039   6043     1   111.0400475 529.694400
   6039   6043   6044     1   112.7300484 572.371200
   6039   6043   6045     1   123.2000528 564.003200
   6044   6043   6045     1   122.1000523 635.131200
   6048   6051   6052     1   123.2000528 564.003200
   6048   6051   6053     1   112.7300484 572.371200
   6052   6051   6053     1   122.1000523 635.131200
   6057   6059   6061     1   111.6100477 551.451200
   6059   6061   6065     1   114.2100488 537.225600
   6061   6065   6066     1   109.6600471 523.836800
   6061   6065   6067     1   109.6600471 523.836800
   6065   6066   6078     1   114.2100488 537.225600
   6065   6067   6069     1   114.2100488 537.225600
   6066   6078   6081     1   111.0400475 529.694400
   6066   6065   6067     1   109.6600471 523.836800
   6067   6069   6073     1   111.0400475 529.694400
   6069   6073   6074     1   112.7300484 572.371200
   6069   6073   6075     1   123.2000528 564.003200
   6074   6073   6075     1   122.1000523 635.131200
   6078   6081   6082     1   123.2000528 564.003200
   6078   6081   6083     1   112.7300484 572.371200
   6082   6081   6083     1   122.1000523 635.131200
   6087   6089   6091     1   111.6100477 551.451200
   6089   6091   6095     1   114.2100488 537.225600
   6091   6095   6096     1   109.6600471 523.836800
   6091   6095   6097     1   109.6600471 523.836800
   6095   6096   6108     1   114.2100488 537.225600
   6095   6097   6099     1   114.2100488 537.225600
   6096   6095   6097     1   109.6600471 523.836800
   6096   6108   6111     1   111.0400475 529.694400
   6097   6099   6103     1   111.0400475 529.694400
   6099   6103   6104     1   112.7300484 572.371200
   6099   6103   6105     1   123.2000528 564.003200
   6104   6103   6105     1   122.1000523 635.131200
   6108   6111   6112     1   123.2000528 564.003200
   6108   6111   6113     1   112.7300484 572.371200
   6112   6111   6113     1   122.1000523 635.131200
   6117   6119   6121     1   111.6100477 551.451200
   6119   6121   6125     1   114.2100488 537.225600
   6121   6125   6126     1   109.6600471 523.836800
   6121   6125   6127     1   109.6600471 523.836800
   6125   6126   6138     1   114.2100488 537.225600
   6125   6127   6129     1   114.2100488 537.225600
   6126   6138   6141     1   111.0400475 529.694400
   6126   6125   6127     1   109.6600471 523.836800
   6127   6129   6133     1   111.0400475 529.694400
   6129   6133   6134     1   112.7300484 572.371200
   6129   6133   6135     1   123.2000528 564.003200
   6134   6133   6135     1   122.1000523 635.131200
   6138   6141   6142     1   123.2000528 564.003200
   6138   6141   6143     1   112.7300484 572.371200
   6142   6141   6143     1   122.1000523 635.131200
   6147   6149   6151     1   111.6100477 551.451200
   6149   6151   6155     1   114.2100488 537.225600
   6151   6155   6156     1   109.6600471 523.836800
   6151   6155   6157     1   109.6600471 523.836800
   6155   6156   6168     1   114.2100488 537.225600
   6155   6157   6159     1   114.2100488 537.225600
   6156   6155   6157     1   109.6600471 523.836800
   6156   6168   6171     1   111.0400475 529.694400
   6157   6159   6163     1   111.0400475 529.694400
   6159   6163   6164     1   112.7300484 572.371200
   6159   6163   6165     1   123.2000528 564.003200
   6164   6163   6165     1   122.1000523 635.131200
   6168   6171   6172     1   123.2000528 564.003200
   6168   6171   6173     1   112.7300484 572.371200
   6172   6171   6173     1   122.1000523 635.131200
   6177   6179   6181     1   111.6100477 551.451200
   6179   6181   6185     1   114.2100488 537.225600
   6181   6185   6186     1   109.6600471 523.836800
   6181   6185   6187     1   109.6600471 523.836800
   6185   6186   6198     1   114.2100488 537.225600
   6185   6187   6189     1   114.2100488 537.225600
   6186   6198   6201     1   111.0400475 529.694400
   6186   6185   6187     1   109.6600471 523.836800
   6187   6189   6193     1   111.0400475 529.694400
   6189   6193   6194     1   112.7300484 572.371200
   6189   6193   6195     1   123.2000528 564.003200
   6194   6193   6195     1   122.1000523 635.131200
   6198   6201   6202     1   123.2000528 564.003200
   6198   6201   6203     1   112.7300484 572.371200
   6202   6201   6203     1   122.1000523 635.131200
   6207   6209   6211     1   111.6100477 551.451200
   6209   6211   6215     1   114.2100488 537.225600
   6211   6215   6216     1   109.6600471 523.836800
   6211   6215   6217     1   109.6600471 523.836800
   6215   6216   6228     1   114.2100488 537.225600
   6215   6217   6219     1   114.2100488 537.225600
   6216   6215   6217     1   109.6600471 523.836800
   6216   6228   6231     1   111.0400475 529.694400
   6217   6219   6223     1   111.0400475 529.694400
   6219   6223   6224     1   112.7300484 572.371200
   6219   6223   6225     1   123.2000528 564.003200
   6224   6223   6225     1   122.1000523 635.131200
   6228   6231   6232     1   123.2000528 564.003200
   6228   6231   6233     1   112.7300484 572.371200
   6232   6231   6233     1   122.1000523 635.131200
   6237   6239   6241     1   111.6100477 551.451200
   6239   6241   6245     1   114.2100488 537.225600
   6241   6245   6246     1   109.6600471 523.836800
   6241   6245   6247     1   109.6600471 523.836800
   6245   6246   6258     1   114.2100488 537.225600
   6245   6247   6249     1   114.2100488 537.225600
   6246   6258   6261     1   111.0400475 529.694400
   6246   6245   6247     1   109.6600471 523.836800
   6247   6249   6253     1   111.0400475 529.694400
   6249   6253   6254     1   112.7300484 572.371200
   6249   6253   6255     1   123.2000528 564.003200
   6254   6253   6255     1   122.1000523 635.131200
   6258   6261   6262     1   123.2000528 564.003200
   6258   6261   6263     1   112.7300484 572.371200
   6262   6261   6263     1   122.1000523 635.131200
   6267   6269   6271     1   111.6100477 551.451200
   6269   6271   6275     1   114.2100488 537.225600
   6271   6275   6276     1   109.6600471 523.836800
   6271   6275   6277     1   109.6600471 523.836800
   6275   6276   6288     1   114.2100488 537.225600
   6275   6277   6279     1   114.2100488 537.225600
   6276   6275   6277     1   109.6600471 523.836800
   6276   6288   6291     1   111.0400475 529.694400
   6277   6279   6283     1   111.0400475 529.694400
   6279   6283   6284     1   112.7300484 572.371200
   6279   6283   6285     1   123.2000528 564.003200
   6284   6283   6285     1   122.1000523 635.131200
   6288   6291   6292     1   123.2000528 564.003200
   6288   6291   6293     1   112.7300484 572.371200
   6292   6291   6293     1   122.1000523 635.131200
   6297   6299   6301     1   111.6100477 551.451200
   6299   6301   6305     1   114.2100488 537.225600
   6301   6305   6306     1   109.6600471 523.836800
   6301   6305   6307     1   109.6600471 523.836800
   6305   6306   6318     1   114.2100488 537.225600
   6305   6307   6309     1   114.2100488 537.225600
   6306   6318   6321     1   111.0400475 529.694400
   6306   6305   6307     1   109.6600471 523.836800
   6307   6309   6313     1   111.0400475 529.694400
   6309   6313   6314     1   112.7300484 572.371200
   6309   6313   6315     1   123.2000528 564.003200
   6314   6313   6315     1   122.1000523 635.131200
   6318   6321   6322     1   123.2000528 564.003200
   6318   6321   6323     1   112.7300484 572.371200
   6322   6321   6323     1   122.1000523 635.131200
   6327   6329   6331     1   111.6100477 551.451200
   6329   6331   6335     1   114.2100488 537.225600
   6331   6335   6336     1   109.6600471 523.836800
   6331   6335   6337     1   109.6600471 523.836800
   6335   6336   6348     1   114.2100488 537.225600
   6335   6337   6339     1   114.2100488 537.225600
   6336   6335   6337     1   109.6600471 523.836800
   6336   6348   6351     1   111.0400475 529.694400
   6337   6339   6343     1   111.0400475 529.694400
   6339   6343   6344     1   112.7300484 572.371200
   6339   6343   6345     1   123.2000528 564.003200
   6344   6343   6345     1   122.1000523 635.131200
   6348   6351   6352     1   123.2000528 564.003200
   6348   6351   6353     1   112.7300484 572.371200
   6352   6351   6353     1   122.1000523 635.131200
   6357   6359   6361     1   111.6100477 551.451200
   6359   6361   6365     1   114.2100488 537.225600
   6361   6365   6366     1   109.6600471 523.836800
   6361   6365   6367     1   109.6600471 523.836800
   6365   6366   6378     1   114.2100488 537.225600
   6365   6367   6369     1   114.2100488 537.225600
   6366   6378   6381     1   111.0400475 529.694400
   6366   6365   6367     1   109.6600471 523.836800
   6367   6369   6373     1   111.0400475 529.694400
   6369   6373   6374     1   112.7300484 572.371200
   6369   6373   6375     1   123.2000528 564.003200
   6374   6373   6375     1   122.1000523 635.131200
   6378   6381   6382     1   123.2000528 564.003200
   6378   6381   6383     1   112.7300484 572.371200
   6382   6381   6383     1   122.1000523 635.131200
   6387   6389   6391     1   111.6100477 551.451200
   6389   6391   6395     1   114.2100488 537.225600
   6391   6395   6396     1   109.6600471 523.836800
   6391   6395   6397     1   109.6600471 523.836800
   6395   6396   6408     1   114.2100488 537.225600
   6395   6397   6399     1   114.2100488 537.225600
   6396   6395   6397     1   109.6600471 523.836800
   6396   6408   6411     1   111.0400475 529.694400
   6397   6399   6403     1   111.0400475 529.694400
   6399   6403   6404     1   112.7300484 572.371200
   6399   6403   6405     1   123.2000528 564.003200
   6404   6403   6405     1   122.1000523 635.131200
   6408   6411   6412     1   123.2000528 564.003200
   6408   6411   6413     1   112.7300484 572.371200
   6412   6411   6413     1   122.1000523 635.131200
   6417   6419   6421     1   111.6100477 551.451200
   6419   6421   6425     1   114.2100488 537.225600
   6421   6425   6426     1   109.6600471 523.836800
   6421   6425   6427     1   109.6600471 523.836800
   6425   6426   6438     1   114.2100488 537.225600
   6425   6427   6429     1   114.2100488 537.225600
   6426   6438   6441     1   111.0400475 529.694400
   6426   6425   6427     1   109.6600471 523.836800
   6427   6429   6433     1   111.0400475 529.694400
   6429   6433   6434     1   112.7300484 572.371200
   6429   6433   6435     1   123.2000528 564.003200
   6434   6433   6435     1   122.1000523 635.131200
   6438   6441   6442     1   123.2000528 564.003200
   6438   6441   6443     1   112.7300484 572.371200
   6442   6441   6443     1   122.1000523 635.131200
   6447   6449   6451     1   111.6100477 551.451200
   6449   6451   6455     1   114.2100488 537.225600
   6451   6455   6456     1   109.6600471 523.836800
   6451   6455   6457     1   109.6600471 523.836800
   6455   6456   6468     1   114.2100488 537.225600
   6455   6457   6459     1   114.2100488 537.225600
   6456   6455   6457     1   109.6600471 523.836800
   6456   6468   6471     1   111.0400475 529.694400
   6457   6459   6463     1   111.0400475 529.694400
   6459   6463   6464     1   112.7300484 572.371200
   6459   6463   6465     1   123.2000528 564.003200
   6464   6463   6465     1   122.1000523 635.131200
   6468   6471   6472     1   123.2000528 564.003200
   6468   6471   6473     1   112.7300484 572.371200
   6472   6471   6473     1   122.1000523 635.131200
   6477   6479   6481     1   111.6100477 551.451200
   6479   6481   6485     1   114.2100488 537.225600
   6481   6485   6486     1   109.6600471 523.836800
   6481   6485   6487     1   109.6600471 523.836800
   6485   6486   6498     1   114.2100488 537.225600
   6485   6487   6489     1   114.2100488 537.225600
   6486   6498   6501     1   111.0400475 529.694400
   6486   6485   6487     1   109.6600471 523.836800
   6487   6489   6493     1   111.0400475 529.694400
   6489   6493   6494     1   112.7300484 572.371200
   6489   6493   6495     1   123.2000528 564.003200
   6494   6493   6495     1   122.1000523 635.131200
   6498   6501   6502     1   123.2000528 564.003200
   6498   6501   6503     1   112.7300484 572.371200
   6502   6501   6503     1   122.1000523 635.131200
   6507   6509   6511     1   111.6100477 551.451200
   6509   6511   6515     1   114.2100488 537.225600
   6511   6515   6516     1   109.6600471 523.836800
   6511   6515   6517     1   109.6600471 523.836800
   6515   6516   6528     1   114.2100488 537.225600
   6515   6517   6519     1   114.2100488 537.225600
   6516   6515   6517     1   109.6600471 523.836800
   6516   6528   6531     1   111.0400475 529.694400
   6517   6519   6523     1   111.0400475 529.694400
   6519   6523   6524     1   112.7300484 572.371200
   6519   6523   6525     1   123.2000528 564.003200
   6524   6523   6525     1   122.1000523 635.131200
   6528   6531   6532     1   123.2000528 564.003200
   6528   6531   6533     1   112.7300484 572.371200
   6532   6531   6533     1   122.1000523 635.131200
   6537   6539   6541     1   111.6100477 551.451200
   6539   6541   6545     1   114.2100488 537.225600
   6541   6545   6546     1   109.6600471 523.836800
   6541   6545   6547     1   109.6600471 523.836800
   6545   6546   6558     1   114.2100488 537.225600
   6545   6547   6549     1   114.2100488 537.225600
   6546   6558   6561     1   111.0400475 529.694400
   6546   6545   6547     1   109.6600471 523.836800
   6547   6549   6553     1   111.0400475 529.694400
   6549   6553   6554     1   112.7300484 572.371200
   6549   6553   6555     1   123.2000528 564.003200
   6554   6553   6555     1   122.1000523 635.131200
   6558   6561   6562     1   123.2000528 564.003200
   6558   6561   6563     1   112.7300484 572.371200
   6562   6561   6563     1   122.1000523 635.131200
   6567   6569   6571     1   111.6100477 551.451200
   6569   6571   6575     1   114.2100488 537.225600
   6571   6575   6576     1   109.6600471 523.836800
   6571   6575   6577     1   109.6600471 523.836800
   6575   6576   6588     1   114.2100488 537.225600
   6575   6577   6579     1   114.2100488 537.225600
   6576   6575   6577     1   109.6600471 523.836800
   6576   6588   6591     1   111.0400475 529.694400
   6577   6579   6583     1   111.0400475 529.694400
   6579   6583   6584     1   112.7300484 572.371200
   6579   6583   6585     1   123.2000528 564.003200
   6584   6583   6585     1   122.1000523 635.131200
   6588   6591   6592     1   123.2000528 564.003200
   6588   6591   6593     1   112.7300484 572.371200
   6592   6591   6593     1   122.1000523 635.131200
   6597   6599   6601     1   111.6100477 551.451200
   6599   6601   6605     1   114.2100488 537.225600
   6601   6605   6606     1   109.6600471 523.836800
   6601   6605   6607     1   109.6600471 523.836800
   6605   6606   6618     1   114.2100488 537.225600
   6605   6607   6609     1   114.2100488 537.225600
   6606   6618   6621     1   111.0400475 529.694400
   6606   6605   6607     1   109.6600471 523.836800
   6607   6609   6613     1   111.0400475 529.694400
   6609   6613   6614     1   112.7300484 572.371200
   6609   6613   6615     1   123.2000528 564.003200
   6614   6613   6615     1   122.1000523 635.131200
   6618   6621   6622     1   123.2000528 564.003200
   6618   6621   6623     1   112.7300484 572.371200
   6622   6621   6623     1   122.1000523 635.131200
   6627   6629   6631     1   111.6100477 551.451200
   6629   6631   6635     1   114.2100488 537.225600
   6631   6635   6636     1   109.6600471 523.836800
   6631   6635   6637     1   109.6600471 523.836800
   6635   6636   6648     1   114.2100488 537.225600
   6635   6637   6639     1   114.2100488 537.225600
   6636   6635   6637     1   109.6600471 523.836800
   6636   6648   6651     1   111.0400475 529.694400
   6637   6639   6643     1   111.0400475 529.694400
   6639   6643   6644     1   112.7300484 572.371200
   6639   6643   6645     1   123.2000528 564.003200
   6644   6643   6645     1   122.1000523 635.131200
   6648   6651   6652     1   123.2000528 564.003200
   6648   6651   6653     1   112.7300484 572.371200
   6652   6651   6653     1   122.1000523 635.131200
   6657   6659   6661     1   111.6100477 551.451200
   6659   6661   6665     1   114.2100488 537.225600
   6661   6665   6666     1   109.6600471 523.836800
   6661   6665   6667     1   109.6600471 523.836800
   6665   6666   6678     1   114.2100488 537.225600
   6665   6667   6669     1   114.2100488 537.225600
   6666   6678   6681     1   111.0400475 529.694400
   6666   6665   6667     1   109.6600471 523.836800
   6667   6669   6673     1   111.0400475 529.694400
   6669   6673   6674     1   112.7300484 572.371200
   6669   6673   6675     1   123.2000528 564.003200
   6674   6673   6675     1   122.1000523 635.131200
   6678   6681   6682     1   123.2000528 564.003200
   6678   6681   6683     1   112.7300484 572.371200
   6682   6681   6683     1   122.1000523 635.131200
   6687   6689   6691     1   111.6100477 551.451200
   6689   6691   6695     1   114.2100488 537.225600
   6691   6695   6696     1   109.6600471 523.836800
   6691   6695   6697     1   109.6600471 523.836800
   6695   6696   6708     1   114.2100488 537.225600
   6695   6697   6699     1   114.2100488 537.225600
   6696   6695   6697     1   109.6600471 523.836800
   6696   6708   6711     1   111.0400475 529.694400
   6697   6699   6703     1   111.0400475 529.694400
   6699   6703   6704     1   112.7300484 572.371200
   6699   6703   6705     1   123.2000528 564.003200
   6704   6703   6705     1   122.1000523 635.131200
   6708   6711   6712     1   123.2000528 564.003200
   6708   6711   6713     1   112.7300484 572.371200
   6712   6711   6713     1   122.1000523 635.131200
   6717   6719   6721     1   111.6100477 551.451200
   6719   6721   6725     1   114.2100488 537.225600
   6721   6725   6726     1   109.6600471 523.836800
   6721   6725   6727     1   109.6600471 523.836800
   6725   6726   6738     1   114.2100488 537.225600
   6725   6727   6729     1   114.2100488 537.225600
   6726   6738   6741     1   111.0400475 529.694400
   6726   6725   6727     1   109.6600471 523.836800
   6727   6729   6733     1   111.0400475 529.694400
   6729   6733   6734     1   112.7300484 572.371200
   6729   6733   6735     1   123.2000528 564.003200
   6734   6733   6735     1   122.1000523 635.131200
   6738   6741   6742     1   123.2000528 564.003200
   6738   6741   6743     1   112.7300484 572.371200
   6742   6741   6743     1   122.1000523 635.131200
   6747   6749   6751     1   111.6100477 551.451200
   6749   6751   6755     1   114.2100488 537.225600
   6751   6755   6756     1   109.6600471 523.836800
   6751   6755   6757     1   109.6600471 523.836800
   6755   6756   6768     1   114.2100488 537.225600
   6755   6757   6759     1   114.2100488 537.225600
   6756   6755   6757     1   109.6600471 523.836800
   6756   6768   6771     1   111.0400475 529.694400
   6757   6759   6763     1   111.0400475 529.694400
   6759   6763   6764     1   112.7300484 572.371200
   6759   6763   6765     1   123.2000528 564.003200
   6764   6763   6765     1   122.1000523 635.131200
   6768   6771   6772     1   123.2000528 564.003200
   6768   6771   6773     1   112.7300484 572.371200
   6772   6771   6773     1   122.1000523 635.131200
   6777   6779   6781     1   111.6100477 551.451200
   6779   6781   6785     1   114.2100488 537.225600
   6781   6785   6786     1   109.6600471 523.836800
   6781   6785   6787     1   109.6600471 523.836800
   6785   6786   6798     1   114.2100488 537.225600
   6785   6787   6789     1   114.2100488 537.225600
   6786   6798   6801     1   111.0400475 529.694400
   6786   6785   6787     1   109.6600471 523.836800
   6787   6789   6793     1   111.0400475 529.694400
   6789   6793   6794     1   112.7300484 572.371200
   6789   6793   6795     1   123.2000528 564.003200
   6794   6793   6795     1   122.1000523 635.131200
   6798   6801   6802     1   123.2000528 564.003200
   6798   6801   6803     1   112.7300484 572.371200
   6802   6801   6803     1   122.1000523 635.131200
   6807   6809   6811     1   111.6100477 551.451200
   6809   6811   6815     1   114.2100488 537.225600
   6811   6815   6816     1   109.6600471 523.836800
   6811   6815   6817     1   109.6600471 523.836800
   6815   6816   6828     1   114.2100488 537.225600
   6815   6817   6819     1   114.2100488 537.225600
   6816   6815   6817     1   109.6600471 523.836800
   6816   6828   6831     1   111.0400475 529.694400
   6817   6819   6823     1   111.0400475 529.694400
   6819   6823   6824     1   112.7300484 572.371200
   6819   6823   6825     1   123.2000528 564.003200
   6824   6823   6825     1   122.1000523 635.131200
   6828   6831   6832     1   123.2000528 564.003200
   6828   6831   6833     1   112.7300484 572.371200
   6832   6831   6833     1   122.1000523 635.131200
   6837   6839   6841     1   111.6100477 551.451200
   6839   6841   6845     1   114.2100488 537.225600
   6841   6845   6846     1   109.6600471 523.836800
   6841   6845   6847     1   109.6600471 523.836800
   6845   6846   6858     1   114.2100488 537.225600
   6845   6847   6849     1   114.2100488 537.225600
   6846   6858   6861     1   111.0400475 529.694400
   6846   6845   6847     1   109.6600471 523.836800
   6847   6849   6853     1   111.0400475 529.694400
   6849   6853   6854     1   112.7300484 572.371200
   6849   6853   6855     1   123.2000528 564.003200
   6854   6853   6855     1   122.1000523 635.131200
   6858   6861   6862     1   123.2000528 564.003200
   6858   6861   6863     1   112.7300484 572.371200
   6862   6861   6863     1   122.1000523 635.131200
   6867   6869   6871     1   111.6100477 551.451200
   6869   6871   6875     1   114.2100488 537.225600
   6871   6875   6876     1   109.6600471 523.836800
   6871   6875   6877     1   109.6600471 523.836800
   6875   6876   6888     1   114.2100488 537.225600
   6875   6877   6879     1   114.2100488 537.225600
   6876   6875   6877     1   109.6600471 523.836800
   6876   6888   6891     1   111.0400475 529.694400
   6877   6879   6883     1   111.0400475 529.694400
   6879   6883   6884     1   112.7300484 572.371200
   6879   6883   6885     1   123.2000528 564.003200
   6884   6883   6885     1   122.1000523 635.131200
   6888   6891   6892     1   123.2000528 564.003200
   6888   6891   6893     1   112.7300484 572.371200
   6892   6891   6893     1   122.1000523 635.131200
   6897   6899   6901     1   111.6100477 551.451200
   6899   6901   6905     1   114.2100488 537.225600
   6901   6905   6906     1   109.6600471 523.836800
   6901   6905   6907     1   109.6600471 523.836800
   6905   6906   6918     1   114.2100488 537.225600
   6905   6907   6909     1   114.2100488 537.225600
   6906   6918   6921     1   111.0400475 529.694400
   6906   6905   6907     1   109.6600471 523.836800
   6907   6909   6913     1   111.0400475 529.694400
   6909   6913   6914     1   112.7300484 572.371200
   6909   6913   6915     1   123.2000528 564.003200
   6914   6913   6915     1   122.1000523 635.131200
   6918   6921   6922     1   123.2000528 564.003200
   6918   6921   6923     1   112.7300484 572.371200
   6922   6921   6923     1   122.1000523 635.131200
   6927   6929   6931     1   111.6100477 551.451200
   6929   6931   6935     1   114.2100488 537.225600
   6931   6935   6936     1   109.6600471 523.836800
   6931   6935   6937     1   109.6600471 523.836800
   6935   6936   6948     1   114.2100488 537.225600
   6935   6937   6939     1   114.2100488 537.225600
   6936   6935   6937     1   109.6600471 523.836800
   6936   6948   6951     1   111.0400475 529.694400
   6937   6939   6943     1   111.0400475 529.694400
   6939   6943   6944     1   112.7300484 572.371200
   6939   6943   6945     1   123.2000528 564.003200
   6944   6943   6945     1   122.1000523 635.131200
   6948   6951   6952     1   123.2000528 564.003200
   6948   6951   6953     1   112.7300484 572.371200
   6952   6951   6953     1   122.1000523 635.131200
   6957   6959   6961     1   111.6100477 551.451200
   6959   6961   6965     1   114.2100488 537.225600
   6961   6965   6966     1   109.6600471 523.836800
   6961   6965   6967     1   109.6600471 523.836800
   6965   6966   6978     1   114.2100488 537.225600
   6965   6967   6969     1   114.2100488 537.225600
   6966   6978   6981     1   111.0400475 529.694400
   6966   6965   6967     1   109.6600471 523.836800
   6967   6969   6973     1   111.0400475 529.694400
   6969   6973   6974     1   112.7300484 572.371200
   6969   6973   6975     1   123.2000528 564.003200
   6974   6973   6975     1   122.1000523 635.131200
   6978   6981   6982     1   123.2000528 564.003200
   6978   6981   6983     1   112.7300484 572.371200
   6982   6981   6983     1   122.1000523 635.131200
   6987   6989   6991     1   111.6100477 551.451200
   6989   6991   6995     1   114.2100488 537.225600
   6991   6995   6996     1   109.6600471 523.836800
   6991   6995   6997     1   109.6600471 523.836800
   6995   6996   7008     1   114.2100488 537.225600
   6995   6997   6999     1   114.2100488 537.225600
   6996   6995   6997     1   109.6600471 523.836800
   6996   7008   7011     1   111.0400475 529.694400
   6997   6999   7003     1   111.0400475 529.694400
   6999   7003   7004     1   112.7300484 572.371200
   6999   7003   7005     1   123.2000528 564.003200
   7004   7003   7005     1   122.1000523 635.131200
   7008   7011   7012     1   123.2000528 564.003200
   7008   7011   7013     1   112.7300484 572.371200
   7012   7011   7013     1   122.1000523 635.131200
   7017   7019   7021     1   111.6100477 551.451200
   7019   7021   7025     1   114.2100488 537.225600
   7021   7025   7026     1   109.6600471 523.836800
   7021   7025   7027     1   109.6600471 523.836800
   7025   7026   7038     1   114.2100488 537.225600
   7025   7027   7029     1   114.2100488 537.225600
   7026   7038   7041     1   111.0400475 529.694400
   7026   7025   7027     1   109.6600471 523.836800
   7027   7029   7033     1   111.0400475 529.694400
   7029   7033   7034     1   112.7300484 572.371200
   7029   7033   7035     1   123.2000528 564.003200
   7034   7033   7035     1   122.1000523 635.131200
   7038   7041   7042     1   123.2000528 564.003200
   7038   7041   7043     1   112.7300484 572.371200
   7042   7041   7043     1   122.1000523 635.131200
   7047   7049   7051     1   111.6100477 551.451200
   7049   7051   7055     1   114.2100488 537.225600
   7051   7055   7056     1   109.6600471 523.836800
   7051   7055   7057     1   109.6600471 523.836800
   7055   7056   7068     1   114.2100488 537.225600
   7055   7057   7059     1   114.2100488 537.225600
   7056   7055   7057     1   109.6600471 523.836800
   7056   7068   7071     1   111.0400475 529.694400
   7057   7059   7063     1   111.0400475 529.694400
   7059   7063   7064     1   112.7300484 572.371200
   7059   7063   7065     1   123.2000528 564.003200
   7064   7063   7065     1   122.1000523 635.131200
   7068   7071   7072     1   123.2000528 564.003200
   7068   7071   7073     1   112.7300484 572.371200
   7072   7071   7073     1   122.1000523 635.131200
   7077   7079   7081     1   111.6100477 551.451200
   7079   7081   7085     1   114.2100488 537.225600
   7081   7085   7086     1   109.6600471 523.836800
   7081   7085   7087     1   109.6600471 523.836800
   7085   7086   7098     1   114.2100488 537.225600
   7085   7087   7089     1   114.2100488 537.225600
   7086   7098   7101     1   111.0400475 529.694400
   7086   7085   7087     1   109.6600471 523.836800
   7087   7089   7093     1   111.0400475 529.694400
   7089   7093   7094     1   112.7300484 572.371200
   7089   7093   7095     1   123.2000528 564.003200
   7094   7093   7095     1   122.1000523 635.131200
   7098   7101   7102     1   123.2000528 564.003200
   7098   7101   7103     1   112.7300484 572.371200
   7102   7101   7103     1   122.1000523 635.131200
      1      2     21     1   108.0100461 406.684800
      1      2     22     1   108.0100461 406.684800
      1      7     29     1   108.0100461 406.684800
      1      7     30     1   108.0100461 406.684800
      1      8     31     1   108.0100461 406.684800
      1      8     32     1   108.0100461 406.684800
      2      1     41     1   110.1100470 384.091200
      2      3     23     1   110.5600475 386.601600
      2      3     24     1   110.5600475 386.601600
      3      2     21     1   110.5600475 386.601600
      3      2     22     1   110.5600475 386.601600
      3      4     42     1   110.1100470 384.091200
      4      3     23     1   108.0100461 406.684800
      4      3     24     1   108.0100461 406.684800
      4      5     25     1   108.0100461 406.684800
      4      5     26     1   108.0100461 406.684800
      4      6     27     1   108.0100461 406.684800
      4      6     28     1   108.0100461 406.684800
      5      4     42     1   110.1100470 384.091200
      5     11     35     1   109.8000471 387.438400
      5     11     36     1   109.8000471 387.438400
      6      4     42     1   110.1100470 384.091200
      6      9     33     1   109.8000471 387.438400
      6      9     34     1   109.8000471 387.438400
      7      1     41     1   110.1100470 384.091200
      7     13     37     1   109.8000471 387.438400
      7     13     38     1   109.8000471 387.438400
      8      1     41     1   110.1100470 384.091200
      8     15     39     1   109.8000471 387.438400
      8     15     40     1   109.8000471 387.438400
      9      6     27     1   110.5600475 386.601600
      9      6     28     1   110.5600475 386.601600
     10      9     33     1   108.7700466 392.459200
     10      9     34     1   108.7700466 392.459200
     10     52     67     1   117.5500507 404.174400
     11      5     25     1   110.5600475 386.601600
     11      5     26     1   110.5600475 386.601600
     12     11     35     1   108.7700466 392.459200
     12     11     36     1   108.7700466 392.459200
     12     78     93     1   117.5500507 404.174400
     13      7     29     1   110.5600475 386.601600
     13      7     30     1   110.5600475 386.601600
     14     13     37     1   108.7700466 392.459200
     14     13     38     1   108.7700466 392.459200
     14    104    119     1   117.5500507 404.174400
     15      8     31     1   110.5600475 386.601600
     15      8     32     1   110.5600475 386.601600
     16     15     39     1   108.7700466 392.459200
     16     15     40     1   108.7700466 392.459200
     16    130    145     1   117.5500507 404.174400
     21      2     22     1   109.7500473 328.025600
     23      3     24     1   109.7500473 328.025600
     25      5     26     1   109.7500473 328.025600
     27      6     28     1   109.7500473 328.025600
     29      7     30     1   109.7500473 328.025600
     31      8     32     1   109.7500473 328.025600
     33      9     34     1   107.5800459 329.699200
     35     11     36     1   107.5800459 329.699200
     37     13     38     1   107.5800459 329.699200
     39     15     40     1   107.5800459 329.699200
     43     44     55     1   108.0100461 406.684800
     43     44     56     1   108.0100461 406.684800
     43     45     57     1   108.0100461 406.684800
     43     45     58     1   108.0100461 406.684800
     43     50     63     1   108.0100461 406.684800
     43     50     64     1   108.0100461 406.684800
     44     43     68     1   110.1100470 384.091200
     44     46     59     1   109.8000471 387.438400
     44     46     60     1   109.8000471 387.438400
     45     43     68     1   110.1100470 384.091200
     45     48     61     1   109.8000471 387.438400
     45     48     62     1   109.8000471 387.438400
     46     44     55     1   110.5600475 386.601600
     46     44     56     1   110.5600475 386.601600
     47     46     59     1   108.7700466 392.459200
     47     46     60     1   108.7700466 392.459200
     47    156    171     1   117.5500507 404.174400
     48     45     57     1   110.5600475 386.601600
     48     45     58     1   110.5600475 386.601600
     49     48     61     1   108.7700466 392.459200
     49     48     62     1   108.7700466 392.459200
     49    182    197     1   117.5500507 404.174400
     50     43     68     1   110.1100470 384.091200
     50     51     65     1   109.5600471 388.275200
     50     51     66     1   109.5600471 388.275200
     51     50     63     1   110.5600475 386.601600
     51     50     64     1   110.5600475 386.601600
     51     52     67     1   117.6800502 383.254400
     52     51     65     1   108.8800464 416.726400
     52     51     66     1   108.8800464 416.726400
     55     44     56     1   109.7500473 328.025600
     57     45     58     1   109.7500473 328.025600
     59     46     60     1   107.5800459 329.699200
     61     48     62     1   107.5800459 329.699200
     63     50     64     1   109.7500473 328.025600
     65     51     66     1   108.4600466 328.025600
     69     70     81     1   108.0100461 406.684800
     69     70     82     1   108.0100461 406.684800
     69     71     83     1   108.0100461 406.684800
     69     71     84     1   108.0100461 406.684800
     69     76     89     1   108.0100461 406.684800
     69     76     90     1   108.0100461 406.684800
     70     69     94     1   110.1100470 384.091200
     70     72     85     1   109.8000471 387.438400
     70     72     86     1   109.8000471 387.438400
     71     69     94     1   110.1100470 384.091200
     71     74     87     1   109.8000471 387.438400
     71     74     88     1   109.8000471 387.438400
     72     70     81     1   110.5600475 386.601600
     72     70     82     1   110.5600475 386.601600
     73     72     85     1   108.7700466 392.459200
     73     72     86     1   108.7700466 392.459200
     73    208    223     1   117.5500507 404.174400
     74     71     83     1   110.5600475 386.601600
     74     71     84     1   110.5600475 386.601600
     75     74     87     1   108.7700466 392.459200
     75     74     88     1   108.7700466 392.459200
     75    234    249     1   117.5500507 404.174400
     76     69     94     1   110.1100470 384.091200
     76     77     91     1   109.5600471 388.275200
     76     77     92     1   109.5600471 388.275200
     77     76     89     1   110.5600475 386.601600
     77     76     90     1   110.5600475 386.601600
     77     78     93     1   117.6800502 383.254400
     78     77     91     1   108.8800464 416.726400
     78     77     92     1   108.8800464 416.726400
     81     70     82     1   109.7500473 328.025600
     83     71     84     1   109.7500473 328.025600
     85     72     86     1   107.5800459 329.699200
     87     74     88     1   107.5800459 329.699200
     89     76     90     1   109.7500473 328.025600
     91     77     92     1   108.4600466 328.025600
     95     96    107     1   108.0100461 406.684800
     95     96    108     1   108.0100461 406.684800
     95     97    109     1   108.0100461 406.684800
     95     97    110     1   108.0100461 406.684800
     95    102    115     1   108.0100461 406.684800
     95    102    116     1   108.0100461 406.684800
     96     95    120     1   110.1100470 384.091200
     96     98    111     1   109.8000471 387.438400
     96     98    112     1   109.8000471 387.438400
     97     95    120     1   110.1100470 384.091200
     97    100    113     1   109.8000471 387.438400
     97    100    114     1   109.8000471 387.438400
     98     96    107     1   110.5600475 386.601600
     98     96    108     1   110.5600475 386.601600
     99     98    111     1   108.7700466 392.459200
     99     98    112     1   108.7700466 392.459200
     99    260    275     1   117.5500507 404.174400
    100     97    109     1   110.5600475 386.601600
    100     97    110     1   110.5600475 386.601600
    101    100    113     1   108.7700466 392.459200
    101    100    114     1   108.7700466 392.459200
    101    286    301     1   117.5500507 404.174400
    102     95    120     1   110.1100470 384.091200
    102    103    117     1   109.5600471 388.275200
    102    103    118     1   109.5600471 388.275200
    103    102    115     1   110.5600475 386.601600
    103    102    116     1   110.5600475 386.601600
    103    104    119     1   117.6800502 383.254400
    104    103    117     1   108.8800464 416.726400
    104    103    118     1   108.8800464 416.726400
    107     96    108     1   109.7500473 328.025600
    109     97    110     1   109.7500473 328.025600
    111     98    112     1   107.5800459 329.699200
    113    100    114     1   107.5800459 329.699200
    115    102    116     1   109.7500473 328.025600
    117    103    118     1   108.4600466 328.025600
    121    122    133     1   108.0100461 406.684800
    121    122    134     1   108.0100461 406.684800
    121    123    135     1   108.0100461 406.684800
    121    123    136     1   108.0100461 406.684800
    121    128    141     1   108.0100461 406.684800
    121    128    142     1   108.0100461 406.684800
    122    121    146     1   110.1100470 384.091200
    122    124    137     1   109.8000471 387.438400
    122    124    138     1   109.8000471 387.438400
    123    121    146     1   110.1100470 384.091200
    123    126    139     1   109.8000471 387.438400
    123    126    140     1   109.8000471 387.438400
    124    122    133     1   110.5600475 386.601600
    124    122    134     1   110.5600475 386.601600
    125    124    137     1   108.7700466 392.459200
    125    124    138     1   108.7700466 392.459200
    125    312    327     1   117.5500507 404.174400
    126    123    135     1   110.5600475 386.601600
    126    123    136     1   110.5600475 386.601600
    127    126    139     1   108.7700466 392.459200
    127    126    140     1   108.7700466 392.459200
    127    338    353     1   117.5500507 404.174400
    128    121    146     1   110.1100470 384.091200
    128    129    143     1   109.5600471 388.275200
    128    129    144     1   109.5600471 388.275200
    129    128    141     1   110.5600475 386.601600
    129    128    142     1   110.5600475 386.601600
    129    130    145     1   117.6800502 383.254400
    130    129    143     1   108.8800464 416.726400
    130    129    144     1   108.8800464 416.726400
    133    122    134     1   109.7500473 328.025600
    135    123    136     1   109.7500473 328.025600
    137    124    138     1   107.5800459 329.699200
    139    126    140     1   107.5800459 329.699200
    141    128    142     1   109.7500473 328.025600
    143    129    144     1   108.4600466 328.025600
    147    148    159     1   108.0100461 406.684800
    147    148    160     1   108.0100461 406.684800
    147    149    161     1   108.0100461 406.684800
    147    149    162     1   108.0100461 406.684800
    147    154    167     1   108.0100461 406.684800
    147    154    168     1   108.0100461 406.684800
    148    147    172     1   110.1100470 384.091200
    148    150    163     1   109.8000471 387.438400
    148    150    164     1   109.8000471 387.438400
    149    147    172     1   110.1100470 384.091200
    149    152    165     1   109.8000471 387.438400
    149    152    166     1   109.8000471 387.438400
    150    148    159     1   110.5600475 386.601600
    150    148    160     1   110.5600475 386.601600
    151    150    163     1   108.7700466 392.459200
    151    150    164     1   108.7700466 392.459200
    151    364    379     1   117.5500507 404.174400
    152    149    161     1   110.5600475 386.601600
    152    149    162     1   110.5600475 386.601600
    153    152    165     1   108.7700466 392.459200
    153    152    166     1   108.7700466 392.459200
    153    390    405     1   117.5500507 404.174400
    154    147    172     1   110.1100470 384.091200
    154    155    169     1   109.5600471 388.275200
    154    155    170     1   109.5600471 388.275200
    155    154    167     1   110.5600475 386.601600
    155    154    168     1   110.5600475 386.601600
    155    156    171     1   117.6800502 383.254400
    156    155    169     1   108.8800464 416.726400
    156    155    170     1   108.8800464 416.726400
    159    148    160     1   109.7500473 328.025600
    161    149    162     1   109.7500473 328.025600
    163    150    164     1   107.5800459 329.699200
    165    152    166     1   107.5800459 329.699200
    167    154    168     1   109.7500473 328.025600
    169    155    170     1   108.4600466 328.025600
    173    174    185     1   108.0100461 406.684800
    173    174    186     1   108.0100461 406.684800
    173    175    187     1   108.0100461 406.684800
    173    175    188     1   108.0100461 406.684800
    173    180    193     1   108.0100461 406.684800
    173    180    194     1   108.0100461 406.684800
    174    173    198     1   110.1100470 384.091200
    174    176    189     1   109.8000471 387.438400
    174    176    190     1   109.8000471 387.438400
    175    173    198     1   110.1100470 384.091200
    175    178    191     1   109.8000471 387.438400
    175    178    192     1   109.8000471 387.438400
    176    174    185     1   110.5600475 386.601600
    176    174    186     1   110.5600475 386.601600
    177    176    189     1   108.7700466 392.459200
    177    176    190     1   108.7700466 392.459200
    177    416    431     1   117.5500507 404.174400
    178    175    187     1   110.5600475 386.601600
    178    175    188     1   110.5600475 386.601600
    179    178    191     1   108.7700466 392.459200
    179    178    192     1   108.7700466 392.459200
    179    442    457     1   117.5500507 404.174400
    180    173    198     1   110.1100470 384.091200
    180    181    195     1   109.5600471 388.275200
    180    181    196     1   109.5600471 388.275200
    181    180    193     1   110.5600475 386.601600
    181    180    194     1   110.5600475 386.601600
    181    182    197     1   117.6800502 383.254400
    182    181    195     1   108.8800464 416.726400
    182    181    196     1   108.8800464 416.726400
    185    174    186     1   109.7500473 328.025600
    187    175    188     1   109.7500473 328.025600
    189    176    190     1   107.5800459 329.699200
    191    178    192     1   107.5800459 329.699200
    193    180    194     1   109.7500473 328.025600
    195    181    196     1   108.4600466 328.025600
    199    200    211     1   108.0100461 406.684800
    199    200    212     1   108.0100461 406.684800
    199    201    213     1   108.0100461 406.684800
    199    201    214     1   108.0100461 406.684800
    199    206    219     1   108.0100461 406.684800
    199    206    220     1   108.0100461 406.684800
    200    199    224     1   110.1100470 384.091200
    200    202    215     1   109.8000471 387.438400
    200    202    216     1   109.8000471 387.438400
    201    199    224     1   110.1100470 384.091200
    201    204    217     1   109.8000471 387.438400
    201    204    218     1   109.8000471 387.438400
    202    200    211     1   110.5600475 386.601600
    202    200    212     1   110.5600475 386.601600
    203    202    215     1   108.7700466 392.459200
    203    202    216     1   108.7700466 392.459200
    203    468    483     1   117.5500507 404.174400
    204    201    213     1   110.5600475 386.601600
    204    201    214     1   110.5600475 386.601600
    205    204    217     1   108.7700466 392.459200
    205    204    218     1   108.7700466 392.459200
    205    494    509     1   117.5500507 404.174400
    206    199    224     1   110.1100470 384.091200
    206    207    221     1   109.5600471 388.275200
    206    207    222     1   109.5600471 388.275200
    207    206    219     1   110.5600475 386.601600
    207    206    220     1   110.5600475 386.601600
    207    208    223     1   117.6800502 383.254400
    208    207    221     1   108.8800464 416.726400
    208    207    222     1   108.8800464 416.726400
    211    200    212     1   109.7500473 328.025600
    213    201    214     1   109.7500473 328.025600
    215    202    216     1   107.5800459 329.699200
    217    204    218     1   107.5800459 329.699200
    219    206    220     1   109.7500473 328.025600
    221    207    222     1   108.4600466 328.025600
    225    226    237     1   108.0100461 406.684800
    225    226    238     1   108.0100461 406.684800
    225    227    239     1   108.0100461 406.684800
    225    227    240     1   108.0100461 406.684800
    225    232    245     1   108.0100461 406.684800
    225    232    246     1   108.0100461 406.684800
    226    225    250     1   110.1100470 384.091200
    226    228    241     1   109.8000471 387.438400
    226    228    242     1   109.8000471 387.438400
    227    225    250     1   110.1100470 384.091200
    227    230    243     1   109.8000471 387.438400
    227    230    244     1   109.8000471 387.438400
    228    226    237     1   110.5600475 386.601600
    228    226    238     1   110.5600475 386.601600
    229    228    241     1   108.7700466 392.459200
    229    228    242     1   108.7700466 392.459200
    229    520    535     1   117.5500507 404.174400
    230    227    239     1   110.5600475 386.601600
    230    227    240     1   110.5600475 386.601600
    231    230    243     1   108.7700466 392.459200
    231    230    244     1   108.7700466 392.459200
    231    546    561     1   117.5500507 404.174400
    232    225    250     1   110.1100470 384.091200
    232    233    247     1   109.5600471 388.275200
    232    233    248     1   109.5600471 388.275200
    233    232    245     1   110.5600475 386.601600
    233    232    246     1   110.5600475 386.601600
    233    234    249     1   117.6800502 383.254400
    234    233    247     1   108.8800464 416.726400
    234    233    248     1   108.8800464 416.726400
    237    226    238     1   109.7500473 328.025600
    239    227    240     1   109.7500473 328.025600
    241    228    242     1   107.5800459 329.699200
    243    230    244     1   107.5800459 329.699200
    245    232    246     1   109.7500473 328.025600
    247    233    248     1   108.4600466 328.025600
    251    252    263     1   108.0100461 406.684800
    251    252    264     1   108.0100461 406.684800
    251    253    265     1   108.0100461 406.684800
    251    253    266     1   108.0100461 406.684800
    251    258    271     1   108.0100461 406.684800
    251    258    272     1   108.0100461 406.684800
    252    251    276     1   110.1100470 384.091200
    252    254    267     1   109.8000471 387.438400
    252    254    268     1   109.8000471 387.438400
    253    251    276     1   110.1100470 384.091200
    253    256    269     1   109.8000471 387.438400
    253    256    270     1   109.8000471 387.438400
    254    252    263     1   110.5600475 386.601600
    254    252    264     1   110.5600475 386.601600
    255    254    267     1   108.7700466 392.459200
    255    254    268     1   108.7700466 392.459200
    255    572    587     1   117.5500507 404.174400
    256    253    265     1   110.5600475 386.601600
    256    253    266     1   110.5600475 386.601600
    257    256    269     1   108.7700466 392.459200
    257    256    270     1   108.7700466 392.459200
    257    598    613     1   117.5500507 404.174400
    258    251    276     1   110.1100470 384.091200
    258    259    273     1   109.5600471 388.275200
    258    259    274     1   109.5600471 388.275200
    259    258    271     1   110.5600475 386.601600
    259    258    272     1   110.5600475 386.601600
    259    260    275     1   117.6800502 383.254400
    260    259    273     1   108.8800464 416.726400
    260    259    274     1   108.8800464 416.726400
    263    252    264     1   109.7500473 328.025600
    265    253    266     1   109.7500473 328.025600
    267    254    268     1   107.5800459 329.699200
    269    256    270     1   107.5800459 329.699200
    271    258    272     1   109.7500473 328.025600
    273    259    274     1   108.4600466 328.025600
    277    278    289     1   108.0100461 406.684800
    277    278    290     1   108.0100461 406.684800
    277    279    291     1   108.0100461 406.684800
    277    279    292     1   108.0100461 406.684800
    277    284    297     1   108.0100461 406.684800
    277    284    298     1   108.0100461 406.684800
    278    277    302     1   110.1100470 384.091200
    278    280    293     1   109.8000471 387.438400
    278    280    294     1   109.8000471 387.438400
    279    277    302     1   110.1100470 384.091200
    279    282    295     1   109.8000471 387.438400
    279    282    296     1   109.8000471 387.438400
    280    278    289     1   110.5600475 386.601600
    280    278    290     1   110.5600475 386.601600
    281    280    293     1   108.7700466 392.459200
    281    280    294     1   108.7700466 392.459200
    281    624    639     1   117.5500507 404.174400
    282    279    291     1   110.5600475 386.601600
    282    279    292     1   110.5600475 386.601600
    283    282    295     1   108.7700466 392.459200
    283    282    296     1   108.7700466 392.459200
    283    650    665     1   117.5500507 404.174400
    284    277    302     1   110.1100470 384.091200
    284    285    299     1   109.5600471 388.275200
    284    285    300     1   109.5600471 388.275200
    285    284    297     1   110.5600475 386.601600
    285    284    298     1   110.5600475 386.601600
    285    286    301     1   117.6800502 383.254400
    286    285    299     1   108.8800464 416.726400
    286    285    300     1   108.8800464 416.726400
    289    278    290     1   109.7500473 328.025600
    291    279    292     1   109.7500473 328.025600
    293    280    294     1   107.5800459 329.699200
    295    282    296     1   107.5800459 329.699200
    297    284    298     1   109.7500473 328.025600
    299    285    300     1   108.4600466 328.025600
    303    304    315     1   108.0100461 406.684800
    303    304    316     1   108.0100461 406.684800
    303    305    317     1   108.0100461 406.684800
    303    305    318     1   108.0100461 406.684800
    303    310    323     1   108.0100461 406.684800
    303    310    324     1   108.0100461 406.684800
    304    303    328     1   110.1100470 384.091200
    304    306    319     1   109.8000471 387.438400
    304    306    320     1   109.8000471 387.438400
    305    303    328     1   110.1100470 384.091200
    305    308    321     1   109.8000471 387.438400
    305    308    322     1   109.8000471 387.438400
    306    304    315     1   110.5600475 386.601600
    306    304    316     1   110.5600475 386.601600
    307    306    319     1   108.7700466 392.459200
    307    306    320     1   108.7700466 392.459200
    307    676    691     1   117.5500507 404.174400
    308    305    317     1   110.5600475 386.601600
    308    305    318     1   110.5600475 386.601600
    309    308    321     1   108.7700466 392.459200
    309    308    322     1   108.7700466 392.459200
    309    702    717     1   117.5500507 404.174400
    310    303    328     1   110.1100470 384.091200
    310    311    325     1   109.5600471 388.275200
    310    311    326     1   109.5600471 388.275200
    311    310    323     1   110.5600475 386.601600
    311    310    324     1   110.5600475 386.601600
    311    312    327     1   117.6800502 383.254400
    312    311    325     1   108.8800464 416.726400
    312    311    326     1   108.8800464 416.726400
    315    304    316     1   109.7500473 328.025600
    317    305    318     1   109.7500473 328.025600
    319    306    320     1   107.5800459 329.699200
    321    308    322     1   107.5800459 329.699200
    323    310    324     1   109.7500473 328.025600
    325    311    326     1   108.4600466 328.025600
    329    330    341     1   108.0100461 406.684800
    329    330    342     1   108.0100461 406.684800
    329    331    343     1   108.0100461 406.684800
    329    331    344     1   108.0100461 406.684800
    329    336    349     1   108.0100461 406.684800
    329    336    350     1   108.0100461 406.684800
    330    329    354     1   110.1100470 384.091200
    330    332    345     1   109.8000471 387.438400
    330    332    346     1   109.8000471 387.438400
    331    329    354     1   110.1100470 384.091200
    331    334    347     1   109.8000471 387.438400
    331    334    348     1   109.8000471 387.438400
    332    330    341     1   110.5600475 386.601600
    332    330    342     1   110.5600475 386.601600
    333    332    345     1   108.7700466 392.459200
    333    332    346     1   108.7700466 392.459200
    333    728    743     1   117.5500507 404.174400
    334    331    343     1   110.5600475 386.601600
    334    331    344     1   110.5600475 386.601600
    335    334    347     1   108.7700466 392.459200
    335    334    348     1   108.7700466 392.459200
    335    754    769     1   117.5500507 404.174400
    336    329    354     1   110.1100470 384.091200
    336    337    351     1   109.5600471 388.275200
    336    337    352     1   109.5600471 388.275200
    337    336    349     1   110.5600475 386.601600
    337    336    350     1   110.5600475 386.601600
    337    338    353     1   117.6800502 383.254400
    338    337    351     1   108.8800464 416.726400
    338    337    352     1   108.8800464 416.726400
    341    330    342     1   109.7500473 328.025600
    343    331    344     1   109.7500473 328.025600
    345    332    346     1   107.5800459 329.699200
    347    334    348     1   107.5800459 329.699200
    349    336    350     1   109.7500473 328.025600
    351    337    352     1   108.4600466 328.025600
    355    356    367     1   108.0100461 406.684800
    355    356    368     1   108.0100461 406.684800
    355    357    369     1   108.0100461 406.684800
    355    357    370     1   108.0100461 406.684800
    355    362    375     1   108.0100461 406.684800
    355    362    376     1   108.0100461 406.684800
    356    355    380     1   110.1100470 384.091200
    356    358    371     1   109.8000471 387.438400
    356    358    372     1   109.8000471 387.438400
    357    355    380     1   110.1100470 384.091200
    357    360    373     1   109.8000471 387.438400
    357    360    374     1   109.8000471 387.438400
    358    356    367     1   110.5600475 386.601600
    358    356    368     1   110.5600475 386.601600
    359    358    371     1   108.7700466 392.459200
    359    358    372     1   108.7700466 392.459200
    359    780    795     1   117.5500507 404.174400
    360    357    369     1   110.5600475 386.601600
    360    357    370     1   110.5600475 386.601600
    361    360    373     1   108.7700466 392.459200
    361    360    374     1   108.7700466 392.459200
    361    806    821     1   117.5500507 404.174400
    362    355    380     1   110.1100470 384.091200
    362    363    377     1   109.5600471 388.275200
    362    363    378     1   109.5600471 388.275200
    363    362    375     1   110.5600475 386.601600
    363    362    376     1   110.5600475 386.601600
    363    364    379     1   117.6800502 383.254400
    364    363    377     1   108.8800464 416.726400
    364    363    378     1   108.8800464 416.726400
    367    356    368     1   109.7500473 328.025600
    369    357    370     1   109.7500473 328.025600
    371    358    372     1   107.5800459 329.699200
    373    360    374     1   107.5800459 329.699200
    375    362    376     1   109.7500473 328.025600
    377    363    378     1   108.4600466 328.025600
    381    382    393     1   108.0100461 406.684800
    381    382    394     1   108.0100461 406.684800
    381    383    395     1   108.0100461 406.684800
    381    383    396     1   108.0100461 406.684800
    381    388    401     1   108.0100461 406.684800
    381    388    402     1   108.0100461 406.684800
    382    381    406     1   110.1100470 384.091200
    382    384    397     1   109.8000471 387.438400
    382    384    398     1   109.8000471 387.438400
    383    381    406     1   110.1100470 384.091200
    383    386    399     1   109.8000471 387.438400
    383    386    400     1   109.8000471 387.438400
    384    382    393     1   110.5600475 386.601600
    384    382    394     1   110.5600475 386.601600
    385    384    397     1   108.7700466 392.459200
    385    384    398     1   108.7700466 392.459200
    385    832    847     1   117.5500507 404.174400
    386    383    395     1   110.5600475 386.601600
    386    383    396     1   110.5600475 386.601600
    387    386    399     1   108.7700466 392.459200
    387    386    400     1   108.7700466 392.459200
    387    858    873     1   117.5500507 404.174400
    388    381    406     1   110.1100470 384.091200
    388    389    403     1   109.5600471 388.275200
    388    389    404     1   109.5600471 388.275200
    389    388    401     1   110.5600475 386.601600
    389    388    402     1   110.5600475 386.601600
    389    390    405     1   117.6800502 383.254400
    390    389    403     1   108.8800464 416.726400
    390    389    404     1   108.8800464 416.726400
    393    382    394     1   109.7500473 328.025600
    395    383    396     1   109.7500473 328.025600
    397    384    398     1   107.5800459 329.699200
    399    386    400     1   107.5800459 329.699200
    401    388    402     1   109.7500473 328.025600
    403    389    404     1   108.4600466 328.025600
    407    408    419     1   108.0100461 406.684800
    407    408    420     1   108.0100461 406.684800
    407    409    421     1   108.0100461 406.684800
    407    409    422     1   108.0100461 406.684800
    407    414    427     1   108.0100461 406.684800
    407    414    428     1   108.0100461 406.684800
    408    407    432     1   110.1100470 384.091200
    408    410    423     1   109.8000471 387.438400
    408    410    424     1   109.8000471 387.438400
    409    407    432     1   110.1100470 384.091200
    409    412    425     1   109.8000471 387.438400
    409    412    426     1   109.8000471 387.438400
    410    408    419     1   110.5600475 386.601600
    410    408    420     1   110.5600475 386.601600
    411    410    423     1   108.7700466 392.459200
    411    410    424     1   108.7700466 392.459200
    411    884    899     1   117.5500507 404.174400
    412    409    421     1   110.5600475 386.601600
    412    409    422     1   110.5600475 386.601600
    413    412    425     1   108.7700466 392.459200
    413    412    426     1   108.7700466 392.459200
    413    910    925     1   117.5500507 404.174400
    414    407    432     1   110.1100470 384.091200
    414    415    429     1   109.5600471 388.275200
    414    415    430     1   109.5600471 388.275200
    415    414    427     1   110.5600475 386.601600
    415    414    428     1   110.5600475 386.601600
    415    416    431     1   117.6800502 383.254400
    416    415    429     1   108.8800464 416.726400
    416    415    430     1   108.8800464 416.726400
    419    408    420     1   109.7500473 328.025600
    421    409    422     1   109.7500473 328.025600
    423    410    424     1   107.5800459 329.699200
    425    412    426     1   107.5800459 329.699200
    427    414    428     1   109.7500473 328.025600
    429    415    430     1   108.4600466 328.025600
    433    434    445     1   108.0100461 406.684800
    433    434    446     1   108.0100461 406.684800
    433    435    447     1   108.0100461 406.684800
    433    435    448     1   108.0100461 406.684800
    433    440    453     1   108.0100461 406.684800
    433    440    454     1   108.0100461 406.684800
    434    433    458     1   110.1100470 384.091200
    434    436    449     1   109.8000471 387.438400
    434    436    450     1   109.8000471 387.438400
    435    433    458     1   110.1100470 384.091200
    435    438    451     1   109.8000471 387.438400
    435    438    452     1   109.8000471 387.438400
    436    434    445     1   110.5600475 386.601600
    436    434    446     1   110.5600475 386.601600
    437    436    449     1   108.7700466 392.459200
    437    436    450     1   108.7700466 392.459200
    437    936    951     1   117.5500507 404.174400
    438    435    447     1   110.5600475 386.601600
    438    435    448     1   110.5600475 386.601600
    439    438    451     1   108.7700466 392.459200
    439    438    452     1   108.7700466 392.459200
    439    962    977     1   117.5500507 404.174400
    440    433    458     1   110.1100470 384.091200
    440    441    455     1   109.5600471 388.275200
    440    441    456     1   109.5600471 388.275200
    441    440    453     1   110.5600475 386.601600
    441    440    454     1   110.5600475 386.601600
    441    442    457     1   117.6800502 383.254400
    442    441    455     1   108.8800464 416.726400
    442    441    456     1   108.8800464 416.726400
    445    434    446     1   109.7500473 328.025600
    447    435    448     1   109.7500473 328.025600
    449    436    450     1   107.5800459 329.699200
    451    438    452     1   107.5800459 329.699200
    453    440    454     1   109.7500473 328.025600
    455    441    456     1   108.4600466 328.025600
    459    460    471     1   108.0100461 406.684800
    459    460    472     1   108.0100461 406.684800
    459    461    473     1   108.0100461 406.684800
    459    461    474     1   108.0100461 406.684800
    459    466    479     1   108.0100461 406.684800
    459    466    480     1   108.0100461 406.684800
    460    459    484     1   110.1100470 384.091200
    460    462    475     1   109.8000471 387.438400
    460    462    476     1   109.8000471 387.438400
    461    459    484     1   110.1100470 384.091200
    461    464    477     1   109.8000471 387.438400
    461    464    478     1   109.8000471 387.438400
    462    460    471     1   110.5600475 386.601600
    462    460    472     1   110.5600475 386.601600
    463    462    475     1   108.7700466 392.459200
    463    462    476     1   108.7700466 392.459200
    463    988   1003     1   117.5500507 404.174400
    464    461    473     1   110.5600475 386.601600
    464    461    474     1   110.5600475 386.601600
    465    464    477     1   108.7700466 392.459200
    465    464    478     1   108.7700466 392.459200
    465   1014   1029     1   117.5500507 404.174400
    466    459    484     1   110.1100470 384.091200
    466    467    481     1   109.5600471 388.275200
    466    467    482     1   109.5600471 388.275200
    467    466    479     1   110.5600475 386.601600
    467    466    480     1   110.5600475 386.601600
    467    468    483     1   117.6800502 383.254400
    468    467    481     1   108.8800464 416.726400
    468    467    482     1   108.8800464 416.726400
    471    460    472     1   109.7500473 328.025600
    473    461    474     1   109.7500473 328.025600
    475    462    476     1   107.5800459 329.699200
    477    464    478     1   107.5800459 329.699200
    479    466    480     1   109.7500473 328.025600
    481    467    482     1   108.4600466 328.025600
    485    486    497     1   108.0100461 406.684800
    485    486    498     1   108.0100461 406.684800
    485    487    499     1   108.0100461 406.684800
    485    487    500     1   108.0100461 406.684800
    485    492    505     1   108.0100461 406.684800
    485    492    506     1   108.0100461 406.684800
    486    485    510     1   110.1100470 384.091200
    486    488    501     1   109.8000471 387.438400
    486    488    502     1   109.8000471 387.438400
    487    485    510     1   110.1100470 384.091200
    487    490    503     1   109.8000471 387.438400
    487    490    504     1   109.8000471 387.438400
    488    486    497     1   110.5600475 386.601600
    488    486    498     1   110.5600475 386.601600
    489    488    501     1   108.7700466 392.459200
    489    488    502     1   108.7700466 392.459200
    489   1040   1055     1   117.5500507 404.174400
    490    487    499     1   110.5600475 386.601600
    490    487    500     1   110.5600475 386.601600
    491    490    503     1   108.7700466 392.459200
    491    490    504     1   108.7700466 392.459200
    491   1066   1081     1   117.5500507 404.174400
    492    485    510     1   110.1100470 384.091200
    492    493    507     1   109.5600471 388.275200
    492    493    508     1   109.5600471 388.275200
    493    492    505     1   110.5600475 386.601600
    493    492    506     1   110.5600475 386.601600
    493    494    509     1   117.6800502 383.254400
    494    493    507     1   108.8800464 416.726400
    494    493    508     1   108.8800464 416.726400
    497    486    498     1   109.7500473 328.025600
    499    487    500     1   109.7500473 328.025600
    501    488    502     1   107.5800459 329.699200
    503    490    504     1   107.5800459 329.699200
    505    492    506     1   109.7500473 328.025600
    507    493    508     1   108.4600466 328.025600
    511    512    523     1   108.0100461 406.684800
    511    512    524     1   108.0100461 406.684800
    511    513    525     1   108.0100461 406.684800
    511    513    526     1   108.0100461 406.684800
    511    518    531     1   108.0100461 406.684800
    511    518    532     1   108.0100461 406.684800
    512    511    536     1   110.1100470 384.091200
    512    514    527     1   109.8000471 387.438400
    512    514    528     1   109.8000471 387.438400
    513    511    536     1   110.1100470 384.091200
    513    516    529     1   109.8000471 387.438400
    513    516    530     1   109.8000471 387.438400
    514    512    523     1   110.5600475 386.601600
    514    512    524     1   110.5600475 386.601600
    515    514    527     1   108.7700466 392.459200
    515    514    528     1   108.7700466 392.459200
    515   1092   1107     1   117.5500507 404.174400
    516    513    525     1   110.5600475 386.601600
    516    513    526     1   110.5600475 386.601600
    517    516    529     1   108.7700466 392.459200
    517    516    530     1   108.7700466 392.459200
    517   1118   1133     1   117.5500507 404.174400
    518    511    536     1   110.1100470 384.091200
    518    519    533     1   109.5600471 388.275200
    518    519    534     1   109.5600471 388.275200
    519    518    531     1   110.5600475 386.601600
    519    518    532     1   110.5600475 386.601600
    519    520    535     1   117.6800502 383.254400
    520    519    533     1   108.8800464 416.726400
    520    519    534     1   108.8800464 416.726400
    523    512    524     1   109.7500473 328.025600
    525    513    526     1   109.7500473 328.025600
    527    514    528     1   107.5800459 329.699200
    529    516    530     1   107.5800459 329.699200
    531    518    532     1   109.7500473 328.025600
    533    519    534     1   108.4600466 328.025600
    537    538    549     1   108.0100461 406.684800
    537    538    550     1   108.0100461 406.684800
    537    539    551     1   108.0100461 406.684800
    537    539    552     1   108.0100461 406.684800
    537    544    557     1   108.0100461 406.684800
    537    544    558     1   108.0100461 406.684800
    538    537    562     1   110.1100470 384.091200
    538    540    553     1   109.8000471 387.438400
    538    540    554     1   109.8000471 387.438400
    539    537    562     1   110.1100470 384.091200
    539    542    555     1   109.8000471 387.438400
    539    542    556     1   109.8000471 387.438400
    540    538    549     1   110.5600475 386.601600
    540    538    550     1   110.5600475 386.601600
    541    540    553     1   108.7700466 392.459200
    541    540    554     1   108.7700466 392.459200
    541   1144   1159     1   117.5500507 404.174400
    542    539    551     1   110.5600475 386.601600
    542    539    552     1   110.5600475 386.601600
    543    542    555     1   108.7700466 392.459200
    543    542    556     1   108.7700466 392.459200
    543   1170   1185     1   117.5500507 404.174400
    544    537    562     1   110.1100470 384.091200
    544    545    559     1   109.5600471 388.275200
    544    545    560     1   109.5600471 388.275200
    545    544    557     1   110.5600475 386.601600
    545    544    558     1   110.5600475 386.601600
    545    546    561     1   117.6800502 383.254400
    546    545    559     1   108.8800464 416.726400
    546    545    560     1   108.8800464 416.726400
    549    538    550     1   109.7500473 328.025600
    551    539    552     1   109.7500473 328.025600
    553    540    554     1   107.5800459 329.699200
    555    542    556     1   107.5800459 329.699200
    557    544    558     1   109.7500473 328.025600
    559    545    560     1   108.4600466 328.025600
    563    564    575     1   108.0100461 406.684800
    563    564    576     1   108.0100461 406.684800
    563    565    577     1   108.0100461 406.684800
    563    565    578     1   108.0100461 406.684800
    563    570    583     1   108.0100461 406.684800
    563    570    584     1   108.0100461 406.684800
    564    563    588     1   110.1100470 384.091200
    564    566    579     1   109.8000471 387.438400
    564    566    580     1   109.8000471 387.438400
    565    563    588     1   110.1100470 384.091200
    565    568    581     1   109.8000471 387.438400
    565    568    582     1   109.8000471 387.438400
    566    564    575     1   110.5600475 386.601600
    566    564    576     1   110.5600475 386.601600
    567    566    579     1   108.7700466 392.459200
    567    566    580     1   108.7700466 392.459200
    567   1196   1211     1   117.5500507 404.174400
    568    565    577     1   110.5600475 386.601600
    568    565    578     1   110.5600475 386.601600
    569    568    581     1   108.7700466 392.459200
    569    568    582     1   108.7700466 392.459200
    569   1222   1237     1   117.5500507 404.174400
    570    563    588     1   110.1100470 384.091200
    570    571    585     1   109.5600471 388.275200
    570    571    586     1   109.5600471 388.275200
    571    570    583     1   110.5600475 386.601600
    571    570    584     1   110.5600475 386.601600
    571    572    587     1   117.6800502 383.254400
    572    571    585     1   108.8800464 416.726400
    572    571    586     1   108.8800464 416.726400
    575    564    576     1   109.7500473 328.025600
    577    565    578     1   109.7500473 328.025600
    579    566    580     1   107.5800459 329.699200
    581    568    582     1   107.5800459 329.699200
    583    570    584     1   109.7500473 328.025600
    585    571    586     1   108.4600466 328.025600
    589    590    601     1   108.0100461 406.684800
    589    590    602     1   108.0100461 406.684800
    589    591    603     1   108.0100461 406.684800
    589    591    604     1   108.0100461 406.684800
    589    596    609     1   108.0100461 406.684800
    589    596    610     1   108.0100461 406.684800
    590    589    614     1   110.1100470 384.091200
    590    592    605     1   109.8000471 387.438400
    590    592    606     1   109.8000471 387.438400
    591    589    614     1   110.1100470 384.091200
    591    594    607     1   109.8000471 387.438400
    591    594    608     1   109.8000471 387.438400
    592    590    601     1   110.5600475 386.601600
    592    590    602     1   110.5600475 386.601600
    593    592    605     1   108.7700466 392.459200
    593    592    606     1   108.7700466 392.459200
    593   1248   1263     1   117.5500507 404.174400
    594    591    603     1   110.5600475 386.601600
    594    591    604     1   110.5600475 386.601600
    595    594    607     1   108.7700466 392.459200
    595    594    608     1   108.7700466 392.459200
    595   1274   1289     1   117.5500507 404.174400
    596    589    614     1   110.1100470 384.091200
    596    597    611     1   109.5600471 388.275200
    596    597    612     1   109.5600471 388.275200
    597    596    609     1   110.5600475 386.601600
    597    596    610     1   110.5600475 386.601600
    597    598    613     1   117.6800502 383.254400
    598    597    611     1   108.8800464 416.726400
    598    597    612     1   108.8800464 416.726400
    601    590    602     1   109.7500473 328.025600
    603    591    604     1   109.7500473 328.025600
    605    592    606     1   107.5800459 329.699200
    607    594    608     1   107.5800459 329.699200
    609    596    610     1   109.7500473 328.025600
    611    597    612     1   108.4600466 328.025600
    615    616    627     1   108.0100461 406.684800
    615    616    628     1   108.0100461 406.684800
    615    617    629     1   108.0100461 406.684800
    615    617    630     1   108.0100461 406.684800
    615    622    635     1   108.0100461 406.684800
    615    622    636     1   108.0100461 406.684800
    616    615    640     1   110.1100470 384.091200
    616    618    631     1   109.8000471 387.438400
    616    618    632     1   109.8000471 387.438400
    617    615    640     1   110.1100470 384.091200
    617    620    633     1   109.8000471 387.438400
    617    620    634     1   109.8000471 387.438400
    618    616    627     1   110.5600475 386.601600
    618    616    628     1   110.5600475 386.601600
    619    618    631     1   108.7700466 392.459200
    619    618    632     1   108.7700466 392.459200
    619   1300   1315     1   117.5500507 404.174400
    620    617    629     1   110.5600475 386.601600
    620    617    630     1   110.5600475 386.601600
    621    620    633     1   108.7700466 392.459200
    621    620    634     1   108.7700466 392.459200
    621   1326   1341     1   117.5500507 404.174400
    622    615    640     1   110.1100470 384.091200
    622    623    637     1   109.5600471 388.275200
    622    623    638     1   109.5600471 388.275200
    623    622    635     1   110.5600475 386.601600
    623    622    636     1   110.5600475 386.601600
    623    624    639     1   117.6800502 383.254400
    624    623    637     1   108.8800464 416.726400
    624    623    638     1   108.8800464 416.726400
    627    616    628     1   109.7500473 328.025600
    629    617    630     1   109.7500473 328.025600
    631    618    632     1   107.5800459 329.699200
    633    620    634     1   107.5800459 329.699200
    635    622    636     1   109.7500473 328.025600
    637    623    638     1   108.4600466 328.025600
    641    642    653     1   108.0100461 406.684800
    641    642    654     1   108.0100461 406.684800
    641    643    655     1   108.0100461 406.684800
    641    643    656     1   108.0100461 406.684800
    641    648    661     1   108.0100461 406.684800
    641    648    662     1   108.0100461 406.684800
    642    641    666     1   110.1100470 384.091200
    642    644    657     1   109.8000471 387.438400
    642    644    658     1   109.8000471 387.438400
    643    641    666     1   110.1100470 384.091200
    643    646    659     1   109.8000471 387.438400
    643    646    660     1   109.8000471 387.438400
    644    642    653     1   110.5600475 386.601600
    644    642    654     1   110.5600475 386.601600
    645    644    657     1   108.7700466 392.459200
    645    644    658     1   108.7700466 392.459200
    645   1352   1367     1   117.5500507 404.174400
    646    643    655     1   110.5600475 386.601600
    646    643    656     1   110.5600475 386.601600
    647    646    659     1   108.7700466 392.459200
    647    646    660     1   108.7700466 392.459200
    647   1378   1393     1   117.5500507 404.174400
    648    641    666     1   110.1100470 384.091200
    648    649    663     1   109.5600471 388.275200
    648    649    664     1   109.5600471 388.275200
    649    648    661     1   110.5600475 386.601600
    649    648    662     1   110.5600475 386.601600
    649    650    665     1   117.6800502 383.254400
    650    649    663     1   108.8800464 416.726400
    650    649    664     1   108.8800464 416.726400
    653    642    654     1   109.7500473 328.025600
    655    643    656     1   109.7500473 328.025600
    657    644    658     1   107.5800459 329.699200
    659    646    660     1   107.5800459 329.699200
    661    648    662     1   109.7500473 328.025600
    663    649    664     1   108.4600466 328.025600
    667    668    679     1   108.0100461 406.684800
    667    668    680     1   108.0100461 406.684800
    667    669    681     1   108.0100461 406.684800
    667    669    682     1   108.0100461 406.684800
    667    674    687     1   108.0100461 406.684800
    667    674    688     1   108.0100461 406.684800
    668    667    692     1   110.1100470 384.091200
    668    670    683     1   109.8000471 387.438400
    668    670    684     1   109.8000471 387.438400
    669    667    692     1   110.1100470 384.091200
    669    672    685     1   109.8000471 387.438400
    669    672    686     1   109.8000471 387.438400
    670    668    679     1   110.5600475 386.601600
    670    668    680     1   110.5600475 386.601600
    671    670    683     1   108.7700466 392.459200
    671    670    684     1   108.7700466 392.459200
    671   1404   1419     1   117.5500507 404.174400
    672    669    681     1   110.5600475 386.601600
    672    669    682     1   110.5600475 386.601600
    673    672    685     1   108.7700466 392.459200
    673    672    686     1   108.7700466 392.459200
    673   1430   1445     1   117.5500507 404.174400
    674    667    692     1   110.1100470 384.091200
    674    675    689     1   109.5600471 388.275200
    674    675    690     1   109.5600471 388.275200
    675    674    687     1   110.5600475 386.601600
    675    674    688     1   110.5600475 386.601600
    675    676    691     1   117.6800502 383.254400
    676    675    689     1   108.8800464 416.726400
    676    675    690     1   108.8800464 416.726400
    679    668    680     1   109.7500473 328.025600
    681    669    682     1   109.7500473 328.025600
    683    670    684     1   107.5800459 329.699200
    685    672    686     1   107.5800459 329.699200
    687    674    688     1   109.7500473 328.025600
    689    675    690     1   108.4600466 328.025600
    693    694    705     1   108.0100461 406.684800
    693    694    706     1   108.0100461 406.684800
    693    695    707     1   108.0100461 406.684800
    693    695    708     1   108.0100461 406.684800
    693    700    713     1   108.0100461 406.684800
    693    700    714     1   108.0100461 406.684800
    694    693    718     1   110.1100470 384.091200
    694    696    709     1   109.8000471 387.438400
    694    696    710     1   109.8000471 387.438400
    695    693    718     1   110.1100470 384.091200
    695    698    711     1   109.8000471 387.438400
    695    698    712     1   109.8000471 387.438400
    696    694    705     1   110.5600475 386.601600
    696    694    706     1   110.5600475 386.601600
    697    696    709     1   108.7700466 392.459200
    697    696    710     1   108.7700466 392.459200
    697   1456   1471     1   117.5500507 404.174400
    698    695    707     1   110.5600475 386.601600
    698    695    708     1   110.5600475 386.601600
    699    698    711     1   108.7700466 392.459200
    699    698    712     1   108.7700466 392.459200
    699   1482   1497     1   117.5500507 404.174400
    700    693    718     1   110.1100470 384.091200
    700    701    715     1   109.5600471 388.275200
    700    701    716     1   109.5600471 388.275200
    701    700    713     1   110.5600475 386.601600
    701    700    714     1   110.5600475 386.601600
    701    702    717     1   117.6800502 383.254400
    702    701    715     1   108.8800464 416.726400
    702    701    716     1   108.8800464 416.726400
    705    694    706     1   109.7500473 328.025600
    707    695    708     1   109.7500473 328.025600
    709    696    710     1   107.5800459 329.699200
    711    698    712     1   107.5800459 329.699200
    713    700    714     1   109.7500473 328.025600
    715    701    716     1   108.4600466 328.025600
    719    720    731     1   108.0100461 406.684800
    719    720    732     1   108.0100461 406.684800
    719    721    733     1   108.0100461 406.684800
    719    721    734     1   108.0100461 406.684800
    719    726    739     1   108.0100461 406.684800
    719    726    740     1   108.0100461 406.684800
    720    719    744     1   110.1100470 384.091200
    720    722    735     1   109.8000471 387.438400
    720    722    736     1   109.8000471 387.438400
    721    719    744     1   110.1100470 384.091200
    721    724    737     1   109.8000471 387.438400
    721    724    738     1   109.8000471 387.438400
    722    720    731     1   110.5600475 386.601600
    722    720    732     1   110.5600475 386.601600
    723    722    735     1   108.7700466 392.459200
    723    722    736     1   108.7700466 392.459200
    723   1508   1523     1   117.5500507 404.174400
    724    721    733     1   110.5600475 386.601600
    724    721    734     1   110.5600475 386.601600
    725    724    737     1   108.7700466 392.459200
    725    724    738     1   108.7700466 392.459200
    725   1534   1549     1   117.5500507 404.174400
    726    719    744     1   110.1100470 384.091200
    726    727    741     1   109.5600471 388.275200
    726    727    742     1   109.5600471 388.275200
    727    726    739     1   110.5600475 386.601600
    727    726    740     1   110.5600475 386.601600
    727    728    743     1   117.6800502 383.254400
    728    727    741     1   108.8800464 416.726400
    728    727    742     1   108.8800464 416.726400
    731    720    732     1   109.7500473 328.025600
    733    721    734     1   109.7500473 328.025600
    735    722    736     1   107.5800459 329.699200
    737    724    738     1   107.5800459 329.699200
    739    726    740     1   109.7500473 328.025600
    741    727    742     1   108.4600466 328.025600
    745    746    757     1   108.0100461 406.684800
    745    746    758     1   108.0100461 406.684800
    745    747    759     1   108.0100461 406.684800
    745    747    760     1   108.0100461 406.684800
    745    752    765     1   108.0100461 406.684800
    745    752    766     1   108.0100461 406.684800
    746    745    770     1   110.1100470 384.091200
    746    748    761     1   109.8000471 387.438400
    746    748    762     1   109.8000471 387.438400
    747    745    770     1   110.1100470 384.091200
    747    750    763     1   109.8000471 387.438400
    747    750    764     1   109.8000471 387.438400
    748    746    757     1   110.5600475 386.601600
    748    746    758     1   110.5600475 386.601600
    749    748    761     1   108.7700466 392.459200
    749    748    762     1   108.7700466 392.459200
    749   1560   1575     1   117.5500507 404.174400
    750    747    759     1   110.5600475 386.601600
    750    747    760     1   110.5600475 386.601600
    751    750    763     1   108.7700466 392.459200
    751    750    764     1   108.7700466 392.459200
    751   1586   1601     1   117.5500507 404.174400
    752    745    770     1   110.1100470 384.091200
    752    753    767     1   109.5600471 388.275200
    752    753    768     1   109.5600471 388.275200
    753    752    765     1   110.5600475 386.601600
    753    752    766     1   110.5600475 386.601600
    753    754    769     1   117.6800502 383.254400
    754    753    767     1   108.8800464 416.726400
    754    753    768     1   108.8800464 416.726400
    757    746    758     1   109.7500473 328.025600
    759    747    760     1   109.7500473 328.025600
    761    748    762     1   107.5800459 329.699200
    763    750    764     1   107.5800459 329.699200
    765    752    766     1   109.7500473 328.025600
    767    753    768     1   108.4600466 328.025600
    771    772    783     1   108.0100461 406.684800
    771    772    784     1   108.0100461 406.684800
    771    773    785     1   108.0100461 406.684800
    771    773    786     1   108.0100461 406.684800
    771    778    791     1   108.0100461 406.684800
    771    778    792     1   108.0100461 406.684800
    772    771    796     1   110.1100470 384.091200
    772    774    787     1   109.8000471 387.438400
    772    774    788     1   109.8000471 387.438400
    773    771    796     1   110.1100470 384.091200
    773    776    789     1   109.8000471 387.438400
    773    776    790     1   109.8000471 387.438400
    774    772    783     1   110.5600475 386.601600
    774    772    784     1   110.5600475 386.601600
    775    774    787     1   108.7700466 392.459200
    775    774    788     1   108.7700466 392.459200
    775   1612   1627     1   117.5500507 404.174400
    776    773    785     1   110.5600475 386.601600
    776    773    786     1   110.5600475 386.601600
    777    776    789     1   108.7700466 392.459200
    777    776    790     1   108.7700466 392.459200
    777   1638   1653     1   117.5500507 404.174400
    778    771    796     1   110.1100470 384.091200
    778    779    793     1   109.5600471 388.275200
    778    779    794     1   109.5600471 388.275200
    779    778    791     1   110.5600475 386.601600
    779    778    792     1   110.5600475 386.601600
    779    780    795     1   117.6800502 383.254400
    780    779    793     1   108.8800464 416.726400
    780    779    794     1   108.8800464 416.726400
    783    772    784     1   109.7500473 328.025600
    785    773    786     1   109.7500473 328.025600
    787    774    788     1   107.5800459 329.699200
    789    776    790     1   107.5800459 329.699200
    791    778    792     1   109.7500473 328.025600
    793    779    794     1   108.4600466 328.025600
    797    798    809     1   108.0100461 406.684800
    797    798    810     1   108.0100461 406.684800
    797    799    811     1   108.0100461 406.684800
    797    799    812     1   108.0100461 406.684800
    797    804    817     1   108.0100461 406.684800
    797    804    818     1   108.0100461 406.684800
    798    797    822     1   110.1100470 384.091200
    798    800    813     1   109.8000471 387.438400
    798    800    814     1   109.8000471 387.438400
    799    797    822     1   110.1100470 384.091200
    799    802    815     1   109.8000471 387.438400
    799    802    816     1   109.8000471 387.438400
    800    798    809     1   110.5600475 386.601600
    800    798    810     1   110.5600475 386.601600
    801    800    813     1   108.7700466 392.459200
    801    800    814     1   108.7700466 392.459200
    801   1664   1679     1   117.5500507 404.174400
    802    799    811     1   110.5600475 386.601600
    802    799    812     1   110.5600475 386.601600
    803    802    815     1   108.7700466 392.459200
    803    802    816     1   108.7700466 392.459200
    803   1690   1705     1   117.5500507 404.174400
    804    797    822     1   110.1100470 384.091200
    804    805    819     1   109.5600471 388.275200
    804    805    820     1   109.5600471 388.275200
    805    804    817     1   110.5600475 386.601600
    805    804    818     1   110.5600475 386.601600
    805    806    821     1   117.6800502 383.254400
    806    805    819     1   108.8800464 416.726400
    806    805    820     1   108.8800464 416.726400
    809    798    810     1   109.7500473 328.025600
    811    799    812     1   109.7500473 328.025600
    813    800    814     1   107.5800459 329.699200
    815    802    816     1   107.5800459 329.699200
    817    804    818     1   109.7500473 328.025600
    819    805    820     1   108.4600466 328.025600
    823    824    835     1   108.0100461 406.684800
    823    824    836     1   108.0100461 406.684800
    823    825    837     1   108.0100461 406.684800
    823    825    838     1   108.0100461 406.684800
    823    830    843     1   108.0100461 406.684800
    823    830    844     1   108.0100461 406.684800
    824    823    848     1   110.1100470 384.091200
    824    826    839     1   109.8000471 387.438400
    824    826    840     1   109.8000471 387.438400
    825    823    848     1   110.1100470 384.091200
    825    828    841     1   109.8000471 387.438400
    825    828    842     1   109.8000471 387.438400
    826    824    835     1   110.5600475 386.601600
    826    824    836     1   110.5600475 386.601600
    827    826    839     1   108.7700466 392.459200
    827    826    840     1   108.7700466 392.459200
    827   1716   1731     1   117.5500507 404.174400
    828    825    837     1   110.5600475 386.601600
    828    825    838     1   110.5600475 386.601600
    829    828    841     1   108.7700466 392.459200
    829    828    842     1   108.7700466 392.459200
    829   1742   1757     1   117.5500507 404.174400
    830    823    848     1   110.1100470 384.091200
    830    831    845     1   109.5600471 388.275200
    830    831    846     1   109.5600471 388.275200
    831    830    843     1   110.5600475 386.601600
    831    830    844     1   110.5600475 386.601600
    831    832    847     1   117.6800502 383.254400
    832    831    845     1   108.8800464 416.726400
    832    831    846     1   108.8800464 416.726400
    835    824    836     1   109.7500473 328.025600
    837    825    838     1   109.7500473 328.025600
    839    826    840     1   107.5800459 329.699200
    841    828    842     1   107.5800459 329.699200
    843    830    844     1   109.7500473 328.025600
    845    831    846     1   108.4600466 328.025600
    849    850    861     1   108.0100461 406.684800
    849    850    862     1   108.0100461 406.684800
    849    851    863     1   108.0100461 406.684800
    849    851    864     1   108.0100461 406.684800
    849    856    869     1   108.0100461 406.684800
    849    856    870     1   108.0100461 406.684800
    850    849    874     1   110.1100470 384.091200
    850    852    865     1   109.8000471 387.438400
    850    852    866     1   109.8000471 387.438400
    851    849    874     1   110.1100470 384.091200
    851    854    867     1   109.8000471 387.438400
    851    854    868     1   109.8000471 387.438400
    852    850    861     1   110.5600475 386.601600
    852    850    862     1   110.5600475 386.601600
    853    852    865     1   108.7700466 392.459200
    853    852    866     1   108.7700466 392.459200
    853   1768   1783     1   117.5500507 404.174400
    854    851    863     1   110.5600475 386.601600
    854    851    864     1   110.5600475 386.601600
    855    854    867     1   108.7700466 392.459200
    855    854    868     1   108.7700466 392.459200
    855   1794   1809     1   117.5500507 404.174400
    856    849    874     1   110.1100470 384.091200
    856    857    871     1   109.5600471 388.275200
    856    857    872     1   109.5600471 388.275200
    857    856    869     1   110.5600475 386.601600
    857    856    870     1   110.5600475 386.601600
    857    858    873     1   117.6800502 383.254400
    858    857    871     1   108.8800464 416.726400
    858    857    872     1   108.8800464 416.726400
    861    850    862     1   109.7500473 328.025600
    863    851    864     1   109.7500473 328.025600
    865    852    866     1   107.5800459 329.699200
    867    854    868     1   107.5800459 329.699200
    869    856    870     1   109.7500473 328.025600
    871    857    872     1   108.4600466 328.025600
    875    876    887     1   108.0100461 406.684800
    875    876    888     1   108.0100461 406.684800
    875    877    889     1   108.0100461 406.684800
    875    877    890     1   108.0100461 406.684800
    875    882    895     1   108.0100461 406.684800
    875    882    896     1   108.0100461 406.684800
    876    875    900     1   110.1100470 384.091200
    876    878    891     1   109.8000471 387.438400
    876    878    892     1   109.8000471 387.438400
    877    875    900     1   110.1100470 384.091200
    877    880    893     1   109.8000471 387.438400
    877    880    894     1   109.8000471 387.438400
    878    876    887     1   110.5600475 386.601600
    878    876    888     1   110.5600475 386.601600
    879    878    891     1   108.7700466 392.459200
    879    878    892     1   108.7700466 392.459200
    879   1820   1835     1   117.5500507 404.174400
    880    877    889     1   110.5600475 386.601600
    880    877    890     1   110.5600475 386.601600
    881    880    893     1   108.7700466 392.459200
    881    880    894     1   108.7700466 392.459200
    881   1846   1861     1   117.5500507 404.174400
    882    875    900     1   110.1100470 384.091200
    882    883    897     1   109.5600471 388.275200
    882    883    898     1   109.5600471 388.275200
    883    882    895     1   110.5600475 386.601600
    883    882    896     1   110.5600475 386.601600
    883    884    899     1   117.6800502 383.254400
    884    883    897     1   108.8800464 416.726400
    884    883    898     1   108.8800464 416.726400
    887    876    888     1   109.7500473 328.025600
    889    877    890     1   109.7500473 328.025600
    891    878    892     1   107.5800459 329.699200
    893    880    894     1   107.5800459 329.699200
    895    882    896     1   109.7500473 328.025600
    897    883    898     1   108.4600466 328.025600
    901    902    913     1   108.0100461 406.684800
    901    902    914     1   108.0100461 406.684800
    901    903    915     1   108.0100461 406.684800
    901    903    916     1   108.0100461 406.684800
    901    908    921     1   108.0100461 406.684800
    901    908    922     1   108.0100461 406.684800
    902    901    926     1   110.1100470 384.091200
    902    904    917     1   109.8000471 387.438400
    902    904    918     1   109.8000471 387.438400
    903    901    926     1   110.1100470 384.091200
    903    906    919     1   109.8000471 387.438400
    903    906    920     1   109.8000471 387.438400
    904    902    913     1   110.5600475 386.601600
    904    902    914     1   110.5600475 386.601600
    905    904    917     1   108.7700466 392.459200
    905    904    918     1   108.7700466 392.459200
    905   1872   1887     1   117.5500507 404.174400
    906    903    915     1   110.5600475 386.601600
    906    903    916     1   110.5600475 386.601600
    907    906    919     1   108.7700466 392.459200
    907    906    920     1   108.7700466 392.459200
    907   1898   1913     1   117.5500507 404.174400
    908    901    926     1   110.1100470 384.091200
    908    909    923     1   109.5600471 388.275200
    908    909    924     1   109.5600471 388.275200
    909    908    921     1   110.5600475 386.601600
    909    908    922     1   110.5600475 386.601600
    909    910    925     1   117.6800502 383.254400
    910    909    923     1   108.8800464 416.726400
    910    909    924     1   108.8800464 416.726400
    913    902    914     1   109.7500473 328.025600
    915    903    916     1   109.7500473 328.025600
    917    904    918     1   107.5800459 329.699200
    919    906    920     1   107.5800459 329.699200
    921    908    922     1   109.7500473 328.025600
    923    909    924     1   108.4600466 328.025600
    927    928    939     1   108.0100461 406.684800
    927    928    940     1   108.0100461 406.684800
    927    929    941     1   108.0100461 406.684800
    927    929    942     1   108.0100461 406.684800
    927    934    947     1   108.0100461 406.684800
    927    934    948     1   108.0100461 406.684800
    928    927    952     1   110.1100470 384.091200
    928    930    943     1   109.8000471 387.438400
    928    930    944     1   109.8000471 387.438400
    929    927    952     1   110.1100470 384.091200
    929    932    945     1   109.8000471 387.438400
    929    932    946     1   109.8000471 387.438400
    930    928    939     1   110.5600475 386.601600
    930    928    940     1   110.5600475 386.601600
    931    930    943     1   108.7700466 392.459200
    931    930    944     1   108.7700466 392.459200
    931   1924   1939     1   117.5500507 404.174400
    932    929    941     1   110.5600475 386.601600
    932    929    942     1   110.5600475 386.601600
    933    932    945     1   108.7700466 392.459200
    933    932    946     1   108.7700466 392.459200
    933   1950   1965     1   117.5500507 404.174400
    934    927    952     1   110.1100470 384.091200
    934    935    949     1   109.5600471 388.275200
    934    935    950     1   109.5600471 388.275200
    935    934    947     1   110.5600475 386.601600
    935    934    948     1   110.5600475 386.601600
    935    936    951     1   117.6800502 383.254400
    936    935    949     1   108.8800464 416.726400
    936    935    950     1   108.8800464 416.726400
    939    928    940     1   109.7500473 328.025600
    941    929    942     1   109.7500473 328.025600
    943    930    944     1   107.5800459 329.699200
    945    932    946     1   107.5800459 329.699200
    947    934    948     1   109.7500473 328.025600
    949    935    950     1   108.4600466 328.025600
    953    954    965     1   108.0100461 406.684800
    953    954    966     1   108.0100461 406.684800
    953    955    967     1   108.0100461 406.684800
    953    955    968     1   108.0100461 406.684800
    953    960    973     1   108.0100461 406.684800
    953    960    974     1   108.0100461 406.684800
    954    953    978     1   110.1100470 384.091200
    954    956    969     1   109.8000471 387.438400
    954    956    970     1   109.8000471 387.438400
    955    953    978     1   110.1100470 384.091200
    955    958    971     1   109.8000471 387.438400
    955    958    972     1   109.8000471 387.438400
    956    954    965     1   110.5600475 386.601600
    956    954    966     1   110.5600475 386.601600
    957    956    969     1   108.7700466 392.459200
    957    956    970     1   108.7700466 392.459200
    957   1976   1991     1   117.5500507 404.174400
    958    955    967     1   110.5600475 386.601600
    958    955    968     1   110.5600475 386.601600
    959    958    971     1   108.7700466 392.459200
    959    958    972     1   108.7700466 392.459200
    959   2002   2017     1   117.5500507 404.174400
    960    953    978     1   110.1100470 384.091200
    960    961    975     1   109.5600471 388.275200
    960    961    976     1   109.5600471 388.275200
    961    960    973     1   110.5600475 386.601600
    961    960    974     1   110.5600475 386.601600
    961    962    977     1   117.6800502 383.254400
    962    961    975     1   108.8800464 416.726400
    962    961    976     1   108.8800464 416.726400
    965    954    966     1   109.7500473 328.025600
    967    955    968     1   109.7500473 328.025600
    969    956    970     1   107.5800459 329.699200
    971    958    972     1   107.5800459 329.699200
    973    960    974     1   109.7500473 328.025600
    975    961    976     1   108.4600466 328.025600
    979    980    991     1   108.0100461 406.684800
    979    980    992     1   108.0100461 406.684800
    979    981    993     1   108.0100461 406.684800
    979    981    994     1   108.0100461 406.684800
    979    986    999     1   108.0100461 406.684800
    979    986   1000     1   108.0100461 406.684800
    980    979   1004     1   110.1100470 384.091200
    980    982    995     1   109.8000471 387.438400
    980    982    996     1   109.8000471 387.438400
    981    979   1004     1   110.1100470 384.091200
    981    984    997     1   109.8000471 387.438400
    981    984    998     1   109.8000471 387.438400
    982    980    991     1   110.5600475 386.601600
    982    980    992     1   110.5600475 386.601600
    983    982    995     1   108.7700466 392.459200
    983    982    996     1   108.7700466 392.459200
    983   2028   2043     1   117.5500507 404.174400
    984    981    993     1   110.5600475 386.601600
    984    981    994     1   110.5600475 386.601600
    985    984    997     1   108.7700466 392.459200
    985    984    998     1   108.7700466 392.459200
    985   2054   2069     1   117.5500507 404.174400
    986    979   1004     1   110.1100470 384.091200
    986    987   1001     1   109.5600471 388.275200
    986    987   1002     1   109.5600471 388.275200
    987    986    999     1   110.5600475 386.601600
    987    986   1000     1   110.5600475 386.601600
    987    988   1003     1   117.6800502 383.254400
    988    987   1001     1   108.8800464 416.726400
    988    987   1002     1   108.8800464 416.726400
    991    980    992     1   109.7500473 328.025600
    993    981    994     1   109.7500473 328.025600
    995    982    996     1   107.5800459 329.699200
    997    984    998     1   107.5800459 329.699200
    999    986   1000     1   109.7500473 328.025600
   1001    987   1002     1   108.4600466 328.025600
   1005   1006   1017     1   108.0100461 406.684800
   1005   1006   1018     1   108.0100461 406.684800
   1005   1007   1019     1   108.0100461 406.684800
   1005   1007   1020     1   108.0100461 406.684800
   1005   1012   1025     1   108.0100461 406.684800
   1005   1012   1026     1   108.0100461 406.684800
   1006   1005   1030     1   110.1100470 384.091200
   1006   1008   1021     1   109.8000471 387.438400
   1006   1008   1022     1   109.8000471 387.438400
   1007   1005   1030     1   110.1100470 384.091200
   1007   1010   1023     1   109.8000471 387.438400
   1007   1010   1024     1   109.8000471 387.438400
   1008   1006   1017     1   110.5600475 386.601600
   1008   1006   1018     1   110.5600475 386.601600
   1009   1008   1021     1   108.7700466 392.459200
   1009   1008   1022     1   108.7700466 392.459200
   1009   2080   2095     1   117.5500507 404.174400
   1010   1007   1019     1   110.5600475 386.601600
   1010   1007   1020     1   110.5600475 386.601600
   1011   1010   1023     1   108.7700466 392.459200
   1011   1010   1024     1   108.7700466 392.459200
   1011   2106   2121     1   117.5500507 404.174400
   1012   1005   1030     1   110.1100470 384.091200
   1012   1013   1027     1   109.5600471 388.275200
   1012   1013   1028     1   109.5600471 388.275200
   1013   1012   1025     1   110.5600475 386.601600
   1013   1012   1026     1   110.5600475 386.601600
   1013   1014   1029     1   117.6800502 383.254400
   1014   1013   1027     1   108.8800464 416.726400
   1014   1013   1028     1   108.8800464 416.726400
   1017   1006   1018     1   109.7500473 328.025600
   1019   1007   1020     1   109.7500473 328.025600
   1021   1008   1022     1   107.5800459 329.699200
   1023   1010   1024     1   107.5800459 329.699200
   1025   1012   1026     1   109.7500473 328.025600
   1027   1013   1028     1   108.4600466 328.025600
   1031   1032   1043     1   108.0100461 406.684800
   1031   1032   1044     1   108.0100461 406.684800
   1031   1033   1045     1   108.0100461 406.684800
   1031   1033   1046     1   108.0100461 406.684800
   1031   1038   1051     1   108.0100461 406.684800
   1031   1038   1052     1   108.0100461 406.684800
   1032   1031   1056     1   110.1100470 384.091200
   1032   1034   1047     1   109.8000471 387.438400
   1032   1034   1048     1   109.8000471 387.438400
   1033   1031   1056     1   110.1100470 384.091200
   1033   1036   1049     1   109.8000471 387.438400
   1033   1036   1050     1   109.8000471 387.438400
   1034   1032   1043     1   110.5600475 386.601600
   1034   1032   1044     1   110.5600475 386.601600
   1035   1034   1047     1   108.7700466 392.459200
   1035   1034   1048     1   108.7700466 392.459200
   1035   2132   2147     1   117.5500507 404.174400
   1036   1033   1045     1   110.5600475 386.601600
   1036   1033   1046     1   110.5600475 386.601600
   1037   1036   1049     1   108.7700466 392.459200
   1037   1036   1050     1   108.7700466 392.459200
   1037   2158   2173     1   117.5500507 404.174400
   1038   1031   1056     1   110.1100470 384.091200
   1038   1039   1053     1   109.5600471 388.275200
   1038   1039   1054     1   109.5600471 388.275200
   1039   1038   1051     1   110.5600475 386.601600
   1039   1038   1052     1   110.5600475 386.601600
   1039   1040   1055     1   117.6800502 383.254400
   1040   1039   1053     1   108.8800464 416.726400
   1040   1039   1054     1   108.8800464 416.726400
   1043   1032   1044     1   109.7500473 328.025600
   1045   1033   1046     1   109.7500473 328.025600
   1047   1034   1048     1   107.5800459 329.699200
   1049   1036   1050     1   107.5800459 329.699200
   1051   1038   1052     1   109.7500473 328.025600
   1053   1039   1054     1   108.4600466 328.025600
   1057   1058   1069     1   108.0100461 406.684800
   1057   1058   1070     1   108.0100461 406.684800
   1057   1059   1071     1   108.0100461 406.684800
   1057   1059   1072     1   108.0100461 406.684800
   1057   1064   1077     1   108.0100461 406.684800
   1057   1064   1078     1   108.0100461 406.684800
   1058   1057   1082     1   110.1100470 384.091200
   1058   1060   1073     1   109.8000471 387.438400
   1058   1060   1074     1   109.8000471 387.438400
   1059   1057   1082     1   110.1100470 384.091200
   1059   1062   1075     1   109.8000471 387.438400
   1059   1062   1076     1   109.8000471 387.438400
   1060   1058   1069     1   110.5600475 386.601600
   1060   1058   1070     1   110.5600475 386.601600
   1061   1060   1073     1   108.7700466 392.459200
   1061   1060   1074     1   108.7700466 392.459200
   1061   2184   2199     1   117.5500507 404.174400
   1062   1059   1071     1   110.5600475 386.601600
   1062   1059   1072     1   110.5600475 386.601600
   1063   1062   1075     1   108.7700466 392.459200
   1063   1062   1076     1   108.7700466 392.459200
   1063   2210   2225     1   117.5500507 404.174400
   1064   1057   1082     1   110.1100470 384.091200
   1064   1065   1079     1   109.5600471 388.275200
   1064   1065   1080     1   109.5600471 388.275200
   1065   1064   1077     1   110.5600475 386.601600
   1065   1064   1078     1   110.5600475 386.601600
   1065   1066   1081     1   117.6800502 383.254400
   1066   1065   1079     1   108.8800464 416.726400
   1066   1065   1080     1   108.8800464 416.726400
   1069   1058   1070     1   109.7500473 328.025600
   1071   1059   1072     1   109.7500473 328.025600
   1073   1060   1074     1   107.5800459 329.699200
   1075   1062   1076     1   107.5800459 329.699200
   1077   1064   1078     1   109.7500473 328.025600
   1079   1065   1080     1   108.4600466 328.025600
   1083   1084   1095     1   108.0100461 406.684800
   1083   1084   1096     1   108.0100461 406.684800
   1083   1085   1097     1   108.0100461 406.684800
   1083   1085   1098     1   108.0100461 406.684800
   1083   1090   1103     1   108.0100461 406.684800
   1083   1090   1104     1   108.0100461 406.684800
   1084   1083   1108     1   110.1100470 384.091200
   1084   1086   1099     1   109.8000471 387.438400
   1084   1086   1100     1   109.8000471 387.438400
   1085   1083   1108     1   110.1100470 384.091200
   1085   1088   1101     1   109.8000471 387.438400
   1085   1088   1102     1   109.8000471 387.438400
   1086   1084   1095     1   110.5600475 386.601600
   1086   1084   1096     1   110.5600475 386.601600
   1087   1086   1099     1   108.7700466 392.459200
   1087   1086   1100     1   108.7700466 392.459200
   1087   2236   2251     1   117.5500507 404.174400
   1088   1085   1097     1   110.5600475 386.601600
   1088   1085   1098     1   110.5600475 386.601600
   1089   1088   1101     1   108.7700466 392.459200
   1089   1088   1102     1   108.7700466 392.459200
   1089   2262   2277     1   117.5500507 404.174400
   1090   1083   1108     1   110.1100470 384.091200
   1090   1091   1105     1   109.5600471 388.275200
   1090   1091   1106     1   109.5600471 388.275200
   1091   1090   1103     1   110.5600475 386.601600
   1091   1090   1104     1   110.5600475 386.601600
   1091   1092   1107     1   117.6800502 383.254400
   1092   1091   1105     1   108.8800464 416.726400
   1092   1091   1106     1   108.8800464 416.726400
   1095   1084   1096     1   109.7500473 328.025600
   1097   1085   1098     1   109.7500473 328.025600
   1099   1086   1100     1   107.5800459 329.699200
   1101   1088   1102     1   107.5800459 329.699200
   1103   1090   1104     1   109.7500473 328.025600
   1105   1091   1106     1   108.4600466 328.025600
   1109   1110   1121     1   108.0100461 406.684800
   1109   1110   1122     1   108.0100461 406.684800
   1109   1111   1123     1   108.0100461 406.684800
   1109   1111   1124     1   108.0100461 406.684800
   1109   1116   1129     1   108.0100461 406.684800
   1109   1116   1130     1   108.0100461 406.684800
   1110   1109   1134     1   110.1100470 384.091200
   1110   1112   1125     1   109.8000471 387.438400
   1110   1112   1126     1   109.8000471 387.438400
   1111   1109   1134     1   110.1100470 384.091200
   1111   1114   1127     1   109.8000471 387.438400
   1111   1114   1128     1   109.8000471 387.438400
   1112   1110   1121     1   110.5600475 386.601600
   1112   1110   1122     1   110.5600475 386.601600
   1113   1112   1125     1   108.7700466 392.459200
   1113   1112   1126     1   108.7700466 392.459200
   1113   2288   2303     1   117.5500507 404.174400
   1114   1111   1123     1   110.5600475 386.601600
   1114   1111   1124     1   110.5600475 386.601600
   1115   1114   1127     1   108.7700466 392.459200
   1115   1114   1128     1   108.7700466 392.459200
   1115   2314   2329     1   117.5500507 404.174400
   1116   1109   1134     1   110.1100470 384.091200
   1116   1117   1131     1   109.5600471 388.275200
   1116   1117   1132     1   109.5600471 388.275200
   1117   1116   1129     1   110.5600475 386.601600
   1117   1116   1130     1   110.5600475 386.601600
   1117   1118   1133     1   117.6800502 383.254400
   1118   1117   1131     1   108.8800464 416.726400
   1118   1117   1132     1   108.8800464 416.726400
   1121   1110   1122     1   109.7500473 328.025600
   1123   1111   1124     1   109.7500473 328.025600
   1125   1112   1126     1   107.5800459 329.699200
   1127   1114   1128     1   107.5800459 329.699200
   1129   1116   1130     1   109.7500473 328.025600
   1131   1117   1132     1   108.4600466 328.025600
   1135   1136   1147     1   108.0100461 406.684800
   1135   1136   1148     1   108.0100461 406.684800
   1135   1137   1149     1   108.0100461 406.684800
   1135   1137   1150     1   108.0100461 406.684800
   1135   1142   1155     1   108.0100461 406.684800
   1135   1142   1156     1   108.0100461 406.684800
   1136   1135   1160     1   110.1100470 384.091200
   1136   1138   1151     1   109.8000471 387.438400
   1136   1138   1152     1   109.8000471 387.438400
   1137   1135   1160     1   110.1100470 384.091200
   1137   1140   1153     1   109.8000471 387.438400
   1137   1140   1154     1   109.8000471 387.438400
   1138   1136   1147     1   110.5600475 386.601600
   1138   1136   1148     1   110.5600475 386.601600
   1139   1138   1151     1   108.7700466 392.459200
   1139   1138   1152     1   108.7700466 392.459200
   1139   2340   2355     1   117.5500507 404.174400
   1140   1137   1149     1   110.5600475 386.601600
   1140   1137   1150     1   110.5600475 386.601600
   1141   1140   1153     1   108.7700466 392.459200
   1141   1140   1154     1   108.7700466 392.459200
   1141   2366   2381     1   117.5500507 404.174400
   1142   1135   1160     1   110.1100470 384.091200
   1142   1143   1157     1   109.5600471 388.275200
   1142   1143   1158     1   109.5600471 388.275200
   1143   1142   1155     1   110.5600475 386.601600
   1143   1142   1156     1   110.5600475 386.601600
   1143   1144   1159     1   117.6800502 383.254400
   1144   1143   1157     1   108.8800464 416.726400
   1144   1143   1158     1   108.8800464 416.726400
   1147   1136   1148     1   109.7500473 328.025600
   1149   1137   1150     1   109.7500473 328.025600
   1151   1138   1152     1   107.5800459 329.699200
   1153   1140   1154     1   107.5800459 329.699200
   1155   1142   1156     1   109.7500473 328.025600
   1157   1143   1158     1   108.4600466 328.025600
   1161   1162   1173     1   108.0100461 406.684800
   1161   1162   1174     1   108.0100461 406.684800
   1161   1163   1175     1   108.0100461 406.684800
   1161   1163   1176     1   108.0100461 406.684800
   1161   1168   1181     1   108.0100461 406.684800
   1161   1168   1182     1   108.0100461 406.684800
   1162   1161   1186     1   110.1100470 384.091200
   1162   1164   1177     1   109.8000471 387.438400
   1162   1164   1178     1   109.8000471 387.438400
   1163   1161   1186     1   110.1100470 384.091200
   1163   1166   1179     1   109.8000471 387.438400
   1163   1166   1180     1   109.8000471 387.438400
   1164   1162   1173     1   110.5600475 386.601600
   1164   1162   1174     1   110.5600475 386.601600
   1165   1164   1177     1   108.7700466 392.459200
   1165   1164   1178     1   108.7700466 392.459200
   1165   2392   2407     1   117.5500507 404.174400
   1166   1163   1175     1   110.5600475 386.601600
   1166   1163   1176     1   110.5600475 386.601600
   1167   1166   1179     1   108.7700466 392.459200
   1167   1166   1180     1   108.7700466 392.459200
   1167   2418   2433     1   117.5500507 404.174400
   1168   1161   1186     1   110.1100470 384.091200
   1168   1169   1183     1   109.5600471 388.275200
   1168   1169   1184     1   109.5600471 388.275200
   1169   1168   1181     1   110.5600475 386.601600
   1169   1168   1182     1   110.5600475 386.601600
   1169   1170   1185     1   117.6800502 383.254400
   1170   1169   1183     1   108.8800464 416.726400
   1170   1169   1184     1   108.8800464 416.726400
   1173   1162   1174     1   109.7500473 328.025600
   1175   1163   1176     1   109.7500473 328.025600
   1177   1164   1178     1   107.5800459 329.699200
   1179   1166   1180     1   107.5800459 329.699200
   1181   1168   1182     1   109.7500473 328.025600
   1183   1169   1184     1   108.4600466 328.025600
   1187   1188   1199     1   108.0100461 406.684800
   1187   1188   1200     1   108.0100461 406.684800
   1187   1189   1201     1   108.0100461 406.684800
   1187   1189   1202     1   108.0100461 406.684800
   1187   1194   1207     1   108.0100461 406.684800
   1187   1194   1208     1   108.0100461 406.684800
   1188   1187   1212     1   110.1100470 384.091200
   1188   1190   1203     1   109.8000471 387.438400
   1188   1190   1204     1   109.8000471 387.438400
   1189   1187   1212     1   110.1100470 384.091200
   1189   1192   1205     1   109.8000471 387.438400
   1189   1192   1206     1   109.8000471 387.438400
   1190   1188   1199     1   110.5600475 386.601600
   1190   1188   1200     1   110.5600475 386.601600
   1191   1190   1203     1   108.7700466 392.459200
   1191   1190   1204     1   108.7700466 392.459200
   1191   2444   2459     1   117.5500507 404.174400
   1192   1189   1201     1   110.5600475 386.601600
   1192   1189   1202     1   110.5600475 386.601600
   1193   1192   1205     1   108.7700466 392.459200
   1193   1192   1206     1   108.7700466 392.459200
   1193   2470   2485     1   117.5500507 404.174400
   1194   1187   1212     1   110.1100470 384.091200
   1194   1195   1209     1   109.5600471 388.275200
   1194   1195   1210     1   109.5600471 388.275200
   1195   1194   1207     1   110.5600475 386.601600
   1195   1194   1208     1   110.5600475 386.601600
   1195   1196   1211     1   117.6800502 383.254400
   1196   1195   1209     1   108.8800464 416.726400
   1196   1195   1210     1   108.8800464 416.726400
   1199   1188   1200     1   109.7500473 328.025600
   1201   1189   1202     1   109.7500473 328.025600
   1203   1190   1204     1   107.5800459 329.699200
   1205   1192   1206     1   107.5800459 329.699200
   1207   1194   1208     1   109.7500473 328.025600
   1209   1195   1210     1   108.4600466 328.025600
   1213   1214   1225     1   108.0100461 406.684800
   1213   1214   1226     1   108.0100461 406.684800
   1213   1215   1227     1   108.0100461 406.684800
   1213   1215   1228     1   108.0100461 406.684800
   1213   1220   1233     1   108.0100461 406.684800
   1213   1220   1234     1   108.0100461 406.684800
   1214   1213   1238     1   110.1100470 384.091200
   1214   1216   1229     1   109.8000471 387.438400
   1214   1216   1230     1   109.8000471 387.438400
   1215   1213   1238     1   110.1100470 384.091200
   1215   1218   1231     1   109.8000471 387.438400
   1215   1218   1232     1   109.8000471 387.438400
   1216   1214   1225     1   110.5600475 386.601600
   1216   1214   1226     1   110.5600475 386.601600
   1217   1216   1229     1   108.7700466 392.459200
   1217   1216   1230     1   108.7700466 392.459200
   1217   2496   2511     1   117.5500507 404.174400
   1218   1215   1227     1   110.5600475 386.601600
   1218   1215   1228     1   110.5600475 386.601600
   1219   1218   1231     1   108.7700466 392.459200
   1219   1218   1232     1   108.7700466 392.459200
   1219   2522   2537     1   117.5500507 404.174400
   1220   1213   1238     1   110.1100470 384.091200
   1220   1221   1235     1   109.5600471 388.275200
   1220   1221   1236     1   109.5600471 388.275200
   1221   1220   1233     1   110.5600475 386.601600
   1221   1220   1234     1   110.5600475 386.601600
   1221   1222   1237     1   117.6800502 383.254400
   1222   1221   1235     1   108.8800464 416.726400
   1222   1221   1236     1   108.8800464 416.726400
   1225   1214   1226     1   109.7500473 328.025600
   1227   1215   1228     1   109.7500473 328.025600
   1229   1216   1230     1   107.5800459 329.699200
   1231   1218   1232     1   107.5800459 329.699200
   1233   1220   1234     1   109.7500473 328.025600
   1235   1221   1236     1   108.4600466 328.025600
   1239   1240   1251     1   108.0100461 406.684800
   1239   1240   1252     1   108.0100461 406.684800
   1239   1241   1253     1   108.0100461 406.684800
   1239   1241   1254     1   108.0100461 406.684800
   1239   1246   1259     1   108.0100461 406.684800
   1239   1246   1260     1   108.0100461 406.684800
   1240   1239   1264     1   110.1100470 384.091200
   1240   1242   1255     1   109.8000471 387.438400
   1240   1242   1256     1   109.8000471 387.438400
   1241   1239   1264     1   110.1100470 384.091200
   1241   1244   1257     1   109.8000471 387.438400
   1241   1244   1258     1   109.8000471 387.438400
   1242   1240   1251     1   110.5600475 386.601600
   1242   1240   1252     1   110.5600475 386.601600
   1243   1242   1255     1   108.7700466 392.459200
   1243   1242   1256     1   108.7700466 392.459200
   1243   2548   2563     1   117.5500507 404.174400
   1244   1241   1253     1   110.5600475 386.601600
   1244   1241   1254     1   110.5600475 386.601600
   1245   1244   1257     1   108.7700466 392.459200
   1245   1244   1258     1   108.7700466 392.459200
   1245   2574   2589     1   117.5500507 404.174400
   1246   1239   1264     1   110.1100470 384.091200
   1246   1247   1261     1   109.5600471 388.275200
   1246   1247   1262     1   109.5600471 388.275200
   1247   1246   1259     1   110.5600475 386.601600
   1247   1246   1260     1   110.5600475 386.601600
   1247   1248   1263     1   117.6800502 383.254400
   1248   1247   1261     1   108.8800464 416.726400
   1248   1247   1262     1   108.8800464 416.726400
   1251   1240   1252     1   109.7500473 328.025600
   1253   1241   1254     1   109.7500473 328.025600
   1255   1242   1256     1   107.5800459 329.699200
   1257   1244   1258     1   107.5800459 329.699200
   1259   1246   1260     1   109.7500473 328.025600
   1261   1247   1262     1   108.4600466 328.025600
   1265   1266   1277     1   108.0100461 406.684800
   1265   1266   1278     1   108.0100461 406.684800
   1265   1267   1279     1   108.0100461 406.684800
   1265   1267   1280     1   108.0100461 406.684800
   1265   1272   1285     1   108.0100461 406.684800
   1265   1272   1286     1   108.0100461 406.684800
   1266   1265   1290     1   110.1100470 384.091200
   1266   1268   1281     1   109.8000471 387.438400
   1266   1268   1282     1   109.8000471 387.438400
   1267   1265   1290     1   110.1100470 384.091200
   1267   1270   1283     1   109.8000471 387.438400
   1267   1270   1284     1   109.8000471 387.438400
   1268   1266   1277     1   110.5600475 386.601600
   1268   1266   1278     1   110.5600475 386.601600
   1269   1268   1281     1   108.7700466 392.459200
   1269   1268   1282     1   108.7700466 392.459200
   1269   2600   2615     1   117.5500507 404.174400
   1270   1267   1279     1   110.5600475 386.601600
   1270   1267   1280     1   110.5600475 386.601600
   1271   1270   1283     1   108.7700466 392.459200
   1271   1270   1284     1   108.7700466 392.459200
   1271   2626   2641     1   117.5500507 404.174400
   1272   1265   1290     1   110.1100470 384.091200
   1272   1273   1287     1   109.5600471 388.275200
   1272   1273   1288     1   109.5600471 388.275200
   1273   1272   1285     1   110.5600475 386.601600
   1273   1272   1286     1   110.5600475 386.601600
   1273   1274   1289     1   117.6800502 383.254400
   1274   1273   1287     1   108.8800464 416.726400
   1274   1273   1288     1   108.8800464 416.726400
   1277   1266   1278     1   109.7500473 328.025600
   1279   1267   1280     1   109.7500473 328.025600
   1281   1268   1282     1   107.5800459 329.699200
   1283   1270   1284     1   107.5800459 329.699200
   1285   1272   1286     1   109.7500473 328.025600
   1287   1273   1288     1   108.4600466 328.025600
   1291   1292   1303     1   108.0100461 406.684800
   1291   1292   1304     1   108.0100461 406.684800
   1291   1293   1305     1   108.0100461 406.684800
   1291   1293   1306     1   108.0100461 406.684800
   1291   1298   1311     1   108.0100461 406.684800
   1291   1298   1312     1   108.0100461 406.684800
   1292   1291   1316     1   110.1100470 384.091200
   1292   1294   1307     1   109.8000471 387.438400
   1292   1294   1308     1   109.8000471 387.438400
   1293   1291   1316     1   110.1100470 384.091200
   1293   1296   1309     1   109.8000471 387.438400
   1293   1296   1310     1   109.8000471 387.438400
   1294   1292   1303     1   110.5600475 386.601600
   1294   1292   1304     1   110.5600475 386.601600
   1295   1294   1307     1   108.7700466 392.459200
   1295   1294   1308     1   108.7700466 392.459200
   1295   2652   2667     1   117.5500507 404.174400
   1296   1293   1305     1   110.5600475 386.601600
   1296   1293   1306     1   110.5600475 386.601600
   1297   1296   1309     1   108.7700466 392.459200
   1297   1296   1310     1   108.7700466 392.459200
   1297   2678   2693     1   117.5500507 404.174400
   1298   1291   1316     1   110.1100470 384.091200
   1298   1299   1313     1   109.5600471 388.275200
   1298   1299   1314     1   109.5600471 388.275200
   1299   1298   1311     1   110.5600475 386.601600
   1299   1298   1312     1   110.5600475 386.601600
   1299   1300   1315     1   117.6800502 383.254400
   1300   1299   1313     1   108.8800464 416.726400
   1300   1299   1314     1   108.8800464 416.726400
   1303   1292   1304     1   109.7500473 328.025600
   1305   1293   1306     1   109.7500473 328.025600
   1307   1294   1308     1   107.5800459 329.699200
   1309   1296   1310     1   107.5800459 329.699200
   1311   1298   1312     1   109.7500473 328.025600
   1313   1299   1314     1   108.4600466 328.025600
   1317   1318   1329     1   108.0100461 406.684800
   1317   1318   1330     1   108.0100461 406.684800
   1317   1319   1331     1   108.0100461 406.684800
   1317   1319   1332     1   108.0100461 406.684800
   1317   1324   1337     1   108.0100461 406.684800
   1317   1324   1338     1   108.0100461 406.684800
   1318   1317   1342     1   110.1100470 384.091200
   1318   1320   1333     1   109.8000471 387.438400
   1318   1320   1334     1   109.8000471 387.438400
   1319   1317   1342     1   110.1100470 384.091200
   1319   1322   1335     1   109.8000471 387.438400
   1319   1322   1336     1   109.8000471 387.438400
   1320   1318   1329     1   110.5600475 386.601600
   1320   1318   1330     1   110.5600475 386.601600
   1321   1320   1333     1   108.7700466 392.459200
   1321   1320   1334     1   108.7700466 392.459200
   1321   2704   2719     1   117.5500507 404.174400
   1322   1319   1331     1   110.5600475 386.601600
   1322   1319   1332     1   110.5600475 386.601600
   1323   1322   1335     1   108.7700466 392.459200
   1323   1322   1336     1   108.7700466 392.459200
   1323   2730   2745     1   117.5500507 404.174400
   1324   1317   1342     1   110.1100470 384.091200
   1324   1325   1339     1   109.5600471 388.275200
   1324   1325   1340     1   109.5600471 388.275200
   1325   1324   1337     1   110.5600475 386.601600
   1325   1324   1338     1   110.5600475 386.601600
   1325   1326   1341     1   117.6800502 383.254400
   1326   1325   1339     1   108.8800464 416.726400
   1326   1325   1340     1   108.8800464 416.726400
   1329   1318   1330     1   109.7500473 328.025600
   1331   1319   1332     1   109.7500473 328.025600
   1333   1320   1334     1   107.5800459 329.699200
   1335   1322   1336     1   107.5800459 329.699200
   1337   1324   1338     1   109.7500473 328.025600
   1339   1325   1340     1   108.4600466 328.025600
   1343   1344   1355     1   108.0100461 406.684800
   1343   1344   1356     1   108.0100461 406.684800
   1343   1345   1357     1   108.0100461 406.684800
   1343   1345   1358     1   108.0100461 406.684800
   1343   1350   1363     1   108.0100461 406.684800
   1343   1350   1364     1   108.0100461 406.684800
   1344   1343   1368     1   110.1100470 384.091200
   1344   1346   1359     1   109.8000471 387.438400
   1344   1346   1360     1   109.8000471 387.438400
   1345   1343   1368     1   110.1100470 384.091200
   1345   1348   1361     1   109.8000471 387.438400
   1345   1348   1362     1   109.8000471 387.438400
   1346   1344   1355     1   110.5600475 386.601600
   1346   1344   1356     1   110.5600475 386.601600
   1347   1346   1359     1   108.7700466 392.459200
   1347   1346   1360     1   108.7700466 392.459200
   1347   2756   2771     1   117.5500507 404.174400
   1348   1345   1357     1   110.5600475 386.601600
   1348   1345   1358     1   110.5600475 386.601600
   1349   1348   1361     1   108.7700466 392.459200
   1349   1348   1362     1   108.7700466 392.459200
   1349   2782   2797     1   117.5500507 404.174400
   1350   1343   1368     1   110.1100470 384.091200
   1350   1351   1365     1   109.5600471 388.275200
   1350   1351   1366     1   109.5600471 388.275200
   1351   1350   1363     1   110.5600475 386.601600
   1351   1350   1364     1   110.5600475 386.601600
   1351   1352   1367     1   117.6800502 383.254400
   1352   1351   1365     1   108.8800464 416.726400
   1352   1351   1366     1   108.8800464 416.726400
   1355   1344   1356     1   109.7500473 328.025600
   1357   1345   1358     1   109.7500473 328.025600
   1359   1346   1360     1   107.5800459 329.699200
   1361   1348   1362     1   107.5800459 329.699200
   1363   1350   1364     1   109.7500473 328.025600
   1365   1351   1366     1   108.4600466 328.025600
   1369   1370   1381     1   108.0100461 406.684800
   1369   1370   1382     1   108.0100461 406.684800
   1369   1371   1383     1   108.0100461 406.684800
   1369   1371   1384     1   108.0100461 406.684800
   1369   1376   1389     1   108.0100461 406.684800
   1369   1376   1390     1   108.0100461 406.684800
   1370   1369   1394     1   110.1100470 384.091200
   1370   1372   1385     1   109.8000471 387.438400
   1370   1372   1386     1   109.8000471 387.438400
   1371   1369   1394     1   110.1100470 384.091200
   1371   1374   1387     1   109.8000471 387.438400
   1371   1374   1388     1   109.8000471 387.438400
   1372   1370   1381     1   110.5600475 386.601600
   1372   1370   1382     1   110.5600475 386.601600
   1373   1372   1385     1   108.7700466 392.459200
   1373   1372   1386     1   108.7700466 392.459200
   1373   2808   2823     1   117.5500507 404.174400
   1374   1371   1383     1   110.5600475 386.601600
   1374   1371   1384     1   110.5600475 386.601600
   1375   1374   1387     1   108.7700466 392.459200
   1375   1374   1388     1   108.7700466 392.459200
   1375   2834   2849     1   117.5500507 404.174400
   1376   1369   1394     1   110.1100470 384.091200
   1376   1377   1391     1   109.5600471 388.275200
   1376   1377   1392     1   109.5600471 388.275200
   1377   1376   1389     1   110.5600475 386.601600
   1377   1376   1390     1   110.5600475 386.601600
   1377   1378   1393     1   117.6800502 383.254400
   1378   1377   1391     1   108.8800464 416.726400
   1378   1377   1392     1   108.8800464 416.726400
   1381   1370   1382     1   109.7500473 328.025600
   1383   1371   1384     1   109.7500473 328.025600
   1385   1372   1386     1   107.5800459 329.699200
   1387   1374   1388     1   107.5800459 329.699200
   1389   1376   1390     1   109.7500473 328.025600
   1391   1377   1392     1   108.4600466 328.025600
   1395   1396   1407     1   108.0100461 406.684800
   1395   1396   1408     1   108.0100461 406.684800
   1395   1397   1409     1   108.0100461 406.684800
   1395   1397   1410     1   108.0100461 406.684800
   1395   1402   1415     1   108.0100461 406.684800
   1395   1402   1416     1   108.0100461 406.684800
   1396   1395   1420     1   110.1100470 384.091200
   1396   1398   1411     1   109.8000471 387.438400
   1396   1398   1412     1   109.8000471 387.438400
   1397   1395   1420     1   110.1100470 384.091200
   1397   1400   1413     1   109.8000471 387.438400
   1397   1400   1414     1   109.8000471 387.438400
   1398   1396   1407     1   110.5600475 386.601600
   1398   1396   1408     1   110.5600475 386.601600
   1399   1398   1411     1   108.7700466 392.459200
   1399   1398   1412     1   108.7700466 392.459200
   1399   2860   2875     1   117.5500507 404.174400
   1400   1397   1409     1   110.5600475 386.601600
   1400   1397   1410     1   110.5600475 386.601600
   1401   1400   1413     1   108.7700466 392.459200
   1401   1400   1414     1   108.7700466 392.459200
   1401   2886   2901     1   117.5500507 404.174400
   1402   1395   1420     1   110.1100470 384.091200
   1402   1403   1417     1   109.5600471 388.275200
   1402   1403   1418     1   109.5600471 388.275200
   1403   1402   1415     1   110.5600475 386.601600
   1403   1402   1416     1   110.5600475 386.601600
   1403   1404   1419     1   117.6800502 383.254400
   1404   1403   1417     1   108.8800464 416.726400
   1404   1403   1418     1   108.8800464 416.726400
   1407   1396   1408     1   109.7500473 328.025600
   1409   1397   1410     1   109.7500473 328.025600
   1411   1398   1412     1   107.5800459 329.699200
   1413   1400   1414     1   107.5800459 329.699200
   1415   1402   1416     1   109.7500473 328.025600
   1417   1403   1418     1   108.4600466 328.025600
   1421   1422   1433     1   108.0100461 406.684800
   1421   1422   1434     1   108.0100461 406.684800
   1421   1423   1435     1   108.0100461 406.684800
   1421   1423   1436     1   108.0100461 406.684800
   1421   1428   1441     1   108.0100461 406.684800
   1421   1428   1442     1   108.0100461 406.684800
   1422   1421   1446     1   110.1100470 384.091200
   1422   1424   1437     1   109.8000471 387.438400
   1422   1424   1438     1   109.8000471 387.438400
   1423   1421   1446     1   110.1100470 384.091200
   1423   1426   1439     1   109.8000471 387.438400
   1423   1426   1440     1   109.8000471 387.438400
   1424   1422   1433     1   110.5600475 386.601600
   1424   1422   1434     1   110.5600475 386.601600
   1425   1424   1437     1   108.7700466 392.459200
   1425   1424   1438     1   108.7700466 392.459200
   1425   2912   2927     1   117.5500507 404.174400
   1426   1423   1435     1   110.5600475 386.601600
   1426   1423   1436     1   110.5600475 386.601600
   1427   1426   1439     1   108.7700466 392.459200
   1427   1426   1440     1   108.7700466 392.459200
   1427   2938   2953     1   117.5500507 404.174400
   1428   1421   1446     1   110.1100470 384.091200
   1428   1429   1443     1   109.5600471 388.275200
   1428   1429   1444     1   109.5600471 388.275200
   1429   1428   1441     1   110.5600475 386.601600
   1429   1428   1442     1   110.5600475 386.601600
   1429   1430   1445     1   117.6800502 383.254400
   1430   1429   1443     1   108.8800464 416.726400
   1430   1429   1444     1   108.8800464 416.726400
   1433   1422   1434     1   109.7500473 328.025600
   1435   1423   1436     1   109.7500473 328.025600
   1437   1424   1438     1   107.5800459 329.699200
   1439   1426   1440     1   107.5800459 329.699200
   1441   1428   1442     1   109.7500473 328.025600
   1443   1429   1444     1   108.4600466 328.025600
   1447   1448   1459     1   108.0100461 406.684800
   1447   1448   1460     1   108.0100461 406.684800
   1447   1449   1461     1   108.0100461 406.684800
   1447   1449   1462     1   108.0100461 406.684800
   1447   1454   1467     1   108.0100461 406.684800
   1447   1454   1468     1   108.0100461 406.684800
   1448   1447   1472     1   110.1100470 384.091200
   1448   1450   1463     1   109.8000471 387.438400
   1448   1450   1464     1   109.8000471 387.438400
   1449   1447   1472     1   110.1100470 384.091200
   1449   1452   1465     1   109.8000471 387.438400
   1449   1452   1466     1   109.8000471 387.438400
   1450   1448   1459     1   110.5600475 386.601600
   1450   1448   1460     1   110.5600475 386.601600
   1451   1450   1463     1   108.7700466 392.459200
   1451   1450   1464     1   108.7700466 392.459200
   1451   2964   2979     1   117.5500507 404.174400
   1452   1449   1461     1   110.5600475 386.601600
   1452   1449   1462     1   110.5600475 386.601600
   1453   1452   1465     1   108.7700466 392.459200
   1453   1452   1466     1   108.7700466 392.459200
   1453   2990   3005     1   117.5500507 404.174400
   1454   1447   1472     1   110.1100470 384.091200
   1454   1455   1469     1   109.5600471 388.275200
   1454   1455   1470     1   109.5600471 388.275200
   1455   1454   1467     1   110.5600475 386.601600
   1455   1454   1468     1   110.5600475 386.601600
   1455   1456   1471     1   117.6800502 383.254400
   1456   1455   1469     1   108.8800464 416.726400
   1456   1455   1470     1   108.8800464 416.726400
   1459   1448   1460     1   109.7500473 328.025600
   1461   1449   1462     1   109.7500473 328.025600
   1463   1450   1464     1   107.5800459 329.699200
   1465   1452   1466     1   107.5800459 329.699200
   1467   1454   1468     1   109.7500473 328.025600
   1469   1455   1470     1   108.4600466 328.025600
   1473   1474   1485     1   108.0100461 406.684800
   1473   1474   1486     1   108.0100461 406.684800
   1473   1475   1487     1   108.0100461 406.684800
   1473   1475   1488     1   108.0100461 406.684800
   1473   1480   1493     1   108.0100461 406.684800
   1473   1480   1494     1   108.0100461 406.684800
   1474   1473   1498     1   110.1100470 384.091200
   1474   1476   1489     1   109.8000471 387.438400
   1474   1476   1490     1   109.8000471 387.438400
   1475   1473   1498     1   110.1100470 384.091200
   1475   1478   1491     1   109.8000471 387.438400
   1475   1478   1492     1   109.8000471 387.438400
   1476   1474   1485     1   110.5600475 386.601600
   1476   1474   1486     1   110.5600475 386.601600
   1477   1476   1489     1   108.7700466 392.459200
   1477   1476   1490     1   108.7700466 392.459200
   1477   3016   3031     1   117.5500507 404.174400
   1478   1475   1487     1   110.5600475 386.601600
   1478   1475   1488     1   110.5600475 386.601600
   1479   1478   1491     1   108.7700466 392.459200
   1479   1478   1492     1   108.7700466 392.459200
   1479   3042   3057     1   117.5500507 404.174400
   1480   1473   1498     1   110.1100470 384.091200
   1480   1481   1495     1   109.5600471 388.275200
   1480   1481   1496     1   109.5600471 388.275200
   1481   1480   1493     1   110.5600475 386.601600
   1481   1480   1494     1   110.5600475 386.601600
   1481   1482   1497     1   117.6800502 383.254400
   1482   1481   1495     1   108.8800464 416.726400
   1482   1481   1496     1   108.8800464 416.726400
   1485   1474   1486     1   109.7500473 328.025600
   1487   1475   1488     1   109.7500473 328.025600
   1489   1476   1490     1   107.5800459 329.699200
   1491   1478   1492     1   107.5800459 329.699200
   1493   1480   1494     1   109.7500473 328.025600
   1495   1481   1496     1   108.4600466 328.025600
   1499   1500   1511     1   108.0100461 406.684800
   1499   1500   1512     1   108.0100461 406.684800
   1499   1501   1513     1   108.0100461 406.684800
   1499   1501   1514     1   108.0100461 406.684800
   1499   1506   1519     1   108.0100461 406.684800
   1499   1506   1520     1   108.0100461 406.684800
   1500   1499   1524     1   110.1100470 384.091200
   1500   1502   1515     1   109.8000471 387.438400
   1500   1502   1516     1   109.8000471 387.438400
   1501   1499   1524     1   110.1100470 384.091200
   1501   1504   1517     1   109.8000471 387.438400
   1501   1504   1518     1   109.8000471 387.438400
   1502   1500   1511     1   110.5600475 386.601600
   1502   1500   1512     1   110.5600475 386.601600
   1503   1502   1515     1   108.7700466 392.459200
   1503   1502   1516     1   108.7700466 392.459200
   1503   3068   3083     1   117.5500507 404.174400
   1504   1501   1513     1   110.5600475 386.601600
   1504   1501   1514     1   110.5600475 386.601600
   1505   1504   1517     1   108.7700466 392.459200
   1505   1504   1518     1   108.7700466 392.459200
   1505   3094   3109     1   117.5500507 404.174400
   1506   1499   1524     1   110.1100470 384.091200
   1506   1507   1521     1   109.5600471 388.275200
   1506   1507   1522     1   109.5600471 388.275200
   1507   1506   1519     1   110.5600475 386.601600
   1507   1506   1520     1   110.5600475 386.601600
   1507   1508   1523     1   117.6800502 383.254400
   1508   1507   1521     1   108.8800464 416.726400
   1508   1507   1522     1   108.8800464 416.726400
   1511   1500   1512     1   109.7500473 328.025600
   1513   1501   1514     1   109.7500473 328.025600
   1515   1502   1516     1   107.5800459 329.699200
   1517   1504   1518     1   107.5800459 329.699200
   1519   1506   1520     1   109.7500473 328.025600
   1521   1507   1522     1   108.4600466 328.025600
   1525   1526   1537     1   108.0100461 406.684800
   1525   1526   1538     1   108.0100461 406.684800
   1525   1527   1539     1   108.0100461 406.684800
   1525   1527   1540     1   108.0100461 406.684800
   1525   1532   1545     1   108.0100461 406.684800
   1525   1532   1546     1   108.0100461 406.684800
   1526   1525   1550     1   110.1100470 384.091200
   1526   1528   1541     1   109.8000471 387.438400
   1526   1528   1542     1   109.8000471 387.438400
   1527   1525   1550     1   110.1100470 384.091200
   1527   1530   1543     1   109.8000471 387.438400
   1527   1530   1544     1   109.8000471 387.438400
   1528   1526   1537     1   110.5600475 386.601600
   1528   1526   1538     1   110.5600475 386.601600
   1529   1528   1541     1   108.7700466 392.459200
   1529   1528   1542     1   108.7700466 392.459200
   1529   3120   3135     1   117.5500507 404.174400
   1530   1527   1539     1   110.5600475 386.601600
   1530   1527   1540     1   110.5600475 386.601600
   1531   1530   1543     1   108.7700466 392.459200
   1531   1530   1544     1   108.7700466 392.459200
   1531   3146   3161     1   117.5500507 404.174400
   1532   1525   1550     1   110.1100470 384.091200
   1532   1533   1547     1   109.5600471 388.275200
   1532   1533   1548     1   109.5600471 388.275200
   1533   1532   1545     1   110.5600475 386.601600
   1533   1532   1546     1   110.5600475 386.601600
   1533   1534   1549     1   117.6800502 383.254400
   1534   1533   1547     1   108.8800464 416.726400
   1534   1533   1548     1   108.8800464 416.726400
   1537   1526   1538     1   109.7500473 328.025600
   1539   1527   1540     1   109.7500473 328.025600
   1541   1528   1542     1   107.5800459 329.699200
   1543   1530   1544     1   107.5800459 329.699200
   1545   1532   1546     1   109.7500473 328.025600
   1547   1533   1548     1   108.4600466 328.025600
   1551   1552   1563     1   108.0100461 406.684800
   1551   1552   1564     1   108.0100461 406.684800
   1551   1553   1565     1   108.0100461 406.684800
   1551   1553   1566     1   108.0100461 406.684800
   1551   1558   1571     1   108.0100461 406.684800
   1551   1558   1572     1   108.0100461 406.684800
   1552   1551   1576     1   110.1100470 384.091200
   1552   1554   1567     1   109.8000471 387.438400
   1552   1554   1568     1   109.8000471 387.438400
   1553   1551   1576     1   110.1100470 384.091200
   1553   1556   1569     1   109.8000471 387.438400
   1553   1556   1570     1   109.8000471 387.438400
   1554   1552   1563     1   110.5600475 386.601600
   1554   1552   1564     1   110.5600475 386.601600
   1555   1554   1567     1   108.7700466 392.459200
   1555   1554   1568     1   108.7700466 392.459200
   1555   3172   3187     1   117.5500507 404.174400
   1556   1553   1565     1   110.5600475 386.601600
   1556   1553   1566     1   110.5600475 386.601600
   1557   1556   1569     1   108.7700466 392.459200
   1557   1556   1570     1   108.7700466 392.459200
   1557   3198   3213     1   117.5500507 404.174400
   1558   1551   1576     1   110.1100470 384.091200
   1558   1559   1573     1   109.5600471 388.275200
   1558   1559   1574     1   109.5600471 388.275200
   1559   1558   1571     1   110.5600475 386.601600
   1559   1558   1572     1   110.5600475 386.601600
   1559   1560   1575     1   117.6800502 383.254400
   1560   1559   1573     1   108.8800464 416.726400
   1560   1559   1574     1   108.8800464 416.726400
   1563   1552   1564     1   109.7500473 328.025600
   1565   1553   1566     1   109.7500473 328.025600
   1567   1554   1568     1   107.5800459 329.699200
   1569   1556   1570     1   107.5800459 329.699200
   1571   1558   1572     1   109.7500473 328.025600
   1573   1559   1574     1   108.4600466 328.025600
   1577   1578   1589     1   108.0100461 406.684800
   1577   1578   1590     1   108.0100461 406.684800
   1577   1579   1591     1   108.0100461 406.684800
   1577   1579   1592     1   108.0100461 406.684800
   1577   1584   1597     1   108.0100461 406.684800
   1577   1584   1598     1   108.0100461 406.684800
   1578   1577   1602     1   110.1100470 384.091200
   1578   1580   1593     1   109.8000471 387.438400
   1578   1580   1594     1   109.8000471 387.438400
   1579   1577   1602     1   110.1100470 384.091200
   1579   1582   1595     1   109.8000471 387.438400
   1579   1582   1596     1   109.8000471 387.438400
   1580   1578   1589     1   110.5600475 386.601600
   1580   1578   1590     1   110.5600475 386.601600
   1581   1580   1593     1   108.7700466 392.459200
   1581   1580   1594     1   108.7700466 392.459200
   1581   3224   3239     1   117.5500507 404.174400
   1582   1579   1591     1   110.5600475 386.601600
   1582   1579   1592     1   110.5600475 386.601600
   1583   1582   1595     1   108.7700466 392.459200
   1583   1582   1596     1   108.7700466 392.459200
   1583   3250   3265     1   117.5500507 404.174400
   1584   1577   1602     1   110.1100470 384.091200
   1584   1585   1599     1   109.5600471 388.275200
   1584   1585   1600     1   109.5600471 388.275200
   1585   1584   1597     1   110.5600475 386.601600
   1585   1584   1598     1   110.5600475 386.601600
   1585   1586   1601     1   117.6800502 383.254400
   1586   1585   1599     1   108.8800464 416.726400
   1586   1585   1600     1   108.8800464 416.726400
   1589   1578   1590     1   109.7500473 328.025600
   1591   1579   1592     1   109.7500473 328.025600
   1593   1580   1594     1   107.5800459 329.699200
   1595   1582   1596     1   107.5800459 329.699200
   1597   1584   1598     1   109.7500473 328.025600
   1599   1585   1600     1   108.4600466 328.025600
   1603   1604   1615     1   108.0100461 406.684800
   1603   1604   1616     1   108.0100461 406.684800
   1603   1605   1617     1   108.0100461 406.684800
   1603   1605   1618     1   108.0100461 406.684800
   1603   1610   1623     1   108.0100461 406.684800
   1603   1610   1624     1   108.0100461 406.684800
   1604   1603   1628     1   110.1100470 384.091200
   1604   1606   1619     1   109.8000471 387.438400
   1604   1606   1620     1   109.8000471 387.438400
   1605   1603   1628     1   110.1100470 384.091200
   1605   1608   1621     1   109.8000471 387.438400
   1605   1608   1622     1   109.8000471 387.438400
   1606   1604   1615     1   110.5600475 386.601600
   1606   1604   1616     1   110.5600475 386.601600
   1607   1606   1619     1   108.7700466 392.459200
   1607   1606   1620     1   108.7700466 392.459200
   1607   3267   3268     1   117.5500507 404.174400
   1608   1605   1617     1   110.5600475 386.601600
   1608   1605   1618     1   110.5600475 386.601600
   1609   1608   1621     1   108.7700466 392.459200
   1609   1608   1622     1   108.7700466 392.459200
   1609   3297   3298     1   117.5500507 404.174400
   1610   1603   1628     1   110.1100470 384.091200
   1610   1611   1625     1   109.5600471 388.275200
   1610   1611   1626     1   109.5600471 388.275200
   1611   1610   1623     1   110.5600475 386.601600
   1611   1610   1624     1   110.5600475 386.601600
   1611   1612   1627     1   117.6800502 383.254400
   1612   1611   1625     1   108.8800464 416.726400
   1612   1611   1626     1   108.8800464 416.726400
   1615   1604   1616     1   109.7500473 328.025600
   1617   1605   1618     1   109.7500473 328.025600
   1619   1606   1620     1   107.5800459 329.699200
   1621   1608   1622     1   107.5800459 329.699200
   1623   1610   1624     1   109.7500473 328.025600
   1625   1611   1626     1   108.4600466 328.025600
   1629   1630   1641     1   108.0100461 406.684800
   1629   1630   1642     1   108.0100461 406.684800
   1629   1631   1643     1   108.0100461 406.684800
   1629   1631   1644     1   108.0100461 406.684800
   1629   1636   1649     1   108.0100461 406.684800
   1629   1636   1650     1   108.0100461 406.684800
   1630   1629   1654     1   110.1100470 384.091200
   1630   1632   1645     1   109.8000471 387.438400
   1630   1632   1646     1   109.8000471 387.438400
   1631   1629   1654     1   110.1100470 384.091200
   1631   1634   1647     1   109.8000471 387.438400
   1631   1634   1648     1   109.8000471 387.438400
   1632   1630   1641     1   110.5600475 386.601600
   1632   1630   1642     1   110.5600475 386.601600
   1633   1632   1645     1   108.7700466 392.459200
   1633   1632   1646     1   108.7700466 392.459200
   1633   3327   3328     1   117.5500507 404.174400
   1634   1631   1643     1   110.5600475 386.601600
   1634   1631   1644     1   110.5600475 386.601600
   1635   1634   1647     1   108.7700466 392.459200
   1635   1634   1648     1   108.7700466 392.459200
   1635   3357   3358     1   117.5500507 404.174400
   1636   1629   1654     1   110.1100470 384.091200
   1636   1637   1651     1   109.5600471 388.275200
   1636   1637   1652     1   109.5600471 388.275200
   1637   1636   1649     1   110.5600475 386.601600
   1637   1636   1650     1   110.5600475 386.601600
   1637   1638   1653     1   117.6800502 383.254400
   1638   1637   1651     1   108.8800464 416.726400
   1638   1637   1652     1   108.8800464 416.726400
   1641   1630   1642     1   109.7500473 328.025600
   1643   1631   1644     1   109.7500473 328.025600
   1645   1632   1646     1   107.5800459 329.699200
   1647   1634   1648     1   107.5800459 329.699200
   1649   1636   1650     1   109.7500473 328.025600
   1651   1637   1652     1   108.4600466 328.025600
   1655   1656   1667     1   108.0100461 406.684800
   1655   1656   1668     1   108.0100461 406.684800
   1655   1657   1669     1   108.0100461 406.684800
   1655   1657   1670     1   108.0100461 406.684800
   1655   1662   1675     1   108.0100461 406.684800
   1655   1662   1676     1   108.0100461 406.684800
   1656   1655   1680     1   110.1100470 384.091200
   1656   1658   1671     1   109.8000471 387.438400
   1656   1658   1672     1   109.8000471 387.438400
   1657   1655   1680     1   110.1100470 384.091200
   1657   1660   1673     1   109.8000471 387.438400
   1657   1660   1674     1   109.8000471 387.438400
   1658   1656   1667     1   110.5600475 386.601600
   1658   1656   1668     1   110.5600475 386.601600
   1659   1658   1671     1   108.7700466 392.459200
   1659   1658   1672     1   108.7700466 392.459200
   1659   3387   3388     1   117.5500507 404.174400
   1660   1657   1669     1   110.5600475 386.601600
   1660   1657   1670     1   110.5600475 386.601600
   1661   1660   1673     1   108.7700466 392.459200
   1661   1660   1674     1   108.7700466 392.459200
   1661   3417   3418     1   117.5500507 404.174400
   1662   1655   1680     1   110.1100470 384.091200
   1662   1663   1677     1   109.5600471 388.275200
   1662   1663   1678     1   109.5600471 388.275200
   1663   1662   1675     1   110.5600475 386.601600
   1663   1662   1676     1   110.5600475 386.601600
   1663   1664   1679     1   117.6800502 383.254400
   1664   1663   1677     1   108.8800464 416.726400
   1664   1663   1678     1   108.8800464 416.726400
   1667   1656   1668     1   109.7500473 328.025600
   1669   1657   1670     1   109.7500473 328.025600
   1671   1658   1672     1   107.5800459 329.699200
   1673   1660   1674     1   107.5800459 329.699200
   1675   1662   1676     1   109.7500473 328.025600
   1677   1663   1678     1   108.4600466 328.025600
   1681   1682   1693     1   108.0100461 406.684800
   1681   1682   1694     1   108.0100461 406.684800
   1681   1683   1695     1   108.0100461 406.684800
   1681   1683   1696     1   108.0100461 406.684800
   1681   1688   1701     1   108.0100461 406.684800
   1681   1688   1702     1   108.0100461 406.684800
   1682   1681   1706     1   110.1100470 384.091200
   1682   1684   1697     1   109.8000471 387.438400
   1682   1684   1698     1   109.8000471 387.438400
   1683   1681   1706     1   110.1100470 384.091200
   1683   1686   1699     1   109.8000471 387.438400
   1683   1686   1700     1   109.8000471 387.438400
   1684   1682   1693     1   110.5600475 386.601600
   1684   1682   1694     1   110.5600475 386.601600
   1685   1684   1697     1   108.7700466 392.459200
   1685   1684   1698     1   108.7700466 392.459200
   1685   3447   3448     1   117.5500507 404.174400
   1686   1683   1695     1   110.5600475 386.601600
   1686   1683   1696     1   110.5600475 386.601600
   1687   1686   1699     1   108.7700466 392.459200
   1687   1686   1700     1   108.7700466 392.459200
   1687   3477   3478     1   117.5500507 404.174400
   1688   1681   1706     1   110.1100470 384.091200
   1688   1689   1703     1   109.5600471 388.275200
   1688   1689   1704     1   109.5600471 388.275200
   1689   1688   1701     1   110.5600475 386.601600
   1689   1688   1702     1   110.5600475 386.601600
   1689   1690   1705     1   117.6800502 383.254400
   1690   1689   1703     1   108.8800464 416.726400
   1690   1689   1704     1   108.8800464 416.726400
   1693   1682   1694     1   109.7500473 328.025600
   1695   1683   1696     1   109.7500473 328.025600
   1697   1684   1698     1   107.5800459 329.699200
   1699   1686   1700     1   107.5800459 329.699200
   1701   1688   1702     1   109.7500473 328.025600
   1703   1689   1704     1   108.4600466 328.025600
   1707   1708   1719     1   108.0100461 406.684800
   1707   1708   1720     1   108.0100461 406.684800
   1707   1709   1721     1   108.0100461 406.684800
   1707   1709   1722     1   108.0100461 406.684800
   1707   1714   1727     1   108.0100461 406.684800
   1707   1714   1728     1   108.0100461 406.684800
   1708   1707   1732     1   110.1100470 384.091200
   1708   1710   1723     1   109.8000471 387.438400
   1708   1710   1724     1   109.8000471 387.438400
   1709   1707   1732     1   110.1100470 384.091200
   1709   1712   1725     1   109.8000471 387.438400
   1709   1712   1726     1   109.8000471 387.438400
   1710   1708   1719     1   110.5600475 386.601600
   1710   1708   1720     1   110.5600475 386.601600
   1711   1710   1723     1   108.7700466 392.459200
   1711   1710   1724     1   108.7700466 392.459200
   1711   3507   3508     1   117.5500507 404.174400
   1712   1709   1721     1   110.5600475 386.601600
   1712   1709   1722     1   110.5600475 386.601600
   1713   1712   1725     1   108.7700466 392.459200
   1713   1712   1726     1   108.7700466 392.459200
   1713   3537   3538     1   117.5500507 404.174400
   1714   1707   1732     1   110.1100470 384.091200
   1714   1715   1729     1   109.5600471 388.275200
   1714   1715   1730     1   109.5600471 388.275200
   1715   1714   1727     1   110.5600475 386.601600
   1715   1714   1728     1   110.5600475 386.601600
   1715   1716   1731     1   117.6800502 383.254400
   1716   1715   1729     1   108.8800464 416.726400
   1716   1715   1730     1   108.8800464 416.726400
   1719   1708   1720     1   109.7500473 328.025600
   1721   1709   1722     1   109.7500473 328.025600
   1723   1710   1724     1   107.5800459 329.699200
   1725   1712   1726     1   107.5800459 329.699200
   1727   1714   1728     1   109.7500473 328.025600
   1729   1715   1730     1   108.4600466 328.025600
   1733   1734   1745     1   108.0100461 406.684800
   1733   1734   1746     1   108.0100461 406.684800
   1733   1735   1747     1   108.0100461 406.684800
   1733   1735   1748     1   108.0100461 406.684800
   1733   1740   1753     1   108.0100461 406.684800
   1733   1740   1754     1   108.0100461 406.684800
   1734   1733   1758     1   110.1100470 384.091200
   1734   1736   1749     1   109.8000471 387.438400
   1734   1736   1750     1   109.8000471 387.438400
   1735   1733   1758     1   110.1100470 384.091200
   1735   1738   1751     1   109.8000471 387.438400
   1735   1738   1752     1   109.8000471 387.438400
   1736   1734   1745     1   110.5600475 386.601600
   1736   1734   1746     1   110.5600475 386.601600
   1737   1736   1749     1   108.7700466 392.459200
   1737   1736   1750     1   108.7700466 392.459200
   1737   3567   3568     1   117.5500507 404.174400
   1738   1735   1747     1   110.5600475 386.601600
   1738   1735   1748     1   110.5600475 386.601600
   1739   1738   1751     1   108.7700466 392.459200
   1739   1738   1752     1   108.7700466 392.459200
   1739   3597   3598     1   117.5500507 404.174400
   1740   1733   1758     1   110.1100470 384.091200
   1740   1741   1755     1   109.5600471 388.275200
   1740   1741   1756     1   109.5600471 388.275200
   1741   1740   1753     1   110.5600475 386.601600
   1741   1740   1754     1   110.5600475 386.601600
   1741   1742   1757     1   117.6800502 383.254400
   1742   1741   1755     1   108.8800464 416.726400
   1742   1741   1756     1   108.8800464 416.726400
   1745   1734   1746     1   109.7500473 328.025600
   1747   1735   1748     1   109.7500473 328.025600
   1749   1736   1750     1   107.5800459 329.699200
   1751   1738   1752     1   107.5800459 329.699200
   1753   1740   1754     1   109.7500473 328.025600
   1755   1741   1756     1   108.4600466 328.025600
   1759   1760   1771     1   108.0100461 406.684800
   1759   1760   1772     1   108.0100461 406.684800
   1759   1761   1773     1   108.0100461 406.684800
   1759   1761   1774     1   108.0100461 406.684800
   1759   1766   1779     1   108.0100461 406.684800
   1759   1766   1780     1   108.0100461 406.684800
   1760   1759   1784     1   110.1100470 384.091200
   1760   1762   1775     1   109.8000471 387.438400
   1760   1762   1776     1   109.8000471 387.438400
   1761   1759   1784     1   110.1100470 384.091200
   1761   1764   1777     1   109.8000471 387.438400
   1761   1764   1778     1   109.8000471 387.438400
   1762   1760   1771     1   110.5600475 386.601600
   1762   1760   1772     1   110.5600475 386.601600
   1763   1762   1775     1   108.7700466 392.459200
   1763   1762   1776     1   108.7700466 392.459200
   1763   3627   3628     1   117.5500507 404.174400
   1764   1761   1773     1   110.5600475 386.601600
   1764   1761   1774     1   110.5600475 386.601600
   1765   1764   1777     1   108.7700466 392.459200
   1765   1764   1778     1   108.7700466 392.459200
   1765   3657   3658     1   117.5500507 404.174400
   1766   1759   1784     1   110.1100470 384.091200
   1766   1767   1781     1   109.5600471 388.275200
   1766   1767   1782     1   109.5600471 388.275200
   1767   1766   1779     1   110.5600475 386.601600
   1767   1766   1780     1   110.5600475 386.601600
   1767   1768   1783     1   117.6800502 383.254400
   1768   1767   1781     1   108.8800464 416.726400
   1768   1767   1782     1   108.8800464 416.726400
   1771   1760   1772     1   109.7500473 328.025600
   1773   1761   1774     1   109.7500473 328.025600
   1775   1762   1776     1   107.5800459 329.699200
   1777   1764   1778     1   107.5800459 329.699200
   1779   1766   1780     1   109.7500473 328.025600
   1781   1767   1782     1   108.4600466 328.025600
   1785   1786   1797     1   108.0100461 406.684800
   1785   1786   1798     1   108.0100461 406.684800
   1785   1787   1799     1   108.0100461 406.684800
   1785   1787   1800     1   108.0100461 406.684800
   1785   1792   1805     1   108.0100461 406.684800
   1785   1792   1806     1   108.0100461 406.684800
   1786   1785   1810     1   110.1100470 384.091200
   1786   1788   1801     1   109.8000471 387.438400
   1786   1788   1802     1   109.8000471 387.438400
   1787   1785   1810     1   110.1100470 384.091200
   1787   1790   1803     1   109.8000471 387.438400
   1787   1790   1804     1   109.8000471 387.438400
   1788   1786   1797     1   110.5600475 386.601600
   1788   1786   1798     1   110.5600475 386.601600
   1789   1788   1801     1   108.7700466 392.459200
   1789   1788   1802     1   108.7700466 392.459200
   1789   3687   3688     1   117.5500507 404.174400
   1790   1787   1799     1   110.5600475 386.601600
   1790   1787   1800     1   110.5600475 386.601600
   1791   1790   1803     1   108.7700466 392.459200
   1791   1790   1804     1   108.7700466 392.459200
   1791   3717   3718     1   117.5500507 404.174400
   1792   1785   1810     1   110.1100470 384.091200
   1792   1793   1807     1   109.5600471 388.275200
   1792   1793   1808     1   109.5600471 388.275200
   1793   1792   1805     1   110.5600475 386.601600
   1793   1792   1806     1   110.5600475 386.601600
   1793   1794   1809     1   117.6800502 383.254400
   1794   1793   1807     1   108.8800464 416.726400
   1794   1793   1808     1   108.8800464 416.726400
   1797   1786   1798     1   109.7500473 328.025600
   1799   1787   1800     1   109.7500473 328.025600
   1801   1788   1802     1   107.5800459 329.699200
   1803   1790   1804     1   107.5800459 329.699200
   1805   1792   1806     1   109.7500473 328.025600
   1807   1793   1808     1   108.4600466 328.025600
   1811   1812   1823     1   108.0100461 406.684800
   1811   1812   1824     1   108.0100461 406.684800
   1811   1813   1825     1   108.0100461 406.684800
   1811   1813   1826     1   108.0100461 406.684800
   1811   1818   1831     1   108.0100461 406.684800
   1811   1818   1832     1   108.0100461 406.684800
   1812   1811   1836     1   110.1100470 384.091200
   1812   1814   1827     1   109.8000471 387.438400
   1812   1814   1828     1   109.8000471 387.438400
   1813   1811   1836     1   110.1100470 384.091200
   1813   1816   1829     1   109.8000471 387.438400
   1813   1816   1830     1   109.8000471 387.438400
   1814   1812   1823     1   110.5600475 386.601600
   1814   1812   1824     1   110.5600475 386.601600
   1815   1814   1827     1   108.7700466 392.459200
   1815   1814   1828     1   108.7700466 392.459200
   1815   3747   3748     1   117.5500507 404.174400
   1816   1813   1825     1   110.5600475 386.601600
   1816   1813   1826     1   110.5600475 386.601600
   1817   1816   1829     1   108.7700466 392.459200
   1817   1816   1830     1   108.7700466 392.459200
   1817   3777   3778     1   117.5500507 404.174400
   1818   1811   1836     1   110.1100470 384.091200
   1818   1819   1833     1   109.5600471 388.275200
   1818   1819   1834     1   109.5600471 388.275200
   1819   1818   1831     1   110.5600475 386.601600
   1819   1818   1832     1   110.5600475 386.601600
   1819   1820   1835     1   117.6800502 383.254400
   1820   1819   1833     1   108.8800464 416.726400
   1820   1819   1834     1   108.8800464 416.726400
   1823   1812   1824     1   109.7500473 328.025600
   1825   1813   1826     1   109.7500473 328.025600
   1827   1814   1828     1   107.5800459 329.699200
   1829   1816   1830     1   107.5800459 329.699200
   1831   1818   1832     1   109.7500473 328.025600
   1833   1819   1834     1   108.4600466 328.025600
   1837   1838   1849     1   108.0100461 406.684800
   1837   1838   1850     1   108.0100461 406.684800
   1837   1839   1851     1   108.0100461 406.684800
   1837   1839   1852     1   108.0100461 406.684800
   1837   1844   1857     1   108.0100461 406.684800
   1837   1844   1858     1   108.0100461 406.684800
   1838   1837   1862     1   110.1100470 384.091200
   1838   1840   1853     1   109.8000471 387.438400
   1838   1840   1854     1   109.8000471 387.438400
   1839   1837   1862     1   110.1100470 384.091200
   1839   1842   1855     1   109.8000471 387.438400
   1839   1842   1856     1   109.8000471 387.438400
   1840   1838   1849     1   110.5600475 386.601600
   1840   1838   1850     1   110.5600475 386.601600
   1841   1840   1853     1   108.7700466 392.459200
   1841   1840   1854     1   108.7700466 392.459200
   1841   3807   3808     1   117.5500507 404.174400
   1842   1839   1851     1   110.5600475 386.601600
   1842   1839   1852     1   110.5600475 386.601600
   1843   1842   1855     1   108.7700466 392.459200
   1843   1842   1856     1   108.7700466 392.459200
   1843   3837   3838     1   117.5500507 404.174400
   1844   1837   1862     1   110.1100470 384.091200
   1844   1845   1859     1   109.5600471 388.275200
   1844   1845   1860     1   109.5600471 388.275200
   1845   1844   1857     1   110.5600475 386.601600
   1845   1844   1858     1   110.5600475 386.601600
   1845   1846   1861     1   117.6800502 383.254400
   1846   1845   1859     1   108.8800464 416.726400
   1846   1845   1860     1   108.8800464 416.726400
   1849   1838   1850     1   109.7500473 328.025600
   1851   1839   1852     1   109.7500473 328.025600
   1853   1840   1854     1   107.5800459 329.699200
   1855   1842   1856     1   107.5800459 329.699200
   1857   1844   1858     1   109.7500473 328.025600
   1859   1845   1860     1   108.4600466 328.025600
   1863   1864   1875     1   108.0100461 406.684800
   1863   1864   1876     1   108.0100461 406.684800
   1863   1865   1877     1   108.0100461 406.684800
   1863   1865   1878     1   108.0100461 406.684800
   1863   1870   1883     1   108.0100461 406.684800
   1863   1870   1884     1   108.0100461 406.684800
   1864   1863   1888     1   110.1100470 384.091200
   1864   1866   1879     1   109.8000471 387.438400
   1864   1866   1880     1   109.8000471 387.438400
   1865   1863   1888     1   110.1100470 384.091200
   1865   1868   1881     1   109.8000471 387.438400
   1865   1868   1882     1   109.8000471 387.438400
   1866   1864   1875     1   110.5600475 386.601600
   1866   1864   1876     1   110.5600475 386.601600
   1867   1866   1879     1   108.7700466 392.459200
   1867   1866   1880     1   108.7700466 392.459200
   1867   3867   3868     1   117.5500507 404.174400
   1868   1865   1877     1   110.5600475 386.601600
   1868   1865   1878     1   110.5600475 386.601600
   1869   1868   1881     1   108.7700466 392.459200
   1869   1868   1882     1   108.7700466 392.459200
   1869   3897   3898     1   117.5500507 404.174400
   1870   1863   1888     1   110.1100470 384.091200
   1870   1871   1885     1   109.5600471 388.275200
   1870   1871   1886     1   109.5600471 388.275200
   1871   1870   1883     1   110.5600475 386.601600
   1871   1870   1884     1   110.5600475 386.601600
   1871   1872   1887     1   117.6800502 383.254400
   1872   1871   1885     1   108.8800464 416.726400
   1872   1871   1886     1   108.8800464 416.726400
   1875   1864   1876     1   109.7500473 328.025600
   1877   1865   1878     1   109.7500473 328.025600
   1879   1866   1880     1   107.5800459 329.699200
   1881   1868   1882     1   107.5800459 329.699200
   1883   1870   1884     1   109.7500473 328.025600
   1885   1871   1886     1   108.4600466 328.025600
   1889   1890   1901     1   108.0100461 406.684800
   1889   1890   1902     1   108.0100461 406.684800
   1889   1891   1903     1   108.0100461 406.684800
   1889   1891   1904     1   108.0100461 406.684800
   1889   1896   1909     1   108.0100461 406.684800
   1889   1896   1910     1   108.0100461 406.684800
   1890   1889   1914     1   110.1100470 384.091200
   1890   1892   1905     1   109.8000471 387.438400
   1890   1892   1906     1   109.8000471 387.438400
   1891   1889   1914     1   110.1100470 384.091200
   1891   1894   1907     1   109.8000471 387.438400
   1891   1894   1908     1   109.8000471 387.438400
   1892   1890   1901     1   110.5600475 386.601600
   1892   1890   1902     1   110.5600475 386.601600
   1893   1892   1905     1   108.7700466 392.459200
   1893   1892   1906     1   108.7700466 392.459200
   1893   3927   3928     1   117.5500507 404.174400
   1894   1891   1903     1   110.5600475 386.601600
   1894   1891   1904     1   110.5600475 386.601600
   1895   1894   1907     1   108.7700466 392.459200
   1895   1894   1908     1   108.7700466 392.459200
   1895   3957   3958     1   117.5500507 404.174400
   1896   1889   1914     1   110.1100470 384.091200
   1896   1897   1911     1   109.5600471 388.275200
   1896   1897   1912     1   109.5600471 388.275200
   1897   1896   1909     1   110.5600475 386.601600
   1897   1896   1910     1   110.5600475 386.601600
   1897   1898   1913     1   117.6800502 383.254400
   1898   1897   1911     1   108.8800464 416.726400
   1898   1897   1912     1   108.8800464 416.726400
   1901   1890   1902     1   109.7500473 328.025600
   1903   1891   1904     1   109.7500473 328.025600
   1905   1892   1906     1   107.5800459 329.699200
   1907   1894   1908     1   107.5800459 329.699200
   1909   1896   1910     1   109.7500473 328.025600
   1911   1897   1912     1   108.4600466 328.025600
   1915   1916   1927     1   108.0100461 406.684800
   1915   1916   1928     1   108.0100461 406.684800
   1915   1917   1929     1   108.0100461 406.684800
   1915   1917   1930     1   108.0100461 406.684800
   1915   1922   1935     1   108.0100461 406.684800
   1915   1922   1936     1   108.0100461 406.684800
   1916   1915   1940     1   110.1100470 384.091200
   1916   1918   1931     1   109.8000471 387.438400
   1916   1918   1932     1   109.8000471 387.438400
   1917   1915   1940     1   110.1100470 384.091200
   1917   1920   1933     1   109.8000471 387.438400
   1917   1920   1934     1   109.8000471 387.438400
   1918   1916   1927     1   110.5600475 386.601600
   1918   1916   1928     1   110.5600475 386.601600
   1919   1918   1931     1   108.7700466 392.459200
   1919   1918   1932     1   108.7700466 392.459200
   1919   3987   3988     1   117.5500507 404.174400
   1920   1917   1929     1   110.5600475 386.601600
   1920   1917   1930     1   110.5600475 386.601600
   1921   1920   1933     1   108.7700466 392.459200
   1921   1920   1934     1   108.7700466 392.459200
   1921   4017   4018     1   117.5500507 404.174400
   1922   1915   1940     1   110.1100470 384.091200
   1922   1923   1937     1   109.5600471 388.275200
   1922   1923   1938     1   109.5600471 388.275200
   1923   1922   1935     1   110.5600475 386.601600
   1923   1922   1936     1   110.5600475 386.601600
   1923   1924   1939     1   117.6800502 383.254400
   1924   1923   1937     1   108.8800464 416.726400
   1924   1923   1938     1   108.8800464 416.726400
   1927   1916   1928     1   109.7500473 328.025600
   1929   1917   1930     1   109.7500473 328.025600
   1931   1918   1932     1   107.5800459 329.699200
   1933   1920   1934     1   107.5800459 329.699200
   1935   1922   1936     1   109.7500473 328.025600
   1937   1923   1938     1   108.4600466 328.025600
   1941   1942   1953     1   108.0100461 406.684800
   1941   1942   1954     1   108.0100461 406.684800
   1941   1943   1955     1   108.0100461 406.684800
   1941   1943   1956     1   108.0100461 406.684800
   1941   1948   1961     1   108.0100461 406.684800
   1941   1948   1962     1   108.0100461 406.684800
   1942   1941   1966     1   110.1100470 384.091200
   1942   1944   1957     1   109.8000471 387.438400
   1942   1944   1958     1   109.8000471 387.438400
   1943   1941   1966     1   110.1100470 384.091200
   1943   1946   1959     1   109.8000471 387.438400
   1943   1946   1960     1   109.8000471 387.438400
   1944   1942   1953     1   110.5600475 386.601600
   1944   1942   1954     1   110.5600475 386.601600
   1945   1944   1957     1   108.7700466 392.459200
   1945   1944   1958     1   108.7700466 392.459200
   1945   4047   4048     1   117.5500507 404.174400
   1946   1943   1955     1   110.5600475 386.601600
   1946   1943   1956     1   110.5600475 386.601600
   1947   1946   1959     1   108.7700466 392.459200
   1947   1946   1960     1   108.7700466 392.459200
   1947   4077   4078     1   117.5500507 404.174400
   1948   1941   1966     1   110.1100470 384.091200
   1948   1949   1963     1   109.5600471 388.275200
   1948   1949   1964     1   109.5600471 388.275200
   1949   1948   1961     1   110.5600475 386.601600
   1949   1948   1962     1   110.5600475 386.601600
   1949   1950   1965     1   117.6800502 383.254400
   1950   1949   1963     1   108.8800464 416.726400
   1950   1949   1964     1   108.8800464 416.726400
   1953   1942   1954     1   109.7500473 328.025600
   1955   1943   1956     1   109.7500473 328.025600
   1957   1944   1958     1   107.5800459 329.699200
   1959   1946   1960     1   107.5800459 329.699200
   1961   1948   1962     1   109.7500473 328.025600
   1963   1949   1964     1   108.4600466 328.025600
   1967   1968   1979     1   108.0100461 406.684800
   1967   1968   1980     1   108.0100461 406.684800
   1967   1969   1981     1   108.0100461 406.684800
   1967   1969   1982     1   108.0100461 406.684800
   1967   1974   1987     1   108.0100461 406.684800
   1967   1974   1988     1   108.0100461 406.684800
   1968   1967   1992     1   110.1100470 384.091200
   1968   1970   1983     1   109.8000471 387.438400
   1968   1970   1984     1   109.8000471 387.438400
   1969   1967   1992     1   110.1100470 384.091200
   1969   1972   1985     1   109.8000471 387.438400
   1969   1972   1986     1   109.8000471 387.438400
   1970   1968   1979     1   110.5600475 386.601600
   1970   1968   1980     1   110.5600475 386.601600
   1971   1970   1983     1   108.7700466 392.459200
   1971   1970   1984     1   108.7700466 392.459200
   1971   4107   4108     1   117.5500507 404.174400
   1972   1969   1981     1   110.5600475 386.601600
   1972   1969   1982     1   110.5600475 386.601600
   1973   1972   1985     1   108.7700466 392.459200
   1973   1972   1986     1   108.7700466 392.459200
   1973   4137   4138     1   117.5500507 404.174400
   1974   1967   1992     1   110.1100470 384.091200
   1974   1975   1989     1   109.5600471 388.275200
   1974   1975   1990     1   109.5600471 388.275200
   1975   1974   1987     1   110.5600475 386.601600
   1975   1974   1988     1   110.5600475 386.601600
   1975   1976   1991     1   117.6800502 383.254400
   1976   1975   1989     1   108.8800464 416.726400
   1976   1975   1990     1   108.8800464 416.726400
   1979   1968   1980     1   109.7500473 328.025600
   1981   1969   1982     1   109.7500473 328.025600
   1983   1970   1984     1   107.5800459 329.699200
   1985   1972   1986     1   107.5800459 329.699200
   1987   1974   1988     1   109.7500473 328.025600
   1989   1975   1990     1   108.4600466 328.025600
   1993   1994   2005     1   108.0100461 406.684800
   1993   1994   2006     1   108.0100461 406.684800
   1993   1995   2007     1   108.0100461 406.684800
   1993   1995   2008     1   108.0100461 406.684800
   1993   2000   2013     1   108.0100461 406.684800
   1993   2000   2014     1   108.0100461 406.684800
   1994   1993   2018     1   110.1100470 384.091200
   1994   1996   2009     1   109.8000471 387.438400
   1994   1996   2010     1   109.8000471 387.438400
   1995   1993   2018     1   110.1100470 384.091200
   1995   1998   2011     1   109.8000471 387.438400
   1995   1998   2012     1   109.8000471 387.438400
   1996   1994   2005     1   110.5600475 386.601600
   1996   1994   2006     1   110.5600475 386.601600
   1997   1996   2009     1   108.7700466 392.459200
   1997   1996   2010     1   108.7700466 392.459200
   1997   4167   4168     1   117.5500507 404.174400
   1998   1995   2007     1   110.5600475 386.601600
   1998   1995   2008     1   110.5600475 386.601600
   1999   1998   2011     1   108.7700466 392.459200
   1999   1998   2012     1   108.7700466 392.459200
   1999   4197   4198     1   117.5500507 404.174400
   2000   1993   2018     1   110.1100470 384.091200
   2000   2001   2015     1   109.5600471 388.275200
   2000   2001   2016     1   109.5600471 388.275200
   2001   2000   2013     1   110.5600475 386.601600
   2001   2000   2014     1   110.5600475 386.601600
   2001   2002   2017     1   117.6800502 383.254400
   2002   2001   2015     1   108.8800464 416.726400
   2002   2001   2016     1   108.8800464 416.726400
   2005   1994   2006     1   109.7500473 328.025600
   2007   1995   2008     1   109.7500473 328.025600
   2009   1996   2010     1   107.5800459 329.699200
   2011   1998   2012     1   107.5800459 329.699200
   2013   2000   2014     1   109.7500473 328.025600
   2015   2001   2016     1   108.4600466 328.025600
   2019   2020   2031     1   108.0100461 406.684800
   2019   2020   2032     1   108.0100461 406.684800
   2019   2021   2033     1   108.0100461 406.684800
   2019   2021   2034     1   108.0100461 406.684800
   2019   2026   2039     1   108.0100461 406.684800
   2019   2026   2040     1   108.0100461 406.684800
   2020   2019   2044     1   110.1100470 384.091200
   2020   2022   2035     1   109.8000471 387.438400
   2020   2022   2036     1   109.8000471 387.438400
   2021   2019   2044     1   110.1100470 384.091200
   2021   2024   2037     1   109.8000471 387.438400
   2021   2024   2038     1   109.8000471 387.438400
   2022   2020   2031     1   110.5600475 386.601600
   2022   2020   2032     1   110.5600475 386.601600
   2023   2022   2035     1   108.7700466 392.459200
   2023   2022   2036     1   108.7700466 392.459200
   2023   4227   4228     1   117.5500507 404.174400
   2024   2021   2033     1   110.5600475 386.601600
   2024   2021   2034     1   110.5600475 386.601600
   2025   2024   2037     1   108.7700466 392.459200
   2025   2024   2038     1   108.7700466 392.459200
   2025   4257   4258     1   117.5500507 404.174400
   2026   2019   2044     1   110.1100470 384.091200
   2026   2027   2041     1   109.5600471 388.275200
   2026   2027   2042     1   109.5600471 388.275200
   2027   2026   2039     1   110.5600475 386.601600
   2027   2026   2040     1   110.5600475 386.601600
   2027   2028   2043     1   117.6800502 383.254400
   2028   2027   2041     1   108.8800464 416.726400
   2028   2027   2042     1   108.8800464 416.726400
   2031   2020   2032     1   109.7500473 328.025600
   2033   2021   2034     1   109.7500473 328.025600
   2035   2022   2036     1   107.5800459 329.699200
   2037   2024   2038     1   107.5800459 329.699200
   2039   2026   2040     1   109.7500473 328.025600
   2041   2027   2042     1   108.4600466 328.025600
   2045   2046   2057     1   108.0100461 406.684800
   2045   2046   2058     1   108.0100461 406.684800
   2045   2047   2059     1   108.0100461 406.684800
   2045   2047   2060     1   108.0100461 406.684800
   2045   2052   2065     1   108.0100461 406.684800
   2045   2052   2066     1   108.0100461 406.684800
   2046   2045   2070     1   110.1100470 384.091200
   2046   2048   2061     1   109.8000471 387.438400
   2046   2048   2062     1   109.8000471 387.438400
   2047   2045   2070     1   110.1100470 384.091200
   2047   2050   2063     1   109.8000471 387.438400
   2047   2050   2064     1   109.8000471 387.438400
   2048   2046   2057     1   110.5600475 386.601600
   2048   2046   2058     1   110.5600475 386.601600
   2049   2048   2061     1   108.7700466 392.459200
   2049   2048   2062     1   108.7700466 392.459200
   2049   4287   4288     1   117.5500507 404.174400
   2050   2047   2059     1   110.5600475 386.601600
   2050   2047   2060     1   110.5600475 386.601600
   2051   2050   2063     1   108.7700466 392.459200
   2051   2050   2064     1   108.7700466 392.459200
   2051   4317   4318     1   117.5500507 404.174400
   2052   2045   2070     1   110.1100470 384.091200
   2052   2053   2067     1   109.5600471 388.275200
   2052   2053   2068     1   109.5600471 388.275200
   2053   2052   2065     1   110.5600475 386.601600
   2053   2052   2066     1   110.5600475 386.601600
   2053   2054   2069     1   117.6800502 383.254400
   2054   2053   2067     1   108.8800464 416.726400
   2054   2053   2068     1   108.8800464 416.726400
   2057   2046   2058     1   109.7500473 328.025600
   2059   2047   2060     1   109.7500473 328.025600
   2061   2048   2062     1   107.5800459 329.699200
   2063   2050   2064     1   107.5800459 329.699200
   2065   2052   2066     1   109.7500473 328.025600
   2067   2053   2068     1   108.4600466 328.025600
   2071   2072   2083     1   108.0100461 406.684800
   2071   2072   2084     1   108.0100461 406.684800
   2071   2073   2085     1   108.0100461 406.684800
   2071   2073   2086     1   108.0100461 406.684800
   2071   2078   2091     1   108.0100461 406.684800
   2071   2078   2092     1   108.0100461 406.684800
   2072   2071   2096     1   110.1100470 384.091200
   2072   2074   2087     1   109.8000471 387.438400
   2072   2074   2088     1   109.8000471 387.438400
   2073   2071   2096     1   110.1100470 384.091200
   2073   2076   2089     1   109.8000471 387.438400
   2073   2076   2090     1   109.8000471 387.438400
   2074   2072   2083     1   110.5600475 386.601600
   2074   2072   2084     1   110.5600475 386.601600
   2075   2074   2087     1   108.7700466 392.459200
   2075   2074   2088     1   108.7700466 392.459200
   2075   4347   4348     1   117.5500507 404.174400
   2076   2073   2085     1   110.5600475 386.601600
   2076   2073   2086     1   110.5600475 386.601600
   2077   2076   2089     1   108.7700466 392.459200
   2077   2076   2090     1   108.7700466 392.459200
   2077   4377   4378     1   117.5500507 404.174400
   2078   2071   2096     1   110.1100470 384.091200
   2078   2079   2093     1   109.5600471 388.275200
   2078   2079   2094     1   109.5600471 388.275200
   2079   2078   2091     1   110.5600475 386.601600
   2079   2078   2092     1   110.5600475 386.601600
   2079   2080   2095     1   117.6800502 383.254400
   2080   2079   2093     1   108.8800464 416.726400
   2080   2079   2094     1   108.8800464 416.726400
   2083   2072   2084     1   109.7500473 328.025600
   2085   2073   2086     1   109.7500473 328.025600
   2087   2074   2088     1   107.5800459 329.699200
   2089   2076   2090     1   107.5800459 329.699200
   2091   2078   2092     1   109.7500473 328.025600
   2093   2079   2094     1   108.4600466 328.025600
   2097   2098   2109     1   108.0100461 406.684800
   2097   2098   2110     1   108.0100461 406.684800
   2097   2099   2111     1   108.0100461 406.684800
   2097   2099   2112     1   108.0100461 406.684800
   2097   2104   2117     1   108.0100461 406.684800
   2097   2104   2118     1   108.0100461 406.684800
   2098   2097   2122     1   110.1100470 384.091200
   2098   2100   2113     1   109.8000471 387.438400
   2098   2100   2114     1   109.8000471 387.438400
   2099   2097   2122     1   110.1100470 384.091200
   2099   2102   2115     1   109.8000471 387.438400
   2099   2102   2116     1   109.8000471 387.438400
   2100   2098   2109     1   110.5600475 386.601600
   2100   2098   2110     1   110.5600475 386.601600
   2101   2100   2113     1   108.7700466 392.459200
   2101   2100   2114     1   108.7700466 392.459200
   2101   4407   4408     1   117.5500507 404.174400
   2102   2099   2111     1   110.5600475 386.601600
   2102   2099   2112     1   110.5600475 386.601600
   2103   2102   2115     1   108.7700466 392.459200
   2103   2102   2116     1   108.7700466 392.459200
   2103   4437   4438     1   117.5500507 404.174400
   2104   2097   2122     1   110.1100470 384.091200
   2104   2105   2119     1   109.5600471 388.275200
   2104   2105   2120     1   109.5600471 388.275200
   2105   2104   2117     1   110.5600475 386.601600
   2105   2104   2118     1   110.5600475 386.601600
   2105   2106   2121     1   117.6800502 383.254400
   2106   2105   2119     1   108.8800464 416.726400
   2106   2105   2120     1   108.8800464 416.726400
   2109   2098   2110     1   109.7500473 328.025600
   2111   2099   2112     1   109.7500473 328.025600
   2113   2100   2114     1   107.5800459 329.699200
   2115   2102   2116     1   107.5800459 329.699200
   2117   2104   2118     1   109.7500473 328.025600
   2119   2105   2120     1   108.4600466 328.025600
   2123   2124   2135     1   108.0100461 406.684800
   2123   2124   2136     1   108.0100461 406.684800
   2123   2125   2137     1   108.0100461 406.684800
   2123   2125   2138     1   108.0100461 406.684800
   2123   2130   2143     1   108.0100461 406.684800
   2123   2130   2144     1   108.0100461 406.684800
   2124   2123   2148     1   110.1100470 384.091200
   2124   2126   2139     1   109.8000471 387.438400
   2124   2126   2140     1   109.8000471 387.438400
   2125   2123   2148     1   110.1100470 384.091200
   2125   2128   2141     1   109.8000471 387.438400
   2125   2128   2142     1   109.8000471 387.438400
   2126   2124   2135     1   110.5600475 386.601600
   2126   2124   2136     1   110.5600475 386.601600
   2127   2126   2139     1   108.7700466 392.459200
   2127   2126   2140     1   108.7700466 392.459200
   2127   4467   4468     1   117.5500507 404.174400
   2128   2125   2137     1   110.5600475 386.601600
   2128   2125   2138     1   110.5600475 386.601600
   2129   2128   2141     1   108.7700466 392.459200
   2129   2128   2142     1   108.7700466 392.459200
   2129   4497   4498     1   117.5500507 404.174400
   2130   2123   2148     1   110.1100470 384.091200
   2130   2131   2145     1   109.5600471 388.275200
   2130   2131   2146     1   109.5600471 388.275200
   2131   2130   2143     1   110.5600475 386.601600
   2131   2130   2144     1   110.5600475 386.601600
   2131   2132   2147     1   117.6800502 383.254400
   2132   2131   2145     1   108.8800464 416.726400
   2132   2131   2146     1   108.8800464 416.726400
   2135   2124   2136     1   109.7500473 328.025600
   2137   2125   2138     1   109.7500473 328.025600
   2139   2126   2140     1   107.5800459 329.699200
   2141   2128   2142     1   107.5800459 329.699200
   2143   2130   2144     1   109.7500473 328.025600
   2145   2131   2146     1   108.4600466 328.025600
   2149   2150   2161     1   108.0100461 406.684800
   2149   2150   2162     1   108.0100461 406.684800
   2149   2151   2163     1   108.0100461 406.684800
   2149   2151   2164     1   108.0100461 406.684800
   2149   2156   2169     1   108.0100461 406.684800
   2149   2156   2170     1   108.0100461 406.684800
   2150   2149   2174     1   110.1100470 384.091200
   2150   2152   2165     1   109.8000471 387.438400
   2150   2152   2166     1   109.8000471 387.438400
   2151   2149   2174     1   110.1100470 384.091200
   2151   2154   2167     1   109.8000471 387.438400
   2151   2154   2168     1   109.8000471 387.438400
   2152   2150   2161     1   110.5600475 386.601600
   2152   2150   2162     1   110.5600475 386.601600
   2153   2152   2165     1   108.7700466 392.459200
   2153   2152   2166     1   108.7700466 392.459200
   2153   4527   4528     1   117.5500507 404.174400
   2154   2151   2163     1   110.5600475 386.601600
   2154   2151   2164     1   110.5600475 386.601600
   2155   2154   2167     1   108.7700466 392.459200
   2155   2154   2168     1   108.7700466 392.459200
   2155   4557   4558     1   117.5500507 404.174400
   2156   2149   2174     1   110.1100470 384.091200
   2156   2157   2171     1   109.5600471 388.275200
   2156   2157   2172     1   109.5600471 388.275200
   2157   2156   2169     1   110.5600475 386.601600
   2157   2156   2170     1   110.5600475 386.601600
   2157   2158   2173     1   117.6800502 383.254400
   2158   2157   2171     1   108.8800464 416.726400
   2158   2157   2172     1   108.8800464 416.726400
   2161   2150   2162     1   109.7500473 328.025600
   2163   2151   2164     1   109.7500473 328.025600
   2165   2152   2166     1   107.5800459 329.699200
   2167   2154   2168     1   107.5800459 329.699200
   2169   2156   2170     1   109.7500473 328.025600
   2171   2157   2172     1   108.4600466 328.025600
   2175   2176   2187     1   108.0100461 406.684800
   2175   2176   2188     1   108.0100461 406.684800
   2175   2177   2189     1   108.0100461 406.684800
   2175   2177   2190     1   108.0100461 406.684800
   2175   2182   2195     1   108.0100461 406.684800
   2175   2182   2196     1   108.0100461 406.684800
   2176   2175   2200     1   110.1100470 384.091200
   2176   2178   2191     1   109.8000471 387.438400
   2176   2178   2192     1   109.8000471 387.438400
   2177   2175   2200     1   110.1100470 384.091200
   2177   2180   2193     1   109.8000471 387.438400
   2177   2180   2194     1   109.8000471 387.438400
   2178   2176   2187     1   110.5600475 386.601600
   2178   2176   2188     1   110.5600475 386.601600
   2179   2178   2191     1   108.7700466 392.459200
   2179   2178   2192     1   108.7700466 392.459200
   2179   4587   4588     1   117.5500507 404.174400
   2180   2177   2189     1   110.5600475 386.601600
   2180   2177   2190     1   110.5600475 386.601600
   2181   2180   2193     1   108.7700466 392.459200
   2181   2180   2194     1   108.7700466 392.459200
   2181   4617   4618     1   117.5500507 404.174400
   2182   2175   2200     1   110.1100470 384.091200
   2182   2183   2197     1   109.5600471 388.275200
   2182   2183   2198     1   109.5600471 388.275200
   2183   2182   2195     1   110.5600475 386.601600
   2183   2182   2196     1   110.5600475 386.601600
   2183   2184   2199     1   117.6800502 383.254400
   2184   2183   2197     1   108.8800464 416.726400
   2184   2183   2198     1   108.8800464 416.726400
   2187   2176   2188     1   109.7500473 328.025600
   2189   2177   2190     1   109.7500473 328.025600
   2191   2178   2192     1   107.5800459 329.699200
   2193   2180   2194     1   107.5800459 329.699200
   2195   2182   2196     1   109.7500473 328.025600
   2197   2183   2198     1   108.4600466 328.025600
   2201   2202   2213     1   108.0100461 406.684800
   2201   2202   2214     1   108.0100461 406.684800
   2201   2203   2215     1   108.0100461 406.684800
   2201   2203   2216     1   108.0100461 406.684800
   2201   2208   2221     1   108.0100461 406.684800
   2201   2208   2222     1   108.0100461 406.684800
   2202   2201   2226     1   110.1100470 384.091200
   2202   2204   2217     1   109.8000471 387.438400
   2202   2204   2218     1   109.8000471 387.438400
   2203   2201   2226     1   110.1100470 384.091200
   2203   2206   2219     1   109.8000471 387.438400
   2203   2206   2220     1   109.8000471 387.438400
   2204   2202   2213     1   110.5600475 386.601600
   2204   2202   2214     1   110.5600475 386.601600
   2205   2204   2217     1   108.7700466 392.459200
   2205   2204   2218     1   108.7700466 392.459200
   2205   4647   4648     1   117.5500507 404.174400
   2206   2203   2215     1   110.5600475 386.601600
   2206   2203   2216     1   110.5600475 386.601600
   2207   2206   2219     1   108.7700466 392.459200
   2207   2206   2220     1   108.7700466 392.459200
   2207   4677   4678     1   117.5500507 404.174400
   2208   2201   2226     1   110.1100470 384.091200
   2208   2209   2223     1   109.5600471 388.275200
   2208   2209   2224     1   109.5600471 388.275200
   2209   2208   2221     1   110.5600475 386.601600
   2209   2208   2222     1   110.5600475 386.601600
   2209   2210   2225     1   117.6800502 383.254400
   2210   2209   2223     1   108.8800464 416.726400
   2210   2209   2224     1   108.8800464 416.726400
   2213   2202   2214     1   109.7500473 328.025600
   2215   2203   2216     1   109.7500473 328.025600
   2217   2204   2218     1   107.5800459 329.699200
   2219   2206   2220     1   107.5800459 329.699200
   2221   2208   2222     1   109.7500473 328.025600
   2223   2209   2224     1   108.4600466 328.025600
   2227   2228   2239     1   108.0100461 406.684800
   2227   2228   2240     1   108.0100461 406.684800
   2227   2229   2241     1   108.0100461 406.684800
   2227   2229   2242     1   108.0100461 406.684800
   2227   2234   2247     1   108.0100461 406.684800
   2227   2234   2248     1   108.0100461 406.684800
   2228   2227   2252     1   110.1100470 384.091200
   2228   2230   2243     1   109.8000471 387.438400
   2228   2230   2244     1   109.8000471 387.438400
   2229   2227   2252     1   110.1100470 384.091200
   2229   2232   2245     1   109.8000471 387.438400
   2229   2232   2246     1   109.8000471 387.438400
   2230   2228   2239     1   110.5600475 386.601600
   2230   2228   2240     1   110.5600475 386.601600
   2231   2230   2243     1   108.7700466 392.459200
   2231   2230   2244     1   108.7700466 392.459200
   2231   4707   4708     1   117.5500507 404.174400
   2232   2229   2241     1   110.5600475 386.601600
   2232   2229   2242     1   110.5600475 386.601600
   2233   2232   2245     1   108.7700466 392.459200
   2233   2232   2246     1   108.7700466 392.459200
   2233   4737   4738     1   117.5500507 404.174400
   2234   2227   2252     1   110.1100470 384.091200
   2234   2235   2249     1   109.5600471 388.275200
   2234   2235   2250     1   109.5600471 388.275200
   2235   2234   2247     1   110.5600475 386.601600
   2235   2234   2248     1   110.5600475 386.601600
   2235   2236   2251     1   117.6800502 383.254400
   2236   2235   2249     1   108.8800464 416.726400
   2236   2235   2250     1   108.8800464 416.726400
   2239   2228   2240     1   109.7500473 328.025600
   2241   2229   2242     1   109.7500473 328.025600
   2243   2230   2244     1   107.5800459 329.699200
   2245   2232   2246     1   107.5800459 329.699200
   2247   2234   2248     1   109.7500473 328.025600
   2249   2235   2250     1   108.4600466 328.025600
   2253   2254   2265     1   108.0100461 406.684800
   2253   2254   2266     1   108.0100461 406.684800
   2253   2255   2267     1   108.0100461 406.684800
   2253   2255   2268     1   108.0100461 406.684800
   2253   2260   2273     1   108.0100461 406.684800
   2253   2260   2274     1   108.0100461 406.684800
   2254   2253   2278     1   110.1100470 384.091200
   2254   2256   2269     1   109.8000471 387.438400
   2254   2256   2270     1   109.8000471 387.438400
   2255   2253   2278     1   110.1100470 384.091200
   2255   2258   2271     1   109.8000471 387.438400
   2255   2258   2272     1   109.8000471 387.438400
   2256   2254   2265     1   110.5600475 386.601600
   2256   2254   2266     1   110.5600475 386.601600
   2257   2256   2269     1   108.7700466 392.459200
   2257   2256   2270     1   108.7700466 392.459200
   2257   4767   4768     1   117.5500507 404.174400
   2258   2255   2267     1   110.5600475 386.601600
   2258   2255   2268     1   110.5600475 386.601600
   2259   2258   2271     1   108.7700466 392.459200
   2259   2258   2272     1   108.7700466 392.459200
   2259   4797   4798     1   117.5500507 404.174400
   2260   2253   2278     1   110.1100470 384.091200
   2260   2261   2275     1   109.5600471 388.275200
   2260   2261   2276     1   109.5600471 388.275200
   2261   2260   2273     1   110.5600475 386.601600
   2261   2260   2274     1   110.5600475 386.601600
   2261   2262   2277     1   117.6800502 383.254400
   2262   2261   2275     1   108.8800464 416.726400
   2262   2261   2276     1   108.8800464 416.726400
   2265   2254   2266     1   109.7500473 328.025600
   2267   2255   2268     1   109.7500473 328.025600
   2269   2256   2270     1   107.5800459 329.699200
   2271   2258   2272     1   107.5800459 329.699200
   2273   2260   2274     1   109.7500473 328.025600
   2275   2261   2276     1   108.4600466 328.025600
   2279   2280   2291     1   108.0100461 406.684800
   2279   2280   2292     1   108.0100461 406.684800
   2279   2281   2293     1   108.0100461 406.684800
   2279   2281   2294     1   108.0100461 406.684800
   2279   2286   2299     1   108.0100461 406.684800
   2279   2286   2300     1   108.0100461 406.684800
   2280   2279   2304     1   110.1100470 384.091200
   2280   2282   2295     1   109.8000471 387.438400
   2280   2282   2296     1   109.8000471 387.438400
   2281   2279   2304     1   110.1100470 384.091200
   2281   2284   2297     1   109.8000471 387.438400
   2281   2284   2298     1   109.8000471 387.438400
   2282   2280   2291     1   110.5600475 386.601600
   2282   2280   2292     1   110.5600475 386.601600
   2283   2282   2295     1   108.7700466 392.459200
   2283   2282   2296     1   108.7700466 392.459200
   2283   4827   4828     1   117.5500507 404.174400
   2284   2281   2293     1   110.5600475 386.601600
   2284   2281   2294     1   110.5600475 386.601600
   2285   2284   2297     1   108.7700466 392.459200
   2285   2284   2298     1   108.7700466 392.459200
   2285   4857   4858     1   117.5500507 404.174400
   2286   2279   2304     1   110.1100470 384.091200
   2286   2287   2301     1   109.5600471 388.275200
   2286   2287   2302     1   109.5600471 388.275200
   2287   2286   2299     1   110.5600475 386.601600
   2287   2286   2300     1   110.5600475 386.601600
   2287   2288   2303     1   117.6800502 383.254400
   2288   2287   2301     1   108.8800464 416.726400
   2288   2287   2302     1   108.8800464 416.726400
   2291   2280   2292     1   109.7500473 328.025600
   2293   2281   2294     1   109.7500473 328.025600
   2295   2282   2296     1   107.5800459 329.699200
   2297   2284   2298     1   107.5800459 329.699200
   2299   2286   2300     1   109.7500473 328.025600
   2301   2287   2302     1   108.4600466 328.025600
   2305   2306   2317     1   108.0100461 406.684800
   2305   2306   2318     1   108.0100461 406.684800
   2305   2307   2319     1   108.0100461 406.684800
   2305   2307   2320     1   108.0100461 406.684800
   2305   2312   2325     1   108.0100461 406.684800
   2305   2312   2326     1   108.0100461 406.684800
   2306   2305   2330     1   110.1100470 384.091200
   2306   2308   2321     1   109.8000471 387.438400
   2306   2308   2322     1   109.8000471 387.438400
   2307   2305   2330     1   110.1100470 384.091200
   2307   2310   2323     1   109.8000471 387.438400
   2307   2310   2324     1   109.8000471 387.438400
   2308   2306   2317     1   110.5600475 386.601600
   2308   2306   2318     1   110.5600475 386.601600
   2309   2308   2321     1   108.7700466 392.459200
   2309   2308   2322     1   108.7700466 392.459200
   2309   4887   4888     1   117.5500507 404.174400
   2310   2307   2319     1   110.5600475 386.601600
   2310   2307   2320     1   110.5600475 386.601600
   2311   2310   2323     1   108.7700466 392.459200
   2311   2310   2324     1   108.7700466 392.459200
   2311   4917   4918     1   117.5500507 404.174400
   2312   2305   2330     1   110.1100470 384.091200
   2312   2313   2327     1   109.5600471 388.275200
   2312   2313   2328     1   109.5600471 388.275200
   2313   2312   2325     1   110.5600475 386.601600
   2313   2312   2326     1   110.5600475 386.601600
   2313   2314   2329     1   117.6800502 383.254400
   2314   2313   2327     1   108.8800464 416.726400
   2314   2313   2328     1   108.8800464 416.726400
   2317   2306   2318     1   109.7500473 328.025600
   2319   2307   2320     1   109.7500473 328.025600
   2321   2308   2322     1   107.5800459 329.699200
   2323   2310   2324     1   107.5800459 329.699200
   2325   2312   2326     1   109.7500473 328.025600
   2327   2313   2328     1   108.4600466 328.025600
   2331   2332   2343     1   108.0100461 406.684800
   2331   2332   2344     1   108.0100461 406.684800
   2331   2333   2345     1   108.0100461 406.684800
   2331   2333   2346     1   108.0100461 406.684800
   2331   2338   2351     1   108.0100461 406.684800
   2331   2338   2352     1   108.0100461 406.684800
   2332   2331   2356     1   110.1100470 384.091200
   2332   2334   2347     1   109.8000471 387.438400
   2332   2334   2348     1   109.8000471 387.438400
   2333   2331   2356     1   110.1100470 384.091200
   2333   2336   2349     1   109.8000471 387.438400
   2333   2336   2350     1   109.8000471 387.438400
   2334   2332   2343     1   110.5600475 386.601600
   2334   2332   2344     1   110.5600475 386.601600
   2335   2334   2347     1   108.7700466 392.459200
   2335   2334   2348     1   108.7700466 392.459200
   2335   4947   4948     1   117.5500507 404.174400
   2336   2333   2345     1   110.5600475 386.601600
   2336   2333   2346     1   110.5600475 386.601600
   2337   2336   2349     1   108.7700466 392.459200
   2337   2336   2350     1   108.7700466 392.459200
   2337   4977   4978     1   117.5500507 404.174400
   2338   2331   2356     1   110.1100470 384.091200
   2338   2339   2353     1   109.5600471 388.275200
   2338   2339   2354     1   109.5600471 388.275200
   2339   2338   2351     1   110.5600475 386.601600
   2339   2338   2352     1   110.5600475 386.601600
   2339   2340   2355     1   117.6800502 383.254400
   2340   2339   2353     1   108.8800464 416.726400
   2340   2339   2354     1   108.8800464 416.726400
   2343   2332   2344     1   109.7500473 328.025600
   2345   2333   2346     1   109.7500473 328.025600
   2347   2334   2348     1   107.5800459 329.699200
   2349   2336   2350     1   107.5800459 329.699200
   2351   2338   2352     1   109.7500473 328.025600
   2353   2339   2354     1   108.4600466 328.025600
   2357   2358   2369     1   108.0100461 406.684800
   2357   2358   2370     1   108.0100461 406.684800
   2357   2359   2371     1   108.0100461 406.684800
   2357   2359   2372     1   108.0100461 406.684800
   2357   2364   2377     1   108.0100461 406.684800
   2357   2364   2378     1   108.0100461 406.684800
   2358   2357   2382     1   110.1100470 384.091200
   2358   2360   2373     1   109.8000471 387.438400
   2358   2360   2374     1   109.8000471 387.438400
   2359   2357   2382     1   110.1100470 384.091200
   2359   2362   2375     1   109.8000471 387.438400
   2359   2362   2376     1   109.8000471 387.438400
   2360   2358   2369     1   110.5600475 386.601600
   2360   2358   2370     1   110.5600475 386.601600
   2361   2360   2373     1   108.7700466 392.459200
   2361   2360   2374     1   108.7700466 392.459200
   2361   5007   5008     1   117.5500507 404.174400
   2362   2359   2371     1   110.5600475 386.601600
   2362   2359   2372     1   110.5600475 386.601600
   2363   2362   2375     1   108.7700466 392.459200
   2363   2362   2376     1   108.7700466 392.459200
   2363   5037   5038     1   117.5500507 404.174400
   2364   2357   2382     1   110.1100470 384.091200
   2364   2365   2379     1   109.5600471 388.275200
   2364   2365   2380     1   109.5600471 388.275200
   2365   2364   2377     1   110.5600475 386.601600
   2365   2364   2378     1   110.5600475 386.601600
   2365   2366   2381     1   117.6800502 383.254400
   2366   2365   2379     1   108.8800464 416.726400
   2366   2365   2380     1   108.8800464 416.726400
   2369   2358   2370     1   109.7500473 328.025600
   2371   2359   2372     1   109.7500473 328.025600
   2373   2360   2374     1   107.5800459 329.699200
   2375   2362   2376     1   107.5800459 329.699200
   2377   2364   2378     1   109.7500473 328.025600
   2379   2365   2380     1   108.4600466 328.025600
   2383   2384   2395     1   108.0100461 406.684800
   2383   2384   2396     1   108.0100461 406.684800
   2383   2385   2397     1   108.0100461 406.684800
   2383   2385   2398     1   108.0100461 406.684800
   2383   2390   2403     1   108.0100461 406.684800
   2383   2390   2404     1   108.0100461 406.684800
   2384   2383   2408     1   110.1100470 384.091200
   2384   2386   2399     1   109.8000471 387.438400
   2384   2386   2400     1   109.8000471 387.438400
   2385   2383   2408     1   110.1100470 384.091200
   2385   2388   2401     1   109.8000471 387.438400
   2385   2388   2402     1   109.8000471 387.438400
   2386   2384   2395     1   110.5600475 386.601600
   2386   2384   2396     1   110.5600475 386.601600
   2387   2386   2399     1   108.7700466 392.459200
   2387   2386   2400     1   108.7700466 392.459200
   2387   5067   5068     1   117.5500507 404.174400
   2388   2385   2397     1   110.5600475 386.601600
   2388   2385   2398     1   110.5600475 386.601600
   2389   2388   2401     1   108.7700466 392.459200
   2389   2388   2402     1   108.7700466 392.459200
   2389   5097   5098     1   117.5500507 404.174400
   2390   2383   2408     1   110.1100470 384.091200
   2390   2391   2405     1   109.5600471 388.275200
   2390   2391   2406     1   109.5600471 388.275200
   2391   2390   2403     1   110.5600475 386.601600
   2391   2390   2404     1   110.5600475 386.601600
   2391   2392   2407     1   117.6800502 383.254400
   2392   2391   2405     1   108.8800464 416.726400
   2392   2391   2406     1   108.8800464 416.726400
   2395   2384   2396     1   109.7500473 328.025600
   2397   2385   2398     1   109.7500473 328.025600
   2399   2386   2400     1   107.5800459 329.699200
   2401   2388   2402     1   107.5800459 329.699200
   2403   2390   2404     1   109.7500473 328.025600
   2405   2391   2406     1   108.4600466 328.025600
   2409   2410   2421     1   108.0100461 406.684800
   2409   2410   2422     1   108.0100461 406.684800
   2409   2411   2423     1   108.0100461 406.684800
   2409   2411   2424     1   108.0100461 406.684800
   2409   2416   2429     1   108.0100461 406.684800
   2409   2416   2430     1   108.0100461 406.684800
   2410   2409   2434     1   110.1100470 384.091200
   2410   2412   2425     1   109.8000471 387.438400
   2410   2412   2426     1   109.8000471 387.438400
   2411   2409   2434     1   110.1100470 384.091200
   2411   2414   2427     1   109.8000471 387.438400
   2411   2414   2428     1   109.8000471 387.438400
   2412   2410   2421     1   110.5600475 386.601600
   2412   2410   2422     1   110.5600475 386.601600
   2413   2412   2425     1   108.7700466 392.459200
   2413   2412   2426     1   108.7700466 392.459200
   2413   5127   5128     1   117.5500507 404.174400
   2414   2411   2423     1   110.5600475 386.601600
   2414   2411   2424     1   110.5600475 386.601600
   2415   2414   2427     1   108.7700466 392.459200
   2415   2414   2428     1   108.7700466 392.459200
   2415   5157   5158     1   117.5500507 404.174400
   2416   2409   2434     1   110.1100470 384.091200
   2416   2417   2431     1   109.5600471 388.275200
   2416   2417   2432     1   109.5600471 388.275200
   2417   2416   2429     1   110.5600475 386.601600
   2417   2416   2430     1   110.5600475 386.601600
   2417   2418   2433     1   117.6800502 383.254400
   2418   2417   2431     1   108.8800464 416.726400
   2418   2417   2432     1   108.8800464 416.726400
   2421   2410   2422     1   109.7500473 328.025600
   2423   2411   2424     1   109.7500473 328.025600
   2425   2412   2426     1   107.5800459 329.699200
   2427   2414   2428     1   107.5800459 329.699200
   2429   2416   2430     1   109.7500473 328.025600
   2431   2417   2432     1   108.4600466 328.025600
   2435   2436   2447     1   108.0100461 406.684800
   2435   2436   2448     1   108.0100461 406.684800
   2435   2437   2449     1   108.0100461 406.684800
   2435   2437   2450     1   108.0100461 406.684800
   2435   2442   2455     1   108.0100461 406.684800
   2435   2442   2456     1   108.0100461 406.684800
   2436   2435   2460     1   110.1100470 384.091200
   2436   2438   2451     1   109.8000471 387.438400
   2436   2438   2452     1   109.8000471 387.438400
   2437   2435   2460     1   110.1100470 384.091200
   2437   2440   2453     1   109.8000471 387.438400
   2437   2440   2454     1   109.8000471 387.438400
   2438   2436   2447     1   110.5600475 386.601600
   2438   2436   2448     1   110.5600475 386.601600
   2439   2438   2451     1   108.7700466 392.459200
   2439   2438   2452     1   108.7700466 392.459200
   2439   5187   5188     1   117.5500507 404.174400
   2440   2437   2449     1   110.5600475 386.601600
   2440   2437   2450     1   110.5600475 386.601600
   2441   2440   2453     1   108.7700466 392.459200
   2441   2440   2454     1   108.7700466 392.459200
   2441   5217   5218     1   117.5500507 404.174400
   2442   2435   2460     1   110.1100470 384.091200
   2442   2443   2457     1   109.5600471 388.275200
   2442   2443   2458     1   109.5600471 388.275200
   2443   2442   2455     1   110.5600475 386.601600
   2443   2442   2456     1   110.5600475 386.601600
   2443   2444   2459     1   117.6800502 383.254400
   2444   2443   2457     1   108.8800464 416.726400
   2444   2443   2458     1   108.8800464 416.726400
   2447   2436   2448     1   109.7500473 328.025600
   2449   2437   2450     1   109.7500473 328.025600
   2451   2438   2452     1   107.5800459 329.699200
   2453   2440   2454     1   107.5800459 329.699200
   2455   2442   2456     1   109.7500473 328.025600
   2457   2443   2458     1   108.4600466 328.025600
   2461   2462   2473     1   108.0100461 406.684800
   2461   2462   2474     1   108.0100461 406.684800
   2461   2463   2475     1   108.0100461 406.684800
   2461   2463   2476     1   108.0100461 406.684800
   2461   2468   2481     1   108.0100461 406.684800
   2461   2468   2482     1   108.0100461 406.684800
   2462   2461   2486     1   110.1100470 384.091200
   2462   2464   2477     1   109.8000471 387.438400
   2462   2464   2478     1   109.8000471 387.438400
   2463   2461   2486     1   110.1100470 384.091200
   2463   2466   2479     1   109.8000471 387.438400
   2463   2466   2480     1   109.8000471 387.438400
   2464   2462   2473     1   110.5600475 386.601600
   2464   2462   2474     1   110.5600475 386.601600
   2465   2464   2477     1   108.7700466 392.459200
   2465   2464   2478     1   108.7700466 392.459200
   2465   5247   5248     1   117.5500507 404.174400
   2466   2463   2475     1   110.5600475 386.601600
   2466   2463   2476     1   110.5600475 386.601600
   2467   2466   2479     1   108.7700466 392.459200
   2467   2466   2480     1   108.7700466 392.459200
   2467   5277   5278     1   117.5500507 404.174400
   2468   2461   2486     1   110.1100470 384.091200
   2468   2469   2483     1   109.5600471 388.275200
   2468   2469   2484     1   109.5600471 388.275200
   2469   2468   2481     1   110.5600475 386.601600
   2469   2468   2482     1   110.5600475 386.601600
   2469   2470   2485     1   117.6800502 383.254400
   2470   2469   2483     1   108.8800464 416.726400
   2470   2469   2484     1   108.8800464 416.726400
   2473   2462   2474     1   109.7500473 328.025600
   2475   2463   2476     1   109.7500473 328.025600
   2477   2464   2478     1   107.5800459 329.699200
   2479   2466   2480     1   107.5800459 329.699200
   2481   2468   2482     1   109.7500473 328.025600
   2483   2469   2484     1   108.4600466 328.025600
   2487   2488   2499     1   108.0100461 406.684800
   2487   2488   2500     1   108.0100461 406.684800
   2487   2489   2501     1   108.0100461 406.684800
   2487   2489   2502     1   108.0100461 406.684800
   2487   2494   2507     1   108.0100461 406.684800
   2487   2494   2508     1   108.0100461 406.684800
   2488   2487   2512     1   110.1100470 384.091200
   2488   2490   2503     1   109.8000471 387.438400
   2488   2490   2504     1   109.8000471 387.438400
   2489   2487   2512     1   110.1100470 384.091200
   2489   2492   2505     1   109.8000471 387.438400
   2489   2492   2506     1   109.8000471 387.438400
   2490   2488   2499     1   110.5600475 386.601600
   2490   2488   2500     1   110.5600475 386.601600
   2491   2490   2503     1   108.7700466 392.459200
   2491   2490   2504     1   108.7700466 392.459200
   2491   5307   5308     1   117.5500507 404.174400
   2492   2489   2501     1   110.5600475 386.601600
   2492   2489   2502     1   110.5600475 386.601600
   2493   2492   2505     1   108.7700466 392.459200
   2493   2492   2506     1   108.7700466 392.459200
   2493   5337   5338     1   117.5500507 404.174400
   2494   2487   2512     1   110.1100470 384.091200
   2494   2495   2509     1   109.5600471 388.275200
   2494   2495   2510     1   109.5600471 388.275200
   2495   2494   2507     1   110.5600475 386.601600
   2495   2494   2508     1   110.5600475 386.601600
   2495   2496   2511     1   117.6800502 383.254400
   2496   2495   2509     1   108.8800464 416.726400
   2496   2495   2510     1   108.8800464 416.726400
   2499   2488   2500     1   109.7500473 328.025600
   2501   2489   2502     1   109.7500473 328.025600
   2503   2490   2504     1   107.5800459 329.699200
   2505   2492   2506     1   107.5800459 329.699200
   2507   2494   2508     1   109.7500473 328.025600
   2509   2495   2510     1   108.4600466 328.025600
   2513   2514   2525     1   108.0100461 406.684800
   2513   2514   2526     1   108.0100461 406.684800
   2513   2515   2527     1   108.0100461 406.684800
   2513   2515   2528     1   108.0100461 406.684800
   2513   2520   2533     1   108.0100461 406.684800
   2513   2520   2534     1   108.0100461 406.684800
   2514   2513   2538     1   110.1100470 384.091200
   2514   2516   2529     1   109.8000471 387.438400
   2514   2516   2530     1   109.8000471 387.438400
   2515   2513   2538     1   110.1100470 384.091200
   2515   2518   2531     1   109.8000471 387.438400
   2515   2518   2532     1   109.8000471 387.438400
   2516   2514   2525     1   110.5600475 386.601600
   2516   2514   2526     1   110.5600475 386.601600
   2517   2516   2529     1   108.7700466 392.459200
   2517   2516   2530     1   108.7700466 392.459200
   2517   5367   5368     1   117.5500507 404.174400
   2518   2515   2527     1   110.5600475 386.601600
   2518   2515   2528     1   110.5600475 386.601600
   2519   2518   2531     1   108.7700466 392.459200
   2519   2518   2532     1   108.7700466 392.459200
   2519   5397   5398     1   117.5500507 404.174400
   2520   2513   2538     1   110.1100470 384.091200
   2520   2521   2535     1   109.5600471 388.275200
   2520   2521   2536     1   109.5600471 388.275200
   2521   2520   2533     1   110.5600475 386.601600
   2521   2520   2534     1   110.5600475 386.601600
   2521   2522   2537     1   117.6800502 383.254400
   2522   2521   2535     1   108.8800464 416.726400
   2522   2521   2536     1   108.8800464 416.726400
   2525   2514   2526     1   109.7500473 328.025600
   2527   2515   2528     1   109.7500473 328.025600
   2529   2516   2530     1   107.5800459 329.699200
   2531   2518   2532     1   107.5800459 329.699200
   2533   2520   2534     1   109.7500473 328.025600
   2535   2521   2536     1   108.4600466 328.025600
   2539   2540   2551     1   108.0100461 406.684800
   2539   2540   2552     1   108.0100461 406.684800
   2539   2541   2553     1   108.0100461 406.684800
   2539   2541   2554     1   108.0100461 406.684800
   2539   2546   2559     1   108.0100461 406.684800
   2539   2546   2560     1   108.0100461 406.684800
   2540   2539   2564     1   110.1100470 384.091200
   2540   2542   2555     1   109.8000471 387.438400
   2540   2542   2556     1   109.8000471 387.438400
   2541   2539   2564     1   110.1100470 384.091200
   2541   2544   2557     1   109.8000471 387.438400
   2541   2544   2558     1   109.8000471 387.438400
   2542   2540   2551     1   110.5600475 386.601600
   2542   2540   2552     1   110.5600475 386.601600
   2543   2542   2555     1   108.7700466 392.459200
   2543   2542   2556     1   108.7700466 392.459200
   2543   5427   5428     1   117.5500507 404.174400
   2544   2541   2553     1   110.5600475 386.601600
   2544   2541   2554     1   110.5600475 386.601600
   2545   2544   2557     1   108.7700466 392.459200
   2545   2544   2558     1   108.7700466 392.459200
   2545   5457   5458     1   117.5500507 404.174400
   2546   2539   2564     1   110.1100470 384.091200
   2546   2547   2561     1   109.5600471 388.275200
   2546   2547   2562     1   109.5600471 388.275200
   2547   2546   2559     1   110.5600475 386.601600
   2547   2546   2560     1   110.5600475 386.601600
   2547   2548   2563     1   117.6800502 383.254400
   2548   2547   2561     1   108.8800464 416.726400
   2548   2547   2562     1   108.8800464 416.726400
   2551   2540   2552     1   109.7500473 328.025600
   2553   2541   2554     1   109.7500473 328.025600
   2555   2542   2556     1   107.5800459 329.699200
   2557   2544   2558     1   107.5800459 329.699200
   2559   2546   2560     1   109.7500473 328.025600
   2561   2547   2562     1   108.4600466 328.025600
   2565   2566   2577     1   108.0100461 406.684800
   2565   2566   2578     1   108.0100461 406.684800
   2565   2567   2579     1   108.0100461 406.684800
   2565   2567   2580     1   108.0100461 406.684800
   2565   2572   2585     1   108.0100461 406.684800
   2565   2572   2586     1   108.0100461 406.684800
   2566   2565   2590     1   110.1100470 384.091200
   2566   2568   2581     1   109.8000471 387.438400
   2566   2568   2582     1   109.8000471 387.438400
   2567   2565   2590     1   110.1100470 384.091200
   2567   2570   2583     1   109.8000471 387.438400
   2567   2570   2584     1   109.8000471 387.438400
   2568   2566   2577     1   110.5600475 386.601600
   2568   2566   2578     1   110.5600475 386.601600
   2569   2568   2581     1   108.7700466 392.459200
   2569   2568   2582     1   108.7700466 392.459200
   2569   5487   5488     1   117.5500507 404.174400
   2570   2567   2579     1   110.5600475 386.601600
   2570   2567   2580     1   110.5600475 386.601600
   2571   2570   2583     1   108.7700466 392.459200
   2571   2570   2584     1   108.7700466 392.459200
   2571   5517   5518     1   117.5500507 404.174400
   2572   2565   2590     1   110.1100470 384.091200
   2572   2573   2587     1   109.5600471 388.275200
   2572   2573   2588     1   109.5600471 388.275200
   2573   2572   2585     1   110.5600475 386.601600
   2573   2572   2586     1   110.5600475 386.601600
   2573   2574   2589     1   117.6800502 383.254400
   2574   2573   2587     1   108.8800464 416.726400
   2574   2573   2588     1   108.8800464 416.726400
   2577   2566   2578     1   109.7500473 328.025600
   2579   2567   2580     1   109.7500473 328.025600
   2581   2568   2582     1   107.5800459 329.699200
   2583   2570   2584     1   107.5800459 329.699200
   2585   2572   2586     1   109.7500473 328.025600
   2587   2573   2588     1   108.4600466 328.025600
   2591   2592   2603     1   108.0100461 406.684800
   2591   2592   2604     1   108.0100461 406.684800
   2591   2593   2605     1   108.0100461 406.684800
   2591   2593   2606     1   108.0100461 406.684800
   2591   2598   2611     1   108.0100461 406.684800
   2591   2598   2612     1   108.0100461 406.684800
   2592   2591   2616     1   110.1100470 384.091200
   2592   2594   2607     1   109.8000471 387.438400
   2592   2594   2608     1   109.8000471 387.438400
   2593   2591   2616     1   110.1100470 384.091200
   2593   2596   2609     1   109.8000471 387.438400
   2593   2596   2610     1   109.8000471 387.438400
   2594   2592   2603     1   110.5600475 386.601600
   2594   2592   2604     1   110.5600475 386.601600
   2595   2594   2607     1   108.7700466 392.459200
   2595   2594   2608     1   108.7700466 392.459200
   2595   5547   5548     1   117.5500507 404.174400
   2596   2593   2605     1   110.5600475 386.601600
   2596   2593   2606     1   110.5600475 386.601600
   2597   2596   2609     1   108.7700466 392.459200
   2597   2596   2610     1   108.7700466 392.459200
   2597   5577   5578     1   117.5500507 404.174400
   2598   2591   2616     1   110.1100470 384.091200
   2598   2599   2613     1   109.5600471 388.275200
   2598   2599   2614     1   109.5600471 388.275200
   2599   2598   2611     1   110.5600475 386.601600
   2599   2598   2612     1   110.5600475 386.601600
   2599   2600   2615     1   117.6800502 383.254400
   2600   2599   2613     1   108.8800464 416.726400
   2600   2599   2614     1   108.8800464 416.726400
   2603   2592   2604     1   109.7500473 328.025600
   2605   2593   2606     1   109.7500473 328.025600
   2607   2594   2608     1   107.5800459 329.699200
   2609   2596   2610     1   107.5800459 329.699200
   2611   2598   2612     1   109.7500473 328.025600
   2613   2599   2614     1   108.4600466 328.025600
   2617   2618   2629     1   108.0100461 406.684800
   2617   2618   2630     1   108.0100461 406.684800
   2617   2619   2631     1   108.0100461 406.684800
   2617   2619   2632     1   108.0100461 406.684800
   2617   2624   2637     1   108.0100461 406.684800
   2617   2624   2638     1   108.0100461 406.684800
   2618   2617   2642     1   110.1100470 384.091200
   2618   2620   2633     1   109.8000471 387.438400
   2618   2620   2634     1   109.8000471 387.438400
   2619   2617   2642     1   110.1100470 384.091200
   2619   2622   2635     1   109.8000471 387.438400
   2619   2622   2636     1   109.8000471 387.438400
   2620   2618   2629     1   110.5600475 386.601600
   2620   2618   2630     1   110.5600475 386.601600
   2621   2620   2633     1   108.7700466 392.459200
   2621   2620   2634     1   108.7700466 392.459200
   2621   5607   5608     1   117.5500507 404.174400
   2622   2619   2631     1   110.5600475 386.601600
   2622   2619   2632     1   110.5600475 386.601600
   2623   2622   2635     1   108.7700466 392.459200
   2623   2622   2636     1   108.7700466 392.459200
   2623   5637   5638     1   117.5500507 404.174400
   2624   2617   2642     1   110.1100470 384.091200
   2624   2625   2639     1   109.5600471 388.275200
   2624   2625   2640     1   109.5600471 388.275200
   2625   2624   2637     1   110.5600475 386.601600
   2625   2624   2638     1   110.5600475 386.601600
   2625   2626   2641     1   117.6800502 383.254400
   2626   2625   2639     1   108.8800464 416.726400
   2626   2625   2640     1   108.8800464 416.726400
   2629   2618   2630     1   109.7500473 328.025600
   2631   2619   2632     1   109.7500473 328.025600
   2633   2620   2634     1   107.5800459 329.699200
   2635   2622   2636     1   107.5800459 329.699200
   2637   2624   2638     1   109.7500473 328.025600
   2639   2625   2640     1   108.4600466 328.025600
   2643   2644   2655     1   108.0100461 406.684800
   2643   2644   2656     1   108.0100461 406.684800
   2643   2645   2657     1   108.0100461 406.684800
   2643   2645   2658     1   108.0100461 406.684800
   2643   2650   2663     1   108.0100461 406.684800
   2643   2650   2664     1   108.0100461 406.684800
   2644   2643   2668     1   110.1100470 384.091200
   2644   2646   2659     1   109.8000471 387.438400
   2644   2646   2660     1   109.8000471 387.438400
   2645   2643   2668     1   110.1100470 384.091200
   2645   2648   2661     1   109.8000471 387.438400
   2645   2648   2662     1   109.8000471 387.438400
   2646   2644   2655     1   110.5600475 386.601600
   2646   2644   2656     1   110.5600475 386.601600
   2647   2646   2659     1   108.7700466 392.459200
   2647   2646   2660     1   108.7700466 392.459200
   2647   5667   5668     1   117.5500507 404.174400
   2648   2645   2657     1   110.5600475 386.601600
   2648   2645   2658     1   110.5600475 386.601600
   2649   2648   2661     1   108.7700466 392.459200
   2649   2648   2662     1   108.7700466 392.459200
   2649   5697   5698     1   117.5500507 404.174400
   2650   2643   2668     1   110.1100470 384.091200
   2650   2651   2665     1   109.5600471 388.275200
   2650   2651   2666     1   109.5600471 388.275200
   2651   2650   2663     1   110.5600475 386.601600
   2651   2650   2664     1   110.5600475 386.601600
   2651   2652   2667     1   117.6800502 383.254400
   2652   2651   2665     1   108.8800464 416.726400
   2652   2651   2666     1   108.8800464 416.726400
   2655   2644   2656     1   109.7500473 328.025600
   2657   2645   2658     1   109.7500473 328.025600
   2659   2646   2660     1   107.5800459 329.699200
   2661   2648   2662     1   107.5800459 329.699200
   2663   2650   2664     1   109.7500473 328.025600
   2665   2651   2666     1   108.4600466 328.025600
   2669   2670   2681     1   108.0100461 406.684800
   2669   2670   2682     1   108.0100461 406.684800
   2669   2671   2683     1   108.0100461 406.684800
   2669   2671   2684     1   108.0100461 406.684800
   2669   2676   2689     1   108.0100461 406.684800
   2669   2676   2690     1   108.0100461 406.684800
   2670   2669   2694     1   110.1100470 384.091200
   2670   2672   2685     1   109.8000471 387.438400
   2670   2672   2686     1   109.8000471 387.438400
   2671   2669   2694     1   110.1100470 384.091200
   2671   2674   2687     1   109.8000471 387.438400
   2671   2674   2688     1   109.8000471 387.438400
   2672   2670   2681     1   110.5600475 386.601600
   2672   2670   2682     1   110.5600475 386.601600
   2673   2672   2685     1   108.7700466 392.459200
   2673   2672   2686     1   108.7700466 392.459200
   2673   5727   5728     1   117.5500507 404.174400
   2674   2671   2683     1   110.5600475 386.601600
   2674   2671   2684     1   110.5600475 386.601600
   2675   2674   2687     1   108.7700466 392.459200
   2675   2674   2688     1   108.7700466 392.459200
   2675   5757   5758     1   117.5500507 404.174400
   2676   2669   2694     1   110.1100470 384.091200
   2676   2677   2691     1   109.5600471 388.275200
   2676   2677   2692     1   109.5600471 388.275200
   2677   2676   2689     1   110.5600475 386.601600
   2677   2676   2690     1   110.5600475 386.601600
   2677   2678   2693     1   117.6800502 383.254400
   2678   2677   2691     1   108.8800464 416.726400
   2678   2677   2692     1   108.8800464 416.726400
   2681   2670   2682     1   109.7500473 328.025600
   2683   2671   2684     1   109.7500473 328.025600
   2685   2672   2686     1   107.5800459 329.699200
   2687   2674   2688     1   107.5800459 329.699200
   2689   2676   2690     1   109.7500473 328.025600
   2691   2677   2692     1   108.4600466 328.025600
   2695   2696   2707     1   108.0100461 406.684800
   2695   2696   2708     1   108.0100461 406.684800
   2695   2697   2709     1   108.0100461 406.684800
   2695   2697   2710     1   108.0100461 406.684800
   2695   2702   2715     1   108.0100461 406.684800
   2695   2702   2716     1   108.0100461 406.684800
   2696   2695   2720     1   110.1100470 384.091200
   2696   2698   2711     1   109.8000471 387.438400
   2696   2698   2712     1   109.8000471 387.438400
   2697   2695   2720     1   110.1100470 384.091200
   2697   2700   2713     1   109.8000471 387.438400
   2697   2700   2714     1   109.8000471 387.438400
   2698   2696   2707     1   110.5600475 386.601600
   2698   2696   2708     1   110.5600475 386.601600
   2699   2698   2711     1   108.7700466 392.459200
   2699   2698   2712     1   108.7700466 392.459200
   2699   5787   5788     1   117.5500507 404.174400
   2700   2697   2709     1   110.5600475 386.601600
   2700   2697   2710     1   110.5600475 386.601600
   2701   2700   2713     1   108.7700466 392.459200
   2701   2700   2714     1   108.7700466 392.459200
   2701   5817   5818     1   117.5500507 404.174400
   2702   2695   2720     1   110.1100470 384.091200
   2702   2703   2717     1   109.5600471 388.275200
   2702   2703   2718     1   109.5600471 388.275200
   2703   2702   2715     1   110.5600475 386.601600
   2703   2702   2716     1   110.5600475 386.601600
   2703   2704   2719     1   117.6800502 383.254400
   2704   2703   2717     1   108.8800464 416.726400
   2704   2703   2718     1   108.8800464 416.726400
   2707   2696   2708     1   109.7500473 328.025600
   2709   2697   2710     1   109.7500473 328.025600
   2711   2698   2712     1   107.5800459 329.699200
   2713   2700   2714     1   107.5800459 329.699200
   2715   2702   2716     1   109.7500473 328.025600
   2717   2703   2718     1   108.4600466 328.025600
   2721   2722   2733     1   108.0100461 406.684800
   2721   2722   2734     1   108.0100461 406.684800
   2721   2723   2735     1   108.0100461 406.684800
   2721   2723   2736     1   108.0100461 406.684800
   2721   2728   2741     1   108.0100461 406.684800
   2721   2728   2742     1   108.0100461 406.684800
   2722   2721   2746     1   110.1100470 384.091200
   2722   2724   2737     1   109.8000471 387.438400
   2722   2724   2738     1   109.8000471 387.438400
   2723   2721   2746     1   110.1100470 384.091200
   2723   2726   2739     1   109.8000471 387.438400
   2723   2726   2740     1   109.8000471 387.438400
   2724   2722   2733     1   110.5600475 386.601600
   2724   2722   2734     1   110.5600475 386.601600
   2725   2724   2737     1   108.7700466 392.459200
   2725   2724   2738     1   108.7700466 392.459200
   2725   5847   5848     1   117.5500507 404.174400
   2726   2723   2735     1   110.5600475 386.601600
   2726   2723   2736     1   110.5600475 386.601600
   2727   2726   2739     1   108.7700466 392.459200
   2727   2726   2740     1   108.7700466 392.459200
   2727   5877   5878     1   117.5500507 404.174400
   2728   2721   2746     1   110.1100470 384.091200
   2728   2729   2743     1   109.5600471 388.275200
   2728   2729   2744     1   109.5600471 388.275200
   2729   2728   2741     1   110.5600475 386.601600
   2729   2728   2742     1   110.5600475 386.601600
   2729   2730   2745     1   117.6800502 383.254400
   2730   2729   2743     1   108.8800464 416.726400
   2730   2729   2744     1   108.8800464 416.726400
   2733   2722   2734     1   109.7500473 328.025600
   2735   2723   2736     1   109.7500473 328.025600
   2737   2724   2738     1   107.5800459 329.699200
   2739   2726   2740     1   107.5800459 329.699200
   2741   2728   2742     1   109.7500473 328.025600
   2743   2729   2744     1   108.4600466 328.025600
   2747   2748   2759     1   108.0100461 406.684800
   2747   2748   2760     1   108.0100461 406.684800
   2747   2749   2761     1   108.0100461 406.684800
   2747   2749   2762     1   108.0100461 406.684800
   2747   2754   2767     1   108.0100461 406.684800
   2747   2754   2768     1   108.0100461 406.684800
   2748   2747   2772     1   110.1100470 384.091200
   2748   2750   2763     1   109.8000471 387.438400
   2748   2750   2764     1   109.8000471 387.438400
   2749   2747   2772     1   110.1100470 384.091200
   2749   2752   2765     1   109.8000471 387.438400
   2749   2752   2766     1   109.8000471 387.438400
   2750   2748   2759     1   110.5600475 386.601600
   2750   2748   2760     1   110.5600475 386.601600
   2751   2750   2763     1   108.7700466 392.459200
   2751   2750   2764     1   108.7700466 392.459200
   2751   5907   5908     1   117.5500507 404.174400
   2752   2749   2761     1   110.5600475 386.601600
   2752   2749   2762     1   110.5600475 386.601600
   2753   2752   2765     1   108.7700466 392.459200
   2753   2752   2766     1   108.7700466 392.459200
   2753   5937   5938     1   117.5500507 404.174400
   2754   2747   2772     1   110.1100470 384.091200
   2754   2755   2769     1   109.5600471 388.275200
   2754   2755   2770     1   109.5600471 388.275200
   2755   2754   2767     1   110.5600475 386.601600
   2755   2754   2768     1   110.5600475 386.601600
   2755   2756   2771     1   117.6800502 383.254400
   2756   2755   2769     1   108.8800464 416.726400
   2756   2755   2770     1   108.8800464 416.726400
   2759   2748   2760     1   109.7500473 328.025600
   2761   2749   2762     1   109.7500473 328.025600
   2763   2750   2764     1   107.5800459 329.699200
   2765   2752   2766     1   107.5800459 329.699200
   2767   2754   2768     1   109.7500473 328.025600
   2769   2755   2770     1   108.4600466 328.025600
   2773   2774   2785     1   108.0100461 406.684800
   2773   2774   2786     1   108.0100461 406.684800
   2773   2775   2787     1   108.0100461 406.684800
   2773   2775   2788     1   108.0100461 406.684800
   2773   2780   2793     1   108.0100461 406.684800
   2773   2780   2794     1   108.0100461 406.684800
   2774   2773   2798     1   110.1100470 384.091200
   2774   2776   2789     1   109.8000471 387.438400
   2774   2776   2790     1   109.8000471 387.438400
   2775   2773   2798     1   110.1100470 384.091200
   2775   2778   2791     1   109.8000471 387.438400
   2775   2778   2792     1   109.8000471 387.438400
   2776   2774   2785     1   110.5600475 386.601600
   2776   2774   2786     1   110.5600475 386.601600
   2777   2776   2789     1   108.7700466 392.459200
   2777   2776   2790     1   108.7700466 392.459200
   2777   5967   5968     1   117.5500507 404.174400
   2778   2775   2787     1   110.5600475 386.601600
   2778   2775   2788     1   110.5600475 386.601600
   2779   2778   2791     1   108.7700466 392.459200
   2779   2778   2792     1   108.7700466 392.459200
   2779   5997   5998     1   117.5500507 404.174400
   2780   2773   2798     1   110.1100470 384.091200
   2780   2781   2795     1   109.5600471 388.275200
   2780   2781   2796     1   109.5600471 388.275200
   2781   2780   2793     1   110.5600475 386.601600
   2781   2780   2794     1   110.5600475 386.601600
   2781   2782   2797     1   117.6800502 383.254400
   2782   2781   2795     1   108.8800464 416.726400
   2782   2781   2796     1   108.8800464 416.726400
   2785   2774   2786     1   109.7500473 328.025600
   2787   2775   2788     1   109.7500473 328.025600
   2789   2776   2790     1   107.5800459 329.699200
   2791   2778   2792     1   107.5800459 329.699200
   2793   2780   2794     1   109.7500473 328.025600
   2795   2781   2796     1   108.4600466 328.025600
   2799   2800   2811     1   108.0100461 406.684800
   2799   2800   2812     1   108.0100461 406.684800
   2799   2801   2813     1   108.0100461 406.684800
   2799   2801   2814     1   108.0100461 406.684800
   2799   2806   2819     1   108.0100461 406.684800
   2799   2806   2820     1   108.0100461 406.684800
   2800   2799   2824     1   110.1100470 384.091200
   2800   2802   2815     1   109.8000471 387.438400
   2800   2802   2816     1   109.8000471 387.438400
   2801   2799   2824     1   110.1100470 384.091200
   2801   2804   2817     1   109.8000471 387.438400
   2801   2804   2818     1   109.8000471 387.438400
   2802   2800   2811     1   110.5600475 386.601600
   2802   2800   2812     1   110.5600475 386.601600
   2803   2802   2815     1   108.7700466 392.459200
   2803   2802   2816     1   108.7700466 392.459200
   2803   6027   6028     1   117.5500507 404.174400
   2804   2801   2813     1   110.5600475 386.601600
   2804   2801   2814     1   110.5600475 386.601600
   2805   2804   2817     1   108.7700466 392.459200
   2805   2804   2818     1   108.7700466 392.459200
   2805   6057   6058     1   117.5500507 404.174400
   2806   2799   2824     1   110.1100470 384.091200
   2806   2807   2821     1   109.5600471 388.275200
   2806   2807   2822     1   109.5600471 388.275200
   2807   2806   2819     1   110.5600475 386.601600
   2807   2806   2820     1   110.5600475 386.601600
   2807   2808   2823     1   117.6800502 383.254400
   2808   2807   2821     1   108.8800464 416.726400
   2808   2807   2822     1   108.8800464 416.726400
   2811   2800   2812     1   109.7500473 328.025600
   2813   2801   2814     1   109.7500473 328.025600
   2815   2802   2816     1   107.5800459 329.699200
   2817   2804   2818     1   107.5800459 329.699200
   2819   2806   2820     1   109.7500473 328.025600
   2821   2807   2822     1   108.4600466 328.025600
   2825   2826   2837     1   108.0100461 406.684800
   2825   2826   2838     1   108.0100461 406.684800
   2825   2827   2839     1   108.0100461 406.684800
   2825   2827   2840     1   108.0100461 406.684800
   2825   2832   2845     1   108.0100461 406.684800
   2825   2832   2846     1   108.0100461 406.684800
   2826   2825   2850     1   110.1100470 384.091200
   2826   2828   2841     1   109.8000471 387.438400
   2826   2828   2842     1   109.8000471 387.438400
   2827   2825   2850     1   110.1100470 384.091200
   2827   2830   2843     1   109.8000471 387.438400
   2827   2830   2844     1   109.8000471 387.438400
   2828   2826   2837     1   110.5600475 386.601600
   2828   2826   2838     1   110.5600475 386.601600
   2829   2828   2841     1   108.7700466 392.459200
   2829   2828   2842     1   108.7700466 392.459200
   2829   6087   6088     1   117.5500507 404.174400
   2830   2827   2839     1   110.5600475 386.601600
   2830   2827   2840     1   110.5600475 386.601600
   2831   2830   2843     1   108.7700466 392.459200
   2831   2830   2844     1   108.7700466 392.459200
   2831   6117   6118     1   117.5500507 404.174400
   2832   2825   2850     1   110.1100470 384.091200
   2832   2833   2847     1   109.5600471 388.275200
   2832   2833   2848     1   109.5600471 388.275200
   2833   2832   2845     1   110.5600475 386.601600
   2833   2832   2846     1   110.5600475 386.601600
   2833   2834   2849     1   117.6800502 383.254400
   2834   2833   2847     1   108.8800464 416.726400
   2834   2833   2848     1   108.8800464 416.726400
   2837   2826   2838     1   109.7500473 328.025600
   2839   2827   2840     1   109.7500473 328.025600
   2841   2828   2842     1   107.5800459 329.699200
   2843   2830   2844     1   107.5800459 329.699200
   2845   2832   2846     1   109.7500473 328.025600
   2847   2833   2848     1   108.4600466 328.025600
   2851   2852   2863     1   108.0100461 406.684800
   2851   2852   2864     1   108.0100461 406.684800
   2851   2853   2865     1   108.0100461 406.684800
   2851   2853   2866     1   108.0100461 406.684800
   2851   2858   2871     1   108.0100461 406.684800
   2851   2858   2872     1   108.0100461 406.684800
   2852   2851   2876     1   110.1100470 384.091200
   2852   2854   2867     1   109.8000471 387.438400
   2852   2854   2868     1   109.8000471 387.438400
   2853   2851   2876     1   110.1100470 384.091200
   2853   2856   2869     1   109.8000471 387.438400
   2853   2856   2870     1   109.8000471 387.438400
   2854   2852   2863     1   110.5600475 386.601600
   2854   2852   2864     1   110.5600475 386.601600
   2855   2854   2867     1   108.7700466 392.459200
   2855   2854   2868     1   108.7700466 392.459200
   2855   6147   6148     1   117.5500507 404.174400
   2856   2853   2865     1   110.5600475 386.601600
   2856   2853   2866     1   110.5600475 386.601600
   2857   2856   2869     1   108.7700466 392.459200
   2857   2856   2870     1   108.7700466 392.459200
   2857   6177   6178     1   117.5500507 404.174400
   2858   2851   2876     1   110.1100470 384.091200
   2858   2859   2873     1   109.5600471 388.275200
   2858   2859   2874     1   109.5600471 388.275200
   2859   2858   2871     1   110.5600475 386.601600
   2859   2858   2872     1   110.5600475 386.601600
   2859   2860   2875     1   117.6800502 383.254400
   2860   2859   2873     1   108.8800464 416.726400
   2860   2859   2874     1   108.8800464 416.726400
   2863   2852   2864     1   109.7500473 328.025600
   2865   2853   2866     1   109.7500473 328.025600
   2867   2854   2868     1   107.5800459 329.699200
   2869   2856   2870     1   107.5800459 329.699200
   2871   2858   2872     1   109.7500473 328.025600
   2873   2859   2874     1   108.4600466 328.025600
   2877   2878   2889     1   108.0100461 406.684800
   2877   2878   2890     1   108.0100461 406.684800
   2877   2879   2891     1   108.0100461 406.684800
   2877   2879   2892     1   108.0100461 406.684800
   2877   2884   2897     1   108.0100461 406.684800
   2877   2884   2898     1   108.0100461 406.684800
   2878   2877   2902     1   110.1100470 384.091200
   2878   2880   2893     1   109.8000471 387.438400
   2878   2880   2894     1   109.8000471 387.438400
   2879   2877   2902     1   110.1100470 384.091200
   2879   2882   2895     1   109.8000471 387.438400
   2879   2882   2896     1   109.8000471 387.438400
   2880   2878   2889     1   110.5600475 386.601600
   2880   2878   2890     1   110.5600475 386.601600
   2881   2880   2893     1   108.7700466 392.459200
   2881   2880   2894     1   108.7700466 392.459200
   2881   6207   6208     1   117.5500507 404.174400
   2882   2879   2891     1   110.5600475 386.601600
   2882   2879   2892     1   110.5600475 386.601600
   2883   2882   2895     1   108.7700466 392.459200
   2883   2882   2896     1   108.7700466 392.459200
   2883   6237   6238     1   117.5500507 404.174400
   2884   2877   2902     1   110.1100470 384.091200
   2884   2885   2899     1   109.5600471 388.275200
   2884   2885   2900     1   109.5600471 388.275200
   2885   2884   2897     1   110.5600475 386.601600
   2885   2884   2898     1   110.5600475 386.601600
   2885   2886   2901     1   117.6800502 383.254400
   2886   2885   2899     1   108.8800464 416.726400
   2886   2885   2900     1   108.8800464 416.726400
   2889   2878   2890     1   109.7500473 328.025600
   2891   2879   2892     1   109.7500473 328.025600
   2893   2880   2894     1   107.5800459 329.699200
   2895   2882   2896     1   107.5800459 329.699200
   2897   2884   2898     1   109.7500473 328.025600
   2899   2885   2900     1   108.4600466 328.025600
   2903   2904   2915     1   108.0100461 406.684800
   2903   2904   2916     1   108.0100461 406.684800
   2903   2905   2917     1   108.0100461 406.684800
   2903   2905   2918     1   108.0100461 406.684800
   2903   2910   2923     1   108.0100461 406.684800
   2903   2910   2924     1   108.0100461 406.684800
   2904   2903   2928     1   110.1100470 384.091200
   2904   2906   2919     1   109.8000471 387.438400
   2904   2906   2920     1   109.8000471 387.438400
   2905   2903   2928     1   110.1100470 384.091200
   2905   2908   2921     1   109.8000471 387.438400
   2905   2908   2922     1   109.8000471 387.438400
   2906   2904   2915     1   110.5600475 386.601600
   2906   2904   2916     1   110.5600475 386.601600
   2907   2906   2919     1   108.7700466 392.459200
   2907   2906   2920     1   108.7700466 392.459200
   2907   6267   6268     1   117.5500507 404.174400
   2908   2905   2917     1   110.5600475 386.601600
   2908   2905   2918     1   110.5600475 386.601600
   2909   2908   2921     1   108.7700466 392.459200
   2909   2908   2922     1   108.7700466 392.459200
   2909   6297   6298     1   117.5500507 404.174400
   2910   2903   2928     1   110.1100470 384.091200
   2910   2911   2925     1   109.5600471 388.275200
   2910   2911   2926     1   109.5600471 388.275200
   2911   2910   2923     1   110.5600475 386.601600
   2911   2910   2924     1   110.5600475 386.601600
   2911   2912   2927     1   117.6800502 383.254400
   2912   2911   2925     1   108.8800464 416.726400
   2912   2911   2926     1   108.8800464 416.726400
   2915   2904   2916     1   109.7500473 328.025600
   2917   2905   2918     1   109.7500473 328.025600
   2919   2906   2920     1   107.5800459 329.699200
   2921   2908   2922     1   107.5800459 329.699200
   2923   2910   2924     1   109.7500473 328.025600
   2925   2911   2926     1   108.4600466 328.025600
   2929   2930   2941     1   108.0100461 406.684800
   2929   2930   2942     1   108.0100461 406.684800
   2929   2931   2943     1   108.0100461 406.684800
   2929   2931   2944     1   108.0100461 406.684800
   2929   2936   2949     1   108.0100461 406.684800
   2929   2936   2950     1   108.0100461 406.684800
   2930   2929   2954     1   110.1100470 384.091200
   2930   2932   2945     1   109.8000471 387.438400
   2930   2932   2946     1   109.8000471 387.438400
   2931   2929   2954     1   110.1100470 384.091200
   2931   2934   2947     1   109.8000471 387.438400
   2931   2934   2948     1   109.8000471 387.438400
   2932   2930   2941     1   110.5600475 386.601600
   2932   2930   2942     1   110.5600475 386.601600
   2933   2932   2945     1   108.7700466 392.459200
   2933   2932   2946     1   108.7700466 392.459200
   2933   6327   6328     1   117.5500507 404.174400
   2934   2931   2943     1   110.5600475 386.601600
   2934   2931   2944     1   110.5600475 386.601600
   2935   2934   2947     1   108.7700466 392.459200
   2935   2934   2948     1   108.7700466 392.459200
   2935   6357   6358     1   117.5500507 404.174400
   2936   2929   2954     1   110.1100470 384.091200
   2936   2937   2951     1   109.5600471 388.275200
   2936   2937   2952     1   109.5600471 388.275200
   2937   2936   2949     1   110.5600475 386.601600
   2937   2936   2950     1   110.5600475 386.601600
   2937   2938   2953     1   117.6800502 383.254400
   2938   2937   2951     1   108.8800464 416.726400
   2938   2937   2952     1   108.8800464 416.726400
   2941   2930   2942     1   109.7500473 328.025600
   2943   2931   2944     1   109.7500473 328.025600
   2945   2932   2946     1   107.5800459 329.699200
   2947   2934   2948     1   107.5800459 329.699200
   2949   2936   2950     1   109.7500473 328.025600
   2951   2937   2952     1   108.4600466 328.025600
   2955   2956   2967     1   108.0100461 406.684800
   2955   2956   2968     1   108.0100461 406.684800
   2955   2957   2969     1   108.0100461 406.684800
   2955   2957   2970     1   108.0100461 406.684800
   2955   2962   2975     1   108.0100461 406.684800
   2955   2962   2976     1   108.0100461 406.684800
   2956   2955   2980     1   110.1100470 384.091200
   2956   2958   2971     1   109.8000471 387.438400
   2956   2958   2972     1   109.8000471 387.438400
   2957   2955   2980     1   110.1100470 384.091200
   2957   2960   2973     1   109.8000471 387.438400
   2957   2960   2974     1   109.8000471 387.438400
   2958   2956   2967     1   110.5600475 386.601600
   2958   2956   2968     1   110.5600475 386.601600
   2959   2958   2971     1   108.7700466 392.459200
   2959   2958   2972     1   108.7700466 392.459200
   2959   6387   6388     1   117.5500507 404.174400
   2960   2957   2969     1   110.5600475 386.601600
   2960   2957   2970     1   110.5600475 386.601600
   2961   2960   2973     1   108.7700466 392.459200
   2961   2960   2974     1   108.7700466 392.459200
   2961   6417   6418     1   117.5500507 404.174400
   2962   2955   2980     1   110.1100470 384.091200
   2962   2963   2977     1   109.5600471 388.275200
   2962   2963   2978     1   109.5600471 388.275200
   2963   2962   2975     1   110.5600475 386.601600
   2963   2962   2976     1   110.5600475 386.601600
   2963   2964   2979     1   117.6800502 383.254400
   2964   2963   2977     1   108.8800464 416.726400
   2964   2963   2978     1   108.8800464 416.726400
   2967   2956   2968     1   109.7500473 328.025600
   2969   2957   2970     1   109.7500473 328.025600
   2971   2958   2972     1   107.5800459 329.699200
   2973   2960   2974     1   107.5800459 329.699200
   2975   2962   2976     1   109.7500473 328.025600
   2977   2963   2978     1   108.4600466 328.025600
   2981   2982   2993     1   108.0100461 406.684800
   2981   2982   2994     1   108.0100461 406.684800
   2981   2983   2995     1   108.0100461 406.684800
   2981   2983   2996     1   108.0100461 406.684800
   2981   2988   3001     1   108.0100461 406.684800
   2981   2988   3002     1   108.0100461 406.684800
   2982   2981   3006     1   110.1100470 384.091200
   2982   2984   2997     1   109.8000471 387.438400
   2982   2984   2998     1   109.8000471 387.438400
   2983   2981   3006     1   110.1100470 384.091200
   2983   2986   2999     1   109.8000471 387.438400
   2983   2986   3000     1   109.8000471 387.438400
   2984   2982   2993     1   110.5600475 386.601600
   2984   2982   2994     1   110.5600475 386.601600
   2985   2984   2997     1   108.7700466 392.459200
   2985   2984   2998     1   108.7700466 392.459200
   2985   6447   6448     1   117.5500507 404.174400
   2986   2983   2995     1   110.5600475 386.601600
   2986   2983   2996     1   110.5600475 386.601600
   2987   2986   2999     1   108.7700466 392.459200
   2987   2986   3000     1   108.7700466 392.459200
   2987   6477   6478     1   117.5500507 404.174400
   2988   2981   3006     1   110.1100470 384.091200
   2988   2989   3003     1   109.5600471 388.275200
   2988   2989   3004     1   109.5600471 388.275200
   2989   2988   3001     1   110.5600475 386.601600
   2989   2988   3002     1   110.5600475 386.601600
   2989   2990   3005     1   117.6800502 383.254400
   2990   2989   3003     1   108.8800464 416.726400
   2990   2989   3004     1   108.8800464 416.726400
   2993   2982   2994     1   109.7500473 328.025600
   2995   2983   2996     1   109.7500473 328.025600
   2997   2984   2998     1   107.5800459 329.699200
   2999   2986   3000     1   107.5800459 329.699200
   3001   2988   3002     1   109.7500473 328.025600
   3003   2989   3004     1   108.4600466 328.025600
   3007   3008   3019     1   108.0100461 406.684800
   3007   3008   3020     1   108.0100461 406.684800
   3007   3009   3021     1   108.0100461 406.684800
   3007   3009   3022     1   108.0100461 406.684800
   3007   3014   3027     1   108.0100461 406.684800
   3007   3014   3028     1   108.0100461 406.684800
   3008   3007   3032     1   110.1100470 384.091200
   3008   3010   3023     1   109.8000471 387.438400
   3008   3010   3024     1   109.8000471 387.438400
   3009   3007   3032     1   110.1100470 384.091200
   3009   3012   3025     1   109.8000471 387.438400
   3009   3012   3026     1   109.8000471 387.438400
   3010   3008   3019     1   110.5600475 386.601600
   3010   3008   3020     1   110.5600475 386.601600
   3011   3010   3023     1   108.7700466 392.459200
   3011   3010   3024     1   108.7700466 392.459200
   3011   6507   6508     1   117.5500507 404.174400
   3012   3009   3021     1   110.5600475 386.601600
   3012   3009   3022     1   110.5600475 386.601600
   3013   3012   3025     1   108.7700466 392.459200
   3013   3012   3026     1   108.7700466 392.459200
   3013   6537   6538     1   117.5500507 404.174400
   3014   3007   3032     1   110.1100470 384.091200
   3014   3015   3029     1   109.5600471 388.275200
   3014   3015   3030     1   109.5600471 388.275200
   3015   3014   3027     1   110.5600475 386.601600
   3015   3014   3028     1   110.5600475 386.601600
   3015   3016   3031     1   117.6800502 383.254400
   3016   3015   3029     1   108.8800464 416.726400
   3016   3015   3030     1   108.8800464 416.726400
   3019   3008   3020     1   109.7500473 328.025600
   3021   3009   3022     1   109.7500473 328.025600
   3023   3010   3024     1   107.5800459 329.699200
   3025   3012   3026     1   107.5800459 329.699200
   3027   3014   3028     1   109.7500473 328.025600
   3029   3015   3030     1   108.4600466 328.025600
   3033   3034   3045     1   108.0100461 406.684800
   3033   3034   3046     1   108.0100461 406.684800
   3033   3035   3047     1   108.0100461 406.684800
   3033   3035   3048     1   108.0100461 406.684800
   3033   3040   3053     1   108.0100461 406.684800
   3033   3040   3054     1   108.0100461 406.684800
   3034   3033   3058     1   110.1100470 384.091200
   3034   3036   3049     1   109.8000471 387.438400
   3034   3036   3050     1   109.8000471 387.438400
   3035   3033   3058     1   110.1100470 384.091200
   3035   3038   3051     1   109.8000471 387.438400
   3035   3038   3052     1   109.8000471 387.438400
   3036   3034   3045     1   110.5600475 386.601600
   3036   3034   3046     1   110.5600475 386.601600
   3037   3036   3049     1   108.7700466 392.459200
   3037   3036   3050     1   108.7700466 392.459200
   3037   6567   6568     1   117.5500507 404.174400
   3038   3035   3047     1   110.5600475 386.601600
   3038   3035   3048     1   110.5600475 386.601600
   3039   3038   3051     1   108.7700466 392.459200
   3039   3038   3052     1   108.7700466 392.459200
   3039   6597   6598     1   117.5500507 404.174400
   3040   3033   3058     1   110.1100470 384.091200
   3040   3041   3055     1   109.5600471 388.275200
   3040   3041   3056     1   109.5600471 388.275200
   3041   3040   3053     1   110.5600475 386.601600
   3041   3040   3054     1   110.5600475 386.601600
   3041   3042   3057     1   117.6800502 383.254400
   3042   3041   3055     1   108.8800464 416.726400
   3042   3041   3056     1   108.8800464 416.726400
   3045   3034   3046     1   109.7500473 328.025600
   3047   3035   3048     1   109.7500473 328.025600
   3049   3036   3050     1   107.5800459 329.699200
   3051   3038   3052     1   107.5800459 329.699200
   3053   3040   3054     1   109.7500473 328.025600
   3055   3041   3056     1   108.4600466 328.025600
   3059   3060   3071     1   108.0100461 406.684800
   3059   3060   3072     1   108.0100461 406.684800
   3059   3061   3073     1   108.0100461 406.684800
   3059   3061   3074     1   108.0100461 406.684800
   3059   3066   3079     1   108.0100461 406.684800
   3059   3066   3080     1   108.0100461 406.684800
   3060   3059   3084     1   110.1100470 384.091200
   3060   3062   3075     1   109.8000471 387.438400
   3060   3062   3076     1   109.8000471 387.438400
   3061   3059   3084     1   110.1100470 384.091200
   3061   3064   3077     1   109.8000471 387.438400
   3061   3064   3078     1   109.8000471 387.438400
   3062   3060   3071     1   110.5600475 386.601600
   3062   3060   3072     1   110.5600475 386.601600
   3063   3062   3075     1   108.7700466 392.459200
   3063   3062   3076     1   108.7700466 392.459200
   3063   6627   6628     1   117.5500507 404.174400
   3064   3061   3073     1   110.5600475 386.601600
   3064   3061   3074     1   110.5600475 386.601600
   3065   3064   3077     1   108.7700466 392.459200
   3065   3064   3078     1   108.7700466 392.459200
   3065   6657   6658     1   117.5500507 404.174400
   3066   3059   3084     1   110.1100470 384.091200
   3066   3067   3081     1   109.5600471 388.275200
   3066   3067   3082     1   109.5600471 388.275200
   3067   3066   3079     1   110.5600475 386.601600
   3067   3066   3080     1   110.5600475 386.601600
   3067   3068   3083     1   117.6800502 383.254400
   3068   3067   3081     1   108.8800464 416.726400
   3068   3067   3082     1   108.8800464 416.726400
   3071   3060   3072     1   109.7500473 328.025600
   3073   3061   3074     1   109.7500473 328.025600
   3075   3062   3076     1   107.5800459 329.699200
   3077   3064   3078     1   107.5800459 329.699200
   3079   3066   3080     1   109.7500473 328.025600
   3081   3067   3082     1   108.4600466 328.025600
   3085   3086   3097     1   108.0100461 406.684800
   3085   3086   3098     1   108.0100461 406.684800
   3085   3087   3099     1   108.0100461 406.684800
   3085   3087   3100     1   108.0100461 406.684800
   3085   3092   3105     1   108.0100461 406.684800
   3085   3092   3106     1   108.0100461 406.684800
   3086   3085   3110     1   110.1100470 384.091200
   3086   3088   3101     1   109.8000471 387.438400
   3086   3088   3102     1   109.8000471 387.438400
   3087   3085   3110     1   110.1100470 384.091200
   3087   3090   3103     1   109.8000471 387.438400
   3087   3090   3104     1   109.8000471 387.438400
   3088   3086   3097     1   110.5600475 386.601600
   3088   3086   3098     1   110.5600475 386.601600
   3089   3088   3101     1   108.7700466 392.459200
   3089   3088   3102     1   108.7700466 392.459200
   3089   6687   6688     1   117.5500507 404.174400
   3090   3087   3099     1   110.5600475 386.601600
   3090   3087   3100     1   110.5600475 386.601600
   3091   3090   3103     1   108.7700466 392.459200
   3091   3090   3104     1   108.7700466 392.459200
   3091   6717   6718     1   117.5500507 404.174400
   3092   3085   3110     1   110.1100470 384.091200
   3092   3093   3107     1   109.5600471 388.275200
   3092   3093   3108     1   109.5600471 388.275200
   3093   3092   3105     1   110.5600475 386.601600
   3093   3092   3106     1   110.5600475 386.601600
   3093   3094   3109     1   117.6800502 383.254400
   3094   3093   3107     1   108.8800464 416.726400
   3094   3093   3108     1   108.8800464 416.726400
   3097   3086   3098     1   109.7500473 328.025600
   3099   3087   3100     1   109.7500473 328.025600
   3101   3088   3102     1   107.5800459 329.699200
   3103   3090   3104     1   107.5800459 329.699200
   3105   3092   3106     1   109.7500473 328.025600
   3107   3093   3108     1   108.4600466 328.025600
   3111   3112   3123     1   108.0100461 406.684800
   3111   3112   3124     1   108.0100461 406.684800
   3111   3113   3125     1   108.0100461 406.684800
   3111   3113   3126     1   108.0100461 406.684800
   3111   3118   3131     1   108.0100461 406.684800
   3111   3118   3132     1   108.0100461 406.684800
   3112   3111   3136     1   110.1100470 384.091200
   3112   3114   3127     1   109.8000471 387.438400
   3112   3114   3128     1   109.8000471 387.438400
   3113   3111   3136     1   110.1100470 384.091200
   3113   3116   3129     1   109.8000471 387.438400
   3113   3116   3130     1   109.8000471 387.438400
   3114   3112   3123     1   110.5600475 386.601600
   3114   3112   3124     1   110.5600475 386.601600
   3115   3114   3127     1   108.7700466 392.459200
   3115   3114   3128     1   108.7700466 392.459200
   3115   6747   6748     1   117.5500507 404.174400
   3116   3113   3125     1   110.5600475 386.601600
   3116   3113   3126     1   110.5600475 386.601600
   3117   3116   3129     1   108.7700466 392.459200
   3117   3116   3130     1   108.7700466 392.459200
   3117   6777   6778     1   117.5500507 404.174400
   3118   3111   3136     1   110.1100470 384.091200
   3118   3119   3133     1   109.5600471 388.275200
   3118   3119   3134     1   109.5600471 388.275200
   3119   3118   3131     1   110.5600475 386.601600
   3119   3118   3132     1   110.5600475 386.601600
   3119   3120   3135     1   117.6800502 383.254400
   3120   3119   3133     1   108.8800464 416.726400
   3120   3119   3134     1   108.8800464 416.726400
   3123   3112   3124     1   109.7500473 328.025600
   3125   3113   3126     1   109.7500473 328.025600
   3127   3114   3128     1   107.5800459 329.699200
   3129   3116   3130     1   107.5800459 329.699200
   3131   3118   3132     1   109.7500473 328.025600
   3133   3119   3134     1   108.4600466 328.025600
   3137   3138   3149     1   108.0100461 406.684800
   3137   3138   3150     1   108.0100461 406.684800
   3137   3139   3151     1   108.0100461 406.684800
   3137   3139   3152     1   108.0100461 406.684800
   3137   3144   3157     1   108.0100461 406.684800
   3137   3144   3158     1   108.0100461 406.684800
   3138   3137   3162     1   110.1100470 384.091200
   3138   3140   3153     1   109.8000471 387.438400
   3138   3140   3154     1   109.8000471 387.438400
   3139   3137   3162     1   110.1100470 384.091200
   3139   3142   3155     1   109.8000471 387.438400
   3139   3142   3156     1   109.8000471 387.438400
   3140   3138   3149     1   110.5600475 386.601600
   3140   3138   3150     1   110.5600475 386.601600
   3141   3140   3153     1   108.7700466 392.459200
   3141   3140   3154     1   108.7700466 392.459200
   3141   6807   6808     1   117.5500507 404.174400
   3142   3139   3151     1   110.5600475 386.601600
   3142   3139   3152     1   110.5600475 386.601600
   3143   3142   3155     1   108.7700466 392.459200
   3143   3142   3156     1   108.7700466 392.459200
   3143   6837   6838     1   117.5500507 404.174400
   3144   3137   3162     1   110.1100470 384.091200
   3144   3145   3159     1   109.5600471 388.275200
   3144   3145   3160     1   109.5600471 388.275200
   3145   3144   3157     1   110.5600475 386.601600
   3145   3144   3158     1   110.5600475 386.601600
   3145   3146   3161     1   117.6800502 383.254400
   3146   3145   3159     1   108.8800464 416.726400
   3146   3145   3160     1   108.8800464 416.726400
   3149   3138   3150     1   109.7500473 328.025600
   3151   3139   3152     1   109.7500473 328.025600
   3153   3140   3154     1   107.5800459 329.699200
   3155   3142   3156     1   107.5800459 329.699200
   3157   3144   3158     1   109.7500473 328.025600
   3159   3145   3160     1   108.4600466 328.025600
   3163   3164   3175     1   108.0100461 406.684800
   3163   3164   3176     1   108.0100461 406.684800
   3163   3165   3177     1   108.0100461 406.684800
   3163   3165   3178     1   108.0100461 406.684800
   3163   3170   3183     1   108.0100461 406.684800
   3163   3170   3184     1   108.0100461 406.684800
   3164   3163   3188     1   110.1100470 384.091200
   3164   3166   3179     1   109.8000471 387.438400
   3164   3166   3180     1   109.8000471 387.438400
   3165   3163   3188     1   110.1100470 384.091200
   3165   3168   3181     1   109.8000471 387.438400
   3165   3168   3182     1   109.8000471 387.438400
   3166   3164   3175     1   110.5600475 386.601600
   3166   3164   3176     1   110.5600475 386.601600
   3167   3166   3179     1   108.7700466 392.459200
   3167   3166   3180     1   108.7700466 392.459200
   3167   6867   6868     1   117.5500507 404.174400
   3168   3165   3177     1   110.5600475 386.601600
   3168   3165   3178     1   110.5600475 386.601600
   3169   3168   3181     1   108.7700466 392.459200
   3169   3168   3182     1   108.7700466 392.459200
   3169   6897   6898     1   117.5500507 404.174400
   3170   3163   3188     1   110.1100470 384.091200
   3170   3171   3185     1   109.5600471 388.275200
   3170   3171   3186     1   109.5600471 388.275200
   3171   3170   3183     1   110.5600475 386.601600
   3171   3170   3184     1   110.5600475 386.601600
   3171   3172   3187     1   117.6800502 383.254400
   3172   3171   3185     1   108.8800464 416.726400
   3172   3171   3186     1   108.8800464 416.726400
   3175   3164   3176     1   109.7500473 328.025600
   3177   3165   3178     1   109.7500473 328.025600
   3179   3166   3180     1   107.5800459 329.699200
   3181   3168   3182     1   107.5800459 329.699200
   3183   3170   3184     1   109.7500473 328.025600
   3185   3171   3186     1   108.4600466 328.025600
   3189   3190   3201     1   108.0100461 406.684800
   3189   3190   3202     1   108.0100461 406.684800
   3189   3191   3203     1   108.0100461 406.684800
   3189   3191   3204     1   108.0100461 406.684800
   3189   3196   3209     1   108.0100461 406.684800
   3189   3196   3210     1   108.0100461 406.684800
   3190   3189   3214     1   110.1100470 384.091200
   3190   3192   3205     1   109.8000471 387.438400
   3190   3192   3206     1   109.8000471 387.438400
   3191   3189   3214     1   110.1100470 384.091200
   3191   3194   3207     1   109.8000471 387.438400
   3191   3194   3208     1   109.8000471 387.438400
   3192   3190   3201     1   110.5600475 386.601600
   3192   3190   3202     1   110.5600475 386.601600
   3193   3192   3205     1   108.7700466 392.459200
   3193   3192   3206     1   108.7700466 392.459200
   3193   6927   6928     1   117.5500507 404.174400
   3194   3191   3203     1   110.5600475 386.601600
   3194   3191   3204     1   110.5600475 386.601600
   3195   3194   3207     1   108.7700466 392.459200
   3195   3194   3208     1   108.7700466 392.459200
   3195   6957   6958     1   117.5500507 404.174400
   3196   3189   3214     1   110.1100470 384.091200
   3196   3197   3211     1   109.5600471 388.275200
   3196   3197   3212     1   109.5600471 388.275200
   3197   3196   3209     1   110.5600475 386.601600
   3197   3196   3210     1   110.5600475 386.601600
   3197   3198   3213     1   117.6800502 383.254400
   3198   3197   3211     1   108.8800464 416.726400
   3198   3197   3212     1   108.8800464 416.726400
   3201   3190   3202     1   109.7500473 328.025600
   3203   3191   3204     1   109.7500473 328.025600
   3205   3192   3206     1   107.5800459 329.699200
   3207   3194   3208     1   107.5800459 329.699200
   3209   3196   3210     1   109.7500473 328.025600
   3211   3197   3212     1   108.4600466 328.025600
   3215   3216   3227     1   108.0100461 406.684800
   3215   3216   3228     1   108.0100461 406.684800
   3215   3217   3229     1   108.0100461 406.684800
   3215   3217   3230     1   108.0100461 406.684800
   3215   3222   3235     1   108.0100461 406.684800
   3215   3222   3236     1   108.0100461 406.684800
   3216   3215   3240     1   110.1100470 384.091200
   3216   3218   3231     1   109.8000471 387.438400
   3216   3218   3232     1   109.8000471 387.438400
   3217   3215   3240     1   110.1100470 384.091200
   3217   3220   3233     1   109.8000471 387.438400
   3217   3220   3234     1   109.8000471 387.438400
   3218   3216   3227     1   110.5600475 386.601600
   3218   3216   3228     1   110.5600475 386.601600
   3219   3218   3231     1   108.7700466 392.459200
   3219   3218   3232     1   108.7700466 392.459200
   3219   6987   6988     1   117.5500507 404.174400
   3220   3217   3229     1   110.5600475 386.601600
   3220   3217   3230     1   110.5600475 386.601600
   3221   3220   3233     1   108.7700466 392.459200
   3221   3220   3234     1   108.7700466 392.459200
   3221   7017   7018     1   117.5500507 404.174400
   3222   3215   3240     1   110.1100470 384.091200
   3222   3223   3237     1   109.5600471 388.275200
   3222   3223   3238     1   109.5600471 388.275200
   3223   3222   3235     1   110.5600475 386.601600
   3223   3222   3236     1   110.5600475 386.601600
   3223   3224   3239     1   117.6800502 383.254400
   3224   3223   3237     1   108.8800464 416.726400
   3224   3223   3238     1   108.8800464 416.726400
   3227   3216   3228     1   109.7500473 328.025600
   3229   3217   3230     1   109.7500473 328.025600
   3231   3218   3232     1   107.5800459 329.699200
   3233   3220   3234     1   107.5800459 329.699200
   3235   3222   3236     1   109.7500473 328.025600
   3237   3223   3238     1   108.4600466 328.025600
   3241   3242   3253     1   108.0100461 406.684800
   3241   3242   3254     1   108.0100461 406.684800
   3241   3243   3255     1   108.0100461 406.684800
   3241   3243   3256     1   108.0100461 406.684800
   3241   3248   3261     1   108.0100461 406.684800
   3241   3248   3262     1   108.0100461 406.684800
   3242   3241   3266     1   110.1100470 384.091200
   3242   3244   3257     1   109.8000471 387.438400
   3242   3244   3258     1   109.8000471 387.438400
   3243   3241   3266     1   110.1100470 384.091200
   3243   3246   3259     1   109.8000471 387.438400
   3243   3246   3260     1   109.8000471 387.438400
   3244   3242   3253     1   110.5600475 386.601600
   3244   3242   3254     1   110.5600475 386.601600
   3245   3244   3257     1   108.7700466 392.459200
   3245   3244   3258     1   108.7700466 392.459200
   3245   7047   7048     1   117.5500507 404.174400
   3246   3243   3255     1   110.5600475 386.601600
   3246   3243   3256     1   110.5600475 386.601600
   3247   3246   3259     1   108.7700466 392.459200
   3247   3246   3260     1   108.7700466 392.459200
   3247   7077   7078     1   117.5500507 404.174400
   3248   3241   3266     1   110.1100470 384.091200
   3248   3249   3263     1   109.5600471 388.275200
   3248   3249   3264     1   109.5600471 388.275200
   3249   3248   3261     1   110.5600475 386.601600
   3249   3248   3262     1   110.5600475 386.601600
   3249   3250   3265     1   117.6800502 383.254400
   3250   3249   3263     1   108.8800464 416.726400
   3250   3249   3264     1   108.8800464 416.726400
   3253   3242   3254     1   109.7500473 328.025600
   3255   3243   3256     1   109.7500473 328.025600
   3257   3244   3258     1   107.5800459 329.699200
   3259   3246   3260     1   107.5800459 329.699200
   3261   3248   3262     1   109.7500473 328.025600
   3263   3249   3264     1   108.4600466 328.025600
   3267   3269   3270     1   108.8800464 416.726400
   3267   3269   3272     1   108.8800464 416.726400
   3268   3267   3269     1   117.6800502 383.254400
   3269   3271   3273     1   110.5600475 386.601600
   3269   3271   3274     1   110.5600475 386.601600
   3270   3269   3271     1   109.5600471 388.275200
   3270   3269   3272     1   108.4600466 328.025600
   3271   3269   3272     1   109.5600471 388.275200
   3271   3275   3296     1   110.1100470 384.091200
   3273   3271   3275     1   108.0100461 406.684800
   3273   3271   3274     1   109.7500473 328.025600
   3274   3271   3275     1   108.0100461 406.684800
   3275   3276   3286     1   108.0100461 406.684800
   3275   3276   3287     1   108.0100461 406.684800
   3275   3277   3278     1   108.0100461 406.684800
   3275   3277   3280     1   108.0100461 406.684800
   3276   3275   3296     1   110.1100470 384.091200
   3276   3288   3289     1   109.8000471 387.438400
   3276   3288   3290     1   109.8000471 387.438400
   3277   3275   3296     1   110.1100470 384.091200
   3277   3279   3281     1   109.8000471 387.438400
   3277   3279   3282     1   109.8000471 387.438400
   3278   3277   3279     1   110.5600475 386.601600
   3278   3277   3280     1   109.7500473 328.025600
   3279   3277   3280     1   110.5600475 386.601600
   3281   3279   3283     1   108.7700466 392.459200
   3281   3279   3282     1   107.5800459 329.699200
   3282   3279   3283     1   108.7700466 392.459200
   3283   3284   3294     1   106.5500460 417.563200
   3286   3276   3288     1   110.5600475 386.601600
   3286   3276   3287     1   109.7500473 328.025600
   3287   3276   3288     1   110.5600475 386.601600
   3289   3288   3291     1   108.7700466 392.459200
   3289   3288   3290     1   107.5800459 329.699200
   3290   3288   3291     1   108.7700466 392.459200
   3291   3293   3295     1   106.5500460 417.563200
   3297   3299   3300     1   108.8800464 416.726400
   3297   3299   3302     1   108.8800464 416.726400
   3298   3297   3299     1   117.6800502 383.254400
   3299   3301   3303     1   110.5600475 386.601600
   3299   3301   3304     1   110.5600475 386.601600
   3300   3299   3301     1   109.5600471 388.275200
   3300   3299   3302     1   108.4600466 328.025600
   3301   3305   3326     1   110.1100470 384.091200
   3301   3299   3302     1   109.5600471 388.275200
   3303   3301   3305     1   108.0100461 406.684800
   3303   3301   3304     1   109.7500473 328.025600
   3304   3301   3305     1   108.0100461 406.684800
   3305   3306   3316     1   108.0100461 406.684800
   3305   3306   3317     1   108.0100461 406.684800
   3305   3307   3308     1   108.0100461 406.684800
   3305   3307   3310     1   108.0100461 406.684800
   3306   3318   3319     1   109.8000471 387.438400
   3306   3318   3320     1   109.8000471 387.438400
   3306   3305   3326     1   110.1100470 384.091200
   3307   3309   3311     1   109.8000471 387.438400
   3307   3309   3312     1   109.8000471 387.438400
   3307   3305   3326     1   110.1100470 384.091200
   3308   3307   3309     1   110.5600475 386.601600
   3308   3307   3310     1   109.7500473 328.025600
   3309   3307   3310     1   110.5600475 386.601600
   3311   3309   3313     1   108.7700466 392.459200
   3311   3309   3312     1   107.5800459 329.699200
   3312   3309   3313     1   108.7700466 392.459200
   3313   3314   3324     1   106.5500460 417.563200
   3316   3306   3318     1   110.5600475 386.601600
   3316   3306   3317     1   109.7500473 328.025600
   3317   3306   3318     1   110.5600475 386.601600
   3319   3318   3321     1   108.7700466 392.459200
   3319   3318   3320     1   107.5800459 329.699200
   3320   3318   3321     1   108.7700466 392.459200
   3321   3323   3325     1   106.5500460 417.563200
   3327   3329   3330     1   108.8800464 416.726400
   3327   3329   3332     1   108.8800464 416.726400
   3328   3327   3329     1   117.6800502 383.254400
   3329   3331   3333     1   110.5600475 386.601600
   3329   3331   3334     1   110.5600475 386.601600
   3330   3329   3331     1   109.5600471 388.275200
   3330   3329   3332     1   108.4600466 328.025600
   3331   3329   3332     1   109.5600471 388.275200
   3331   3335   3356     1   110.1100470 384.091200
   3333   3331   3335     1   108.0100461 406.684800
   3333   3331   3334     1   109.7500473 328.025600
   3334   3331   3335     1   108.0100461 406.684800
   3335   3336   3346     1   108.0100461 406.684800
   3335   3336   3347     1   108.0100461 406.684800
   3335   3337   3338     1   108.0100461 406.684800
   3335   3337   3340     1   108.0100461 406.684800
   3336   3335   3356     1   110.1100470 384.091200
   3336   3348   3349     1   109.8000471 387.438400
   3336   3348   3350     1   109.8000471 387.438400
   3337   3335   3356     1   110.1100470 384.091200
   3337   3339   3341     1   109.8000471 387.438400
   3337   3339   3342     1   109.8000471 387.438400
   3338   3337   3339     1   110.5600475 386.601600
   3338   3337   3340     1   109.7500473 328.025600
   3339   3337   3340     1   110.5600475 386.601600
   3341   3339   3343     1   108.7700466 392.459200
   3341   3339   3342     1   107.5800459 329.699200
   3342   3339   3343     1   108.7700466 392.459200
   3343   3344   3354     1   106.5500460 417.563200
   3346   3336   3348     1   110.5600475 386.601600
   3346   3336   3347     1   109.7500473 328.025600
   3347   3336   3348     1   110.5600475 386.601600
   3349   3348   3351     1   108.7700466 392.459200
   3349   3348   3350     1   107.5800459 329.699200
   3350   3348   3351     1   108.7700466 392.459200
   3351   3353   3355     1   106.5500460 417.563200
   3357   3359   3360     1   108.8800464 416.726400
   3357   3359   3362     1   108.8800464 416.726400
   3358   3357   3359     1   117.6800502 383.254400
   3359   3361   3363     1   110.5600475 386.601600
   3359   3361   3364     1   110.5600475 386.601600
   3360   3359   3361     1   109.5600471 388.275200
   3360   3359   3362     1   108.4600466 328.025600
   3361   3365   3386     1   110.1100470 384.091200
   3361   3359   3362     1   109.5600471 388.275200
   3363   3361   3365     1   108.0100461 406.684800
   3363   3361   3364     1   109.7500473 328.025600
   3364   3361   3365     1   108.0100461 406.684800
   3365   3366   3376     1   108.0100461 406.684800
   3365   3366   3377     1   108.0100461 406.684800
   3365   3367   3368     1   108.0100461 406.684800
   3365   3367   3370     1   108.0100461 406.684800
   3366   3378   3379     1   109.8000471 387.438400
   3366   3378   3380     1   109.8000471 387.438400
   3366   3365   3386     1   110.1100470 384.091200
   3367   3369   3371     1   109.8000471 387.438400
   3367   3369   3372     1   109.8000471 387.438400
   3367   3365   3386     1   110.1100470 384.091200
   3368   3367   3369     1   110.5600475 386.601600
   3368   3367   3370     1   109.7500473 328.025600
   3369   3367   3370     1   110.5600475 386.601600
   3371   3369   3373     1   108.7700466 392.459200
   3371   3369   3372     1   107.5800459 329.699200
   3372   3369   3373     1   108.7700466 392.459200
   3373   3374   3384     1   106.5500460 417.563200
   3376   3366   3378     1   110.5600475 386.601600
   3376   3366   3377     1   109.7500473 328.025600
   3377   3366   3378     1   110.5600475 386.601600
   3379   3378   3381     1   108.7700466 392.459200
   3379   3378   3380     1   107.5800459 329.699200
   3380   3378   3381     1   108.7700466 392.459200
   3381   3383   3385     1   106.5500460 417.563200
   3387   3389   3390     1   108.8800464 416.726400
   3387   3389   3392     1   108.8800464 416.726400
   3388   3387   3389     1   117.6800502 383.254400
   3389   3391   3393     1   110.5600475 386.601600
   3389   3391   3394     1   110.5600475 386.601600
   3390   3389   3391     1   109.5600471 388.275200
   3390   3389   3392     1   108.4600466 328.025600
   3391   3389   3392     1   109.5600471 388.275200
   3391   3395   3416     1   110.1100470 384.091200
   3393   3391   3395     1   108.0100461 406.684800
   3393   3391   3394     1   109.7500473 328.025600
   3394   3391   3395     1   108.0100461 406.684800
   3395   3396   3406     1   108.0100461 406.684800
   3395   3396   3407     1   108.0100461 406.684800
   3395   3397   3398     1   108.0100461 406.684800
   3395   3397   3400     1   108.0100461 406.684800
   3396   3395   3416     1   110.1100470 384.091200
   3396   3408   3409     1   109.8000471 387.438400
   3396   3408   3410     1   109.8000471 387.438400
   3397   3395   3416     1   110.1100470 384.091200
   3397   3399   3401     1   109.8000471 387.438400
   3397   3399   3402     1   109.8000471 387.438400
   3398   3397   3399     1   110.5600475 386.601600
   3398   3397   3400     1   109.7500473 328.025600
   3399   3397   3400     1   110.5600475 386.601600
   3401   3399   3403     1   108.7700466 392.459200
   3401   3399   3402     1   107.5800459 329.699200
   3402   3399   3403     1   108.7700466 392.459200
   3403   3404   3414     1   106.5500460 417.563200
   3406   3396   3408     1   110.5600475 386.601600
   3406   3396   3407     1   109.7500473 328.025600
   3407   3396   3408     1   110.5600475 386.601600
   3409   3408   3411     1   108.7700466 392.459200
   3409   3408   3410     1   107.5800459 329.699200
   3410   3408   3411     1   108.7700466 392.459200
   3411   3413   3415     1   106.5500460 417.563200
   3417   3419   3420     1   108.8800464 416.726400
   3417   3419   3422     1   108.8800464 416.726400
   3418   3417   3419     1   117.6800502 383.254400
   3419   3421   3423     1   110.5600475 386.601600
   3419   3421   3424     1   110.5600475 386.601600
   3420   3419   3421     1   109.5600471 388.275200
   3420   3419   3422     1   108.4600466 328.025600
   3421   3425   3446     1   110.1100470 384.091200
   3421   3419   3422     1   109.5600471 388.275200
   3423   3421   3425     1   108.0100461 406.684800
   3423   3421   3424     1   109.7500473 328.025600
   3424   3421   3425     1   108.0100461 406.684800
   3425   3426   3436     1   108.0100461 406.684800
   3425   3426   3437     1   108.0100461 406.684800
   3425   3427   3428     1   108.0100461 406.684800
   3425   3427   3430     1   108.0100461 406.684800
   3426   3438   3439     1   109.8000471 387.438400
   3426   3438   3440     1   109.8000471 387.438400
   3426   3425   3446     1   110.1100470 384.091200
   3427   3429   3431     1   109.8000471 387.438400
   3427   3429   3432     1   109.8000471 387.438400
   3427   3425   3446     1   110.1100470 384.091200
   3428   3427   3429     1   110.5600475 386.601600
   3428   3427   3430     1   109.7500473 328.025600
   3429   3427   3430     1   110.5600475 386.601600
   3431   3429   3433     1   108.7700466 392.459200
   3431   3429   3432     1   107.5800459 329.699200
   3432   3429   3433     1   108.7700466 392.459200
   3433   3434   3444     1   106.5500460 417.563200
   3436   3426   3438     1   110.5600475 386.601600
   3436   3426   3437     1   109.7500473 328.025600
   3437   3426   3438     1   110.5600475 386.601600
   3439   3438   3441     1   108.7700466 392.459200
   3439   3438   3440     1   107.5800459 329.699200
   3440   3438   3441     1   108.7700466 392.459200
   3441   3443   3445     1   106.5500460 417.563200
   3447   3449   3450     1   108.8800464 416.726400
   3447   3449   3452     1   108.8800464 416.726400
   3448   3447   3449     1   117.6800502 383.254400
   3449   3451   3453     1   110.5600475 386.601600
   3449   3451   3454     1   110.5600475 386.601600
   3450   3449   3451     1   109.5600471 388.275200
   3450   3449   3452     1   108.4600466 328.025600
   3451   3449   3452     1   109.5600471 388.275200
   3451   3455   3476     1   110.1100470 384.091200
   3453   3451   3455     1   108.0100461 406.684800
   3453   3451   3454     1   109.7500473 328.025600
   3454   3451   3455     1   108.0100461 406.684800
   3455   3456   3466     1   108.0100461 406.684800
   3455   3456   3467     1   108.0100461 406.684800
   3455   3457   3458     1   108.0100461 406.684800
   3455   3457   3460     1   108.0100461 406.684800
   3456   3455   3476     1   110.1100470 384.091200
   3456   3468   3469     1   109.8000471 387.438400
   3456   3468   3470     1   109.8000471 387.438400
   3457   3455   3476     1   110.1100470 384.091200
   3457   3459   3461     1   109.8000471 387.438400
   3457   3459   3462     1   109.8000471 387.438400
   3458   3457   3459     1   110.5600475 386.601600
   3458   3457   3460     1   109.7500473 328.025600
   3459   3457   3460     1   110.5600475 386.601600
   3461   3459   3463     1   108.7700466 392.459200
   3461   3459   3462     1   107.5800459 329.699200
   3462   3459   3463     1   108.7700466 392.459200
   3463   3464   3474     1   106.5500460 417.563200
   3466   3456   3468     1   110.5600475 386.601600
   3466   3456   3467     1   109.7500473 328.025600
   3467   3456   3468     1   110.5600475 386.601600
   3469   3468   3471     1   108.7700466 392.459200
   3469   3468   3470     1   107.5800459 329.699200
   3470   3468   3471     1   108.7700466 392.459200
   3471   3473   3475     1   106.5500460 417.563200
   3477   3479   3480     1   108.8800464 416.726400
   3477   3479   3482     1   108.8800464 416.726400
   3478   3477   3479     1   117.6800502 383.254400
   3479   3481   3483     1   110.5600475 386.601600
   3479   3481   3484     1   110.5600475 386.601600
   3480   3479   3481     1   109.5600471 388.275200
   3480   3479   3482     1   108.4600466 328.025600
   3481   3485   3506     1   110.1100470 384.091200
   3481   3479   3482     1   109.5600471 388.275200
   3483   3481   3485     1   108.0100461 406.684800
   3483   3481   3484     1   109.7500473 328.025600
   3484   3481   3485     1   108.0100461 406.684800
   3485   3486   3496     1   108.0100461 406.684800
   3485   3486   3497     1   108.0100461 406.684800
   3485   3487   3488     1   108.0100461 406.684800
   3485   3487   3490     1   108.0100461 406.684800
   3486   3498   3499     1   109.8000471 387.438400
   3486   3498   3500     1   109.8000471 387.438400
   3486   3485   3506     1   110.1100470 384.091200
   3487   3489   3491     1   109.8000471 387.438400
   3487   3489   3492     1   109.8000471 387.438400
   3487   3485   3506     1   110.1100470 384.091200
   3488   3487   3489     1   110.5600475 386.601600
   3488   3487   3490     1   109.7500473 328.025600
   3489   3487   3490     1   110.5600475 386.601600
   3491   3489   3493     1   108.7700466 392.459200
   3491   3489   3492     1   107.5800459 329.699200
   3492   3489   3493     1   108.7700466 392.459200
   3493   3494   3504     1   106.5500460 417.563200
   3496   3486   3498     1   110.5600475 386.601600
   3496   3486   3497     1   109.7500473 328.025600
   3497   3486   3498     1   110.5600475 386.601600
   3499   3498   3501     1   108.7700466 392.459200
   3499   3498   3500     1   107.5800459 329.699200
   3500   3498   3501     1   108.7700466 392.459200
   3501   3503   3505     1   106.5500460 417.563200
   3507   3509   3510     1   108.8800464 416.726400
   3507   3509   3512     1   108.8800464 416.726400
   3508   3507   3509     1   117.6800502 383.254400
   3509   3511   3513     1   110.5600475 386.601600
   3509   3511   3514     1   110.5600475 386.601600
   3510   3509   3511     1   109.5600471 388.275200
   3510   3509   3512     1   108.4600466 328.025600
   3511   3509   3512     1   109.5600471 388.275200
   3511   3515   3536     1   110.1100470 384.091200
   3513   3511   3515     1   108.0100461 406.684800
   3513   3511   3514     1   109.7500473 328.025600
   3514   3511   3515     1   108.0100461 406.684800
   3515   3516   3526     1   108.0100461 406.684800
   3515   3516   3527     1   108.0100461 406.684800
   3515   3517   3518     1   108.0100461 406.684800
   3515   3517   3520     1   108.0100461 406.684800
   3516   3515   3536     1   110.1100470 384.091200
   3516   3528   3529     1   109.8000471 387.438400
   3516   3528   3530     1   109.8000471 387.438400
   3517   3515   3536     1   110.1100470 384.091200
   3517   3519   3521     1   109.8000471 387.438400
   3517   3519   3522     1   109.8000471 387.438400
   3518   3517   3519     1   110.5600475 386.601600
   3518   3517   3520     1   109.7500473 328.025600
   3519   3517   3520     1   110.5600475 386.601600
   3521   3519   3523     1   108.7700466 392.459200
   3521   3519   3522     1   107.5800459 329.699200
   3522   3519   3523     1   108.7700466 392.459200
   3523   3524   3534     1   106.5500460 417.563200
   3526   3516   3528     1   110.5600475 386.601600
   3526   3516   3527     1   109.7500473 328.025600
   3527   3516   3528     1   110.5600475 386.601600
   3529   3528   3531     1   108.7700466 392.459200
   3529   3528   3530     1   107.5800459 329.699200
   3530   3528   3531     1   108.7700466 392.459200
   3531   3533   3535     1   106.5500460 417.563200
   3537   3539   3540     1   108.8800464 416.726400
   3537   3539   3542     1   108.8800464 416.726400
   3538   3537   3539     1   117.6800502 383.254400
   3539   3541   3543     1   110.5600475 386.601600
   3539   3541   3544     1   110.5600475 386.601600
   3540   3539   3541     1   109.5600471 388.275200
   3540   3539   3542     1   108.4600466 328.025600
   3541   3545   3566     1   110.1100470 384.091200
   3541   3539   3542     1   109.5600471 388.275200
   3543   3541   3545     1   108.0100461 406.684800
   3543   3541   3544     1   109.7500473 328.025600
   3544   3541   3545     1   108.0100461 406.684800
   3545   3546   3556     1   108.0100461 406.684800
   3545   3546   3557     1   108.0100461 406.684800
   3545   3547   3548     1   108.0100461 406.684800
   3545   3547   3550     1   108.0100461 406.684800
   3546   3558   3559     1   109.8000471 387.438400
   3546   3558   3560     1   109.8000471 387.438400
   3546   3545   3566     1   110.1100470 384.091200
   3547   3549   3551     1   109.8000471 387.438400
   3547   3549   3552     1   109.8000471 387.438400
   3547   3545   3566     1   110.1100470 384.091200
   3548   3547   3549     1   110.5600475 386.601600
   3548   3547   3550     1   109.7500473 328.025600
   3549   3547   3550     1   110.5600475 386.601600
   3551   3549   3553     1   108.7700466 392.459200
   3551   3549   3552     1   107.5800459 329.699200
   3552   3549   3553     1   108.7700466 392.459200
   3553   3554   3564     1   106.5500460 417.563200
   3556   3546   3558     1   110.5600475 386.601600
   3556   3546   3557     1   109.7500473 328.025600
   3557   3546   3558     1   110.5600475 386.601600
   3559   3558   3561     1   108.7700466 392.459200
   3559   3558   3560     1   107.5800459 329.699200
   3560   3558   3561     1   108.7700466 392.459200
   3561   3563   3565     1   106.5500460 417.563200
   3567   3569   3570     1   108.8800464 416.726400
   3567   3569   3572     1   108.8800464 416.726400
   3568   3567   3569     1   117.6800502 383.254400
   3569   3571   3573     1   110.5600475 386.601600
   3569   3571   3574     1   110.5600475 386.601600
   3570   3569   3571     1   109.5600471 388.275200
   3570   3569   3572     1   108.4600466 328.025600
   3571   3569   3572     1   109.5600471 388.275200
   3571   3575   3596     1   110.1100470 384.091200
   3573   3571   3575     1   108.0100461 406.684800
   3573   3571   3574     1   109.7500473 328.025600
   3574   3571   3575     1   108.0100461 406.684800
   3575   3576   3586     1   108.0100461 406.684800
   3575   3576   3587     1   108.0100461 406.684800
   3575   3577   3578     1   108.0100461 406.684800
   3575   3577   3580     1   108.0100461 406.684800
   3576   3575   3596     1   110.1100470 384.091200
   3576   3588   3589     1   109.8000471 387.438400
   3576   3588   3590     1   109.8000471 387.438400
   3577   3575   3596     1   110.1100470 384.091200
   3577   3579   3581     1   109.8000471 387.438400
   3577   3579   3582     1   109.8000471 387.438400
   3578   3577   3579     1   110.5600475 386.601600
   3578   3577   3580     1   109.7500473 328.025600
   3579   3577   3580     1   110.5600475 386.601600
   3581   3579   3583     1   108.7700466 392.459200
   3581   3579   3582     1   107.5800459 329.699200
   3582   3579   3583     1   108.7700466 392.459200
   3583   3584   3594     1   106.5500460 417.563200
   3586   3576   3588     1   110.5600475 386.601600
   3586   3576   3587     1   109.7500473 328.025600
   3587   3576   3588     1   110.5600475 386.601600
   3589   3588   3591     1   108.7700466 392.459200
   3589   3588   3590     1   107.5800459 329.699200
   3590   3588   3591     1   108.7700466 392.459200
   3591   3593   3595     1   106.5500460 417.563200
   3597   3599   3600     1   108.8800464 416.726400
   3597   3599   3602     1   108.8800464 416.726400
   3598   3597   3599     1   117.6800502 383.254400
   3599   3601   3603     1   110.5600475 386.601600
   3599   3601   3604     1   110.5600475 386.601600
   3600   3599   3601     1   109.5600471 388.275200
   3600   3599   3602     1   108.4600466 328.025600
   3601   3605   3626     1   110.1100470 384.091200
   3601   3599   3602     1   109.5600471 388.275200
   3603   3601   3605     1   108.0100461 406.684800
   3603   3601   3604     1   109.7500473 328.025600
   3604   3601   3605     1   108.0100461 406.684800
   3605   3606   3616     1   108.0100461 406.684800
   3605   3606   3617     1   108.0100461 406.684800
   3605   3607   3608     1   108.0100461 406.684800
   3605   3607   3610     1   108.0100461 406.684800
   3606   3618   3619     1   109.8000471 387.438400
   3606   3618   3620     1   109.8000471 387.438400
   3606   3605   3626     1   110.1100470 384.091200
   3607   3609   3611     1   109.8000471 387.438400
   3607   3609   3612     1   109.8000471 387.438400
   3607   3605   3626     1   110.1100470 384.091200
   3608   3607   3609     1   110.5600475 386.601600
   3608   3607   3610     1   109.7500473 328.025600
   3609   3607   3610     1   110.5600475 386.601600
   3611   3609   3613     1   108.7700466 392.459200
   3611   3609   3612     1   107.5800459 329.699200
   3612   3609   3613     1   108.7700466 392.459200
   3613   3614   3624     1   106.5500460 417.563200
   3616   3606   3618     1   110.5600475 386.601600
   3616   3606   3617     1   109.7500473 328.025600
   3617   3606   3618     1   110.5600475 386.601600
   3619   3618   3621     1   108.7700466 392.459200
   3619   3618   3620     1   107.5800459 329.699200
   3620   3618   3621     1   108.7700466 392.459200
   3621   3623   3625     1   106.5500460 417.563200
   3627   3629   3630     1   108.8800464 416.726400
   3627   3629   3632     1   108.8800464 416.726400
   3628   3627   3629     1   117.6800502 383.254400
   3629   3631   3633     1   110.5600475 386.601600
   3629   3631   3634     1   110.5600475 386.601600
   3630   3629   3631     1   109.5600471 388.275200
   3630   3629   3632     1   108.4600466 328.025600
   3631   3629   3632     1   109.5600471 388.275200
   3631   3635   3656     1   110.1100470 384.091200
   3633   3631   3635     1   108.0100461 406.684800
   3633   3631   3634     1   109.7500473 328.025600
   3634   3631   3635     1   108.0100461 406.684800
   3635   3636   3646     1   108.0100461 406.684800
   3635   3636   3647     1   108.0100461 406.684800
   3635   3637   3638     1   108.0100461 406.684800
   3635   3637   3640     1   108.0100461 406.684800
   3636   3635   3656     1   110.1100470 384.091200
   3636   3648   3649     1   109.8000471 387.438400
   3636   3648   3650     1   109.8000471 387.438400
   3637   3635   3656     1   110.1100470 384.091200
   3637   3639   3641     1   109.8000471 387.438400
   3637   3639   3642     1   109.8000471 387.438400
   3638   3637   3639     1   110.5600475 386.601600
   3638   3637   3640     1   109.7500473 328.025600
   3639   3637   3640     1   110.5600475 386.601600
   3641   3639   3643     1   108.7700466 392.459200
   3641   3639   3642     1   107.5800459 329.699200
   3642   3639   3643     1   108.7700466 392.459200
   3643   3644   3654     1   106.5500460 417.563200
   3646   3636   3648     1   110.5600475 386.601600
   3646   3636   3647     1   109.7500473 328.025600
   3647   3636   3648     1   110.5600475 386.601600
   3649   3648   3651     1   108.7700466 392.459200
   3649   3648   3650     1   107.5800459 329.699200
   3650   3648   3651     1   108.7700466 392.459200
   3651   3653   3655     1   106.5500460 417.563200
   3657   3659   3660     1   108.8800464 416.726400
   3657   3659   3662     1   108.8800464 416.726400
   3658   3657   3659     1   117.6800502 383.254400
   3659   3661   3663     1   110.5600475 386.601600
   3659   3661   3664     1   110.5600475 386.601600
   3660   3659   3661     1   109.5600471 388.275200
   3660   3659   3662     1   108.4600466 328.025600
   3661   3665   3686     1   110.1100470 384.091200
   3661   3659   3662     1   109.5600471 388.275200
   3663   3661   3665     1   108.0100461 406.684800
   3663   3661   3664     1   109.7500473 328.025600
   3664   3661   3665     1   108.0100461 406.684800
   3665   3666   3676     1   108.0100461 406.684800
   3665   3666   3677     1   108.0100461 406.684800
   3665   3667   3668     1   108.0100461 406.684800
   3665   3667   3670     1   108.0100461 406.684800
   3666   3678   3679     1   109.8000471 387.438400
   3666   3678   3680     1   109.8000471 387.438400
   3666   3665   3686     1   110.1100470 384.091200
   3667   3669   3671     1   109.8000471 387.438400
   3667   3669   3672     1   109.8000471 387.438400
   3667   3665   3686     1   110.1100470 384.091200
   3668   3667   3669     1   110.5600475 386.601600
   3668   3667   3670     1   109.7500473 328.025600
   3669   3667   3670     1   110.5600475 386.601600
   3671   3669   3673     1   108.7700466 392.459200
   3671   3669   3672     1   107.5800459 329.699200
   3672   3669   3673     1   108.7700466 392.459200
   3673   3674   3684     1   106.5500460 417.563200
   3676   3666   3678     1   110.5600475 386.601600
   3676   3666   3677     1   109.7500473 328.025600
   3677   3666   3678     1   110.5600475 386.601600
   3679   3678   3681     1   108.7700466 392.459200
   3679   3678   3680     1   107.5800459 329.699200
   3680   3678   3681     1   108.7700466 392.459200
   3681   3683   3685     1   106.5500460 417.563200
   3687   3689   3690     1   108.8800464 416.726400
   3687   3689   3692     1   108.8800464 416.726400
   3688   3687   3689     1   117.6800502 383.254400
   3689   3691   3693     1   110.5600475 386.601600
   3689   3691   3694     1   110.5600475 386.601600
   3690   3689   3691     1   109.5600471 388.275200
   3690   3689   3692     1   108.4600466 328.025600
   3691   3689   3692     1   109.5600471 388.275200
   3691   3695   3716     1   110.1100470 384.091200
   3693   3691   3695     1   108.0100461 406.684800
   3693   3691   3694     1   109.7500473 328.025600
   3694   3691   3695     1   108.0100461 406.684800
   3695   3696   3706     1   108.0100461 406.684800
   3695   3696   3707     1   108.0100461 406.684800
   3695   3697   3698     1   108.0100461 406.684800
   3695   3697   3700     1   108.0100461 406.684800
   3696   3695   3716     1   110.1100470 384.091200
   3696   3708   3709     1   109.8000471 387.438400
   3696   3708   3710     1   109.8000471 387.438400
   3697   3695   3716     1   110.1100470 384.091200
   3697   3699   3701     1   109.8000471 387.438400
   3697   3699   3702     1   109.8000471 387.438400
   3698   3697   3699     1   110.5600475 386.601600
   3698   3697   3700     1   109.7500473 328.025600
   3699   3697   3700     1   110.5600475 386.601600
   3701   3699   3703     1   108.7700466 392.459200
   3701   3699   3702     1   107.5800459 329.699200
   3702   3699   3703     1   108.7700466 392.459200
   3703   3704   3714     1   106.5500460 417.563200
   3706   3696   3708     1   110.5600475 386.601600
   3706   3696   3707     1   109.7500473 328.025600
   3707   3696   3708     1   110.5600475 386.601600
   3709   3708   3711     1   108.7700466 392.459200
   3709   3708   3710     1   107.5800459 329.699200
   3710   3708   3711     1   108.7700466 392.459200
   3711   3713   3715     1   106.5500460 417.563200
   3717   3719   3720     1   108.8800464 416.726400
   3717   3719   3722     1   108.8800464 416.726400
   3718   3717   3719     1   117.6800502 383.254400
   3719   3721   3723     1   110.5600475 386.601600
   3719   3721   3724     1   110.5600475 386.601600
   3720   3719   3721     1   109.5600471 388.275200
   3720   3719   3722     1   108.4600466 328.025600
   3721   3725   3746     1   110.1100470 384.091200
   3721   3719   3722     1   109.5600471 388.275200
   3723   3721   3725     1   108.0100461 406.684800
   3723   3721   3724     1   109.7500473 328.025600
   3724   3721   3725     1   108.0100461 406.684800
   3725   3726   3736     1   108.0100461 406.684800
   3725   3726   3737     1   108.0100461 406.684800
   3725   3727   3728     1   108.0100461 406.684800
   3725   3727   3730     1   108.0100461 406.684800
   3726   3738   3739     1   109.8000471 387.438400
   3726   3738   3740     1   109.8000471 387.438400
   3726   3725   3746     1   110.1100470 384.091200
   3727   3729   3731     1   109.8000471 387.438400
   3727   3729   3732     1   109.8000471 387.438400
   3727   3725   3746     1   110.1100470 384.091200
   3728   3727   3729     1   110.5600475 386.601600
   3728   3727   3730     1   109.7500473 328.025600
   3729   3727   3730     1   110.5600475 386.601600
   3731   3729   3733     1   108.7700466 392.459200
   3731   3729   3732     1   107.5800459 329.699200
   3732   3729   3733     1   108.7700466 392.459200
   3733   3734   3744     1   106.5500460 417.563200
   3736   3726   3738     1   110.5600475 386.601600
   3736   3726   3737     1   109.7500473 328.025600
   3737   3726   3738     1   110.5600475 386.601600
   3739   3738   3741     1   108.7700466 392.459200
   3739   3738   3740     1   107.5800459 329.699200
   3740   3738   3741     1   108.7700466 392.459200
   3741   3743   3745     1   106.5500460 417.563200
   3747   3749   3750     1   108.8800464 416.726400
   3747   3749   3752     1   108.8800464 416.726400
   3748   3747   3749     1   117.6800502 383.254400
   3749   3751   3753     1   110.5600475 386.601600
   3749   3751   3754     1   110.5600475 386.601600
   3750   3749   3751     1   109.5600471 388.275200
   3750   3749   3752     1   108.4600466 328.025600
   3751   3749   3752     1   109.5600471 388.275200
   3751   3755   3776     1   110.1100470 384.091200
   3753   3751   3755     1   108.0100461 406.684800
   3753   3751   3754     1   109.7500473 328.025600
   3754   3751   3755     1   108.0100461 406.684800
   3755   3756   3766     1   108.0100461 406.684800
   3755   3756   3767     1   108.0100461 406.684800
   3755   3757   3758     1   108.0100461 406.684800
   3755   3757   3760     1   108.0100461 406.684800
   3756   3755   3776     1   110.1100470 384.091200
   3756   3768   3769     1   109.8000471 387.438400
   3756   3768   3770     1   109.8000471 387.438400
   3757   3755   3776     1   110.1100470 384.091200
   3757   3759   3761     1   109.8000471 387.438400
   3757   3759   3762     1   109.8000471 387.438400
   3758   3757   3759     1   110.5600475 386.601600
   3758   3757   3760     1   109.7500473 328.025600
   3759   3757   3760     1   110.5600475 386.601600
   3761   3759   3763     1   108.7700466 392.459200
   3761   3759   3762     1   107.5800459 329.699200
   3762   3759   3763     1   108.7700466 392.459200
   3763   3764   3774     1   106.5500460 417.563200
   3766   3756   3768     1   110.5600475 386.601600
   3766   3756   3767     1   109.7500473 328.025600
   3767   3756   3768     1   110.5600475 386.601600
   3769   3768   3771     1   108.7700466 392.459200
   3769   3768   3770     1   107.5800459 329.699200
   3770   3768   3771     1   108.7700466 392.459200
   3771   3773   3775     1   106.5500460 417.563200
   3777   3779   3780     1   108.8800464 416.726400
   3777   3779   3782     1   108.8800464 416.726400
   3778   3777   3779     1   117.6800502 383.254400
   3779   3781   3783     1   110.5600475 386.601600
   3779   3781   3784     1   110.5600475 386.601600
   3780   3779   3781     1   109.5600471 388.275200
   3780   3779   3782     1   108.4600466 328.025600
   3781   3785   3806     1   110.1100470 384.091200
   3781   3779   3782     1   109.5600471 388.275200
   3783   3781   3785     1   108.0100461 406.684800
   3783   3781   3784     1   109.7500473 328.025600
   3784   3781   3785     1   108.0100461 406.684800
   3785   3786   3796     1   108.0100461 406.684800
   3785   3786   3797     1   108.0100461 406.684800
   3785   3787   3788     1   108.0100461 406.684800
   3785   3787   3790     1   108.0100461 406.684800
   3786   3798   3799     1   109.8000471 387.438400
   3786   3798   3800     1   109.8000471 387.438400
   3786   3785   3806     1   110.1100470 384.091200
   3787   3789   3791     1   109.8000471 387.438400
   3787   3789   3792     1   109.8000471 387.438400
   3787   3785   3806     1   110.1100470 384.091200
   3788   3787   3789     1   110.5600475 386.601600
   3788   3787   3790     1   109.7500473 328.025600
   3789   3787   3790     1   110.5600475 386.601600
   3791   3789   3793     1   108.7700466 392.459200
   3791   3789   3792     1   107.5800459 329.699200
   3792   3789   3793     1   108.7700466 392.459200
   3793   3794   3804     1   106.5500460 417.563200
   3796   3786   3798     1   110.5600475 386.601600
   3796   3786   3797     1   109.7500473 328.025600
   3797   3786   3798     1   110.5600475 386.601600
   3799   3798   3801     1   108.7700466 392.459200
   3799   3798   3800     1   107.5800459 329.699200
   3800   3798   3801     1   108.7700466 392.459200
   3801   3803   3805     1   106.5500460 417.563200
   3807   3809   3810     1   108.8800464 416.726400
   3807   3809   3812     1   108.8800464 416.726400
   3808   3807   3809     1   117.6800502 383.254400
   3809   3811   3813     1   110.5600475 386.601600
   3809   3811   3814     1   110.5600475 386.601600
   3810   3809   3811     1   109.5600471 388.275200
   3810   3809   3812     1   108.4600466 328.025600
   3811   3809   3812     1   109.5600471 388.275200
   3811   3815   3836     1   110.1100470 384.091200
   3813   3811   3815     1   108.0100461 406.684800
   3813   3811   3814     1   109.7500473 328.025600
   3814   3811   3815     1   108.0100461 406.684800
   3815   3816   3826     1   108.0100461 406.684800
   3815   3816   3827     1   108.0100461 406.684800
   3815   3817   3818     1   108.0100461 406.684800
   3815   3817   3820     1   108.0100461 406.684800
   3816   3815   3836     1   110.1100470 384.091200
   3816   3828   3829     1   109.8000471 387.438400
   3816   3828   3830     1   109.8000471 387.438400
   3817   3815   3836     1   110.1100470 384.091200
   3817   3819   3821     1   109.8000471 387.438400
   3817   3819   3822     1   109.8000471 387.438400
   3818   3817   3819     1   110.5600475 386.601600
   3818   3817   3820     1   109.7500473 328.025600
   3819   3817   3820     1   110.5600475 386.601600
   3821   3819   3823     1   108.7700466 392.459200
   3821   3819   3822     1   107.5800459 329.699200
   3822   3819   3823     1   108.7700466 392.459200
   3823   3824   3834     1   106.5500460 417.563200
   3826   3816   3828     1   110.5600475 386.601600
   3826   3816   3827     1   109.7500473 328.025600
   3827   3816   3828     1   110.5600475 386.601600
   3829   3828   3831     1   108.7700466 392.459200
   3829   3828   3830     1   107.5800459 329.699200
   3830   3828   3831     1   108.7700466 392.459200
   3831   3833   3835     1   106.5500460 417.563200
   3837   3839   3840     1   108.8800464 416.726400
   3837   3839   3842     1   108.8800464 416.726400
   3838   3837   3839     1   117.6800502 383.254400
   3839   3841   3843     1   110.5600475 386.601600
   3839   3841   3844     1   110.5600475 386.601600
   3840   3839   3841     1   109.5600471 388.275200
   3840   3839   3842     1   108.4600466 328.025600
   3841   3845   3866     1   110.1100470 384.091200
   3841   3839   3842     1   109.5600471 388.275200
   3843   3841   3845     1   108.0100461 406.684800
   3843   3841   3844     1   109.7500473 328.025600
   3844   3841   3845     1   108.0100461 406.684800
   3845   3846   3856     1   108.0100461 406.684800
   3845   3846   3857     1   108.0100461 406.684800
   3845   3847   3848     1   108.0100461 406.684800
   3845   3847   3850     1   108.0100461 406.684800
   3846   3858   3859     1   109.8000471 387.438400
   3846   3858   3860     1   109.8000471 387.438400
   3846   3845   3866     1   110.1100470 384.091200
   3847   3849   3851     1   109.8000471 387.438400
   3847   3849   3852     1   109.8000471 387.438400
   3847   3845   3866     1   110.1100470 384.091200
   3848   3847   3849     1   110.5600475 386.601600
   3848   3847   3850     1   109.7500473 328.025600
   3849   3847   3850     1   110.5600475 386.601600
   3851   3849   3853     1   108.7700466 392.459200
   3851   3849   3852     1   107.5800459 329.699200
   3852   3849   3853     1   108.7700466 392.459200
   3853   3854   3864     1   106.5500460 417.563200
   3856   3846   3858     1   110.5600475 386.601600
   3856   3846   3857     1   109.7500473 328.025600
   3857   3846   3858     1   110.5600475 386.601600
   3859   3858   3861     1   108.7700466 392.459200
   3859   3858   3860     1   107.5800459 329.699200
   3860   3858   3861     1   108.7700466 392.459200
   3861   3863   3865     1   106.5500460 417.563200
   3867   3869   3870     1   108.8800464 416.726400
   3867   3869   3872     1   108.8800464 416.726400
   3868   3867   3869     1   117.6800502 383.254400
   3869   3871   3873     1   110.5600475 386.601600
   3869   3871   3874     1   110.5600475 386.601600
   3870   3869   3871     1   109.5600471 388.275200
   3870   3869   3872     1   108.4600466 328.025600
   3871   3869   3872     1   109.5600471 388.275200
   3871   3875   3896     1   110.1100470 384.091200
   3873   3871   3875     1   108.0100461 406.684800
   3873   3871   3874     1   109.7500473 328.025600
   3874   3871   3875     1   108.0100461 406.684800
   3875   3876   3886     1   108.0100461 406.684800
   3875   3876   3887     1   108.0100461 406.684800
   3875   3877   3878     1   108.0100461 406.684800
   3875   3877   3880     1   108.0100461 406.684800
   3876   3875   3896     1   110.1100470 384.091200
   3876   3888   3889     1   109.8000471 387.438400
   3876   3888   3890     1   109.8000471 387.438400
   3877   3875   3896     1   110.1100470 384.091200
   3877   3879   3881     1   109.8000471 387.438400
   3877   3879   3882     1   109.8000471 387.438400
   3878   3877   3879     1   110.5600475 386.601600
   3878   3877   3880     1   109.7500473 328.025600
   3879   3877   3880     1   110.5600475 386.601600
   3881   3879   3883     1   108.7700466 392.459200
   3881   3879   3882     1   107.5800459 329.699200
   3882   3879   3883     1   108.7700466 392.459200
   3883   3884   3894     1   106.5500460 417.563200
   3886   3876   3888     1   110.5600475 386.601600
   3886   3876   3887     1   109.7500473 328.025600
   3887   3876   3888     1   110.5600475 386.601600
   3889   3888   3891     1   108.7700466 392.459200
   3889   3888   3890     1   107.5800459 329.699200
   3890   3888   3891     1   108.7700466 392.459200
   3891   3893   3895     1   106.5500460 417.563200
   3897   3899   3900     1   108.8800464 416.726400
   3897   3899   3902     1   108.8800464 416.726400
   3898   3897   3899     1   117.6800502 383.254400
   3899   3901   3903     1   110.5600475 386.601600
   3899   3901   3904     1   110.5600475 386.601600
   3900   3899   3901     1   109.5600471 388.275200
   3900   3899   3902     1   108.4600466 328.025600
   3901   3905   3926     1   110.1100470 384.091200
   3901   3899   3902     1   109.5600471 388.275200
   3903   3901   3905     1   108.0100461 406.684800
   3903   3901   3904     1   109.7500473 328.025600
   3904   3901   3905     1   108.0100461 406.684800
   3905   3906   3916     1   108.0100461 406.684800
   3905   3906   3917     1   108.0100461 406.684800
   3905   3907   3908     1   108.0100461 406.684800
   3905   3907   3910     1   108.0100461 406.684800
   3906   3918   3919     1   109.8000471 387.438400
   3906   3918   3920     1   109.8000471 387.438400
   3906   3905   3926     1   110.1100470 384.091200
   3907   3909   3911     1   109.8000471 387.438400
   3907   3909   3912     1   109.8000471 387.438400
   3907   3905   3926     1   110.1100470 384.091200
   3908   3907   3909     1   110.5600475 386.601600
   3908   3907   3910     1   109.7500473 328.025600
   3909   3907   3910     1   110.5600475 386.601600
   3911   3909   3913     1   108.7700466 392.459200
   3911   3909   3912     1   107.5800459 329.699200
   3912   3909   3913     1   108.7700466 392.459200
   3913   3914   3924     1   106.5500460 417.563200
   3916   3906   3918     1   110.5600475 386.601600
   3916   3906   3917     1   109.7500473 328.025600
   3917   3906   3918     1   110.5600475 386.601600
   3919   3918   3921     1   108.7700466 392.459200
   3919   3918   3920     1   107.5800459 329.699200
   3920   3918   3921     1   108.7700466 392.459200
   3921   3923   3925     1   106.5500460 417.563200
   3927   3929   3930     1   108.8800464 416.726400
   3927   3929   3932     1   108.8800464 416.726400
   3928   3927   3929     1   117.6800502 383.254400
   3929   3931   3933     1   110.5600475 386.601600
   3929   3931   3934     1   110.5600475 386.601600
   3930   3929   3931     1   109.5600471 388.275200
   3930   3929   3932     1   108.4600466 328.025600
   3931   3929   3932     1   109.5600471 388.275200
   3931   3935   3956     1   110.1100470 384.091200
   3933   3931   3935     1   108.0100461 406.684800
   3933   3931   3934     1   109.7500473 328.025600
   3934   3931   3935     1   108.0100461 406.684800
   3935   3936   3946     1   108.0100461 406.684800
   3935   3936   3947     1   108.0100461 406.684800
   3935   3937   3938     1   108.0100461 406.684800
   3935   3937   3940     1   108.0100461 406.684800
   3936   3935   3956     1   110.1100470 384.091200
   3936   3948   3949     1   109.8000471 387.438400
   3936   3948   3950     1   109.8000471 387.438400
   3937   3935   3956     1   110.1100470 384.091200
   3937   3939   3941     1   109.8000471 387.438400
   3937   3939   3942     1   109.8000471 387.438400
   3938   3937   3939     1   110.5600475 386.601600
   3938   3937   3940     1   109.7500473 328.025600
   3939   3937   3940     1   110.5600475 386.601600
   3941   3939   3943     1   108.7700466 392.459200
   3941   3939   3942     1   107.5800459 329.699200
   3942   3939   3943     1   108.7700466 392.459200
   3943   3944   3954     1   106.5500460 417.563200
   3946   3936   3948     1   110.5600475 386.601600
   3946   3936   3947     1   109.7500473 328.025600
   3947   3936   3948     1   110.5600475 386.601600
   3949   3948   3951     1   108.7700466 392.459200
   3949   3948   3950     1   107.5800459 329.699200
   3950   3948   3951     1   108.7700466 392.459200
   3951   3953   3955     1   106.5500460 417.563200
   3957   3959   3960     1   108.8800464 416.726400
   3957   3959   3962     1   108.8800464 416.726400
   3958   3957   3959     1   117.6800502 383.254400
   3959   3961   3963     1   110.5600475 386.601600
   3959   3961   3964     1   110.5600475 386.601600
   3960   3959   3961     1   109.5600471 388.275200
   3960   3959   3962     1   108.4600466 328.025600
   3961   3965   3986     1   110.1100470 384.091200
   3961   3959   3962     1   109.5600471 388.275200
   3963   3961   3965     1   108.0100461 406.684800
   3963   3961   3964     1   109.7500473 328.025600
   3964   3961   3965     1   108.0100461 406.684800
   3965   3966   3976     1   108.0100461 406.684800
   3965   3966   3977     1   108.0100461 406.684800
   3965   3967   3968     1   108.0100461 406.684800
   3965   3967   3970     1   108.0100461 406.684800
   3966   3978   3979     1   109.8000471 387.438400
   3966   3978   3980     1   109.8000471 387.438400
   3966   3965   3986     1   110.1100470 384.091200
   3967   3969   3971     1   109.8000471 387.438400
   3967   3969   3972     1   109.8000471 387.438400
   3967   3965   3986     1   110.1100470 384.091200
   3968   3967   3969     1   110.5600475 386.601600
   3968   3967   3970     1   109.7500473 328.025600
   3969   3967   3970     1   110.5600475 386.601600
   3971   3969   3973     1   108.7700466 392.459200
   3971   3969   3972     1   107.5800459 329.699200
   3972   3969   3973     1   108.7700466 392.459200
   3973   3974   3984     1   106.5500460 417.563200
   3976   3966   3978     1   110.5600475 386.601600
   3976   3966   3977     1   109.7500473 328.025600
   3977   3966   3978     1   110.5600475 386.601600
   3979   3978   3981     1   108.7700466 392.459200
   3979   3978   3980     1   107.5800459 329.699200
   3980   3978   3981     1   108.7700466 392.459200
   3981   3983   3985     1   106.5500460 417.563200
   3987   3989   3990     1   108.8800464 416.726400
   3987   3989   3992     1   108.8800464 416.726400
   3988   3987   3989     1   117.6800502 383.254400
   3989   3991   3993     1   110.5600475 386.601600
   3989   3991   3994     1   110.5600475 386.601600
   3990   3989   3991     1   109.5600471 388.275200
   3990   3989   3992     1   108.4600466 328.025600
   3991   3989   3992     1   109.5600471 388.275200
   3991   3995   4016     1   110.1100470 384.091200
   3993   3991   3995     1   108.0100461 406.684800
   3993   3991   3994     1   109.7500473 328.025600
   3994   3991   3995     1   108.0100461 406.684800
   3995   3996   4006     1   108.0100461 406.684800
   3995   3996   4007     1   108.0100461 406.684800
   3995   3997   3998     1   108.0100461 406.684800
   3995   3997   4000     1   108.0100461 406.684800
   3996   3995   4016     1   110.1100470 384.091200
   3996   4008   4009     1   109.8000471 387.438400
   3996   4008   4010     1   109.8000471 387.438400
   3997   3995   4016     1   110.1100470 384.091200
   3997   3999   4001     1   109.8000471 387.438400
   3997   3999   4002     1   109.8000471 387.438400
   3998   3997   3999     1   110.5600475 386.601600
   3998   3997   4000     1   109.7500473 328.025600
   3999   3997   4000     1   110.5600475 386.601600
   4001   3999   4003     1   108.7700466 392.459200
   4001   3999   4002     1   107.5800459 329.699200
   4002   3999   4003     1   108.7700466 392.459200
   4003   4004   4014     1   106.5500460 417.563200
   4006   3996   4008     1   110.5600475 386.601600
   4006   3996   4007     1   109.7500473 328.025600
   4007   3996   4008     1   110.5600475 386.601600
   4009   4008   4011     1   108.7700466 392.459200
   4009   4008   4010     1   107.5800459 329.699200
   4010   4008   4011     1   108.7700466 392.459200
   4011   4013   4015     1   106.5500460 417.563200
   4017   4019   4020     1   108.8800464 416.726400
   4017   4019   4022     1   108.8800464 416.726400
   4018   4017   4019     1   117.6800502 383.254400
   4019   4021   4023     1   110.5600475 386.601600
   4019   4021   4024     1   110.5600475 386.601600
   4020   4019   4021     1   109.5600471 388.275200
   4020   4019   4022     1   108.4600466 328.025600
   4021   4025   4046     1   110.1100470 384.091200
   4021   4019   4022     1   109.5600471 388.275200
   4023   4021   4025     1   108.0100461 406.684800
   4023   4021   4024     1   109.7500473 328.025600
   4024   4021   4025     1   108.0100461 406.684800
   4025   4026   4036     1   108.0100461 406.684800
   4025   4026   4037     1   108.0100461 406.684800
   4025   4027   4028     1   108.0100461 406.684800
   4025   4027   4030     1   108.0100461 406.684800
   4026   4038   4039     1   109.8000471 387.438400
   4026   4038   4040     1   109.8000471 387.438400
   4026   4025   4046     1   110.1100470 384.091200
   4027   4029   4031     1   109.8000471 387.438400
   4027   4029   4032     1   109.8000471 387.438400
   4027   4025   4046     1   110.1100470 384.091200
   4028   4027   4029     1   110.5600475 386.601600
   4028   4027   4030     1   109.7500473 328.025600
   4029   4027   4030     1   110.5600475 386.601600
   4031   4029   4033     1   108.7700466 392.459200
   4031   4029   4032     1   107.5800459 329.699200
   4032   4029   4033     1   108.7700466 392.459200
   4033   4034   4044     1   106.5500460 417.563200
   4036   4026   4038     1   110.5600475 386.601600
   4036   4026   4037     1   109.7500473 328.025600
   4037   4026   4038     1   110.5600475 386.601600
   4039   4038   4041     1   108.7700466 392.459200
   4039   4038   4040     1   107.5800459 329.699200
   4040   4038   4041     1   108.7700466 392.459200
   4041   4043   4045     1   106.5500460 417.563200
   4047   4049   4050     1   108.8800464 416.726400
   4047   4049   4052     1   108.8800464 416.726400
   4048   4047   4049     1   117.6800502 383.254400
   4049   4051   4053     1   110.5600475 386.601600
   4049   4051   4054     1   110.5600475 386.601600
   4050   4049   4051     1   109.5600471 388.275200
   4050   4049   4052     1   108.4600466 328.025600
   4051   4049   4052     1   109.5600471 388.275200
   4051   4055   4076     1   110.1100470 384.091200
   4053   4051   4055     1   108.0100461 406.684800
   4053   4051   4054     1   109.7500473 328.025600
   4054   4051   4055     1   108.0100461 406.684800
   4055   4056   4066     1   108.0100461 406.684800
   4055   4056   4067     1   108.0100461 406.684800
   4055   4057   4058     1   108.0100461 406.684800
   4055   4057   4060     1   108.0100461 406.684800
   4056   4055   4076     1   110.1100470 384.091200
   4056   4068   4069     1   109.8000471 387.438400
   4056   4068   4070     1   109.8000471 387.438400
   4057   4055   4076     1   110.1100470 384.091200
   4057   4059   4061     1   109.8000471 387.438400
   4057   4059   4062     1   109.8000471 387.438400
   4058   4057   4059     1   110.5600475 386.601600
   4058   4057   4060     1   109.7500473 328.025600
   4059   4057   4060     1   110.5600475 386.601600
   4061   4059   4063     1   108.7700466 392.459200
   4061   4059   4062     1   107.5800459 329.699200
   4062   4059   4063     1   108.7700466 392.459200
   4063   4064   4074     1   106.5500460 417.563200
   4066   4056   4068     1   110.5600475 386.601600
   4066   4056   4067     1   109.7500473 328.025600
   4067   4056   4068     1   110.5600475 386.601600
   4069   4068   4071     1   108.7700466 392.459200
   4069   4068   4070     1   107.5800459 329.699200
   4070   4068   4071     1   108.7700466 392.459200
   4071   4073   4075     1   106.5500460 417.563200
   4077   4079   4080     1   108.8800464 416.726400
   4077   4079   4082     1   108.8800464 416.726400
   4078   4077   4079     1   117.6800502 383.254400
   4079   4081   4083     1   110.5600475 386.601600
   4079   4081   4084     1   110.5600475 386.601600
   4080   4079   4081     1   109.5600471 388.275200
   4080   4079   4082     1   108.4600466 328.025600
   4081   4085   4106     1   110.1100470 384.091200
   4081   4079   4082     1   109.5600471 388.275200
   4083   4081   4085     1   108.0100461 406.684800
   4083   4081   4084     1   109.7500473 328.025600
   4084   4081   4085     1   108.0100461 406.684800
   4085   4086   4096     1   108.0100461 406.684800
   4085   4086   4097     1   108.0100461 406.684800
   4085   4087   4088     1   108.0100461 406.684800
   4085   4087   4090     1   108.0100461 406.684800
   4086   4098   4099     1   109.8000471 387.438400
   4086   4098   4100     1   109.8000471 387.438400
   4086   4085   4106     1   110.1100470 384.091200
   4087   4089   4091     1   109.8000471 387.438400
   4087   4089   4092     1   109.8000471 387.438400
   4087   4085   4106     1   110.1100470 384.091200
   4088   4087   4089     1   110.5600475 386.601600
   4088   4087   4090     1   109.7500473 328.025600
   4089   4087   4090     1   110.5600475 386.601600
   4091   4089   4093     1   108.7700466 392.459200
   4091   4089   4092     1   107.5800459 329.699200
   4092   4089   4093     1   108.7700466 392.459200
   4093   4094   4104     1   106.5500460 417.563200
   4096   4086   4098     1   110.5600475 386.601600
   4096   4086   4097     1   109.7500473 328.025600
   4097   4086   4098     1   110.5600475 386.601600
   4099   4098   4101     1   108.7700466 392.459200
   4099   4098   4100     1   107.5800459 329.699200
   4100   4098   4101     1   108.7700466 392.459200
   4101   4103   4105     1   106.5500460 417.563200
   4107   4109   4110     1   108.8800464 416.726400
   4107   4109   4112     1   108.8800464 416.726400
   4108   4107   4109     1   117.6800502 383.254400
   4109   4111   4113     1   110.5600475 386.601600
   4109   4111   4114     1   110.5600475 386.601600
   4110   4109   4111     1   109.5600471 388.275200
   4110   4109   4112     1   108.4600466 328.025600
   4111   4109   4112     1   109.5600471 388.275200
   4111   4115   4136     1   110.1100470 384.091200
   4113   4111   4115     1   108.0100461 406.684800
   4113   4111   4114     1   109.7500473 328.025600
   4114   4111   4115     1   108.0100461 406.684800
   4115   4116   4126     1   108.0100461 406.684800
   4115   4116   4127     1   108.0100461 406.684800
   4115   4117   4118     1   108.0100461 406.684800
   4115   4117   4120     1   108.0100461 406.684800
   4116   4115   4136     1   110.1100470 384.091200
   4116   4128   4129     1   109.8000471 387.438400
   4116   4128   4130     1   109.8000471 387.438400
   4117   4115   4136     1   110.1100470 384.091200
   4117   4119   4121     1   109.8000471 387.438400
   4117   4119   4122     1   109.8000471 387.438400
   4118   4117   4119     1   110.5600475 386.601600
   4118   4117   4120     1   109.7500473 328.025600
   4119   4117   4120     1   110.5600475 386.601600
   4121   4119   4123     1   108.7700466 392.459200
   4121   4119   4122     1   107.5800459 329.699200
   4122   4119   4123     1   108.7700466 392.459200
   4123   4124   4134     1   106.5500460 417.563200
   4126   4116   4128     1   110.5600475 386.601600
   4126   4116   4127     1   109.7500473 328.025600
   4127   4116   4128     1   110.5600475 386.601600
   4129   4128   4131     1   108.7700466 392.459200
   4129   4128   4130     1   107.5800459 329.699200
   4130   4128   4131     1   108.7700466 392.459200
   4131   4133   4135     1   106.5500460 417.563200
   4137   4139   4140     1   108.8800464 416.726400
   4137   4139   4142     1   108.8800464 416.726400
   4138   4137   4139     1   117.6800502 383.254400
   4139   4141   4143     1   110.5600475 386.601600
   4139   4141   4144     1   110.5600475 386.601600
   4140   4139   4141     1   109.5600471 388.275200
   4140   4139   4142     1   108.4600466 328.025600
   4141   4145   4166     1   110.1100470 384.091200
   4141   4139   4142     1   109.5600471 388.275200
   4143   4141   4145     1   108.0100461 406.684800
   4143   4141   4144     1   109.7500473 328.025600
   4144   4141   4145     1   108.0100461 406.684800
   4145   4146   4156     1   108.0100461 406.684800
   4145   4146   4157     1   108.0100461 406.684800
   4145   4147   4148     1   108.0100461 406.684800
   4145   4147   4150     1   108.0100461 406.684800
   4146   4158   4159     1   109.8000471 387.438400
   4146   4158   4160     1   109.8000471 387.438400
   4146   4145   4166     1   110.1100470 384.091200
   4147   4149   4151     1   109.8000471 387.438400
   4147   4149   4152     1   109.8000471 387.438400
   4147   4145   4166     1   110.1100470 384.091200
   4148   4147   4149     1   110.5600475 386.601600
   4148   4147   4150     1   109.7500473 328.025600
   4149   4147   4150     1   110.5600475 386.601600
   4151   4149   4153     1   108.7700466 392.459200
   4151   4149   4152     1   107.5800459 329.699200
   4152   4149   4153     1   108.7700466 392.459200
   4153   4154   4164     1   106.5500460 417.563200
   4156   4146   4158     1   110.5600475 386.601600
   4156   4146   4157     1   109.7500473 328.025600
   4157   4146   4158     1   110.5600475 386.601600
   4159   4158   4161     1   108.7700466 392.459200
   4159   4158   4160     1   107.5800459 329.699200
   4160   4158   4161     1   108.7700466 392.459200
   4161   4163   4165     1   106.5500460 417.563200
   4167   4169   4170     1   108.8800464 416.726400
   4167   4169   4172     1   108.8800464 416.726400
   4168   4167   4169     1   117.6800502 383.254400
   4169   4171   4173     1   110.5600475 386.601600
   4169   4171   4174     1   110.5600475 386.601600
   4170   4169   4171     1   109.5600471 388.275200
   4170   4169   4172     1   108.4600466 328.025600
   4171   4169   4172     1   109.5600471 388.275200
   4171   4175   4196     1   110.1100470 384.091200
   4173   4171   4175     1   108.0100461 406.684800
   4173   4171   4174     1   109.7500473 328.025600
   4174   4171   4175     1   108.0100461 406.684800
   4175   4176   4186     1   108.0100461 406.684800
   4175   4176   4187     1   108.0100461 406.684800
   4175   4177   4178     1   108.0100461 406.684800
   4175   4177   4180     1   108.0100461 406.684800
   4176   4175   4196     1   110.1100470 384.091200
   4176   4188   4189     1   109.8000471 387.438400
   4176   4188   4190     1   109.8000471 387.438400
   4177   4175   4196     1   110.1100470 384.091200
   4177   4179   4181     1   109.8000471 387.438400
   4177   4179   4182     1   109.8000471 387.438400
   4178   4177   4179     1   110.5600475 386.601600
   4178   4177   4180     1   109.7500473 328.025600
   4179   4177   4180     1   110.5600475 386.601600
   4181   4179   4183     1   108.7700466 392.459200
   4181   4179   4182     1   107.5800459 329.699200
   4182   4179   4183     1   108.7700466 392.459200
   4183   4184   4194     1   106.5500460 417.563200
   4186   4176   4188     1   110.5600475 386.601600
   4186   4176   4187     1   109.7500473 328.025600
   4187   4176   4188     1   110.5600475 386.601600
   4189   4188   4191     1   108.7700466 392.459200
   4189   4188   4190     1   107.5800459 329.699200
   4190   4188   4191     1   108.7700466 392.459200
   4191   4193   4195     1   106.5500460 417.563200
   4197   4199   4200     1   108.8800464 416.726400
   4197   4199   4202     1   108.8800464 416.726400
   4198   4197   4199     1   117.6800502 383.254400
   4199   4201   4203     1   110.5600475 386.601600
   4199   4201   4204     1   110.5600475 386.601600
   4200   4199   4201     1   109.5600471 388.275200
   4200   4199   4202     1   108.4600466 328.025600
   4201   4205   4226     1   110.1100470 384.091200
   4201   4199   4202     1   109.5600471 388.275200
   4203   4201   4205     1   108.0100461 406.684800
   4203   4201   4204     1   109.7500473 328.025600
   4204   4201   4205     1   108.0100461 406.684800
   4205   4206   4216     1   108.0100461 406.684800
   4205   4206   4217     1   108.0100461 406.684800
   4205   4207   4208     1   108.0100461 406.684800
   4205   4207   4210     1   108.0100461 406.684800
   4206   4218   4219     1   109.8000471 387.438400
   4206   4218   4220     1   109.8000471 387.438400
   4206   4205   4226     1   110.1100470 384.091200
   4207   4209   4211     1   109.8000471 387.438400
   4207   4209   4212     1   109.8000471 387.438400
   4207   4205   4226     1   110.1100470 384.091200
   4208   4207   4209     1   110.5600475 386.601600
   4208   4207   4210     1   109.7500473 328.025600
   4209   4207   4210     1   110.5600475 386.601600
   4211   4209   4213     1   108.7700466 392.459200
   4211   4209   4212     1   107.5800459 329.699200
   4212   4209   4213     1   108.7700466 392.459200
   4213   4214   4224     1   106.5500460 417.563200
   4216   4206   4218     1   110.5600475 386.601600
   4216   4206   4217     1   109.7500473 328.025600
   4217   4206   4218     1   110.5600475 386.601600
   4219   4218   4221     1   108.7700466 392.459200
   4219   4218   4220     1   107.5800459 329.699200
   4220   4218   4221     1   108.7700466 392.459200
   4221   4223   4225     1   106.5500460 417.563200
   4227   4229   4230     1   108.8800464 416.726400
   4227   4229   4232     1   108.8800464 416.726400
   4228   4227   4229     1   117.6800502 383.254400
   4229   4231   4233     1   110.5600475 386.601600
   4229   4231   4234     1   110.5600475 386.601600
   4230   4229   4231     1   109.5600471 388.275200
   4230   4229   4232     1   108.4600466 328.025600
   4231   4229   4232     1   109.5600471 388.275200
   4231   4235   4256     1   110.1100470 384.091200
   4233   4231   4235     1   108.0100461 406.684800
   4233   4231   4234     1   109.7500473 328.025600
   4234   4231   4235     1   108.0100461 406.684800
   4235   4236   4246     1   108.0100461 406.684800
   4235   4236   4247     1   108.0100461 406.684800
   4235   4237   4238     1   108.0100461 406.684800
   4235   4237   4240     1   108.0100461 406.684800
   4236   4235   4256     1   110.1100470 384.091200
   4236   4248   4249     1   109.8000471 387.438400
   4236   4248   4250     1   109.8000471 387.438400
   4237   4235   4256     1   110.1100470 384.091200
   4237   4239   4241     1   109.8000471 387.438400
   4237   4239   4242     1   109.8000471 387.438400
   4238   4237   4239     1   110.5600475 386.601600
   4238   4237   4240     1   109.7500473 328.025600
   4239   4237   4240     1   110.5600475 386.601600
   4241   4239   4243     1   108.7700466 392.459200
   4241   4239   4242     1   107.5800459 329.699200
   4242   4239   4243     1   108.7700466 392.459200
   4243   4244   4254     1   106.5500460 417.563200
   4246   4236   4248     1   110.5600475 386.601600
   4246   4236   4247     1   109.7500473 328.025600
   4247   4236   4248     1   110.5600475 386.601600
   4249   4248   4251     1   108.7700466 392.459200
   4249   4248   4250     1   107.5800459 329.699200
   4250   4248   4251     1   108.7700466 392.459200
   4251   4253   4255     1   106.5500460 417.563200
   4257   4259   4260     1   108.8800464 416.726400
   4257   4259   4262     1   108.8800464 416.726400
   4258   4257   4259     1   117.6800502 383.254400
   4259   4261   4263     1   110.5600475 386.601600
   4259   4261   4264     1   110.5600475 386.601600
   4260   4259   4261     1   109.5600471 388.275200
   4260   4259   4262     1   108.4600466 328.025600
   4261   4265   4286     1   110.1100470 384.091200
   4261   4259   4262     1   109.5600471 388.275200
   4263   4261   4265     1   108.0100461 406.684800
   4263   4261   4264     1   109.7500473 328.025600
   4264   4261   4265     1   108.0100461 406.684800
   4265   4266   4276     1   108.0100461 406.684800
   4265   4266   4277     1   108.0100461 406.684800
   4265   4267   4268     1   108.0100461 406.684800
   4265   4267   4270     1   108.0100461 406.684800
   4266   4278   4279     1   109.8000471 387.438400
   4266   4278   4280     1   109.8000471 387.438400
   4266   4265   4286     1   110.1100470 384.091200
   4267   4269   4271     1   109.8000471 387.438400
   4267   4269   4272     1   109.8000471 387.438400
   4267   4265   4286     1   110.1100470 384.091200
   4268   4267   4269     1   110.5600475 386.601600
   4268   4267   4270     1   109.7500473 328.025600
   4269   4267   4270     1   110.5600475 386.601600
   4271   4269   4273     1   108.7700466 392.459200
   4271   4269   4272     1   107.5800459 329.699200
   4272   4269   4273     1   108.7700466 392.459200
   4273   4274   4284     1   106.5500460 417.563200
   4276   4266   4278     1   110.5600475 386.601600
   4276   4266   4277     1   109.7500473 328.025600
   4277   4266   4278     1   110.5600475 386.601600
   4279   4278   4281     1   108.7700466 392.459200
   4279   4278   4280     1   107.5800459 329.699200
   4280   4278   4281     1   108.7700466 392.459200
   4281   4283   4285     1   106.5500460 417.563200
   4287   4289   4290     1   108.8800464 416.726400
   4287   4289   4292     1   108.8800464 416.726400
   4288   4287   4289     1   117.6800502 383.254400
   4289   4291   4293     1   110.5600475 386.601600
   4289   4291   4294     1   110.5600475 386.601600
   4290   4289   4291     1   109.5600471 388.275200
   4290   4289   4292     1   108.4600466 328.025600
   4291   4289   4292     1   109.5600471 388.275200
   4291   4295   4316     1   110.1100470 384.091200
   4293   4291   4295     1   108.0100461 406.684800
   4293   4291   4294     1   109.7500473 328.025600
   4294   4291   4295     1   108.0100461 406.684800
   4295   4296   4306     1   108.0100461 406.684800
   4295   4296   4307     1   108.0100461 406.684800
   4295   4297   4298     1   108.0100461 406.684800
   4295   4297   4300     1   108.0100461 406.684800
   4296   4295   4316     1   110.1100470 384.091200
   4296   4308   4309     1   109.8000471 387.438400
   4296   4308   4310     1   109.8000471 387.438400
   4297   4295   4316     1   110.1100470 384.091200
   4297   4299   4301     1   109.8000471 387.438400
   4297   4299   4302     1   109.8000471 387.438400
   4298   4297   4299     1   110.5600475 386.601600
   4298   4297   4300     1   109.7500473 328.025600
   4299   4297   4300     1   110.5600475 386.601600
   4301   4299   4303     1   108.7700466 392.459200
   4301   4299   4302     1   107.5800459 329.699200
   4302   4299   4303     1   108.7700466 392.459200
   4303   4304   4314     1   106.5500460 417.563200
   4306   4296   4308     1   110.5600475 386.601600
   4306   4296   4307     1   109.7500473 328.025600
   4307   4296   4308     1   110.5600475 386.601600
   4309   4308   4311     1   108.7700466 392.459200
   4309   4308   4310     1   107.5800459 329.699200
   4310   4308   4311     1   108.7700466 392.459200
   4311   4313   4315     1   106.5500460 417.563200
   4317   4319   4320     1   108.8800464 416.726400
   4317   4319   4322     1   108.8800464 416.726400
   4318   4317   4319     1   117.6800502 383.254400
   4319   4321   4323     1   110.5600475 386.601600
   4319   4321   4324     1   110.5600475 386.601600
   4320   4319   4321     1   109.5600471 388.275200
   4320   4319   4322     1   108.4600466 328.025600
   4321   4325   4346     1   110.1100470 384.091200
   4321   4319   4322     1   109.5600471 388.275200
   4323   4321   4325     1   108.0100461 406.684800
   4323   4321   4324     1   109.7500473 328.025600
   4324   4321   4325     1   108.0100461 406.684800
   4325   4326   4336     1   108.0100461 406.684800
   4325   4326   4337     1   108.0100461 406.684800
   4325   4327   4328     1   108.0100461 406.684800
   4325   4327   4330     1   108.0100461 406.684800
   4326   4338   4339     1   109.8000471 387.438400
   4326   4338   4340     1   109.8000471 387.438400
   4326   4325   4346     1   110.1100470 384.091200
   4327   4329   4331     1   109.8000471 387.438400
   4327   4329   4332     1   109.8000471 387.438400
   4327   4325   4346     1   110.1100470 384.091200
   4328   4327   4329     1   110.5600475 386.601600
   4328   4327   4330     1   109.7500473 328.025600
   4329   4327   4330     1   110.5600475 386.601600
   4331   4329   4333     1   108.7700466 392.459200
   4331   4329   4332     1   107.5800459 329.699200
   4332   4329   4333     1   108.7700466 392.459200
   4333   4334   4344     1   106.5500460 417.563200
   4336   4326   4338     1   110.5600475 386.601600
   4336   4326   4337     1   109.7500473 328.025600
   4337   4326   4338     1   110.5600475 386.601600
   4339   4338   4341     1   108.7700466 392.459200
   4339   4338   4340     1   107.5800459 329.699200
   4340   4338   4341     1   108.7700466 392.459200
   4341   4343   4345     1   106.5500460 417.563200
   4347   4349   4350     1   108.8800464 416.726400
   4347   4349   4352     1   108.8800464 416.726400
   4348   4347   4349     1   117.6800502 383.254400
   4349   4351   4353     1   110.5600475 386.601600
   4349   4351   4354     1   110.5600475 386.601600
   4350   4349   4351     1   109.5600471 388.275200
   4350   4349   4352     1   108.4600466 328.025600
   4351   4349   4352     1   109.5600471 388.275200
   4351   4355   4376     1   110.1100470 384.091200
   4353   4351   4355     1   108.0100461 406.684800
   4353   4351   4354     1   109.7500473 328.025600
   4354   4351   4355     1   108.0100461 406.684800
   4355   4356   4366     1   108.0100461 406.684800
   4355   4356   4367     1   108.0100461 406.684800
   4355   4357   4358     1   108.0100461 406.684800
   4355   4357   4360     1   108.0100461 406.684800
   4356   4355   4376     1   110.1100470 384.091200
   4356   4368   4369     1   109.8000471 387.438400
   4356   4368   4370     1   109.8000471 387.438400
   4357   4355   4376     1   110.1100470 384.091200
   4357   4359   4361     1   109.8000471 387.438400
   4357   4359   4362     1   109.8000471 387.438400
   4358   4357   4359     1   110.5600475 386.601600
   4358   4357   4360     1   109.7500473 328.025600
   4359   4357   4360     1   110.5600475 386.601600
   4361   4359   4363     1   108.7700466 392.459200
   4361   4359   4362     1   107.5800459 329.699200
   4362   4359   4363     1   108.7700466 392.459200
   4363   4364   4374     1   106.5500460 417.563200
   4366   4356   4368     1   110.5600475 386.601600
   4366   4356   4367     1   109.7500473 328.025600
   4367   4356   4368     1   110.5600475 386.601600
   4369   4368   4371     1   108.7700466 392.459200
   4369   4368   4370     1   107.5800459 329.699200
   4370   4368   4371     1   108.7700466 392.459200
   4371   4373   4375     1   106.5500460 417.563200
   4377   4379   4380     1   108.8800464 416.726400
   4377   4379   4382     1   108.8800464 416.726400
   4378   4377   4379     1   117.6800502 383.254400
   4379   4381   4383     1   110.5600475 386.601600
   4379   4381   4384     1   110.5600475 386.601600
   4380   4379   4381     1   109.5600471 388.275200
   4380   4379   4382     1   108.4600466 328.025600
   4381   4385   4406     1   110.1100470 384.091200
   4381   4379   4382     1   109.5600471 388.275200
   4383   4381   4385     1   108.0100461 406.684800
   4383   4381   4384     1   109.7500473 328.025600
   4384   4381   4385     1   108.0100461 406.684800
   4385   4386   4396     1   108.0100461 406.684800
   4385   4386   4397     1   108.0100461 406.684800
   4385   4387   4388     1   108.0100461 406.684800
   4385   4387   4390     1   108.0100461 406.684800
   4386   4398   4399     1   109.8000471 387.438400
   4386   4398   4400     1   109.8000471 387.438400
   4386   4385   4406     1   110.1100470 384.091200
   4387   4389   4391     1   109.8000471 387.438400
   4387   4389   4392     1   109.8000471 387.438400
   4387   4385   4406     1   110.1100470 384.091200
   4388   4387   4389     1   110.5600475 386.601600
   4388   4387   4390     1   109.7500473 328.025600
   4389   4387   4390     1   110.5600475 386.601600
   4391   4389   4393     1   108.7700466 392.459200
   4391   4389   4392     1   107.5800459 329.699200
   4392   4389   4393     1   108.7700466 392.459200
   4393   4394   4404     1   106.5500460 417.563200
   4396   4386   4398     1   110.5600475 386.601600
   4396   4386   4397     1   109.7500473 328.025600
   4397   4386   4398     1   110.5600475 386.601600
   4399   4398   4401     1   108.7700466 392.459200
   4399   4398   4400     1   107.5800459 329.699200
   4400   4398   4401     1   108.7700466 392.459200
   4401   4403   4405     1   106.5500460 417.563200
   4407   4409   4410     1   108.8800464 416.726400
   4407   4409   4412     1   108.8800464 416.726400
   4408   4407   4409     1   117.6800502 383.254400
   4409   4411   4413     1   110.5600475 386.601600
   4409   4411   4414     1   110.5600475 386.601600
   4410   4409   4411     1   109.5600471 388.275200
   4410   4409   4412     1   108.4600466 328.025600
   4411   4409   4412     1   109.5600471 388.275200
   4411   4415   4436     1   110.1100470 384.091200
   4413   4411   4415     1   108.0100461 406.684800
   4413   4411   4414     1   109.7500473 328.025600
   4414   4411   4415     1   108.0100461 406.684800
   4415   4416   4426     1   108.0100461 406.684800
   4415   4416   4427     1   108.0100461 406.684800
   4415   4417   4418     1   108.0100461 406.684800
   4415   4417   4420     1   108.0100461 406.684800
   4416   4415   4436     1   110.1100470 384.091200
   4416   4428   4429     1   109.8000471 387.438400
   4416   4428   4430     1   109.8000471 387.438400
   4417   4415   4436     1   110.1100470 384.091200
   4417   4419   4421     1   109.8000471 387.438400
   4417   4419   4422     1   109.8000471 387.438400
   4418   4417   4419     1   110.5600475 386.601600
   4418   4417   4420     1   109.7500473 328.025600
   4419   4417   4420     1   110.5600475 386.601600
   4421   4419   4423     1   108.7700466 392.459200
   4421   4419   4422     1   107.5800459 329.699200
   4422   4419   4423     1   108.7700466 392.459200
   4423   4424   4434     1   106.5500460 417.563200
   4426   4416   4428     1   110.5600475 386.601600
   4426   4416   4427     1   109.7500473 328.025600
   4427   4416   4428     1   110.5600475 386.601600
   4429   4428   4431     1   108.7700466 392.459200
   4429   4428   4430     1   107.5800459 329.699200
   4430   4428   4431     1   108.7700466 392.459200
   4431   4433   4435     1   106.5500460 417.563200
   4437   4439   4440     1   108.8800464 416.726400
   4437   4439   4442     1   108.8800464 416.726400
   4438   4437   4439     1   117.6800502 383.254400
   4439   4441   4443     1   110.5600475 386.601600
   4439   4441   4444     1   110.5600475 386.601600
   4440   4439   4441     1   109.5600471 388.275200
   4440   4439   4442     1   108.4600466 328.025600
   4441   4445   4466     1   110.1100470 384.091200
   4441   4439   4442     1   109.5600471 388.275200
   4443   4441   4445     1   108.0100461 406.684800
   4443   4441   4444     1   109.7500473 328.025600
   4444   4441   4445     1   108.0100461 406.684800
   4445   4446   4456     1   108.0100461 406.684800
   4445   4446   4457     1   108.0100461 406.684800
   4445   4447   4448     1   108.0100461 406.684800
   4445   4447   4450     1   108.0100461 406.684800
   4446   4458   4459     1   109.8000471 387.438400
   4446   4458   4460     1   109.8000471 387.438400
   4446   4445   4466     1   110.1100470 384.091200
   4447   4449   4451     1   109.8000471 387.438400
   4447   4449   4452     1   109.8000471 387.438400
   4447   4445   4466     1   110.1100470 384.091200
   4448   4447   4449     1   110.5600475 386.601600
   4448   4447   4450     1   109.7500473 328.025600
   4449   4447   4450     1   110.5600475 386.601600
   4451   4449   4453     1   108.7700466 392.459200
   4451   4449   4452     1   107.5800459 329.699200
   4452   4449   4453     1   108.7700466 392.459200
   4453   4454   4464     1   106.5500460 417.563200
   4456   4446   4458     1   110.5600475 386.601600
   4456   4446   4457     1   109.7500473 328.025600
   4457   4446   4458     1   110.5600475 386.601600
   4459   4458   4461     1   108.7700466 392.459200
   4459   4458   4460     1   107.5800459 329.699200
   4460   4458   4461     1   108.7700466 392.459200
   4461   4463   4465     1   106.5500460 417.563200
   4467   4469   4470     1   108.8800464 416.726400
   4467   4469   4472     1   108.8800464 416.726400
   4468   4467   4469     1   117.6800502 383.254400
   4469   4471   4473     1   110.5600475 386.601600
   4469   4471   4474     1   110.5600475 386.601600
   4470   4469   4471     1   109.5600471 388.275200
   4470   4469   4472     1   108.4600466 328.025600
   4471   4469   4472     1   109.5600471 388.275200
   4471   4475   4496     1   110.1100470 384.091200
   4473   4471   4475     1   108.0100461 406.684800
   4473   4471   4474     1   109.7500473 328.025600
   4474   4471   4475     1   108.0100461 406.684800
   4475   4476   4486     1   108.0100461 406.684800
   4475   4476   4487     1   108.0100461 406.684800
   4475   4477   4478     1   108.0100461 406.684800
   4475   4477   4480     1   108.0100461 406.684800
   4476   4475   4496     1   110.1100470 384.091200
   4476   4488   4489     1   109.8000471 387.438400
   4476   4488   4490     1   109.8000471 387.438400
   4477   4475   4496     1   110.1100470 384.091200
   4477   4479   4481     1   109.8000471 387.438400
   4477   4479   4482     1   109.8000471 387.438400
   4478   4477   4479     1   110.5600475 386.601600
   4478   4477   4480     1   109.7500473 328.025600
   4479   4477   4480     1   110.5600475 386.601600
   4481   4479   4483     1   108.7700466 392.459200
   4481   4479   4482     1   107.5800459 329.699200
   4482   4479   4483     1   108.7700466 392.459200
   4483   4484   4494     1   106.5500460 417.563200
   4486   4476   4488     1   110.5600475 386.601600
   4486   4476   4487     1   109.7500473 328.025600
   4487   4476   4488     1   110.5600475 386.601600
   4489   4488   4491     1   108.7700466 392.459200
   4489   4488   4490     1   107.5800459 329.699200
   4490   4488   4491     1   108.7700466 392.459200
   4491   4493   4495     1   106.5500460 417.563200
   4497   4499   4500     1   108.8800464 416.726400
   4497   4499   4502     1   108.8800464 416.726400
   4498   4497   4499     1   117.6800502 383.254400
   4499   4501   4503     1   110.5600475 386.601600
   4499   4501   4504     1   110.5600475 386.601600
   4500   4499   4501     1   109.5600471 388.275200
   4500   4499   4502     1   108.4600466 328.025600
   4501   4505   4526     1   110.1100470 384.091200
   4501   4499   4502     1   109.5600471 388.275200
   4503   4501   4505     1   108.0100461 406.684800
   4503   4501   4504     1   109.7500473 328.025600
   4504   4501   4505     1   108.0100461 406.684800
   4505   4506   4516     1   108.0100461 406.684800
   4505   4506   4517     1   108.0100461 406.684800
   4505   4507   4508     1   108.0100461 406.684800
   4505   4507   4510     1   108.0100461 406.684800
   4506   4518   4519     1   109.8000471 387.438400
   4506   4518   4520     1   109.8000471 387.438400
   4506   4505   4526     1   110.1100470 384.091200
   4507   4509   4511     1   109.8000471 387.438400
   4507   4509   4512     1   109.8000471 387.438400
   4507   4505   4526     1   110.1100470 384.091200
   4508   4507   4509     1   110.5600475 386.601600
   4508   4507   4510     1   109.7500473 328.025600
   4509   4507   4510     1   110.5600475 386.601600
   4511   4509   4513     1   108.7700466 392.459200
   4511   4509   4512     1   107.5800459 329.699200
   4512   4509   4513     1   108.7700466 392.459200
   4513   4514   4524     1   106.5500460 417.563200
   4516   4506   4518     1   110.5600475 386.601600
   4516   4506   4517     1   109.7500473 328.025600
   4517   4506   4518     1   110.5600475 386.601600
   4519   4518   4521     1   108.7700466 392.459200
   4519   4518   4520     1   107.5800459 329.699200
   4520   4518   4521     1   108.7700466 392.459200
   4521   4523   4525     1   106.5500460 417.563200
   4527   4529   4530     1   108.8800464 416.726400
   4527   4529   4532     1   108.8800464 416.726400
   4528   4527   4529     1   117.6800502 383.254400
   4529   4531   4533     1   110.5600475 386.601600
   4529   4531   4534     1   110.5600475 386.601600
   4530   4529   4531     1   109.5600471 388.275200
   4530   4529   4532     1   108.4600466 328.025600
   4531   4529   4532     1   109.5600471 388.275200
   4531   4535   4556     1   110.1100470 384.091200
   4533   4531   4535     1   108.0100461 406.684800
   4533   4531   4534     1   109.7500473 328.025600
   4534   4531   4535     1   108.0100461 406.684800
   4535   4536   4546     1   108.0100461 406.684800
   4535   4536   4547     1   108.0100461 406.684800
   4535   4537   4538     1   108.0100461 406.684800
   4535   4537   4540     1   108.0100461 406.684800
   4536   4535   4556     1   110.1100470 384.091200
   4536   4548   4549     1   109.8000471 387.438400
   4536   4548   4550     1   109.8000471 387.438400
   4537   4535   4556     1   110.1100470 384.091200
   4537   4539   4541     1   109.8000471 387.438400
   4537   4539   4542     1   109.8000471 387.438400
   4538   4537   4539     1   110.5600475 386.601600
   4538   4537   4540     1   109.7500473 328.025600
   4539   4537   4540     1   110.5600475 386.601600
   4541   4539   4543     1   108.7700466 392.459200
   4541   4539   4542     1   107.5800459 329.699200
   4542   4539   4543     1   108.7700466 392.459200
   4543   4544   4554     1   106.5500460 417.563200
   4546   4536   4548     1   110.5600475 386.601600
   4546   4536   4547     1   109.7500473 328.025600
   4547   4536   4548     1   110.5600475 386.601600
   4549   4548   4551     1   108.7700466 392.459200
   4549   4548   4550     1   107.5800459 329.699200
   4550   4548   4551     1   108.7700466 392.459200
   4551   4553   4555     1   106.5500460 417.563200
   4557   4559   4560     1   108.8800464 416.726400
   4557   4559   4562     1   108.8800464 416.726400
   4558   4557   4559     1   117.6800502 383.254400
   4559   4561   4563     1   110.5600475 386.601600
   4559   4561   4564     1   110.5600475 386.601600
   4560   4559   4561     1   109.5600471 388.275200
   4560   4559   4562     1   108.4600466 328.025600
   4561   4565   4586     1   110.1100470 384.091200
   4561   4559   4562     1   109.5600471 388.275200
   4563   4561   4565     1   108.0100461 406.684800
   4563   4561   4564     1   109.7500473 328.025600
   4564   4561   4565     1   108.0100461 406.684800
   4565   4566   4576     1   108.0100461 406.684800
   4565   4566   4577     1   108.0100461 406.684800
   4565   4567   4568     1   108.0100461 406.684800
   4565   4567   4570     1   108.0100461 406.684800
   4566   4578   4579     1   109.8000471 387.438400
   4566   4578   4580     1   109.8000471 387.438400
   4566   4565   4586     1   110.1100470 384.091200
   4567   4569   4571     1   109.8000471 387.438400
   4567   4569   4572     1   109.8000471 387.438400
   4567   4565   4586     1   110.1100470 384.091200
   4568   4567   4569     1   110.5600475 386.601600
   4568   4567   4570     1   109.7500473 328.025600
   4569   4567   4570     1   110.5600475 386.601600
   4571   4569   4573     1   108.7700466 392.459200
   4571   4569   4572     1   107.5800459 329.699200
   4572   4569   4573     1   108.7700466 392.459200
   4573   4574   4584     1   106.5500460 417.563200
   4576   4566   4578     1   110.5600475 386.601600
   4576   4566   4577     1   109.7500473 328.025600
   4577   4566   4578     1   110.5600475 386.601600
   4579   4578   4581     1   108.7700466 392.459200
   4579   4578   4580     1   107.5800459 329.699200
   4580   4578   4581     1   108.7700466 392.459200
   4581   4583   4585     1   106.5500460 417.563200
   4587   4589   4590     1   108.8800464 416.726400
   4587   4589   4592     1   108.8800464 416.726400
   4588   4587   4589     1   117.6800502 383.254400
   4589   4591   4593     1   110.5600475 386.601600
   4589   4591   4594     1   110.5600475 386.601600
   4590   4589   4591     1   109.5600471 388.275200
   4590   4589   4592     1   108.4600466 328.025600
   4591   4589   4592     1   109.5600471 388.275200
   4591   4595   4616     1   110.1100470 384.091200
   4593   4591   4595     1   108.0100461 406.684800
   4593   4591   4594     1   109.7500473 328.025600
   4594   4591   4595     1   108.0100461 406.684800
   4595   4596   4606     1   108.0100461 406.684800
   4595   4596   4607     1   108.0100461 406.684800
   4595   4597   4598     1   108.0100461 406.684800
   4595   4597   4600     1   108.0100461 406.684800
   4596   4595   4616     1   110.1100470 384.091200
   4596   4608   4609     1   109.8000471 387.438400
   4596   4608   4610     1   109.8000471 387.438400
   4597   4595   4616     1   110.1100470 384.091200
   4597   4599   4601     1   109.8000471 387.438400
   4597   4599   4602     1   109.8000471 387.438400
   4598   4597   4599     1   110.5600475 386.601600
   4598   4597   4600     1   109.7500473 328.025600
   4599   4597   4600     1   110.5600475 386.601600
   4601   4599   4603     1   108.7700466 392.459200
   4601   4599   4602     1   107.5800459 329.699200
   4602   4599   4603     1   108.7700466 392.459200
   4603   4604   4614     1   106.5500460 417.563200
   4606   4596   4608     1   110.5600475 386.601600
   4606   4596   4607     1   109.7500473 328.025600
   4607   4596   4608     1   110.5600475 386.601600
   4609   4608   4611     1   108.7700466 392.459200
   4609   4608   4610     1   107.5800459 329.699200
   4610   4608   4611     1   108.7700466 392.459200
   4611   4613   4615     1   106.5500460 417.563200
   4617   4619   4620     1   108.8800464 416.726400
   4617   4619   4622     1   108.8800464 416.726400
   4618   4617   4619     1   117.6800502 383.254400
   4619   4621   4623     1   110.5600475 386.601600
   4619   4621   4624     1   110.5600475 386.601600
   4620   4619   4621     1   109.5600471 388.275200
   4620   4619   4622     1   108.4600466 328.025600
   4621   4625   4646     1   110.1100470 384.091200
   4621   4619   4622     1   109.5600471 388.275200
   4623   4621   4625     1   108.0100461 406.684800
   4623   4621   4624     1   109.7500473 328.025600
   4624   4621   4625     1   108.0100461 406.684800
   4625   4626   4636     1   108.0100461 406.684800
   4625   4626   4637     1   108.0100461 406.684800
   4625   4627   4628     1   108.0100461 406.684800
   4625   4627   4630     1   108.0100461 406.684800
   4626   4638   4639     1   109.8000471 387.438400
   4626   4638   4640     1   109.8000471 387.438400
   4626   4625   4646     1   110.1100470 384.091200
   4627   4629   4631     1   109.8000471 387.438400
   4627   4629   4632     1   109.8000471 387.438400
   4627   4625   4646     1   110.1100470 384.091200
   4628   4627   4629     1   110.5600475 386.601600
   4628   4627   4630     1   109.7500473 328.025600
   4629   4627   4630     1   110.5600475 386.601600
   4631   4629   4633     1   108.7700466 392.459200
   4631   4629   4632     1   107.5800459 329.699200
   4632   4629   4633     1   108.7700466 392.459200
   4633   4634   4644     1   106.5500460 417.563200
   4636   4626   4638     1   110.5600475 386.601600
   4636   4626   4637     1   109.7500473 328.025600
   4637   4626   4638     1   110.5600475 386.601600
   4639   4638   4641     1   108.7700466 392.459200
   4639   4638   4640     1   107.5800459 329.699200
   4640   4638   4641     1   108.7700466 392.459200
   4641   4643   4645     1   106.5500460 417.563200
   4647   4649   4650     1   108.8800464 416.726400
   4647   4649   4652     1   108.8800464 416.726400
   4648   4647   4649     1   117.6800502 383.254400
   4649   4651   4653     1   110.5600475 386.601600
   4649   4651   4654     1   110.5600475 386.601600
   4650   4649   4651     1   109.5600471 388.275200
   4650   4649   4652     1   108.4600466 328.025600
   4651   4649   4652     1   109.5600471 388.275200
   4651   4655   4676     1   110.1100470 384.091200
   4653   4651   4655     1   108.0100461 406.684800
   4653   4651   4654     1   109.7500473 328.025600
   4654   4651   4655     1   108.0100461 406.684800
   4655   4656   4666     1   108.0100461 406.684800
   4655   4656   4667     1   108.0100461 406.684800
   4655   4657   4658     1   108.0100461 406.684800
   4655   4657   4660     1   108.0100461 406.684800
   4656   4655   4676     1   110.1100470 384.091200
   4656   4668   4669     1   109.8000471 387.438400
   4656   4668   4670     1   109.8000471 387.438400
   4657   4655   4676     1   110.1100470 384.091200
   4657   4659   4661     1   109.8000471 387.438400
   4657   4659   4662     1   109.8000471 387.438400
   4658   4657   4659     1   110.5600475 386.601600
   4658   4657   4660     1   109.7500473 328.025600
   4659   4657   4660     1   110.5600475 386.601600
   4661   4659   4663     1   108.7700466 392.459200
   4661   4659   4662     1   107.5800459 329.699200
   4662   4659   4663     1   108.7700466 392.459200
   4663   4664   4674     1   106.5500460 417.563200
   4666   4656   4668     1   110.5600475 386.601600
   4666   4656   4667     1   109.7500473 328.025600
   4667   4656   4668     1   110.5600475 386.601600
   4669   4668   4671     1   108.7700466 392.459200
   4669   4668   4670     1   107.5800459 329.699200
   4670   4668   4671     1   108.7700466 392.459200
   4671   4673   4675     1   106.5500460 417.563200
   4677   4679   4680     1   108.8800464 416.726400
   4677   4679   4682     1   108.8800464 416.726400
   4678   4677   4679     1   117.6800502 383.254400
   4679   4681   4683     1   110.5600475 386.601600
   4679   4681   4684     1   110.5600475 386.601600
   4680   4679   4681     1   109.5600471 388.275200
   4680   4679   4682     1   108.4600466 328.025600
   4681   4685   4706     1   110.1100470 384.091200
   4681   4679   4682     1   109.5600471 388.275200
   4683   4681   4685     1   108.0100461 406.684800
   4683   4681   4684     1   109.7500473 328.025600
   4684   4681   4685     1   108.0100461 406.684800
   4685   4686   4696     1   108.0100461 406.684800
   4685   4686   4697     1   108.0100461 406.684800
   4685   4687   4688     1   108.0100461 406.684800
   4685   4687   4690     1   108.0100461 406.684800
   4686   4698   4699     1   109.8000471 387.438400
   4686   4698   4700     1   109.8000471 387.438400
   4686   4685   4706     1   110.1100470 384.091200
   4687   4689   4691     1   109.8000471 387.438400
   4687   4689   4692     1   109.8000471 387.438400
   4687   4685   4706     1   110.1100470 384.091200
   4688   4687   4689     1   110.5600475 386.601600
   4688   4687   4690     1   109.7500473 328.025600
   4689   4687   4690     1   110.5600475 386.601600
   4691   4689   4693     1   108.7700466 392.459200
   4691   4689   4692     1   107.5800459 329.699200
   4692   4689   4693     1   108.7700466 392.459200
   4693   4694   4704     1   106.5500460 417.563200
   4696   4686   4698     1   110.5600475 386.601600
   4696   4686   4697     1   109.7500473 328.025600
   4697   4686   4698     1   110.5600475 386.601600
   4699   4698   4701     1   108.7700466 392.459200
   4699   4698   4700     1   107.5800459 329.699200
   4700   4698   4701     1   108.7700466 392.459200
   4701   4703   4705     1   106.5500460 417.563200
   4707   4709   4710     1   108.8800464 416.726400
   4707   4709   4712     1   108.8800464 416.726400
   4708   4707   4709     1   117.6800502 383.254400
   4709   4711   4713     1   110.5600475 386.601600
   4709   4711   4714     1   110.5600475 386.601600
   4710   4709   4711     1   109.5600471 388.275200
   4710   4709   4712     1   108.4600466 328.025600
   4711   4709   4712     1   109.5600471 388.275200
   4711   4715   4736     1   110.1100470 384.091200
   4713   4711   4715     1   108.0100461 406.684800
   4713   4711   4714     1   109.7500473 328.025600
   4714   4711   4715     1   108.0100461 406.684800
   4715   4716   4726     1   108.0100461 406.684800
   4715   4716   4727     1   108.0100461 406.684800
   4715   4717   4718     1   108.0100461 406.684800
   4715   4717   4720     1   108.0100461 406.684800
   4716   4715   4736     1   110.1100470 384.091200
   4716   4728   4729     1   109.8000471 387.438400
   4716   4728   4730     1   109.8000471 387.438400
   4717   4715   4736     1   110.1100470 384.091200
   4717   4719   4721     1   109.8000471 387.438400
   4717   4719   4722     1   109.8000471 387.438400
   4718   4717   4719     1   110.5600475 386.601600
   4718   4717   4720     1   109.7500473 328.025600
   4719   4717   4720     1   110.5600475 386.601600
   4721   4719   4723     1   108.7700466 392.459200
   4721   4719   4722     1   107.5800459 329.699200
   4722   4719   4723     1   108.7700466 392.459200
   4723   4724   4734     1   106.5500460 417.563200
   4726   4716   4728     1   110.5600475 386.601600
   4726   4716   4727     1   109.7500473 328.025600
   4727   4716   4728     1   110.5600475 386.601600
   4729   4728   4731     1   108.7700466 392.459200
   4729   4728   4730     1   107.5800459 329.699200
   4730   4728   4731     1   108.7700466 392.459200
   4731   4733   4735     1   106.5500460 417.563200
   4737   4739   4740     1   108.8800464 416.726400
   4737   4739   4742     1   108.8800464 416.726400
   4738   4737   4739     1   117.6800502 383.254400
   4739   4741   4743     1   110.5600475 386.601600
   4739   4741   4744     1   110.5600475 386.601600
   4740   4739   4741     1   109.5600471 388.275200
   4740   4739   4742     1   108.4600466 328.025600
   4741   4745   4766     1   110.1100470 384.091200
   4741   4739   4742     1   109.5600471 388.275200
   4743   4741   4745     1   108.0100461 406.684800
   4743   4741   4744     1   109.7500473 328.025600
   4744   4741   4745     1   108.0100461 406.684800
   4745   4746   4756     1   108.0100461 406.684800
   4745   4746   4757     1   108.0100461 406.684800
   4745   4747   4748     1   108.0100461 406.684800
   4745   4747   4750     1   108.0100461 406.684800
   4746   4758   4759     1   109.8000471 387.438400
   4746   4758   4760     1   109.8000471 387.438400
   4746   4745   4766     1   110.1100470 384.091200
   4747   4749   4751     1   109.8000471 387.438400
   4747   4749   4752     1   109.8000471 387.438400
   4747   4745   4766     1   110.1100470 384.091200
   4748   4747   4749     1   110.5600475 386.601600
   4748   4747   4750     1   109.7500473 328.025600
   4749   4747   4750     1   110.5600475 386.601600
   4751   4749   4753     1   108.7700466 392.459200
   4751   4749   4752     1   107.5800459 329.699200
   4752   4749   4753     1   108.7700466 392.459200
   4753   4754   4764     1   106.5500460 417.563200
   4756   4746   4758     1   110.5600475 386.601600
   4756   4746   4757     1   109.7500473 328.025600
   4757   4746   4758     1   110.5600475 386.601600
   4759   4758   4761     1   108.7700466 392.459200
   4759   4758   4760     1   107.5800459 329.699200
   4760   4758   4761     1   108.7700466 392.459200
   4761   4763   4765     1   106.5500460 417.563200
   4767   4769   4770     1   108.8800464 416.726400
   4767   4769   4772     1   108.8800464 416.726400
   4768   4767   4769     1   117.6800502 383.254400
   4769   4771   4773     1   110.5600475 386.601600
   4769   4771   4774     1   110.5600475 386.601600
   4770   4769   4771     1   109.5600471 388.275200
   4770   4769   4772     1   108.4600466 328.025600
   4771   4769   4772     1   109.5600471 388.275200
   4771   4775   4796     1   110.1100470 384.091200
   4773   4771   4775     1   108.0100461 406.684800
   4773   4771   4774     1   109.7500473 328.025600
   4774   4771   4775     1   108.0100461 406.684800
   4775   4776   4786     1   108.0100461 406.684800
   4775   4776   4787     1   108.0100461 406.684800
   4775   4777   4778     1   108.0100461 406.684800
   4775   4777   4780     1   108.0100461 406.684800
   4776   4775   4796     1   110.1100470 384.091200
   4776   4788   4789     1   109.8000471 387.438400
   4776   4788   4790     1   109.8000471 387.438400
   4777   4775   4796     1   110.1100470 384.091200
   4777   4779   4781     1   109.8000471 387.438400
   4777   4779   4782     1   109.8000471 387.438400
   4778   4777   4779     1   110.5600475 386.601600
   4778   4777   4780     1   109.7500473 328.025600
   4779   4777   4780     1   110.5600475 386.601600
   4781   4779   4783     1   108.7700466 392.459200
   4781   4779   4782     1   107.5800459 329.699200
   4782   4779   4783     1   108.7700466 392.459200
   4783   4784   4794     1   106.5500460 417.563200
   4786   4776   4788     1   110.5600475 386.601600
   4786   4776   4787     1   109.7500473 328.025600
   4787   4776   4788     1   110.5600475 386.601600
   4789   4788   4791     1   108.7700466 392.459200
   4789   4788   4790     1   107.5800459 329.699200
   4790   4788   4791     1   108.7700466 392.459200
   4791   4793   4795     1   106.5500460 417.563200
   4797   4799   4800     1   108.8800464 416.726400
   4797   4799   4802     1   108.8800464 416.726400
   4798   4797   4799     1   117.6800502 383.254400
   4799   4801   4803     1   110.5600475 386.601600
   4799   4801   4804     1   110.5600475 386.601600
   4800   4799   4801     1   109.5600471 388.275200
   4800   4799   4802     1   108.4600466 328.025600
   4801   4805   4826     1   110.1100470 384.091200
   4801   4799   4802     1   109.5600471 388.275200
   4803   4801   4805     1   108.0100461 406.684800
   4803   4801   4804     1   109.7500473 328.025600
   4804   4801   4805     1   108.0100461 406.684800
   4805   4806   4816     1   108.0100461 406.684800
   4805   4806   4817     1   108.0100461 406.684800
   4805   4807   4808     1   108.0100461 406.684800
   4805   4807   4810     1   108.0100461 406.684800
   4806   4818   4819     1   109.8000471 387.438400
   4806   4818   4820     1   109.8000471 387.438400
   4806   4805   4826     1   110.1100470 384.091200
   4807   4809   4811     1   109.8000471 387.438400
   4807   4809   4812     1   109.8000471 387.438400
   4807   4805   4826     1   110.1100470 384.091200
   4808   4807   4809     1   110.5600475 386.601600
   4808   4807   4810     1   109.7500473 328.025600
   4809   4807   4810     1   110.5600475 386.601600
   4811   4809   4813     1   108.7700466 392.459200
   4811   4809   4812     1   107.5800459 329.699200
   4812   4809   4813     1   108.7700466 392.459200
   4813   4814   4824     1   106.5500460 417.563200
   4816   4806   4818     1   110.5600475 386.601600
   4816   4806   4817     1   109.7500473 328.025600
   4817   4806   4818     1   110.5600475 386.601600
   4819   4818   4821     1   108.7700466 392.459200
   4819   4818   4820     1   107.5800459 329.699200
   4820   4818   4821     1   108.7700466 392.459200
   4821   4823   4825     1   106.5500460 417.563200
   4827   4829   4830     1   108.8800464 416.726400
   4827   4829   4832     1   108.8800464 416.726400
   4828   4827   4829     1   117.6800502 383.254400
   4829   4831   4833     1   110.5600475 386.601600
   4829   4831   4834     1   110.5600475 386.601600
   4830   4829   4831     1   109.5600471 388.275200
   4830   4829   4832     1   108.4600466 328.025600
   4831   4829   4832     1   109.5600471 388.275200
   4831   4835   4856     1   110.1100470 384.091200
   4833   4831   4835     1   108.0100461 406.684800
   4833   4831   4834     1   109.7500473 328.025600
   4834   4831   4835     1   108.0100461 406.684800
   4835   4836   4846     1   108.0100461 406.684800
   4835   4836   4847     1   108.0100461 406.684800
   4835   4837   4838     1   108.0100461 406.684800
   4835   4837   4840     1   108.0100461 406.684800
   4836   4835   4856     1   110.1100470 384.091200
   4836   4848   4849     1   109.8000471 387.438400
   4836   4848   4850     1   109.8000471 387.438400
   4837   4835   4856     1   110.1100470 384.091200
   4837   4839   4841     1   109.8000471 387.438400
   4837   4839   4842     1   109.8000471 387.438400
   4838   4837   4839     1   110.5600475 386.601600
   4838   4837   4840     1   109.7500473 328.025600
   4839   4837   4840     1   110.5600475 386.601600
   4841   4839   4843     1   108.7700466 392.459200
   4841   4839   4842     1   107.5800459 329.699200
   4842   4839   4843     1   108.7700466 392.459200
   4843   4844   4854     1   106.5500460 417.563200
   4846   4836   4848     1   110.5600475 386.601600
   4846   4836   4847     1   109.7500473 328.025600
   4847   4836   4848     1   110.5600475 386.601600
   4849   4848   4851     1   108.7700466 392.459200
   4849   4848   4850     1   107.5800459 329.699200
   4850   4848   4851     1   108.7700466 392.459200
   4851   4853   4855     1   106.5500460 417.563200
   4857   4859   4860     1   108.8800464 416.726400
   4857   4859   4862     1   108.8800464 416.726400
   4858   4857   4859     1   117.6800502 383.254400
   4859   4861   4863     1   110.5600475 386.601600
   4859   4861   4864     1   110.5600475 386.601600
   4860   4859   4861     1   109.5600471 388.275200
   4860   4859   4862     1   108.4600466 328.025600
   4861   4865   4886     1   110.1100470 384.091200
   4861   4859   4862     1   109.5600471 388.275200
   4863   4861   4865     1   108.0100461 406.684800
   4863   4861   4864     1   109.7500473 328.025600
   4864   4861   4865     1   108.0100461 406.684800
   4865   4866   4876     1   108.0100461 406.684800
   4865   4866   4877     1   108.0100461 406.684800
   4865   4867   4868     1   108.0100461 406.684800
   4865   4867   4870     1   108.0100461 406.684800
   4866   4878   4879     1   109.8000471 387.438400
   4866   4878   4880     1   109.8000471 387.438400
   4866   4865   4886     1   110.1100470 384.091200
   4867   4869   4871     1   109.8000471 387.438400
   4867   4869   4872     1   109.8000471 387.438400
   4867   4865   4886     1   110.1100470 384.091200
   4868   4867   4869     1   110.5600475 386.601600
   4868   4867   4870     1   109.7500473 328.025600
   4869   4867   4870     1   110.5600475 386.601600
   4871   4869   4873     1   108.7700466 392.459200
   4871   4869   4872     1   107.5800459 329.699200
   4872   4869   4873     1   108.7700466 392.459200
   4873   4874   4884     1   106.5500460 417.563200
   4876   4866   4878     1   110.5600475 386.601600
   4876   4866   4877     1   109.7500473 328.025600
   4877   4866   4878     1   110.5600475 386.601600
   4879   4878   4881     1   108.7700466 392.459200
   4879   4878   4880     1   107.5800459 329.699200
   4880   4878   4881     1   108.7700466 392.459200
   4881   4883   4885     1   106.5500460 417.563200
   4887   4889   4890     1   108.8800464 416.726400
   4887   4889   4892     1   108.8800464 416.726400
   4888   4887   4889     1   117.6800502 383.254400
   4889   4891   4893     1   110.5600475 386.601600
   4889   4891   4894     1   110.5600475 386.601600
   4890   4889   4891     1   109.5600471 388.275200
   4890   4889   4892     1   108.4600466 328.025600
   4891   4889   4892     1   109.5600471 388.275200
   4891   4895   4916     1   110.1100470 384.091200
   4893   4891   4895     1   108.0100461 406.684800
   4893   4891   4894     1   109.7500473 328.025600
   4894   4891   4895     1   108.0100461 406.684800
   4895   4896   4906     1   108.0100461 406.684800
   4895   4896   4907     1   108.0100461 406.684800
   4895   4897   4898     1   108.0100461 406.684800
   4895   4897   4900     1   108.0100461 406.684800
   4896   4895   4916     1   110.1100470 384.091200
   4896   4908   4909     1   109.8000471 387.438400
   4896   4908   4910     1   109.8000471 387.438400
   4897   4895   4916     1   110.1100470 384.091200
   4897   4899   4901     1   109.8000471 387.438400
   4897   4899   4902     1   109.8000471 387.438400
   4898   4897   4899     1   110.5600475 386.601600
   4898   4897   4900     1   109.7500473 328.025600
   4899   4897   4900     1   110.5600475 386.601600
   4901   4899   4903     1   108.7700466 392.459200
   4901   4899   4902     1   107.5800459 329.699200
   4902   4899   4903     1   108.7700466 392.459200
   4903   4904   4914     1   106.5500460 417.563200
   4906   4896   4908     1   110.5600475 386.601600
   4906   4896   4907     1   109.7500473 328.025600
   4907   4896   4908     1   110.5600475 386.601600
   4909   4908   4911     1   108.7700466 392.459200
   4909   4908   4910     1   107.5800459 329.699200
   4910   4908   4911     1   108.7700466 392.459200
   4911   4913   4915     1   106.5500460 417.563200
   4917   4919   4920     1   108.8800464 416.726400
   4917   4919   4922     1   108.8800464 416.726400
   4918   4917   4919     1   117.6800502 383.254400
   4919   4921   4923     1   110.5600475 386.601600
   4919   4921   4924     1   110.5600475 386.601600
   4920   4919   4921     1   109.5600471 388.275200
   4920   4919   4922     1   108.4600466 328.025600
   4921   4925   4946     1   110.1100470 384.091200
   4921   4919   4922     1   109.5600471 388.275200
   4923   4921   4925     1   108.0100461 406.684800
   4923   4921   4924     1   109.7500473 328.025600
   4924   4921   4925     1   108.0100461 406.684800
   4925   4926   4936     1   108.0100461 406.684800
   4925   4926   4937     1   108.0100461 406.684800
   4925   4927   4928     1   108.0100461 406.684800
   4925   4927   4930     1   108.0100461 406.684800
   4926   4938   4939     1   109.8000471 387.438400
   4926   4938   4940     1   109.8000471 387.438400
   4926   4925   4946     1   110.1100470 384.091200
   4927   4929   4931     1   109.8000471 387.438400
   4927   4929   4932     1   109.8000471 387.438400
   4927   4925   4946     1   110.1100470 384.091200
   4928   4927   4929     1   110.5600475 386.601600
   4928   4927   4930     1   109.7500473 328.025600
   4929   4927   4930     1   110.5600475 386.601600
   4931   4929   4933     1   108.7700466 392.459200
   4931   4929   4932     1   107.5800459 329.699200
   4932   4929   4933     1   108.7700466 392.459200
   4933   4934   4944     1   106.5500460 417.563200
   4936   4926   4938     1   110.5600475 386.601600
   4936   4926   4937     1   109.7500473 328.025600
   4937   4926   4938     1   110.5600475 386.601600
   4939   4938   4941     1   108.7700466 392.459200
   4939   4938   4940     1   107.5800459 329.699200
   4940   4938   4941     1   108.7700466 392.459200
   4941   4943   4945     1   106.5500460 417.563200
   4947   4949   4950     1   108.8800464 416.726400
   4947   4949   4952     1   108.8800464 416.726400
   4948   4947   4949     1   117.6800502 383.254400
   4949   4951   4953     1   110.5600475 386.601600
   4949   4951   4954     1   110.5600475 386.601600
   4950   4949   4951     1   109.5600471 388.275200
   4950   4949   4952     1   108.4600466 328.025600
   4951   4949   4952     1   109.5600471 388.275200
   4951   4955   4976     1   110.1100470 384.091200
   4953   4951   4955     1   108.0100461 406.684800
   4953   4951   4954     1   109.7500473 328.025600
   4954   4951   4955     1   108.0100461 406.684800
   4955   4956   4966     1   108.0100461 406.684800
   4955   4956   4967     1   108.0100461 406.684800
   4955   4957   4958     1   108.0100461 406.684800
   4955   4957   4960     1   108.0100461 406.684800
   4956   4955   4976     1   110.1100470 384.091200
   4956   4968   4969     1   109.8000471 387.438400
   4956   4968   4970     1   109.8000471 387.438400
   4957   4955   4976     1   110.1100470 384.091200
   4957   4959   4961     1   109.8000471 387.438400
   4957   4959   4962     1   109.8000471 387.438400
   4958   4957   4959     1   110.5600475 386.601600
   4958   4957   4960     1   109.7500473 328.025600
   4959   4957   4960     1   110.5600475 386.601600
   4961   4959   4963     1   108.7700466 392.459200
   4961   4959   4962     1   107.5800459 329.699200
   4962   4959   4963     1   108.7700466 392.459200
   4963   4964   4974     1   106.5500460 417.563200
   4966   4956   4968     1   110.5600475 386.601600
   4966   4956   4967     1   109.7500473 328.025600
   4967   4956   4968     1   110.5600475 386.601600
   4969   4968   4971     1   108.7700466 392.459200
   4969   4968   4970     1   107.5800459 329.699200
   4970   4968   4971     1   108.7700466 392.459200
   4971   4973   4975     1   106.5500460 417.563200
   4977   4979   4980     1   108.8800464 416.726400
   4977   4979   4982     1   108.8800464 416.726400
   4978   4977   4979     1   117.6800502 383.254400
   4979   4981   4983     1   110.5600475 386.601600
   4979   4981   4984     1   110.5600475 386.601600
   4980   4979   4981     1   109.5600471 388.275200
   4980   4979   4982     1   108.4600466 328.025600
   4981   4985   5006     1   110.1100470 384.091200
   4981   4979   4982     1   109.5600471 388.275200
   4983   4981   4985     1   108.0100461 406.684800
   4983   4981   4984     1   109.7500473 328.025600
   4984   4981   4985     1   108.0100461 406.684800
   4985   4986   4996     1   108.0100461 406.684800
   4985   4986   4997     1   108.0100461 406.684800
   4985   4987   4988     1   108.0100461 406.684800
   4985   4987   4990     1   108.0100461 406.684800
   4986   4998   4999     1   109.8000471 387.438400
   4986   4998   5000     1   109.8000471 387.438400
   4986   4985   5006     1   110.1100470 384.091200
   4987   4989   4991     1   109.8000471 387.438400
   4987   4989   4992     1   109.8000471 387.438400
   4987   4985   5006     1   110.1100470 384.091200
   4988   4987   4989     1   110.5600475 386.601600
   4988   4987   4990     1   109.7500473 328.025600
   4989   4987   4990     1   110.5600475 386.601600
   4991   4989   4993     1   108.7700466 392.459200
   4991   4989   4992     1   107.5800459 329.699200
   4992   4989   4993     1   108.7700466 392.459200
   4993   4994   5004     1   106.5500460 417.563200
   4996   4986   4998     1   110.5600475 386.601600
   4996   4986   4997     1   109.7500473 328.025600
   4997   4986   4998     1   110.5600475 386.601600
   4999   4998   5001     1   108.7700466 392.459200
   4999   4998   5000     1   107.5800459 329.699200
   5000   4998   5001     1   108.7700466 392.459200
   5001   5003   5005     1   106.5500460 417.563200
   5007   5009   5010     1   108.8800464 416.726400
   5007   5009   5012     1   108.8800464 416.726400
   5008   5007   5009     1   117.6800502 383.254400
   5009   5011   5013     1   110.5600475 386.601600
   5009   5011   5014     1   110.5600475 386.601600
   5010   5009   5011     1   109.5600471 388.275200
   5010   5009   5012     1   108.4600466 328.025600
   5011   5009   5012     1   109.5600471 388.275200
   5011   5015   5036     1   110.1100470 384.091200
   5013   5011   5015     1   108.0100461 406.684800
   5013   5011   5014     1   109.7500473 328.025600
   5014   5011   5015     1   108.0100461 406.684800
   5015   5016   5026     1   108.0100461 406.684800
   5015   5016   5027     1   108.0100461 406.684800
   5015   5017   5018     1   108.0100461 406.684800
   5015   5017   5020     1   108.0100461 406.684800
   5016   5015   5036     1   110.1100470 384.091200
   5016   5028   5029     1   109.8000471 387.438400
   5016   5028   5030     1   109.8000471 387.438400
   5017   5015   5036     1   110.1100470 384.091200
   5017   5019   5021     1   109.8000471 387.438400
   5017   5019   5022     1   109.8000471 387.438400
   5018   5017   5019     1   110.5600475 386.601600
   5018   5017   5020     1   109.7500473 328.025600
   5019   5017   5020     1   110.5600475 386.601600
   5021   5019   5023     1   108.7700466 392.459200
   5021   5019   5022     1   107.5800459 329.699200
   5022   5019   5023     1   108.7700466 392.459200
   5023   5024   5034     1   106.5500460 417.563200
   5026   5016   5028     1   110.5600475 386.601600
   5026   5016   5027     1   109.7500473 328.025600
   5027   5016   5028     1   110.5600475 386.601600
   5029   5028   5031     1   108.7700466 392.459200
   5029   5028   5030     1   107.5800459 329.699200
   5030   5028   5031     1   108.7700466 392.459200
   5031   5033   5035     1   106.5500460 417.563200
   5037   5039   5040     1   108.8800464 416.726400
   5037   5039   5042     1   108.8800464 416.726400
   5038   5037   5039     1   117.6800502 383.254400
   5039   5041   5043     1   110.5600475 386.601600
   5039   5041   5044     1   110.5600475 386.601600
   5040   5039   5041     1   109.5600471 388.275200
   5040   5039   5042     1   108.4600466 328.025600
   5041   5045   5066     1   110.1100470 384.091200
   5041   5039   5042     1   109.5600471 388.275200
   5043   5041   5045     1   108.0100461 406.684800
   5043   5041   5044     1   109.7500473 328.025600
   5044   5041   5045     1   108.0100461 406.684800
   5045   5046   5056     1   108.0100461 406.684800
   5045   5046   5057     1   108.0100461 406.684800
   5045   5047   5048     1   108.0100461 406.684800
   5045   5047   5050     1   108.0100461 406.684800
   5046   5058   5059     1   109.8000471 387.438400
   5046   5058   5060     1   109.8000471 387.438400
   5046   5045   5066     1   110.1100470 384.091200
   5047   5049   5051     1   109.8000471 387.438400
   5047   5049   5052     1   109.8000471 387.438400
   5047   5045   5066     1   110.1100470 384.091200
   5048   5047   5049     1   110.5600475 386.601600
   5048   5047   5050     1   109.7500473 328.025600
   5049   5047   5050     1   110.5600475 386.601600
   5051   5049   5053     1   108.7700466 392.459200
   5051   5049   5052     1   107.5800459 329.699200
   5052   5049   5053     1   108.7700466 392.459200
   5053   5054   5064     1   106.5500460 417.563200
   5056   5046   5058     1   110.5600475 386.601600
   5056   5046   5057     1   109.7500473 328.025600
   5057   5046   5058     1   110.5600475 386.601600
   5059   5058   5061     1   108.7700466 392.459200
   5059   5058   5060     1   107.5800459 329.699200
   5060   5058   5061     1   108.7700466 392.459200
   5061   5063   5065     1   106.5500460 417.563200
   5067   5069   5070     1   108.8800464 416.726400
   5067   5069   5072     1   108.8800464 416.726400
   5068   5067   5069     1   117.6800502 383.254400
   5069   5071   5073     1   110.5600475 386.601600
   5069   5071   5074     1   110.5600475 386.601600
   5070   5069   5071     1   109.5600471 388.275200
   5070   5069   5072     1   108.4600466 328.025600
   5071   5069   5072     1   109.5600471 388.275200
   5071   5075   5096     1   110.1100470 384.091200
   5073   5071   5075     1   108.0100461 406.684800
   5073   5071   5074     1   109.7500473 328.025600
   5074   5071   5075     1   108.0100461 406.684800
   5075   5076   5086     1   108.0100461 406.684800
   5075   5076   5087     1   108.0100461 406.684800
   5075   5077   5078     1   108.0100461 406.684800
   5075   5077   5080     1   108.0100461 406.684800
   5076   5075   5096     1   110.1100470 384.091200
   5076   5088   5089     1   109.8000471 387.438400
   5076   5088   5090     1   109.8000471 387.438400
   5077   5075   5096     1   110.1100470 384.091200
   5077   5079   5081     1   109.8000471 387.438400
   5077   5079   5082     1   109.8000471 387.438400
   5078   5077   5079     1   110.5600475 386.601600
   5078   5077   5080     1   109.7500473 328.025600
   5079   5077   5080     1   110.5600475 386.601600
   5081   5079   5083     1   108.7700466 392.459200
   5081   5079   5082     1   107.5800459 329.699200
   5082   5079   5083     1   108.7700466 392.459200
   5083   5084   5094     1   106.5500460 417.563200
   5086   5076   5088     1   110.5600475 386.601600
   5086   5076   5087     1   109.7500473 328.025600
   5087   5076   5088     1   110.5600475 386.601600
   5089   5088   5091     1   108.7700466 392.459200
   5089   5088   5090     1   107.5800459 329.699200
   5090   5088   5091     1   108.7700466 392.459200
   5091   5093   5095     1   106.5500460 417.563200
   5097   5099   5100     1   108.8800464 416.726400
   5097   5099   5102     1   108.8800464 416.726400
   5098   5097   5099     1   117.6800502 383.254400
   5099   5101   5103     1   110.5600475 386.601600
   5099   5101   5104     1   110.5600475 386.601600
   5100   5099   5101     1   109.5600471 388.275200
   5100   5099   5102     1   108.4600466 328.025600
   5101   5105   5126     1   110.1100470 384.091200
   5101   5099   5102     1   109.5600471 388.275200
   5103   5101   5105     1   108.0100461 406.684800
   5103   5101   5104     1   109.7500473 328.025600
   5104   5101   5105     1   108.0100461 406.684800
   5105   5106   5116     1   108.0100461 406.684800
   5105   5106   5117     1   108.0100461 406.684800
   5105   5107   5108     1   108.0100461 406.684800
   5105   5107   5110     1   108.0100461 406.684800
   5106   5118   5119     1   109.8000471 387.438400
   5106   5118   5120     1   109.8000471 387.438400
   5106   5105   5126     1   110.1100470 384.091200
   5107   5109   5111     1   109.8000471 387.438400
   5107   5109   5112     1   109.8000471 387.438400
   5107   5105   5126     1   110.1100470 384.091200
   5108   5107   5109     1   110.5600475 386.601600
   5108   5107   5110     1   109.7500473 328.025600
   5109   5107   5110     1   110.5600475 386.601600
   5111   5109   5113     1   108.7700466 392.459200
   5111   5109   5112     1   107.5800459 329.699200
   5112   5109   5113     1   108.7700466 392.459200
   5113   5114   5124     1   106.5500460 417.563200
   5116   5106   5118     1   110.5600475 386.601600
   5116   5106   5117     1   109.7500473 328.025600
   5117   5106   5118     1   110.5600475 386.601600
   5119   5118   5121     1   108.7700466 392.459200
   5119   5118   5120     1   107.5800459 329.699200
   5120   5118   5121     1   108.7700466 392.459200
   5121   5123   5125     1   106.5500460 417.563200
   5127   5129   5130     1   108.8800464 416.726400
   5127   5129   5132     1   108.8800464 416.726400
   5128   5127   5129     1   117.6800502 383.254400
   5129   5131   5133     1   110.5600475 386.601600
   5129   5131   5134     1   110.5600475 386.601600
   5130   5129   5131     1   109.5600471 388.275200
   5130   5129   5132     1   108.4600466 328.025600
   5131   5129   5132     1   109.5600471 388.275200
   5131   5135   5156     1   110.1100470 384.091200
   5133   5131   5135     1   108.0100461 406.684800
   5133   5131   5134     1   109.7500473 328.025600
   5134   5131   5135     1   108.0100461 406.684800
   5135   5136   5146     1   108.0100461 406.684800
   5135   5136   5147     1   108.0100461 406.684800
   5135   5137   5138     1   108.0100461 406.684800
   5135   5137   5140     1   108.0100461 406.684800
   5136   5135   5156     1   110.1100470 384.091200
   5136   5148   5149     1   109.8000471 387.438400
   5136   5148   5150     1   109.8000471 387.438400
   5137   5135   5156     1   110.1100470 384.091200
   5137   5139   5141     1   109.8000471 387.438400
   5137   5139   5142     1   109.8000471 387.438400
   5138   5137   5139     1   110.5600475 386.601600
   5138   5137   5140     1   109.7500473 328.025600
   5139   5137   5140     1   110.5600475 386.601600
   5141   5139   5143     1   108.7700466 392.459200
   5141   5139   5142     1   107.5800459 329.699200
   5142   5139   5143     1   108.7700466 392.459200
   5143   5144   5154     1   106.5500460 417.563200
   5146   5136   5148     1   110.5600475 386.601600
   5146   5136   5147     1   109.7500473 328.025600
   5147   5136   5148     1   110.5600475 386.601600
   5149   5148   5151     1   108.7700466 392.459200
   5149   5148   5150     1   107.5800459 329.699200
   5150   5148   5151     1   108.7700466 392.459200
   5151   5153   5155     1   106.5500460 417.563200
   5157   5159   5160     1   108.8800464 416.726400
   5157   5159   5162     1   108.8800464 416.726400
   5158   5157   5159     1   117.6800502 383.254400
   5159   5161   5163     1   110.5600475 386.601600
   5159   5161   5164     1   110.5600475 386.601600
   5160   5159   5161     1   109.5600471 388.275200
   5160   5159   5162     1   108.4600466 328.025600
   5161   5165   5186     1   110.1100470 384.091200
   5161   5159   5162     1   109.5600471 388.275200
   5163   5161   5165     1   108.0100461 406.684800
   5163   5161   5164     1   109.7500473 328.025600
   5164   5161   5165     1   108.0100461 406.684800
   5165   5166   5176     1   108.0100461 406.684800
   5165   5166   5177     1   108.0100461 406.684800
   5165   5167   5168     1   108.0100461 406.684800
   5165   5167   5170     1   108.0100461 406.684800
   5166   5178   5179     1   109.8000471 387.438400
   5166   5178   5180     1   109.8000471 387.438400
   5166   5165   5186     1   110.1100470 384.091200
   5167   5169   5171     1   109.8000471 387.438400
   5167   5169   5172     1   109.8000471 387.438400
   5167   5165   5186     1   110.1100470 384.091200
   5168   5167   5169     1   110.5600475 386.601600
   5168   5167   5170     1   109.7500473 328.025600
   5169   5167   5170     1   110.5600475 386.601600
   5171   5169   5173     1   108.7700466 392.459200
   5171   5169   5172     1   107.5800459 329.699200
   5172   5169   5173     1   108.7700466 392.459200
   5173   5174   5184     1   106.5500460 417.563200
   5176   5166   5178     1   110.5600475 386.601600
   5176   5166   5177     1   109.7500473 328.025600
   5177   5166   5178     1   110.5600475 386.601600
   5179   5178   5181     1   108.7700466 392.459200
   5179   5178   5180     1   107.5800459 329.699200
   5180   5178   5181     1   108.7700466 392.459200
   5181   5183   5185     1   106.5500460 417.563200
   5187   5189   5190     1   108.8800464 416.726400
   5187   5189   5192     1   108.8800464 416.726400
   5188   5187   5189     1   117.6800502 383.254400
   5189   5191   5193     1   110.5600475 386.601600
   5189   5191   5194     1   110.5600475 386.601600
   5190   5189   5191     1   109.5600471 388.275200
   5190   5189   5192     1   108.4600466 328.025600
   5191   5189   5192     1   109.5600471 388.275200
   5191   5195   5216     1   110.1100470 384.091200
   5193   5191   5195     1   108.0100461 406.684800
   5193   5191   5194     1   109.7500473 328.025600
   5194   5191   5195     1   108.0100461 406.684800
   5195   5196   5206     1   108.0100461 406.684800
   5195   5196   5207     1   108.0100461 406.684800
   5195   5197   5198     1   108.0100461 406.684800
   5195   5197   5200     1   108.0100461 406.684800
   5196   5195   5216     1   110.1100470 384.091200
   5196   5208   5209     1   109.8000471 387.438400
   5196   5208   5210     1   109.8000471 387.438400
   5197   5195   5216     1   110.1100470 384.091200
   5197   5199   5201     1   109.8000471 387.438400
   5197   5199   5202     1   109.8000471 387.438400
   5198   5197   5199     1   110.5600475 386.601600
   5198   5197   5200     1   109.7500473 328.025600
   5199   5197   5200     1   110.5600475 386.601600
   5201   5199   5203     1   108.7700466 392.459200
   5201   5199   5202     1   107.5800459 329.699200
   5202   5199   5203     1   108.7700466 392.459200
   5203   5204   5214     1   106.5500460 417.563200
   5206   5196   5208     1   110.5600475 386.601600
   5206   5196   5207     1   109.7500473 328.025600
   5207   5196   5208     1   110.5600475 386.601600
   5209   5208   5211     1   108.7700466 392.459200
   5209   5208   5210     1   107.5800459 329.699200
   5210   5208   5211     1   108.7700466 392.459200
   5211   5213   5215     1   106.5500460 417.563200
   5217   5219   5220     1   108.8800464 416.726400
   5217   5219   5222     1   108.8800464 416.726400
   5218   5217   5219     1   117.6800502 383.254400
   5219   5221   5223     1   110.5600475 386.601600
   5219   5221   5224     1   110.5600475 386.601600
   5220   5219   5221     1   109.5600471 388.275200
   5220   5219   5222     1   108.4600466 328.025600
   5221   5225   5246     1   110.1100470 384.091200
   5221   5219   5222     1   109.5600471 388.275200
   5223   5221   5225     1   108.0100461 406.684800
   5223   5221   5224     1   109.7500473 328.025600
   5224   5221   5225     1   108.0100461 406.684800
   5225   5226   5236     1   108.0100461 406.684800
   5225   5226   5237     1   108.0100461 406.684800
   5225   5227   5228     1   108.0100461 406.684800
   5225   5227   5230     1   108.0100461 406.684800
   5226   5238   5239     1   109.8000471 387.438400
   5226   5238   5240     1   109.8000471 387.438400
   5226   5225   5246     1   110.1100470 384.091200
   5227   5229   5231     1   109.8000471 387.438400
   5227   5229   5232     1   109.8000471 387.438400
   5227   5225   5246     1   110.1100470 384.091200
   5228   5227   5229     1   110.5600475 386.601600
   5228   5227   5230     1   109.7500473 328.025600
   5229   5227   5230     1   110.5600475 386.601600
   5231   5229   5233     1   108.7700466 392.459200
   5231   5229   5232     1   107.5800459 329.699200
   5232   5229   5233     1   108.7700466 392.459200
   5233   5234   5244     1   106.5500460 417.563200
   5236   5226   5238     1   110.5600475 386.601600
   5236   5226   5237     1   109.7500473 328.025600
   5237   5226   5238     1   110.5600475 386.601600
   5239   5238   5241     1   108.7700466 392.459200
   5239   5238   5240     1   107.5800459 329.699200
   5240   5238   5241     1   108.7700466 392.459200
   5241   5243   5245     1   106.5500460 417.563200
   5247   5249   5250     1   108.8800464 416.726400
   5247   5249   5252     1   108.8800464 416.726400
   5248   5247   5249     1   117.6800502 383.254400
   5249   5251   5253     1   110.5600475 386.601600
   5249   5251   5254     1   110.5600475 386.601600
   5250   5249   5251     1   109.5600471 388.275200
   5250   5249   5252     1   108.4600466 328.025600
   5251   5249   5252     1   109.5600471 388.275200
   5251   5255   5276     1   110.1100470 384.091200
   5253   5251   5255     1   108.0100461 406.684800
   5253   5251   5254     1   109.7500473 328.025600
   5254   5251   5255     1   108.0100461 406.684800
   5255   5256   5266     1   108.0100461 406.684800
   5255   5256   5267     1   108.0100461 406.684800
   5255   5257   5258     1   108.0100461 406.684800
   5255   5257   5260     1   108.0100461 406.684800
   5256   5255   5276     1   110.1100470 384.091200
   5256   5268   5269     1   109.8000471 387.438400
   5256   5268   5270     1   109.8000471 387.438400
   5257   5255   5276     1   110.1100470 384.091200
   5257   5259   5261     1   109.8000471 387.438400
   5257   5259   5262     1   109.8000471 387.438400
   5258   5257   5259     1   110.5600475 386.601600
   5258   5257   5260     1   109.7500473 328.025600
   5259   5257   5260     1   110.5600475 386.601600
   5261   5259   5263     1   108.7700466 392.459200
   5261   5259   5262     1   107.5800459 329.699200
   5262   5259   5263     1   108.7700466 392.459200
   5263   5264   5274     1   106.5500460 417.563200
   5266   5256   5268     1   110.5600475 386.601600
   5266   5256   5267     1   109.7500473 328.025600
   5267   5256   5268     1   110.5600475 386.601600
   5269   5268   5271     1   108.7700466 392.459200
   5269   5268   5270     1   107.5800459 329.699200
   5270   5268   5271     1   108.7700466 392.459200
   5271   5273   5275     1   106.5500460 417.563200
   5277   5279   5280     1   108.8800464 416.726400
   5277   5279   5282     1   108.8800464 416.726400
   5278   5277   5279     1   117.6800502 383.254400
   5279   5281   5283     1   110.5600475 386.601600
   5279   5281   5284     1   110.5600475 386.601600
   5280   5279   5281     1   109.5600471 388.275200
   5280   5279   5282     1   108.4600466 328.025600
   5281   5285   5306     1   110.1100470 384.091200
   5281   5279   5282     1   109.5600471 388.275200
   5283   5281   5285     1   108.0100461 406.684800
   5283   5281   5284     1   109.7500473 328.025600
   5284   5281   5285     1   108.0100461 406.684800
   5285   5286   5296     1   108.0100461 406.684800
   5285   5286   5297     1   108.0100461 406.684800
   5285   5287   5288     1   108.0100461 406.684800
   5285   5287   5290     1   108.0100461 406.684800
   5286   5298   5299     1   109.8000471 387.438400
   5286   5298   5300     1   109.8000471 387.438400
   5286   5285   5306     1   110.1100470 384.091200
   5287   5289   5291     1   109.8000471 387.438400
   5287   5289   5292     1   109.8000471 387.438400
   5287   5285   5306     1   110.1100470 384.091200
   5288   5287   5289     1   110.5600475 386.601600
   5288   5287   5290     1   109.7500473 328.025600
   5289   5287   5290     1   110.5600475 386.601600
   5291   5289   5293     1   108.7700466 392.459200
   5291   5289   5292     1   107.5800459 329.699200
   5292   5289   5293     1   108.7700466 392.459200
   5293   5294   5304     1   106.5500460 417.563200
   5296   5286   5298     1   110.5600475 386.601600
   5296   5286   5297     1   109.7500473 328.025600
   5297   5286   5298     1   110.5600475 386.601600
   5299   5298   5301     1   108.7700466 392.459200
   5299   5298   5300     1   107.5800459 329.699200
   5300   5298   5301     1   108.7700466 392.459200
   5301   5303   5305     1   106.5500460 417.563200
   5307   5309   5310     1   108.8800464 416.726400
   5307   5309   5312     1   108.8800464 416.726400
   5308   5307   5309     1   117.6800502 383.254400
   5309   5311   5313     1   110.5600475 386.601600
   5309   5311   5314     1   110.5600475 386.601600
   5310   5309   5311     1   109.5600471 388.275200
   5310   5309   5312     1   108.4600466 328.025600
   5311   5309   5312     1   109.5600471 388.275200
   5311   5315   5336     1   110.1100470 384.091200
   5313   5311   5315     1   108.0100461 406.684800
   5313   5311   5314     1   109.7500473 328.025600
   5314   5311   5315     1   108.0100461 406.684800
   5315   5316   5326     1   108.0100461 406.684800
   5315   5316   5327     1   108.0100461 406.684800
   5315   5317   5318     1   108.0100461 406.684800
   5315   5317   5320     1   108.0100461 406.684800
   5316   5315   5336     1   110.1100470 384.091200
   5316   5328   5329     1   109.8000471 387.438400
   5316   5328   5330     1   109.8000471 387.438400
   5317   5315   5336     1   110.1100470 384.091200
   5317   5319   5321     1   109.8000471 387.438400
   5317   5319   5322     1   109.8000471 387.438400
   5318   5317   5319     1   110.5600475 386.601600
   5318   5317   5320     1   109.7500473 328.025600
   5319   5317   5320     1   110.5600475 386.601600
   5321   5319   5323     1   108.7700466 392.459200
   5321   5319   5322     1   107.5800459 329.699200
   5322   5319   5323     1   108.7700466 392.459200
   5323   5324   5334     1   106.5500460 417.563200
   5326   5316   5328     1   110.5600475 386.601600
   5326   5316   5327     1   109.7500473 328.025600
   5327   5316   5328     1   110.5600475 386.601600
   5329   5328   5331     1   108.7700466 392.459200
   5329   5328   5330     1   107.5800459 329.699200
   5330   5328   5331     1   108.7700466 392.459200
   5331   5333   5335     1   106.5500460 417.563200
   5337   5339   5340     1   108.8800464 416.726400
   5337   5339   5342     1   108.8800464 416.726400
   5338   5337   5339     1   117.6800502 383.254400
   5339   5341   5343     1   110.5600475 386.601600
   5339   5341   5344     1   110.5600475 386.601600
   5340   5339   5341     1   109.5600471 388.275200
   5340   5339   5342     1   108.4600466 328.025600
   5341   5345   5366     1   110.1100470 384.091200
   5341   5339   5342     1   109.5600471 388.275200
   5343   5341   5345     1   108.0100461 406.684800
   5343   5341   5344     1   109.7500473 328.025600
   5344   5341   5345     1   108.0100461 406.684800
   5345   5346   5356     1   108.0100461 406.684800
   5345   5346   5357     1   108.0100461 406.684800
   5345   5347   5348     1   108.0100461 406.684800
   5345   5347   5350     1   108.0100461 406.684800
   5346   5358   5359     1   109.8000471 387.438400
   5346   5358   5360     1   109.8000471 387.438400
   5346   5345   5366     1   110.1100470 384.091200
   5347   5349   5351     1   109.8000471 387.438400
   5347   5349   5352     1   109.8000471 387.438400
   5347   5345   5366     1   110.1100470 384.091200
   5348   5347   5349     1   110.5600475 386.601600
   5348   5347   5350     1   109.7500473 328.025600
   5349   5347   5350     1   110.5600475 386.601600
   5351   5349   5353     1   108.7700466 392.459200
   5351   5349   5352     1   107.5800459 329.699200
   5352   5349   5353     1   108.7700466 392.459200
   5353   5354   5364     1   106.5500460 417.563200
   5356   5346   5358     1   110.5600475 386.601600
   5356   5346   5357     1   109.7500473 328.025600
   5357   5346   5358     1   110.5600475 386.601600
   5359   5358   5361     1   108.7700466 392.459200
   5359   5358   5360     1   107.5800459 329.699200
   5360   5358   5361     1   108.7700466 392.459200
   5361   5363   5365     1   106.5500460 417.563200
   5367   5369   5370     1   108.8800464 416.726400
   5367   5369   5372     1   108.8800464 416.726400
   5368   5367   5369     1   117.6800502 383.254400
   5369   5371   5373     1   110.5600475 386.601600
   5369   5371   5374     1   110.5600475 386.601600
   5370   5369   5371     1   109.5600471 388.275200
   5370   5369   5372     1   108.4600466 328.025600
   5371   5369   5372     1   109.5600471 388.275200
   5371   5375   5396     1   110.1100470 384.091200
   5373   5371   5375     1   108.0100461 406.684800
   5373   5371   5374     1   109.7500473 328.025600
   5374   5371   5375     1   108.0100461 406.684800
   5375   5376   5386     1   108.0100461 406.684800
   5375   5376   5387     1   108.0100461 406.684800
   5375   5377   5378     1   108.0100461 406.684800
   5375   5377   5380     1   108.0100461 406.684800
   5376   5375   5396     1   110.1100470 384.091200
   5376   5388   5389     1   109.8000471 387.438400
   5376   5388   5390     1   109.8000471 387.438400
   5377   5375   5396     1   110.1100470 384.091200
   5377   5379   5381     1   109.8000471 387.438400
   5377   5379   5382     1   109.8000471 387.438400
   5378   5377   5379     1   110.5600475 386.601600
   5378   5377   5380     1   109.7500473 328.025600
   5379   5377   5380     1   110.5600475 386.601600
   5381   5379   5383     1   108.7700466 392.459200
   5381   5379   5382     1   107.5800459 329.699200
   5382   5379   5383     1   108.7700466 392.459200
   5383   5384   5394     1   106.5500460 417.563200
   5386   5376   5388     1   110.5600475 386.601600
   5386   5376   5387     1   109.7500473 328.025600
   5387   5376   5388     1   110.5600475 386.601600
   5389   5388   5391     1   108.7700466 392.459200
   5389   5388   5390     1   107.5800459 329.699200
   5390   5388   5391     1   108.7700466 392.459200
   5391   5393   5395     1   106.5500460 417.563200
   5397   5399   5400     1   108.8800464 416.726400
   5397   5399   5402     1   108.8800464 416.726400
   5398   5397   5399     1   117.6800502 383.254400
   5399   5401   5403     1   110.5600475 386.601600
   5399   5401   5404     1   110.5600475 386.601600
   5400   5399   5401     1   109.5600471 388.275200
   5400   5399   5402     1   108.4600466 328.025600
   5401   5405   5426     1   110.1100470 384.091200
   5401   5399   5402     1   109.5600471 388.275200
   5403   5401   5405     1   108.0100461 406.684800
   5403   5401   5404     1   109.7500473 328.025600
   5404   5401   5405     1   108.0100461 406.684800
   5405   5406   5416     1   108.0100461 406.684800
   5405   5406   5417     1   108.0100461 406.684800
   5405   5407   5408     1   108.0100461 406.684800
   5405   5407   5410     1   108.0100461 406.684800
   5406   5418   5419     1   109.8000471 387.438400
   5406   5418   5420     1   109.8000471 387.438400
   5406   5405   5426     1   110.1100470 384.091200
   5407   5409   5411     1   109.8000471 387.438400
   5407   5409   5412     1   109.8000471 387.438400
   5407   5405   5426     1   110.1100470 384.091200
   5408   5407   5409     1   110.5600475 386.601600
   5408   5407   5410     1   109.7500473 328.025600
   5409   5407   5410     1   110.5600475 386.601600
   5411   5409   5413     1   108.7700466 392.459200
   5411   5409   5412     1   107.5800459 329.699200
   5412   5409   5413     1   108.7700466 392.459200
   5413   5414   5424     1   106.5500460 417.563200
   5416   5406   5418     1   110.5600475 386.601600
   5416   5406   5417     1   109.7500473 328.025600
   5417   5406   5418     1   110.5600475 386.601600
   5419   5418   5421     1   108.7700466 392.459200
   5419   5418   5420     1   107.5800459 329.699200
   5420   5418   5421     1   108.7700466 392.459200
   5421   5423   5425     1   106.5500460 417.563200
   5427   5429   5430     1   108.8800464 416.726400
   5427   5429   5432     1   108.8800464 416.726400
   5428   5427   5429     1   117.6800502 383.254400
   5429   5431   5433     1   110.5600475 386.601600
   5429   5431   5434     1   110.5600475 386.601600
   5430   5429   5431     1   109.5600471 388.275200
   5430   5429   5432     1   108.4600466 328.025600
   5431   5429   5432     1   109.5600471 388.275200
   5431   5435   5456     1   110.1100470 384.091200
   5433   5431   5435     1   108.0100461 406.684800
   5433   5431   5434     1   109.7500473 328.025600
   5434   5431   5435     1   108.0100461 406.684800
   5435   5436   5446     1   108.0100461 406.684800
   5435   5436   5447     1   108.0100461 406.684800
   5435   5437   5438     1   108.0100461 406.684800
   5435   5437   5440     1   108.0100461 406.684800
   5436   5435   5456     1   110.1100470 384.091200
   5436   5448   5449     1   109.8000471 387.438400
   5436   5448   5450     1   109.8000471 387.438400
   5437   5435   5456     1   110.1100470 384.091200
   5437   5439   5441     1   109.8000471 387.438400
   5437   5439   5442     1   109.8000471 387.438400
   5438   5437   5439     1   110.5600475 386.601600
   5438   5437   5440     1   109.7500473 328.025600
   5439   5437   5440     1   110.5600475 386.601600
   5441   5439   5443     1   108.7700466 392.459200
   5441   5439   5442     1   107.5800459 329.699200
   5442   5439   5443     1   108.7700466 392.459200
   5443   5444   5454     1   106.5500460 417.563200
   5446   5436   5448     1   110.5600475 386.601600
   5446   5436   5447     1   109.7500473 328.025600
   5447   5436   5448     1   110.5600475 386.601600
   5449   5448   5451     1   108.7700466 392.459200
   5449   5448   5450     1   107.5800459 329.699200
   5450   5448   5451     1   108.7700466 392.459200
   5451   5453   5455     1   106.5500460 417.563200
   5457   5459   5460     1   108.8800464 416.726400
   5457   5459   5462     1   108.8800464 416.726400
   5458   5457   5459     1   117.6800502 383.254400
   5459   5461   5463     1   110.5600475 386.601600
   5459   5461   5464     1   110.5600475 386.601600
   5460   5459   5461     1   109.5600471 388.275200
   5460   5459   5462     1   108.4600466 328.025600
   5461   5465   5486     1   110.1100470 384.091200
   5461   5459   5462     1   109.5600471 388.275200
   5463   5461   5465     1   108.0100461 406.684800
   5463   5461   5464     1   109.7500473 328.025600
   5464   5461   5465     1   108.0100461 406.684800
   5465   5466   5476     1   108.0100461 406.684800
   5465   5466   5477     1   108.0100461 406.684800
   5465   5467   5468     1   108.0100461 406.684800
   5465   5467   5470     1   108.0100461 406.684800
   5466   5478   5479     1   109.8000471 387.438400
   5466   5478   5480     1   109.8000471 387.438400
   5466   5465   5486     1   110.1100470 384.091200
   5467   5469   5471     1   109.8000471 387.438400
   5467   5469   5472     1   109.8000471 387.438400
   5467   5465   5486     1   110.1100470 384.091200
   5468   5467   5469     1   110.5600475 386.601600
   5468   5467   5470     1   109.7500473 328.025600
   5469   5467   5470     1   110.5600475 386.601600
   5471   5469   5473     1   108.7700466 392.459200
   5471   5469   5472     1   107.5800459 329.699200
   5472   5469   5473     1   108.7700466 392.459200
   5473   5474   5484     1   106.5500460 417.563200
   5476   5466   5478     1   110.5600475 386.601600
   5476   5466   5477     1   109.7500473 328.025600
   5477   5466   5478     1   110.5600475 386.601600
   5479   5478   5481     1   108.7700466 392.459200
   5479   5478   5480     1   107.5800459 329.699200
   5480   5478   5481     1   108.7700466 392.459200
   5481   5483   5485     1   106.5500460 417.563200
   5487   5489   5490     1   108.8800464 416.726400
   5487   5489   5492     1   108.8800464 416.726400
   5488   5487   5489     1   117.6800502 383.254400
   5489   5491   5493     1   110.5600475 386.601600
   5489   5491   5494     1   110.5600475 386.601600
   5490   5489   5491     1   109.5600471 388.275200
   5490   5489   5492     1   108.4600466 328.025600
   5491   5489   5492     1   109.5600471 388.275200
   5491   5495   5516     1   110.1100470 384.091200
   5493   5491   5495     1   108.0100461 406.684800
   5493   5491   5494     1   109.7500473 328.025600
   5494   5491   5495     1   108.0100461 406.684800
   5495   5496   5506     1   108.0100461 406.684800
   5495   5496   5507     1   108.0100461 406.684800
   5495   5497   5498     1   108.0100461 406.684800
   5495   5497   5500     1   108.0100461 406.684800
   5496   5495   5516     1   110.1100470 384.091200
   5496   5508   5509     1   109.8000471 387.438400
   5496   5508   5510     1   109.8000471 387.438400
   5497   5495   5516     1   110.1100470 384.091200
   5497   5499   5501     1   109.8000471 387.438400
   5497   5499   5502     1   109.8000471 387.438400
   5498   5497   5499     1   110.5600475 386.601600
   5498   5497   5500     1   109.7500473 328.025600
   5499   5497   5500     1   110.5600475 386.601600
   5501   5499   5503     1   108.7700466 392.459200
   5501   5499   5502     1   107.5800459 329.699200
   5502   5499   5503     1   108.7700466 392.459200
   5503   5504   5514     1   106.5500460 417.563200
   5506   5496   5508     1   110.5600475 386.601600
   5506   5496   5507     1   109.7500473 328.025600
   5507   5496   5508     1   110.5600475 386.601600
   5509   5508   5511     1   108.7700466 392.459200
   5509   5508   5510     1   107.5800459 329.699200
   5510   5508   5511     1   108.7700466 392.459200
   5511   5513   5515     1   106.5500460 417.563200
   5517   5519   5520     1   108.8800464 416.726400
   5517   5519   5522     1   108.8800464 416.726400
   5518   5517   5519     1   117.6800502 383.254400
   5519   5521   5523     1   110.5600475 386.601600
   5519   5521   5524     1   110.5600475 386.601600
   5520   5519   5521     1   109.5600471 388.275200
   5520   5519   5522     1   108.4600466 328.025600
   5521   5525   5546     1   110.1100470 384.091200
   5521   5519   5522     1   109.5600471 388.275200
   5523   5521   5525     1   108.0100461 406.684800
   5523   5521   5524     1   109.7500473 328.025600
   5524   5521   5525     1   108.0100461 406.684800
   5525   5526   5536     1   108.0100461 406.684800
   5525   5526   5537     1   108.0100461 406.684800
   5525   5527   5528     1   108.0100461 406.684800
   5525   5527   5530     1   108.0100461 406.684800
   5526   5538   5539     1   109.8000471 387.438400
   5526   5538   5540     1   109.8000471 387.438400
   5526   5525   5546     1   110.1100470 384.091200
   5527   5529   5531     1   109.8000471 387.438400
   5527   5529   5532     1   109.8000471 387.438400
   5527   5525   5546     1   110.1100470 384.091200
   5528   5527   5529     1   110.5600475 386.601600
   5528   5527   5530     1   109.7500473 328.025600
   5529   5527   5530     1   110.5600475 386.601600
   5531   5529   5533     1   108.7700466 392.459200
   5531   5529   5532     1   107.5800459 329.699200
   5532   5529   5533     1   108.7700466 392.459200
   5533   5534   5544     1   106.5500460 417.563200
   5536   5526   5538     1   110.5600475 386.601600
   5536   5526   5537     1   109.7500473 328.025600
   5537   5526   5538     1   110.5600475 386.601600
   5539   5538   5541     1   108.7700466 392.459200
   5539   5538   5540     1   107.5800459 329.699200
   5540   5538   5541     1   108.7700466 392.459200
   5541   5543   5545     1   106.5500460 417.563200
   5547   5549   5550     1   108.8800464 416.726400
   5547   5549   5552     1   108.8800464 416.726400
   5548   5547   5549     1   117.6800502 383.254400
   5549   5551   5553     1   110.5600475 386.601600
   5549   5551   5554     1   110.5600475 386.601600
   5550   5549   5551     1   109.5600471 388.275200
   5550   5549   5552     1   108.4600466 328.025600
   5551   5549   5552     1   109.5600471 388.275200
   5551   5555   5576     1   110.1100470 384.091200
   5553   5551   5555     1   108.0100461 406.684800
   5553   5551   5554     1   109.7500473 328.025600
   5554   5551   5555     1   108.0100461 406.684800
   5555   5556   5566     1   108.0100461 406.684800
   5555   5556   5567     1   108.0100461 406.684800
   5555   5557   5558     1   108.0100461 406.684800
   5555   5557   5560     1   108.0100461 406.684800
   5556   5555   5576     1   110.1100470 384.091200
   5556   5568   5569     1   109.8000471 387.438400
   5556   5568   5570     1   109.8000471 387.438400
   5557   5555   5576     1   110.1100470 384.091200
   5557   5559   5561     1   109.8000471 387.438400
   5557   5559   5562     1   109.8000471 387.438400
   5558   5557   5559     1   110.5600475 386.601600
   5558   5557   5560     1   109.7500473 328.025600
   5559   5557   5560     1   110.5600475 386.601600
   5561   5559   5563     1   108.7700466 392.459200
   5561   5559   5562     1   107.5800459 329.699200
   5562   5559   5563     1   108.7700466 392.459200
   5563   5564   5574     1   106.5500460 417.563200
   5566   5556   5568     1   110.5600475 386.601600
   5566   5556   5567     1   109.7500473 328.025600
   5567   5556   5568     1   110.5600475 386.601600
   5569   5568   5571     1   108.7700466 392.459200
   5569   5568   5570     1   107.5800459 329.699200
   5570   5568   5571     1   108.7700466 392.459200
   5571   5573   5575     1   106.5500460 417.563200
   5577   5579   5580     1   108.8800464 416.726400
   5577   5579   5582     1   108.8800464 416.726400
   5578   5577   5579     1   117.6800502 383.254400
   5579   5581   5583     1   110.5600475 386.601600
   5579   5581   5584     1   110.5600475 386.601600
   5580   5579   5581     1   109.5600471 388.275200
   5580   5579   5582     1   108.4600466 328.025600
   5581   5585   5606     1   110.1100470 384.091200
   5581   5579   5582     1   109.5600471 388.275200
   5583   5581   5585     1   108.0100461 406.684800
   5583   5581   5584     1   109.7500473 328.025600
   5584   5581   5585     1   108.0100461 406.684800
   5585   5586   5596     1   108.0100461 406.684800
   5585   5586   5597     1   108.0100461 406.684800
   5585   5587   5588     1   108.0100461 406.684800
   5585   5587   5590     1   108.0100461 406.684800
   5586   5598   5599     1   109.8000471 387.438400
   5586   5598   5600     1   109.8000471 387.438400
   5586   5585   5606     1   110.1100470 384.091200
   5587   5589   5591     1   109.8000471 387.438400
   5587   5589   5592     1   109.8000471 387.438400
   5587   5585   5606     1   110.1100470 384.091200
   5588   5587   5589     1   110.5600475 386.601600
   5588   5587   5590     1   109.7500473 328.025600
   5589   5587   5590     1   110.5600475 386.601600
   5591   5589   5593     1   108.7700466 392.459200
   5591   5589   5592     1   107.5800459 329.699200
   5592   5589   5593     1   108.7700466 392.459200
   5593   5594   5604     1   106.5500460 417.563200
   5596   5586   5598     1   110.5600475 386.601600
   5596   5586   5597     1   109.7500473 328.025600
   5597   5586   5598     1   110.5600475 386.601600
   5599   5598   5601     1   108.7700466 392.459200
   5599   5598   5600     1   107.5800459 329.699200
   5600   5598   5601     1   108.7700466 392.459200
   5601   5603   5605     1   106.5500460 417.563200
   5607   5609   5610     1   108.8800464 416.726400
   5607   5609   5612     1   108.8800464 416.726400
   5608   5607   5609     1   117.6800502 383.254400
   5609   5611   5613     1   110.5600475 386.601600
   5609   5611   5614     1   110.5600475 386.601600
   5610   5609   5611     1   109.5600471 388.275200
   5610   5609   5612     1   108.4600466 328.025600
   5611   5609   5612     1   109.5600471 388.275200
   5611   5615   5636     1   110.1100470 384.091200
   5613   5611   5615     1   108.0100461 406.684800
   5613   5611   5614     1   109.7500473 328.025600
   5614   5611   5615     1   108.0100461 406.684800
   5615   5616   5626     1   108.0100461 406.684800
   5615   5616   5627     1   108.0100461 406.684800
   5615   5617   5618     1   108.0100461 406.684800
   5615   5617   5620     1   108.0100461 406.684800
   5616   5615   5636     1   110.1100470 384.091200
   5616   5628   5629     1   109.8000471 387.438400
   5616   5628   5630     1   109.8000471 387.438400
   5617   5615   5636     1   110.1100470 384.091200
   5617   5619   5621     1   109.8000471 387.438400
   5617   5619   5622     1   109.8000471 387.438400
   5618   5617   5619     1   110.5600475 386.601600
   5618   5617   5620     1   109.7500473 328.025600
   5619   5617   5620     1   110.5600475 386.601600
   5621   5619   5623     1   108.7700466 392.459200
   5621   5619   5622     1   107.5800459 329.699200
   5622   5619   5623     1   108.7700466 392.459200
   5623   5624   5634     1   106.5500460 417.563200
   5626   5616   5628     1   110.5600475 386.601600
   5626   5616   5627     1   109.7500473 328.025600
   5627   5616   5628     1   110.5600475 386.601600
   5629   5628   5631     1   108.7700466 392.459200
   5629   5628   5630     1   107.5800459 329.699200
   5630   5628   5631     1   108.7700466 392.459200
   5631   5633   5635     1   106.5500460 417.563200
   5637   5639   5640     1   108.8800464 416.726400
   5637   5639   5642     1   108.8800464 416.726400
   5638   5637   5639     1   117.6800502 383.254400
   5639   5641   5643     1   110.5600475 386.601600
   5639   5641   5644     1   110.5600475 386.601600
   5640   5639   5641     1   109.5600471 388.275200
   5640   5639   5642     1   108.4600466 328.025600
   5641   5645   5666     1   110.1100470 384.091200
   5641   5639   5642     1   109.5600471 388.275200
   5643   5641   5645     1   108.0100461 406.684800
   5643   5641   5644     1   109.7500473 328.025600
   5644   5641   5645     1   108.0100461 406.684800
   5645   5646   5656     1   108.0100461 406.684800
   5645   5646   5657     1   108.0100461 406.684800
   5645   5647   5648     1   108.0100461 406.684800
   5645   5647   5650     1   108.0100461 406.684800
   5646   5658   5659     1   109.8000471 387.438400
   5646   5658   5660     1   109.8000471 387.438400
   5646   5645   5666     1   110.1100470 384.091200
   5647   5649   5651     1   109.8000471 387.438400
   5647   5649   5652     1   109.8000471 387.438400
   5647   5645   5666     1   110.1100470 384.091200
   5648   5647   5649     1   110.5600475 386.601600
   5648   5647   5650     1   109.7500473 328.025600
   5649   5647   5650     1   110.5600475 386.601600
   5651   5649   5653     1   108.7700466 392.459200
   5651   5649   5652     1   107.5800459 329.699200
   5652   5649   5653     1   108.7700466 392.459200
   5653   5654   5664     1   106.5500460 417.563200
   5656   5646   5658     1   110.5600475 386.601600
   5656   5646   5657     1   109.7500473 328.025600
   5657   5646   5658     1   110.5600475 386.601600
   5659   5658   5661     1   108.7700466 392.459200
   5659   5658   5660     1   107.5800459 329.699200
   5660   5658   5661     1   108.7700466 392.459200
   5661   5663   5665     1   106.5500460 417.563200
   5667   5669   5670     1   108.8800464 416.726400
   5667   5669   5672     1   108.8800464 416.726400
   5668   5667   5669     1   117.6800502 383.254400
   5669   5671   5673     1   110.5600475 386.601600
   5669   5671   5674     1   110.5600475 386.601600
   5670   5669   5671     1   109.5600471 388.275200
   5670   5669   5672     1   108.4600466 328.025600
   5671   5669   5672     1   109.5600471 388.275200
   5671   5675   5696     1   110.1100470 384.091200
   5673   5671   5675     1   108.0100461 406.684800
   5673   5671   5674     1   109.7500473 328.025600
   5674   5671   5675     1   108.0100461 406.684800
   5675   5676   5686     1   108.0100461 406.684800
   5675   5676   5687     1   108.0100461 406.684800
   5675   5677   5678     1   108.0100461 406.684800
   5675   5677   5680     1   108.0100461 406.684800
   5676   5675   5696     1   110.1100470 384.091200
   5676   5688   5689     1   109.8000471 387.438400
   5676   5688   5690     1   109.8000471 387.438400
   5677   5675   5696     1   110.1100470 384.091200
   5677   5679   5681     1   109.8000471 387.438400
   5677   5679   5682     1   109.8000471 387.438400
   5678   5677   5679     1   110.5600475 386.601600
   5678   5677   5680     1   109.7500473 328.025600
   5679   5677   5680     1   110.5600475 386.601600
   5681   5679   5683     1   108.7700466 392.459200
   5681   5679   5682     1   107.5800459 329.699200
   5682   5679   5683     1   108.7700466 392.459200
   5683   5684   5694     1   106.5500460 417.563200
   5686   5676   5688     1   110.5600475 386.601600
   5686   5676   5687     1   109.7500473 328.025600
   5687   5676   5688     1   110.5600475 386.601600
   5689   5688   5691     1   108.7700466 392.459200
   5689   5688   5690     1   107.5800459 329.699200
   5690   5688   5691     1   108.7700466 392.459200
   5691   5693   5695     1   106.5500460 417.563200
   5697   5699   5700     1   108.8800464 416.726400
   5697   5699   5702     1   108.8800464 416.726400
   5698   5697   5699     1   117.6800502 383.254400
   5699   5701   5703     1   110.5600475 386.601600
   5699   5701   5704     1   110.5600475 386.601600
   5700   5699   5701     1   109.5600471 388.275200
   5700   5699   5702     1   108.4600466 328.025600
   5701   5705   5726     1   110.1100470 384.091200
   5701   5699   5702     1   109.5600471 388.275200
   5703   5701   5705     1   108.0100461 406.684800
   5703   5701   5704     1   109.7500473 328.025600
   5704   5701   5705     1   108.0100461 406.684800
   5705   5706   5716     1   108.0100461 406.684800
   5705   5706   5717     1   108.0100461 406.684800
   5705   5707   5708     1   108.0100461 406.684800
   5705   5707   5710     1   108.0100461 406.684800
   5706   5718   5719     1   109.8000471 387.438400
   5706   5718   5720     1   109.8000471 387.438400
   5706   5705   5726     1   110.1100470 384.091200
   5707   5709   5711     1   109.8000471 387.438400
   5707   5709   5712     1   109.8000471 387.438400
   5707   5705   5726     1   110.1100470 384.091200
   5708   5707   5709     1   110.5600475 386.601600
   5708   5707   5710     1   109.7500473 328.025600
   5709   5707   5710     1   110.5600475 386.601600
   5711   5709   5713     1   108.7700466 392.459200
   5711   5709   5712     1   107.5800459 329.699200
   5712   5709   5713     1   108.7700466 392.459200
   5713   5714   5724     1   106.5500460 417.563200
   5716   5706   5718     1   110.5600475 386.601600
   5716   5706   5717     1   109.7500473 328.025600
   5717   5706   5718     1   110.5600475 386.601600
   5719   5718   5721     1   108.7700466 392.459200
   5719   5718   5720     1   107.5800459 329.699200
   5720   5718   5721     1   108.7700466 392.459200
   5721   5723   5725     1   106.5500460 417.563200
   5727   5729   5730     1   108.8800464 416.726400
   5727   5729   5732     1   108.8800464 416.726400
   5728   5727   5729     1   117.6800502 383.254400
   5729   5731   5733     1   110.5600475 386.601600
   5729   5731   5734     1   110.5600475 386.601600
   5730   5729   5731     1   109.5600471 388.275200
   5730   5729   5732     1   108.4600466 328.025600
   5731   5729   5732     1   109.5600471 388.275200
   5731   5735   5756     1   110.1100470 384.091200
   5733   5731   5735     1   108.0100461 406.684800
   5733   5731   5734     1   109.7500473 328.025600
   5734   5731   5735     1   108.0100461 406.684800
   5735   5736   5746     1   108.0100461 406.684800
   5735   5736   5747     1   108.0100461 406.684800
   5735   5737   5738     1   108.0100461 406.684800
   5735   5737   5740     1   108.0100461 406.684800
   5736   5735   5756     1   110.1100470 384.091200
   5736   5748   5749     1   109.8000471 387.438400
   5736   5748   5750     1   109.8000471 387.438400
   5737   5735   5756     1   110.1100470 384.091200
   5737   5739   5741     1   109.8000471 387.438400
   5737   5739   5742     1   109.8000471 387.438400
   5738   5737   5739     1   110.5600475 386.601600
   5738   5737   5740     1   109.7500473 328.025600
   5739   5737   5740     1   110.5600475 386.601600
   5741   5739   5743     1   108.7700466 392.459200
   5741   5739   5742     1   107.5800459 329.699200
   5742   5739   5743     1   108.7700466 392.459200
   5743   5744   5754     1   106.5500460 417.563200
   5746   5736   5748     1   110.5600475 386.601600
   5746   5736   5747     1   109.7500473 328.025600
   5747   5736   5748     1   110.5600475 386.601600
   5749   5748   5751     1   108.7700466 392.459200
   5749   5748   5750     1   107.5800459 329.699200
   5750   5748   5751     1   108.7700466 392.459200
   5751   5753   5755     1   106.5500460 417.563200
   5757   5759   5760     1   108.8800464 416.726400
   5757   5759   5762     1   108.8800464 416.726400
   5758   5757   5759     1   117.6800502 383.254400
   5759   5761   5763     1   110.5600475 386.601600
   5759   5761   5764     1   110.5600475 386.601600
   5760   5759   5761     1   109.5600471 388.275200
   5760   5759   5762     1   108.4600466 328.025600
   5761   5765   5786     1   110.1100470 384.091200
   5761   5759   5762     1   109.5600471 388.275200
   5763   5761   5765     1   108.0100461 406.684800
   5763   5761   5764     1   109.7500473 328.025600
   5764   5761   5765     1   108.0100461 406.684800
   5765   5766   5776     1   108.0100461 406.684800
   5765   5766   5777     1   108.0100461 406.684800
   5765   5767   5768     1   108.0100461 406.684800
   5765   5767   5770     1   108.0100461 406.684800
   5766   5778   5779     1   109.8000471 387.438400
   5766   5778   5780     1   109.8000471 387.438400
   5766   5765   5786     1   110.1100470 384.091200
   5767   5769   5771     1   109.8000471 387.438400
   5767   5769   5772     1   109.8000471 387.438400
   5767   5765   5786     1   110.1100470 384.091200
   5768   5767   5769     1   110.5600475 386.601600
   5768   5767   5770     1   109.7500473 328.025600
   5769   5767   5770     1   110.5600475 386.601600
   5771   5769   5773     1   108.7700466 392.459200
   5771   5769   5772     1   107.5800459 329.699200
   5772   5769   5773     1   108.7700466 392.459200
   5773   5774   5784     1   106.5500460 417.563200
   5776   5766   5778     1   110.5600475 386.601600
   5776   5766   5777     1   109.7500473 328.025600
   5777   5766   5778     1   110.5600475 386.601600
   5779   5778   5781     1   108.7700466 392.459200
   5779   5778   5780     1   107.5800459 329.699200
   5780   5778   5781     1   108.7700466 392.459200
   5781   5783   5785     1   106.5500460 417.563200
   5787   5789   5790     1   108.8800464 416.726400
   5787   5789   5792     1   108.8800464 416.726400
   5788   5787   5789     1   117.6800502 383.254400
   5789   5791   5793     1   110.5600475 386.601600
   5789   5791   5794     1   110.5600475 386.601600
   5790   5789   5791     1   109.5600471 388.275200
   5790   5789   5792     1   108.4600466 328.025600
   5791   5789   5792     1   109.5600471 388.275200
   5791   5795   5816     1   110.1100470 384.091200
   5793   5791   5795     1   108.0100461 406.684800
   5793   5791   5794     1   109.7500473 328.025600
   5794   5791   5795     1   108.0100461 406.684800
   5795   5796   5806     1   108.0100461 406.684800
   5795   5796   5807     1   108.0100461 406.684800
   5795   5797   5798     1   108.0100461 406.684800
   5795   5797   5800     1   108.0100461 406.684800
   5796   5795   5816     1   110.1100470 384.091200
   5796   5808   5809     1   109.8000471 387.438400
   5796   5808   5810     1   109.8000471 387.438400
   5797   5795   5816     1   110.1100470 384.091200
   5797   5799   5801     1   109.8000471 387.438400
   5797   5799   5802     1   109.8000471 387.438400
   5798   5797   5799     1   110.5600475 386.601600
   5798   5797   5800     1   109.7500473 328.025600
   5799   5797   5800     1   110.5600475 386.601600
   5801   5799   5803     1   108.7700466 392.459200
   5801   5799   5802     1   107.5800459 329.699200
   5802   5799   5803     1   108.7700466 392.459200
   5803   5804   5814     1   106.5500460 417.563200
   5806   5796   5808     1   110.5600475 386.601600
   5806   5796   5807     1   109.7500473 328.025600
   5807   5796   5808     1   110.5600475 386.601600
   5809   5808   5811     1   108.7700466 392.459200
   5809   5808   5810     1   107.5800459 329.699200
   5810   5808   5811     1   108.7700466 392.459200
   5811   5813   5815     1   106.5500460 417.563200
   5817   5819   5820     1   108.8800464 416.726400
   5817   5819   5822     1   108.8800464 416.726400
   5818   5817   5819     1   117.6800502 383.254400
   5819   5821   5823     1   110.5600475 386.601600
   5819   5821   5824     1   110.5600475 386.601600
   5820   5819   5821     1   109.5600471 388.275200
   5820   5819   5822     1   108.4600466 328.025600
   5821   5825   5846     1   110.1100470 384.091200
   5821   5819   5822     1   109.5600471 388.275200
   5823   5821   5825     1   108.0100461 406.684800
   5823   5821   5824     1   109.7500473 328.025600
   5824   5821   5825     1   108.0100461 406.684800
   5825   5826   5836     1   108.0100461 406.684800
   5825   5826   5837     1   108.0100461 406.684800
   5825   5827   5828     1   108.0100461 406.684800
   5825   5827   5830     1   108.0100461 406.684800
   5826   5838   5839     1   109.8000471 387.438400
   5826   5838   5840     1   109.8000471 387.438400
   5826   5825   5846     1   110.1100470 384.091200
   5827   5829   5831     1   109.8000471 387.438400
   5827   5829   5832     1   109.8000471 387.438400
   5827   5825   5846     1   110.1100470 384.091200
   5828   5827   5829     1   110.5600475 386.601600
   5828   5827   5830     1   109.7500473 328.025600
   5829   5827   5830     1   110.5600475 386.601600
   5831   5829   5833     1   108.7700466 392.459200
   5831   5829   5832     1   107.5800459 329.699200
   5832   5829   5833     1   108.7700466 392.459200
   5833   5834   5844     1   106.5500460 417.563200
   5836   5826   5838     1   110.5600475 386.601600
   5836   5826   5837     1   109.7500473 328.025600
   5837   5826   5838     1   110.5600475 386.601600
   5839   5838   5841     1   108.7700466 392.459200
   5839   5838   5840     1   107.5800459 329.699200
   5840   5838   5841     1   108.7700466 392.459200
   5841   5843   5845     1   106.5500460 417.563200
   5847   5849   5850     1   108.8800464 416.726400
   5847   5849   5852     1   108.8800464 416.726400
   5848   5847   5849     1   117.6800502 383.254400
   5849   5851   5853     1   110.5600475 386.601600
   5849   5851   5854     1   110.5600475 386.601600
   5850   5849   5851     1   109.5600471 388.275200
   5850   5849   5852     1   108.4600466 328.025600
   5851   5849   5852     1   109.5600471 388.275200
   5851   5855   5876     1   110.1100470 384.091200
   5853   5851   5855     1   108.0100461 406.684800
   5853   5851   5854     1   109.7500473 328.025600
   5854   5851   5855     1   108.0100461 406.684800
   5855   5856   5866     1   108.0100461 406.684800
   5855   5856   5867     1   108.0100461 406.684800
   5855   5857   5858     1   108.0100461 406.684800
   5855   5857   5860     1   108.0100461 406.684800
   5856   5855   5876     1   110.1100470 384.091200
   5856   5868   5869     1   109.8000471 387.438400
   5856   5868   5870     1   109.8000471 387.438400
   5857   5855   5876     1   110.1100470 384.091200
   5857   5859   5861     1   109.8000471 387.438400
   5857   5859   5862     1   109.8000471 387.438400
   5858   5857   5859     1   110.5600475 386.601600
   5858   5857   5860     1   109.7500473 328.025600
   5859   5857   5860     1   110.5600475 386.601600
   5861   5859   5863     1   108.7700466 392.459200
   5861   5859   5862     1   107.5800459 329.699200
   5862   5859   5863     1   108.7700466 392.459200
   5863   5864   5874     1   106.5500460 417.563200
   5866   5856   5868     1   110.5600475 386.601600
   5866   5856   5867     1   109.7500473 328.025600
   5867   5856   5868     1   110.5600475 386.601600
   5869   5868   5871     1   108.7700466 392.459200
   5869   5868   5870     1   107.5800459 329.699200
   5870   5868   5871     1   108.7700466 392.459200
   5871   5873   5875     1   106.5500460 417.563200
   5877   5879   5880     1   108.8800464 416.726400
   5877   5879   5882     1   108.8800464 416.726400
   5878   5877   5879     1   117.6800502 383.254400
   5879   5881   5883     1   110.5600475 386.601600
   5879   5881   5884     1   110.5600475 386.601600
   5880   5879   5881     1   109.5600471 388.275200
   5880   5879   5882     1   108.4600466 328.025600
   5881   5885   5906     1   110.1100470 384.091200
   5881   5879   5882     1   109.5600471 388.275200
   5883   5881   5885     1   108.0100461 406.684800
   5883   5881   5884     1   109.7500473 328.025600
   5884   5881   5885     1   108.0100461 406.684800
   5885   5886   5896     1   108.0100461 406.684800
   5885   5886   5897     1   108.0100461 406.684800
   5885   5887   5888     1   108.0100461 406.684800
   5885   5887   5890     1   108.0100461 406.684800
   5886   5898   5899     1   109.8000471 387.438400
   5886   5898   5900     1   109.8000471 387.438400
   5886   5885   5906     1   110.1100470 384.091200
   5887   5889   5891     1   109.8000471 387.438400
   5887   5889   5892     1   109.8000471 387.438400
   5887   5885   5906     1   110.1100470 384.091200
   5888   5887   5889     1   110.5600475 386.601600
   5888   5887   5890     1   109.7500473 328.025600
   5889   5887   5890     1   110.5600475 386.601600
   5891   5889   5893     1   108.7700466 392.459200
   5891   5889   5892     1   107.5800459 329.699200
   5892   5889   5893     1   108.7700466 392.459200
   5893   5894   5904     1   106.5500460 417.563200
   5896   5886   5898     1   110.5600475 386.601600
   5896   5886   5897     1   109.7500473 328.025600
   5897   5886   5898     1   110.5600475 386.601600
   5899   5898   5901     1   108.7700466 392.459200
   5899   5898   5900     1   107.5800459 329.699200
   5900   5898   5901     1   108.7700466 392.459200
   5901   5903   5905     1   106.5500460 417.563200
   5907   5909   5910     1   108.8800464 416.726400
   5907   5909   5912     1   108.8800464 416.726400
   5908   5907   5909     1   117.6800502 383.254400
   5909   5911   5913     1   110.5600475 386.601600
   5909   5911   5914     1   110.5600475 386.601600
   5910   5909   5911     1   109.5600471 388.275200
   5910   5909   5912     1   108.4600466 328.025600
   5911   5909   5912     1   109.5600471 388.275200
   5911   5915   5936     1   110.1100470 384.091200
   5913   5911   5915     1   108.0100461 406.684800
   5913   5911   5914     1   109.7500473 328.025600
   5914   5911   5915     1   108.0100461 406.684800
   5915   5916   5926     1   108.0100461 406.684800
   5915   5916   5927     1   108.0100461 406.684800
   5915   5917   5918     1   108.0100461 406.684800
   5915   5917   5920     1   108.0100461 406.684800
   5916   5915   5936     1   110.1100470 384.091200
   5916   5928   5929     1   109.8000471 387.438400
   5916   5928   5930     1   109.8000471 387.438400
   5917   5915   5936     1   110.1100470 384.091200
   5917   5919   5921     1   109.8000471 387.438400
   5917   5919   5922     1   109.8000471 387.438400
   5918   5917   5919     1   110.5600475 386.601600
   5918   5917   5920     1   109.7500473 328.025600
   5919   5917   5920     1   110.5600475 386.601600
   5921   5919   5923     1   108.7700466 392.459200
   5921   5919   5922     1   107.5800459 329.699200
   5922   5919   5923     1   108.7700466 392.459200
   5923   5924   5934     1   106.5500460 417.563200
   5926   5916   5928     1   110.5600475 386.601600
   5926   5916   5927     1   109.7500473 328.025600
   5927   5916   5928     1   110.5600475 386.601600
   5929   5928   5931     1   108.7700466 392.459200
   5929   5928   5930     1   107.5800459 329.699200
   5930   5928   5931     1   108.7700466 392.459200
   5931   5933   5935     1   106.5500460 417.563200
   5937   5939   5940     1   108.8800464 416.726400
   5937   5939   5942     1   108.8800464 416.726400
   5938   5937   5939     1   117.6800502 383.254400
   5939   5941   5943     1   110.5600475 386.601600
   5939   5941   5944     1   110.5600475 386.601600
   5940   5939   5941     1   109.5600471 388.275200
   5940   5939   5942     1   108.4600466 328.025600
   5941   5945   5966     1   110.1100470 384.091200
   5941   5939   5942     1   109.5600471 388.275200
   5943   5941   5945     1   108.0100461 406.684800
   5943   5941   5944     1   109.7500473 328.025600
   5944   5941   5945     1   108.0100461 406.684800
   5945   5946   5956     1   108.0100461 406.684800
   5945   5946   5957     1   108.0100461 406.684800
   5945   5947   5948     1   108.0100461 406.684800
   5945   5947   5950     1   108.0100461 406.684800
   5946   5958   5959     1   109.8000471 387.438400
   5946   5958   5960     1   109.8000471 387.438400
   5946   5945   5966     1   110.1100470 384.091200
   5947   5949   5951     1   109.8000471 387.438400
   5947   5949   5952     1   109.8000471 387.438400
   5947   5945   5966     1   110.1100470 384.091200
   5948   5947   5949     1   110.5600475 386.601600
   5948   5947   5950     1   109.7500473 328.025600
   5949   5947   5950     1   110.5600475 386.601600
   5951   5949   5953     1   108.7700466 392.459200
   5951   5949   5952     1   107.5800459 329.699200
   5952   5949   5953     1   108.7700466 392.459200
   5953   5954   5964     1   106.5500460 417.563200
   5956   5946   5958     1   110.5600475 386.601600
   5956   5946   5957     1   109.7500473 328.025600
   5957   5946   5958     1   110.5600475 386.601600
   5959   5958   5961     1   108.7700466 392.459200
   5959   5958   5960     1   107.5800459 329.699200
   5960   5958   5961     1   108.7700466 392.459200
   5961   5963   5965     1   106.5500460 417.563200
   5967   5969   5970     1   108.8800464 416.726400
   5967   5969   5972     1   108.8800464 416.726400
   5968   5967   5969     1   117.6800502 383.254400
   5969   5971   5973     1   110.5600475 386.601600
   5969   5971   5974     1   110.5600475 386.601600
   5970   5969   5971     1   109.5600471 388.275200
   5970   5969   5972     1   108.4600466 328.025600
   5971   5969   5972     1   109.5600471 388.275200
   5971   5975   5996     1   110.1100470 384.091200
   5973   5971   5975     1   108.0100461 406.684800
   5973   5971   5974     1   109.7500473 328.025600
   5974   5971   5975     1   108.0100461 406.684800
   5975   5976   5986     1   108.0100461 406.684800
   5975   5976   5987     1   108.0100461 406.684800
   5975   5977   5978     1   108.0100461 406.684800
   5975   5977   5980     1   108.0100461 406.684800
   5976   5975   5996     1   110.1100470 384.091200
   5976   5988   5989     1   109.8000471 387.438400
   5976   5988   5990     1   109.8000471 387.438400
   5977   5975   5996     1   110.1100470 384.091200
   5977   5979   5981     1   109.8000471 387.438400
   5977   5979   5982     1   109.8000471 387.438400
   5978   5977   5979     1   110.5600475 386.601600
   5978   5977   5980     1   109.7500473 328.025600
   5979   5977   5980     1   110.5600475 386.601600
   5981   5979   5983     1   108.7700466 392.459200
   5981   5979   5982     1   107.5800459 329.699200
   5982   5979   5983     1   108.7700466 392.459200
   5983   5984   5994     1   106.5500460 417.563200
   5986   5976   5988     1   110.5600475 386.601600
   5986   5976   5987     1   109.7500473 328.025600
   5987   5976   5988     1   110.5600475 386.601600
   5989   5988   5991     1   108.7700466 392.459200
   5989   5988   5990     1   107.5800459 329.699200
   5990   5988   5991     1   108.7700466 392.459200
   5991   5993   5995     1   106.5500460 417.563200
   5997   5999   6000     1   108.8800464 416.726400
   5997   5999   6002     1   108.8800464 416.726400
   5998   5997   5999     1   117.6800502 383.254400
   5999   6001   6003     1   110.5600475 386.601600
   5999   6001   6004     1   110.5600475 386.601600
   6000   5999   6001     1   109.5600471 388.275200
   6000   5999   6002     1   108.4600466 328.025600
   6001   6005   6026     1   110.1100470 384.091200
   6001   5999   6002     1   109.5600471 388.275200
   6003   6001   6005     1   108.0100461 406.684800
   6003   6001   6004     1   109.7500473 328.025600
   6004   6001   6005     1   108.0100461 406.684800
   6005   6006   6016     1   108.0100461 406.684800
   6005   6006   6017     1   108.0100461 406.684800
   6005   6007   6008     1   108.0100461 406.684800
   6005   6007   6010     1   108.0100461 406.684800
   6006   6018   6019     1   109.8000471 387.438400
   6006   6018   6020     1   109.8000471 387.438400
   6006   6005   6026     1   110.1100470 384.091200
   6007   6009   6011     1   109.8000471 387.438400
   6007   6009   6012     1   109.8000471 387.438400
   6007   6005   6026     1   110.1100470 384.091200
   6008   6007   6009     1   110.5600475 386.601600
   6008   6007   6010     1   109.7500473 328.025600
   6009   6007   6010     1   110.5600475 386.601600
   6011   6009   6013     1   108.7700466 392.459200
   6011   6009   6012     1   107.5800459 329.699200
   6012   6009   6013     1   108.7700466 392.459200
   6013   6014   6024     1   106.5500460 417.563200
   6016   6006   6018     1   110.5600475 386.601600
   6016   6006   6017     1   109.7500473 328.025600
   6017   6006   6018     1   110.5600475 386.601600
   6019   6018   6021     1   108.7700466 392.459200
   6019   6018   6020     1   107.5800459 329.699200
   6020   6018   6021     1   108.7700466 392.459200
   6021   6023   6025     1   106.5500460 417.563200
   6027   6029   6030     1   108.8800464 416.726400
   6027   6029   6032     1   108.8800464 416.726400
   6028   6027   6029     1   117.6800502 383.254400
   6029   6031   6033     1   110.5600475 386.601600
   6029   6031   6034     1   110.5600475 386.601600
   6030   6029   6031     1   109.5600471 388.275200
   6030   6029   6032     1   108.4600466 328.025600
   6031   6029   6032     1   109.5600471 388.275200
   6031   6035   6056     1   110.1100470 384.091200
   6033   6031   6035     1   108.0100461 406.684800
   6033   6031   6034     1   109.7500473 328.025600
   6034   6031   6035     1   108.0100461 406.684800
   6035   6036   6046     1   108.0100461 406.684800
   6035   6036   6047     1   108.0100461 406.684800
   6035   6037   6038     1   108.0100461 406.684800
   6035   6037   6040     1   108.0100461 406.684800
   6036   6035   6056     1   110.1100470 384.091200
   6036   6048   6049     1   109.8000471 387.438400
   6036   6048   6050     1   109.8000471 387.438400
   6037   6035   6056     1   110.1100470 384.091200
   6037   6039   6041     1   109.8000471 387.438400
   6037   6039   6042     1   109.8000471 387.438400
   6038   6037   6039     1   110.5600475 386.601600
   6038   6037   6040     1   109.7500473 328.025600
   6039   6037   6040     1   110.5600475 386.601600
   6041   6039   6043     1   108.7700466 392.459200
   6041   6039   6042     1   107.5800459 329.699200
   6042   6039   6043     1   108.7700466 392.459200
   6043   6044   6054     1   106.5500460 417.563200
   6046   6036   6048     1   110.5600475 386.601600
   6046   6036   6047     1   109.7500473 328.025600
   6047   6036   6048     1   110.5600475 386.601600
   6049   6048   6051     1   108.7700466 392.459200
   6049   6048   6050     1   107.5800459 329.699200
   6050   6048   6051     1   108.7700466 392.459200
   6051   6053   6055     1   106.5500460 417.563200
   6057   6059   6060     1   108.8800464 416.726400
   6057   6059   6062     1   108.8800464 416.726400
   6058   6057   6059     1   117.6800502 383.254400
   6059   6061   6063     1   110.5600475 386.601600
   6059   6061   6064     1   110.5600475 386.601600
   6060   6059   6061     1   109.5600471 388.275200
   6060   6059   6062     1   108.4600466 328.025600
   6061   6065   6086     1   110.1100470 384.091200
   6061   6059   6062     1   109.5600471 388.275200
   6063   6061   6065     1   108.0100461 406.684800
   6063   6061   6064     1   109.7500473 328.025600
   6064   6061   6065     1   108.0100461 406.684800
   6065   6066   6076     1   108.0100461 406.684800
   6065   6066   6077     1   108.0100461 406.684800
   6065   6067   6068     1   108.0100461 406.684800
   6065   6067   6070     1   108.0100461 406.684800
   6066   6078   6079     1   109.8000471 387.438400
   6066   6078   6080     1   109.8000471 387.438400
   6066   6065   6086     1   110.1100470 384.091200
   6067   6069   6071     1   109.8000471 387.438400
   6067   6069   6072     1   109.8000471 387.438400
   6067   6065   6086     1   110.1100470 384.091200
   6068   6067   6069     1   110.5600475 386.601600
   6068   6067   6070     1   109.7500473 328.025600
   6069   6067   6070     1   110.5600475 386.601600
   6071   6069   6073     1   108.7700466 392.459200
   6071   6069   6072     1   107.5800459 329.699200
   6072   6069   6073     1   108.7700466 392.459200
   6073   6074   6084     1   106.5500460 417.563200
   6076   6066   6078     1   110.5600475 386.601600
   6076   6066   6077     1   109.7500473 328.025600
   6077   6066   6078     1   110.5600475 386.601600
   6079   6078   6081     1   108.7700466 392.459200
   6079   6078   6080     1   107.5800459 329.699200
   6080   6078   6081     1   108.7700466 392.459200
   6081   6083   6085     1   106.5500460 417.563200
   6087   6089   6090     1   108.8800464 416.726400
   6087   6089   6092     1   108.8800464 416.726400
   6088   6087   6089     1   117.6800502 383.254400
   6089   6091   6093     1   110.5600475 386.601600
   6089   6091   6094     1   110.5600475 386.601600
   6090   6089   6091     1   109.5600471 388.275200
   6090   6089   6092     1   108.4600466 328.025600
   6091   6089   6092     1   109.5600471 388.275200
   6091   6095   6116     1   110.1100470 384.091200
   6093   6091   6095     1   108.0100461 406.684800
   6093   6091   6094     1   109.7500473 328.025600
   6094   6091   6095     1   108.0100461 406.684800
   6095   6096   6106     1   108.0100461 406.684800
   6095   6096   6107     1   108.0100461 406.684800
   6095   6097   6098     1   108.0100461 406.684800
   6095   6097   6100     1   108.0100461 406.684800
   6096   6095   6116     1   110.1100470 384.091200
   6096   6108   6109     1   109.8000471 387.438400
   6096   6108   6110     1   109.8000471 387.438400
   6097   6095   6116     1   110.1100470 384.091200
   6097   6099   6101     1   109.8000471 387.438400
   6097   6099   6102     1   109.8000471 387.438400
   6098   6097   6099     1   110.5600475 386.601600
   6098   6097   6100     1   109.7500473 328.025600
   6099   6097   6100     1   110.5600475 386.601600
   6101   6099   6103     1   108.7700466 392.459200
   6101   6099   6102     1   107.5800459 329.699200
   6102   6099   6103     1   108.7700466 392.459200
   6103   6104   6114     1   106.5500460 417.563200
   6106   6096   6108     1   110.5600475 386.601600
   6106   6096   6107     1   109.7500473 328.025600
   6107   6096   6108     1   110.5600475 386.601600
   6109   6108   6111     1   108.7700466 392.459200
   6109   6108   6110     1   107.5800459 329.699200
   6110   6108   6111     1   108.7700466 392.459200
   6111   6113   6115     1   106.5500460 417.563200
   6117   6119   6120     1   108.8800464 416.726400
   6117   6119   6122     1   108.8800464 416.726400
   6118   6117   6119     1   117.6800502 383.254400
   6119   6121   6123     1   110.5600475 386.601600
   6119   6121   6124     1   110.5600475 386.601600
   6120   6119   6121     1   109.5600471 388.275200
   6120   6119   6122     1   108.4600466 328.025600
   6121   6125   6146     1   110.1100470 384.091200
   6121   6119   6122     1   109.5600471 388.275200
   6123   6121   6125     1   108.0100461 406.684800
   6123   6121   6124     1   109.7500473 328.025600
   6124   6121   6125     1   108.0100461 406.684800
   6125   6126   6136     1   108.0100461 406.684800
   6125   6126   6137     1   108.0100461 406.684800
   6125   6127   6128     1   108.0100461 406.684800
   6125   6127   6130     1   108.0100461 406.684800
   6126   6138   6139     1   109.8000471 387.438400
   6126   6138   6140     1   109.8000471 387.438400
   6126   6125   6146     1   110.1100470 384.091200
   6127   6129   6131     1   109.8000471 387.438400
   6127   6129   6132     1   109.8000471 387.438400
   6127   6125   6146     1   110.1100470 384.091200
   6128   6127   6129     1   110.5600475 386.601600
   6128   6127   6130     1   109.7500473 328.025600
   6129   6127   6130     1   110.5600475 386.601600
   6131   6129   6133     1   108.7700466 392.459200
   6131   6129   6132     1   107.5800459 329.699200
   6132   6129   6133     1   108.7700466 392.459200
   6133   6134   6144     1   106.5500460 417.563200
   6136   6126   6138     1   110.5600475 386.601600
   6136   6126   6137     1   109.7500473 328.025600
   6137   6126   6138     1   110.5600475 386.601600
   6139   6138   6141     1   108.7700466 392.459200
   6139   6138   6140     1   107.5800459 329.699200
   6140   6138   6141     1   108.7700466 392.459200
   6141   6143   6145     1   106.5500460 417.563200
   6147   6149   6150     1   108.8800464 416.726400
   6147   6149   6152     1   108.8800464 416.726400
   6148   6147   6149     1   117.6800502 383.254400
   6149   6151   6153     1   110.5600475 386.601600
   6149   6151   6154     1   110.5600475 386.601600
   6150   6149   6151     1   109.5600471 388.275200
   6150   6149   6152     1   108.4600466 328.025600
   6151   6149   6152     1   109.5600471 388.275200
   6151   6155   6176     1   110.1100470 384.091200
   6153   6151   6155     1   108.0100461 406.684800
   6153   6151   6154     1   109.7500473 328.025600
   6154   6151   6155     1   108.0100461 406.684800
   6155   6156   6166     1   108.0100461 406.684800
   6155   6156   6167     1   108.0100461 406.684800
   6155   6157   6158     1   108.0100461 406.684800
   6155   6157   6160     1   108.0100461 406.684800
   6156   6155   6176     1   110.1100470 384.091200
   6156   6168   6169     1   109.8000471 387.438400
   6156   6168   6170     1   109.8000471 387.438400
   6157   6155   6176     1   110.1100470 384.091200
   6157   6159   6161     1   109.8000471 387.438400
   6157   6159   6162     1   109.8000471 387.438400
   6158   6157   6159     1   110.5600475 386.601600
   6158   6157   6160     1   109.7500473 328.025600
   6159   6157   6160     1   110.5600475 386.601600
   6161   6159   6163     1   108.7700466 392.459200
   6161   6159   6162     1   107.5800459 329.699200
   6162   6159   6163     1   108.7700466 392.459200
   6163   6164   6174     1   106.5500460 417.563200
   6166   6156   6168     1   110.5600475 386.601600
   6166   6156   6167     1   109.7500473 328.025600
   6167   6156   6168     1   110.5600475 386.601600
   6169   6168   6171     1   108.7700466 392.459200
   6169   6168   6170     1   107.5800459 329.699200
   6170   6168   6171     1   108.7700466 392.459200
   6171   6173   6175     1   106.5500460 417.563200
   6177   6179   6180     1   108.8800464 416.726400
   6177   6179   6182     1   108.8800464 416.726400
   6178   6177   6179     1   117.6800502 383.254400
   6179   6181   6183     1   110.5600475 386.601600
   6179   6181   6184     1   110.5600475 386.601600
   6180   6179   6181     1   109.5600471 388.275200
   6180   6179   6182     1   108.4600466 328.025600
   6181   6185   6206     1   110.1100470 384.091200
   6181   6179   6182     1   109.5600471 388.275200
   6183   6181   6185     1   108.0100461 406.684800
   6183   6181   6184     1   109.7500473 328.025600
   6184   6181   6185     1   108.0100461 406.684800
   6185   6186   6196     1   108.0100461 406.684800
   6185   6186   6197     1   108.0100461 406.684800
   6185   6187   6188     1   108.0100461 406.684800
   6185   6187   6190     1   108.0100461 406.684800
   6186   6198   6199     1   109.8000471 387.438400
   6186   6198   6200     1   109.8000471 387.438400
   6186   6185   6206     1   110.1100470 384.091200
   6187   6189   6191     1   109.8000471 387.438400
   6187   6189   6192     1   109.8000471 387.438400
   6187   6185   6206     1   110.1100470 384.091200
   6188   6187   6189     1   110.5600475 386.601600
   6188   6187   6190     1   109.7500473 328.025600
   6189   6187   6190     1   110.5600475 386.601600
   6191   6189   6193     1   108.7700466 392.459200
   6191   6189   6192     1   107.5800459 329.699200
   6192   6189   6193     1   108.7700466 392.459200
   6193   6194   6204     1   106.5500460 417.563200
   6196   6186   6198     1   110.5600475 386.601600
   6196   6186   6197     1   109.7500473 328.025600
   6197   6186   6198     1   110.5600475 386.601600
   6199   6198   6201     1   108.7700466 392.459200
   6199   6198   6200     1   107.5800459 329.699200
   6200   6198   6201     1   108.7700466 392.459200
   6201   6203   6205     1   106.5500460 417.563200
   6207   6209   6210     1   108.8800464 416.726400
   6207   6209   6212     1   108.8800464 416.726400
   6208   6207   6209     1   117.6800502 383.254400
   6209   6211   6213     1   110.5600475 386.601600
   6209   6211   6214     1   110.5600475 386.601600
   6210   6209   6211     1   109.5600471 388.275200
   6210   6209   6212     1   108.4600466 328.025600
   6211   6209   6212     1   109.5600471 388.275200
   6211   6215   6236     1   110.1100470 384.091200
   6213   6211   6215     1   108.0100461 406.684800
   6213   6211   6214     1   109.7500473 328.025600
   6214   6211   6215     1   108.0100461 406.684800
   6215   6216   6226     1   108.0100461 406.684800
   6215   6216   6227     1   108.0100461 406.684800
   6215   6217   6218     1   108.0100461 406.684800
   6215   6217   6220     1   108.0100461 406.684800
   6216   6215   6236     1   110.1100470 384.091200
   6216   6228   6229     1   109.8000471 387.438400
   6216   6228   6230     1   109.8000471 387.438400
   6217   6215   6236     1   110.1100470 384.091200
   6217   6219   6221     1   109.8000471 387.438400
   6217   6219   6222     1   109.8000471 387.438400
   6218   6217   6219     1   110.5600475 386.601600
   6218   6217   6220     1   109.7500473 328.025600
   6219   6217   6220     1   110.5600475 386.601600
   6221   6219   6223     1   108.7700466 392.459200
   6221   6219   6222     1   107.5800459 329.699200
   6222   6219   6223     1   108.7700466 392.459200
   6223   6224   6234     1   106.5500460 417.563200
   6226   6216   6228     1   110.5600475 386.601600
   6226   6216   6227     1   109.7500473 328.025600
   6227   6216   6228     1   110.5600475 386.601600
   6229   6228   6231     1   108.7700466 392.459200
   6229   6228   6230     1   107.5800459 329.699200
   6230   6228   6231     1   108.7700466 392.459200
   6231   6233   6235     1   106.5500460 417.563200
   6237   6239   6240     1   108.8800464 416.726400
   6237   6239   6242     1   108.8800464 416.726400
   6238   6237   6239     1   117.6800502 383.254400
   6239   6241   6243     1   110.5600475 386.601600
   6239   6241   6244     1   110.5600475 386.601600
   6240   6239   6241     1   109.5600471 388.275200
   6240   6239   6242     1   108.4600466 328.025600
   6241   6245   6266     1   110.1100470 384.091200
   6241   6239   6242     1   109.5600471 388.275200
   6243   6241   6245     1   108.0100461 406.684800
   6243   6241   6244     1   109.7500473 328.025600
   6244   6241   6245     1   108.0100461 406.684800
   6245   6246   6256     1   108.0100461 406.684800
   6245   6246   6257     1   108.0100461 406.684800
   6245   6247   6248     1   108.0100461 406.684800
   6245   6247   6250     1   108.0100461 406.684800
   6246   6258   6259     1   109.8000471 387.438400
   6246   6258   6260     1   109.8000471 387.438400
   6246   6245   6266     1   110.1100470 384.091200
   6247   6249   6251     1   109.8000471 387.438400
   6247   6249   6252     1   109.8000471 387.438400
   6247   6245   6266     1   110.1100470 384.091200
   6248   6247   6249     1   110.5600475 386.601600
   6248   6247   6250     1   109.7500473 328.025600
   6249   6247   6250     1   110.5600475 386.601600
   6251   6249   6253     1   108.7700466 392.459200
   6251   6249   6252     1   107.5800459 329.699200
   6252   6249   6253     1   108.7700466 392.459200
   6253   6254   6264     1   106.5500460 417.563200
   6256   6246   6258     1   110.5600475 386.601600
   6256   6246   6257     1   109.7500473 328.025600
   6257   6246   6258     1   110.5600475 386.601600
   6259   6258   6261     1   108.7700466 392.459200
   6259   6258   6260     1   107.5800459 329.699200
   6260   6258   6261     1   108.7700466 392.459200
   6261   6263   6265     1   106.5500460 417.563200
   6267   6269   6270     1   108.8800464 416.726400
   6267   6269   6272     1   108.8800464 416.726400
   6268   6267   6269     1   117.6800502 383.254400
   6269   6271   6273     1   110.5600475 386.601600
   6269   6271   6274     1   110.5600475 386.601600
   6270   6269   6271     1   109.5600471 388.275200
   6270   6269   6272     1   108.4600466 328.025600
   6271   6269   6272     1   109.5600471 388.275200
   6271   6275   6296     1   110.1100470 384.091200
   6273   6271   6275     1   108.0100461 406.684800
   6273   6271   6274     1   109.7500473 328.025600
   6274   6271   6275     1   108.0100461 406.684800
   6275   6276   6286     1   108.0100461 406.684800
   6275   6276   6287     1   108.0100461 406.684800
   6275   6277   6278     1   108.0100461 406.684800
   6275   6277   6280     1   108.0100461 406.684800
   6276   6275   6296     1   110.1100470 384.091200
   6276   6288   6289     1   109.8000471 387.438400
   6276   6288   6290     1   109.8000471 387.438400
   6277   6275   6296     1   110.1100470 384.091200
   6277   6279   6281     1   109.8000471 387.438400
   6277   6279   6282     1   109.8000471 387.438400
   6278   6277   6279     1   110.5600475 386.601600
   6278   6277   6280     1   109.7500473 328.025600
   6279   6277   6280     1   110.5600475 386.601600
   6281   6279   6283     1   108.7700466 392.459200
   6281   6279   6282     1   107.5800459 329.699200
   6282   6279   6283     1   108.7700466 392.459200
   6283   6284   6294     1   106.5500460 417.563200
   6286   6276   6288     1   110.5600475 386.601600
   6286   6276   6287     1   109.7500473 328.025600
   6287   6276   6288     1   110.5600475 386.601600
   6289   6288   6291     1   108.7700466 392.459200
   6289   6288   6290     1   107.5800459 329.699200
   6290   6288   6291     1   108.7700466 392.459200
   6291   6293   6295     1   106.5500460 417.563200
   6297   6299   6300     1   108.8800464 416.726400
   6297   6299   6302     1   108.8800464 416.726400
   6298   6297   6299     1   117.6800502 383.254400
   6299   6301   6303     1   110.5600475 386.601600
   6299   6301   6304     1   110.5600475 386.601600
   6300   6299   6301     1   109.5600471 388.275200
   6300   6299   6302     1   108.4600466 328.025600
   6301   6305   6326     1   110.1100470 384.091200
   6301   6299   6302     1   109.5600471 388.275200
   6303   6301   6305     1   108.0100461 406.684800
   6303   6301   6304     1   109.7500473 328.025600
   6304   6301   6305     1   108.0100461 406.684800
   6305   6306   6316     1   108.0100461 406.684800
   6305   6306   6317     1   108.0100461 406.684800
   6305   6307   6308     1   108.0100461 406.684800
   6305   6307   6310     1   108.0100461 406.684800
   6306   6318   6319     1   109.8000471 387.438400
   6306   6318   6320     1   109.8000471 387.438400
   6306   6305   6326     1   110.1100470 384.091200
   6307   6309   6311     1   109.8000471 387.438400
   6307   6309   6312     1   109.8000471 387.438400
   6307   6305   6326     1   110.1100470 384.091200
   6308   6307   6309     1   110.5600475 386.601600
   6308   6307   6310     1   109.7500473 328.025600
   6309   6307   6310     1   110.5600475 386.601600
   6311   6309   6313     1   108.7700466 392.459200
   6311   6309   6312     1   107.5800459 329.699200
   6312   6309   6313     1   108.7700466 392.459200
   6313   6314   6324     1   106.5500460 417.563200
   6316   6306   6318     1   110.5600475 386.601600
   6316   6306   6317     1   109.7500473 328.025600
   6317   6306   6318     1   110.5600475 386.601600
   6319   6318   6321     1   108.7700466 392.459200
   6319   6318   6320     1   107.5800459 329.699200
   6320   6318   6321     1   108.7700466 392.459200
   6321   6323   6325     1   106.5500460 417.563200
   6327   6329   6330     1   108.8800464 416.726400
   6327   6329   6332     1   108.8800464 416.726400
   6328   6327   6329     1   117.6800502 383.254400
   6329   6331   6333     1   110.5600475 386.601600
   6329   6331   6334     1   110.5600475 386.601600
   6330   6329   6331     1   109.5600471 388.275200
   6330   6329   6332     1   108.4600466 328.025600
   6331   6329   6332     1   109.5600471 388.275200
   6331   6335   6356     1   110.1100470 384.091200
   6333   6331   6335     1   108.0100461 406.684800
   6333   6331   6334     1   109.7500473 328.025600
   6334   6331   6335     1   108.0100461 406.684800
   6335   6336   6346     1   108.0100461 406.684800
   6335   6336   6347     1   108.0100461 406.684800
   6335   6337   6338     1   108.0100461 406.684800
   6335   6337   6340     1   108.0100461 406.684800
   6336   6335   6356     1   110.1100470 384.091200
   6336   6348   6349     1   109.8000471 387.438400
   6336   6348   6350     1   109.8000471 387.438400
   6337   6335   6356     1   110.1100470 384.091200
   6337   6339   6341     1   109.8000471 387.438400
   6337   6339   6342     1   109.8000471 387.438400
   6338   6337   6339     1   110.5600475 386.601600
   6338   6337   6340     1   109.7500473 328.025600
   6339   6337   6340     1   110.5600475 386.601600
   6341   6339   6343     1   108.7700466 392.459200
   6341   6339   6342     1   107.5800459 329.699200
   6342   6339   6343     1   108.7700466 392.459200
   6343   6344   6354     1   106.5500460 417.563200
   6346   6336   6348     1   110.5600475 386.601600
   6346   6336   6347     1   109.7500473 328.025600
   6347   6336   6348     1   110.5600475 386.601600
   6349   6348   6351     1   108.7700466 392.459200
   6349   6348   6350     1   107.5800459 329.699200
   6350   6348   6351     1   108.7700466 392.459200
   6351   6353   6355     1   106.5500460 417.563200
   6357   6359   6360     1   108.8800464 416.726400
   6357   6359   6362     1   108.8800464 416.726400
   6358   6357   6359     1   117.6800502 383.254400
   6359   6361   6363     1   110.5600475 386.601600
   6359   6361   6364     1   110.5600475 386.601600
   6360   6359   6361     1   109.5600471 388.275200
   6360   6359   6362     1   108.4600466 328.025600
   6361   6365   6386     1   110.1100470 384.091200
   6361   6359   6362     1   109.5600471 388.275200
   6363   6361   6365     1   108.0100461 406.684800
   6363   6361   6364     1   109.7500473 328.025600
   6364   6361   6365     1   108.0100461 406.684800
   6365   6366   6376     1   108.0100461 406.684800
   6365   6366   6377     1   108.0100461 406.684800
   6365   6367   6368     1   108.0100461 406.684800
   6365   6367   6370     1   108.0100461 406.684800
   6366   6378   6379     1   109.8000471 387.438400
   6366   6378   6380     1   109.8000471 387.438400
   6366   6365   6386     1   110.1100470 384.091200
   6367   6369   6371     1   109.8000471 387.438400
   6367   6369   6372     1   109.8000471 387.438400
   6367   6365   6386     1   110.1100470 384.091200
   6368   6367   6369     1   110.5600475 386.601600
   6368   6367   6370     1   109.7500473 328.025600
   6369   6367   6370     1   110.5600475 386.601600
   6371   6369   6373     1   108.7700466 392.459200
   6371   6369   6372     1   107.5800459 329.699200
   6372   6369   6373     1   108.7700466 392.459200
   6373   6374   6384     1   106.5500460 417.563200
   6376   6366   6378     1   110.5600475 386.601600
   6376   6366   6377     1   109.7500473 328.025600
   6377   6366   6378     1   110.5600475 386.601600
   6379   6378   6381     1   108.7700466 392.459200
   6379   6378   6380     1   107.5800459 329.699200
   6380   6378   6381     1   108.7700466 392.459200
   6381   6383   6385     1   106.5500460 417.563200
   6387   6389   6390     1   108.8800464 416.726400
   6387   6389   6392     1   108.8800464 416.726400
   6388   6387   6389     1   117.6800502 383.254400
   6389   6391   6393     1   110.5600475 386.601600
   6389   6391   6394     1   110.5600475 386.601600
   6390   6389   6391     1   109.5600471 388.275200
   6390   6389   6392     1   108.4600466 328.025600
   6391   6389   6392     1   109.5600471 388.275200
   6391   6395   6416     1   110.1100470 384.091200
   6393   6391   6395     1   108.0100461 406.684800
   6393   6391   6394     1   109.7500473 328.025600
   6394   6391   6395     1   108.0100461 406.684800
   6395   6396   6406     1   108.0100461 406.684800
   6395   6396   6407     1   108.0100461 406.684800
   6395   6397   6398     1   108.0100461 406.684800
   6395   6397   6400     1   108.0100461 406.684800
   6396   6395   6416     1   110.1100470 384.091200
   6396   6408   6409     1   109.8000471 387.438400
   6396   6408   6410     1   109.8000471 387.438400
   6397   6395   6416     1   110.1100470 384.091200
   6397   6399   6401     1   109.8000471 387.438400
   6397   6399   6402     1   109.8000471 387.438400
   6398   6397   6399     1   110.5600475 386.601600
   6398   6397   6400     1   109.7500473 328.025600
   6399   6397   6400     1   110.5600475 386.601600
   6401   6399   6403     1   108.7700466 392.459200
   6401   6399   6402     1   107.5800459 329.699200
   6402   6399   6403     1   108.7700466 392.459200
   6403   6404   6414     1   106.5500460 417.563200
   6406   6396   6408     1   110.5600475 386.601600
   6406   6396   6407     1   109.7500473 328.025600
   6407   6396   6408     1   110.5600475 386.601600
   6409   6408   6411     1   108.7700466 392.459200
   6409   6408   6410     1   107.5800459 329.699200
   6410   6408   6411     1   108.7700466 392.459200
   6411   6413   6415     1   106.5500460 417.563200
   6417   6419   6420     1   108.8800464 416.726400
   6417   6419   6422     1   108.8800464 416.726400
   6418   6417   6419     1   117.6800502 383.254400
   6419   6421   6423     1   110.5600475 386.601600
   6419   6421   6424     1   110.5600475 386.601600
   6420   6419   6421     1   109.5600471 388.275200
   6420   6419   6422     1   108.4600466 328.025600
   6421   6425   6446     1   110.1100470 384.091200
   6421   6419   6422     1   109.5600471 388.275200
   6423   6421   6425     1   108.0100461 406.684800
   6423   6421   6424     1   109.7500473 328.025600
   6424   6421   6425     1   108.0100461 406.684800
   6425   6426   6436     1   108.0100461 406.684800
   6425   6426   6437     1   108.0100461 406.684800
   6425   6427   6428     1   108.0100461 406.684800
   6425   6427   6430     1   108.0100461 406.684800
   6426   6438   6439     1   109.8000471 387.438400
   6426   6438   6440     1   109.8000471 387.438400
   6426   6425   6446     1   110.1100470 384.091200
   6427   6429   6431     1   109.8000471 387.438400
   6427   6429   6432     1   109.8000471 387.438400
   6427   6425   6446     1   110.1100470 384.091200
   6428   6427   6429     1   110.5600475 386.601600
   6428   6427   6430     1   109.7500473 328.025600
   6429   6427   6430     1   110.5600475 386.601600
   6431   6429   6433     1   108.7700466 392.459200
   6431   6429   6432     1   107.5800459 329.699200
   6432   6429   6433     1   108.7700466 392.459200
   6433   6434   6444     1   106.5500460 417.563200
   6436   6426   6438     1   110.5600475 386.601600
   6436   6426   6437     1   109.7500473 328.025600
   6437   6426   6438     1   110.5600475 386.601600
   6439   6438   6441     1   108.7700466 392.459200
   6439   6438   6440     1   107.5800459 329.699200
   6440   6438   6441     1   108.7700466 392.459200
   6441   6443   6445     1   106.5500460 417.563200
   6447   6449   6450     1   108.8800464 416.726400
   6447   6449   6452     1   108.8800464 416.726400
   6448   6447   6449     1   117.6800502 383.254400
   6449   6451   6453     1   110.5600475 386.601600
   6449   6451   6454     1   110.5600475 386.601600
   6450   6449   6451     1   109.5600471 388.275200
   6450   6449   6452     1   108.4600466 328.025600
   6451   6449   6452     1   109.5600471 388.275200
   6451   6455   6476     1   110.1100470 384.091200
   6453   6451   6455     1   108.0100461 406.684800
   6453   6451   6454     1   109.7500473 328.025600
   6454   6451   6455     1   108.0100461 406.684800
   6455   6456   6466     1   108.0100461 406.684800
   6455   6456   6467     1   108.0100461 406.684800
   6455   6457   6458     1   108.0100461 406.684800
   6455   6457   6460     1   108.0100461 406.684800
   6456   6455   6476     1   110.1100470 384.091200
   6456   6468   6469     1   109.8000471 387.438400
   6456   6468   6470     1   109.8000471 387.438400
   6457   6455   6476     1   110.1100470 384.091200
   6457   6459   6461     1   109.8000471 387.438400
   6457   6459   6462     1   109.8000471 387.438400
   6458   6457   6459     1   110.5600475 386.601600
   6458   6457   6460     1   109.7500473 328.025600
   6459   6457   6460     1   110.5600475 386.601600
   6461   6459   6463     1   108.7700466 392.459200
   6461   6459   6462     1   107.5800459 329.699200
   6462   6459   6463     1   108.7700466 392.459200
   6463   6464   6474     1   106.5500460 417.563200
   6466   6456   6468     1   110.5600475 386.601600
   6466   6456   6467     1   109.7500473 328.025600
   6467   6456   6468     1   110.5600475 386.601600
   6469   6468   6471     1   108.7700466 392.459200
   6469   6468   6470     1   107.5800459 329.699200
   6470   6468   6471     1   108.7700466 392.459200
   6471   6473   6475     1   106.5500460 417.563200
   6477   6479   6480     1   108.8800464 416.726400
   6477   6479   6482     1   108.8800464 416.726400
   6478   6477   6479     1   117.6800502 383.254400
   6479   6481   6483     1   110.5600475 386.601600
   6479   6481   6484     1   110.5600475 386.601600
   6480   6479   6481     1   109.5600471 388.275200
   6480   6479   6482     1   108.4600466 328.025600
   6481   6485   6506     1   110.1100470 384.091200
   6481   6479   6482     1   109.5600471 388.275200
   6483   6481   6485     1   108.0100461 406.684800
   6483   6481   6484     1   109.7500473 328.025600
   6484   6481   6485     1   108.0100461 406.684800
   6485   6486   6496     1   108.0100461 406.684800
   6485   6486   6497     1   108.0100461 406.684800
   6485   6487   6488     1   108.0100461 406.684800
   6485   6487   6490     1   108.0100461 406.684800
   6486   6498   6499     1   109.8000471 387.438400
   6486   6498   6500     1   109.8000471 387.438400
   6486   6485   6506     1   110.1100470 384.091200
   6487   6489   6491     1   109.8000471 387.438400
   6487   6489   6492     1   109.8000471 387.438400
   6487   6485   6506     1   110.1100470 384.091200
   6488   6487   6489     1   110.5600475 386.601600
   6488   6487   6490     1   109.7500473 328.025600
   6489   6487   6490     1   110.5600475 386.601600
   6491   6489   6493     1   108.7700466 392.459200
   6491   6489   6492     1   107.5800459 329.699200
   6492   6489   6493     1   108.7700466 392.459200
   6493   6494   6504     1   106.5500460 417.563200
   6496   6486   6498     1   110.5600475 386.601600
   6496   6486   6497     1   109.7500473 328.025600
   6497   6486   6498     1   110.5600475 386.601600
   6499   6498   6501     1   108.7700466 392.459200
   6499   6498   6500     1   107.5800459 329.699200
   6500   6498   6501     1   108.7700466 392.459200
   6501   6503   6505     1   106.5500460 417.563200
   6507   6509   6510     1   108.8800464 416.726400
   6507   6509   6512     1   108.8800464 416.726400
   6508   6507   6509     1   117.6800502 383.254400
   6509   6511   6513     1   110.5600475 386.601600
   6509   6511   6514     1   110.5600475 386.601600
   6510   6509   6511     1   109.5600471 388.275200
   6510   6509   6512     1   108.4600466 328.025600
   6511   6509   6512     1   109.5600471 388.275200
   6511   6515   6536     1   110.1100470 384.091200
   6513   6511   6515     1   108.0100461 406.684800
   6513   6511   6514     1   109.7500473 328.025600
   6514   6511   6515     1   108.0100461 406.684800
   6515   6516   6526     1   108.0100461 406.684800
   6515   6516   6527     1   108.0100461 406.684800
   6515   6517   6518     1   108.0100461 406.684800
   6515   6517   6520     1   108.0100461 406.684800
   6516   6515   6536     1   110.1100470 384.091200
   6516   6528   6529     1   109.8000471 387.438400
   6516   6528   6530     1   109.8000471 387.438400
   6517   6515   6536     1   110.1100470 384.091200
   6517   6519   6521     1   109.8000471 387.438400
   6517   6519   6522     1   109.8000471 387.438400
   6518   6517   6519     1   110.5600475 386.601600
   6518   6517   6520     1   109.7500473 328.025600
   6519   6517   6520     1   110.5600475 386.601600
   6521   6519   6523     1   108.7700466 392.459200
   6521   6519   6522     1   107.5800459 329.699200
   6522   6519   6523     1   108.7700466 392.459200
   6523   6524   6534     1   106.5500460 417.563200
   6526   6516   6528     1   110.5600475 386.601600
   6526   6516   6527     1   109.7500473 328.025600
   6527   6516   6528     1   110.5600475 386.601600
   6529   6528   6531     1   108.7700466 392.459200
   6529   6528   6530     1   107.5800459 329.699200
   6530   6528   6531     1   108.7700466 392.459200
   6531   6533   6535     1   106.5500460 417.563200
   6537   6539   6540     1   108.8800464 416.726400
   6537   6539   6542     1   108.8800464 416.726400
   6538   6537   6539     1   117.6800502 383.254400
   6539   6541   6543     1   110.5600475 386.601600
   6539   6541   6544     1   110.5600475 386.601600
   6540   6539   6541     1   109.5600471 388.275200
   6540   6539   6542     1   108.4600466 328.025600
   6541   6545   6566     1   110.1100470 384.091200
   6541   6539   6542     1   109.5600471 388.275200
   6543   6541   6545     1   108.0100461 406.684800
   6543   6541   6544     1   109.7500473 328.025600
   6544   6541   6545     1   108.0100461 406.684800
   6545   6546   6556     1   108.0100461 406.684800
   6545   6546   6557     1   108.0100461 406.684800
   6545   6547   6548     1   108.0100461 406.684800
   6545   6547   6550     1   108.0100461 406.684800
   6546   6558   6559     1   109.8000471 387.438400
   6546   6558   6560     1   109.8000471 387.438400
   6546   6545   6566     1   110.1100470 384.091200
   6547   6549   6551     1   109.8000471 387.438400
   6547   6549   6552     1   109.8000471 387.438400
   6547   6545   6566     1   110.1100470 384.091200
   6548   6547   6549     1   110.5600475 386.601600
   6548   6547   6550     1   109.7500473 328.025600
   6549   6547   6550     1   110.5600475 386.601600
   6551   6549   6553     1   108.7700466 392.459200
   6551   6549   6552     1   107.5800459 329.699200
   6552   6549   6553     1   108.7700466 392.459200
   6553   6554   6564     1   106.5500460 417.563200
   6556   6546   6558     1   110.5600475 386.601600
   6556   6546   6557     1   109.7500473 328.025600
   6557   6546   6558     1   110.5600475 386.601600
   6559   6558   6561     1   108.7700466 392.459200
   6559   6558   6560     1   107.5800459 329.699200
   6560   6558   6561     1   108.7700466 392.459200
   6561   6563   6565     1   106.5500460 417.563200
   6567   6569   6570     1   108.8800464 416.726400
   6567   6569   6572     1   108.8800464 416.726400
   6568   6567   6569     1   117.6800502 383.254400
   6569   6571   6573     1   110.5600475 386.601600
   6569   6571   6574     1   110.5600475 386.601600
   6570   6569   6571     1   109.5600471 388.275200
   6570   6569   6572     1   108.4600466 328.025600
   6571   6569   6572     1   109.5600471 388.275200
   6571   6575   6596     1   110.1100470 384.091200
   6573   6571   6575     1   108.0100461 406.684800
   6573   6571   6574     1   109.7500473 328.025600
   6574   6571   6575     1   108.0100461 406.684800
   6575   6576   6586     1   108.0100461 406.684800
   6575   6576   6587     1   108.0100461 406.684800
   6575   6577   6578     1   108.0100461 406.684800
   6575   6577   6580     1   108.0100461 406.684800
   6576   6575   6596     1   110.1100470 384.091200
   6576   6588   6589     1   109.8000471 387.438400
   6576   6588   6590     1   109.8000471 387.438400
   6577   6575   6596     1   110.1100470 384.091200
   6577   6579   6581     1   109.8000471 387.438400
   6577   6579   6582     1   109.8000471 387.438400
   6578   6577   6579     1   110.5600475 386.601600
   6578   6577   6580     1   109.7500473 328.025600
   6579   6577   6580     1   110.5600475 386.601600
   6581   6579   6583     1   108.7700466 392.459200
   6581   6579   6582     1   107.5800459 329.699200
   6582   6579   6583     1   108.7700466 392.459200
   6583   6584   6594     1   106.5500460 417.563200
   6586   6576   6588     1   110.5600475 386.601600
   6586   6576   6587     1   109.7500473 328.025600
   6587   6576   6588     1   110.5600475 386.601600
   6589   6588   6591     1   108.7700466 392.459200
   6589   6588   6590     1   107.5800459 329.699200
   6590   6588   6591     1   108.7700466 392.459200
   6591   6593   6595     1   106.5500460 417.563200
   6597   6599   6600     1   108.8800464 416.726400
   6597   6599   6602     1   108.8800464 416.726400
   6598   6597   6599     1   117.6800502 383.254400
   6599   6601   6603     1   110.5600475 386.601600
   6599   6601   6604     1   110.5600475 386.601600
   6600   6599   6601     1   109.5600471 388.275200
   6600   6599   6602     1   108.4600466 328.025600
   6601   6605   6626     1   110.1100470 384.091200
   6601   6599   6602     1   109.5600471 388.275200
   6603   6601   6605     1   108.0100461 406.684800
   6603   6601   6604     1   109.7500473 328.025600
   6604   6601   6605     1   108.0100461 406.684800
   6605   6606   6616     1   108.0100461 406.684800
   6605   6606   6617     1   108.0100461 406.684800
   6605   6607   6608     1   108.0100461 406.684800
   6605   6607   6610     1   108.0100461 406.684800
   6606   6618   6619     1   109.8000471 387.438400
   6606   6618   6620     1   109.8000471 387.438400
   6606   6605   6626     1   110.1100470 384.091200
   6607   6609   6611     1   109.8000471 387.438400
   6607   6609   6612     1   109.8000471 387.438400
   6607   6605   6626     1   110.1100470 384.091200
   6608   6607   6609     1   110.5600475 386.601600
   6608   6607   6610     1   109.7500473 328.025600
   6609   6607   6610     1   110.5600475 386.601600
   6611   6609   6613     1   108.7700466 392.459200
   6611   6609   6612     1   107.5800459 329.699200
   6612   6609   6613     1   108.7700466 392.459200
   6613   6614   6624     1   106.5500460 417.563200
   6616   6606   6618     1   110.5600475 386.601600
   6616   6606   6617     1   109.7500473 328.025600
   6617   6606   6618     1   110.5600475 386.601600
   6619   6618   6621     1   108.7700466 392.459200
   6619   6618   6620     1   107.5800459 329.699200
   6620   6618   6621     1   108.7700466 392.459200
   6621   6623   6625     1   106.5500460 417.563200
   6627   6629   6630     1   108.8800464 416.726400
   6627   6629   6632     1   108.8800464 416.726400
   6628   6627   6629     1   117.6800502 383.254400
   6629   6631   6633     1   110.5600475 386.601600
   6629   6631   6634     1   110.5600475 386.601600
   6630   6629   6631     1   109.5600471 388.275200
   6630   6629   6632     1   108.4600466 328.025600
   6631   6629   6632     1   109.5600471 388.275200
   6631   6635   6656     1   110.1100470 384.091200
   6633   6631   6635     1   108.0100461 406.684800
   6633   6631   6634     1   109.7500473 328.025600
   6634   6631   6635     1   108.0100461 406.684800
   6635   6636   6646     1   108.0100461 406.684800
   6635   6636   6647     1   108.0100461 406.684800
   6635   6637   6638     1   108.0100461 406.684800
   6635   6637   6640     1   108.0100461 406.684800
   6636   6635   6656     1   110.1100470 384.091200
   6636   6648   6649     1   109.8000471 387.438400
   6636   6648   6650     1   109.8000471 387.438400
   6637   6635   6656     1   110.1100470 384.091200
   6637   6639   6641     1   109.8000471 387.438400
   6637   6639   6642     1   109.8000471 387.438400
   6638   6637   6639     1   110.5600475 386.601600
   6638   6637   6640     1   109.7500473 328.025600
   6639   6637   6640     1   110.5600475 386.601600
   6641   6639   6643     1   108.7700466 392.459200
   6641   6639   6642     1   107.5800459 329.699200
   6642   6639   6643     1   108.7700466 392.459200
   6643   6644   6654     1   106.5500460 417.563200
   6646   6636   6648     1   110.5600475 386.601600
   6646   6636   6647     1   109.7500473 328.025600
   6647   6636   6648     1   110.5600475 386.601600
   6649   6648   6651     1   108.7700466 392.459200
   6649   6648   6650     1   107.5800459 329.699200
   6650   6648   6651     1   108.7700466 392.459200
   6651   6653   6655     1   106.5500460 417.563200
   6657   6659   6660     1   108.8800464 416.726400
   6657   6659   6662     1   108.8800464 416.726400
   6658   6657   6659     1   117.6800502 383.254400
   6659   6661   6663     1   110.5600475 386.601600
   6659   6661   6664     1   110.5600475 386.601600
   6660   6659   6661     1   109.5600471 388.275200
   6660   6659   6662     1   108.4600466 328.025600
   6661   6665   6686     1   110.1100470 384.091200
   6661   6659   6662     1   109.5600471 388.275200
   6663   6661   6665     1   108.0100461 406.684800
   6663   6661   6664     1   109.7500473 328.025600
   6664   6661   6665     1   108.0100461 406.684800
   6665   6666   6676     1   108.0100461 406.684800
   6665   6666   6677     1   108.0100461 406.684800
   6665   6667   6668     1   108.0100461 406.684800
   6665   6667   6670     1   108.0100461 406.684800
   6666   6678   6679     1   109.8000471 387.438400
   6666   6678   6680     1   109.8000471 387.438400
   6666   6665   6686     1   110.1100470 384.091200
   6667   6669   6671     1   109.8000471 387.438400
   6667   6669   6672     1   109.8000471 387.438400
   6667   6665   6686     1   110.1100470 384.091200
   6668   6667   6669     1   110.5600475 386.601600
   6668   6667   6670     1   109.7500473 328.025600
   6669   6667   6670     1   110.5600475 386.601600
   6671   6669   6673     1   108.7700466 392.459200
   6671   6669   6672     1   107.5800459 329.699200
   6672   6669   6673     1   108.7700466 392.459200
   6673   6674   6684     1   106.5500460 417.563200
   6676   6666   6678     1   110.5600475 386.601600
   6676   6666   6677     1   109.7500473 328.025600
   6677   6666   6678     1   110.5600475 386.601600
   6679   6678   6681     1   108.7700466 392.459200
   6679   6678   6680     1   107.5800459 329.699200
   6680   6678   6681     1   108.7700466 392.459200
   6681   6683   6685     1   106.5500460 417.563200
   6687   6689   6690     1   108.8800464 416.726400
   6687   6689   6692     1   108.8800464 416.726400
   6688   6687   6689     1   117.6800502 383.254400
   6689   6691   6693     1   110.5600475 386.601600
   6689   6691   6694     1   110.5600475 386.601600
   6690   6689   6691     1   109.5600471 388.275200
   6690   6689   6692     1   108.4600466 328.025600
   6691   6689   6692     1   109.5600471 388.275200
   6691   6695   6716     1   110.1100470 384.091200
   6693   6691   6695     1   108.0100461 406.684800
   6693   6691   6694     1   109.7500473 328.025600
   6694   6691   6695     1   108.0100461 406.684800
   6695   6696   6706     1   108.0100461 406.684800
   6695   6696   6707     1   108.0100461 406.684800
   6695   6697   6698     1   108.0100461 406.684800
   6695   6697   6700     1   108.0100461 406.684800
   6696   6695   6716     1   110.1100470 384.091200
   6696   6708   6709     1   109.8000471 387.438400
   6696   6708   6710     1   109.8000471 387.438400
   6697   6695   6716     1   110.1100470 384.091200
   6697   6699   6701     1   109.8000471 387.438400
   6697   6699   6702     1   109.8000471 387.438400
   6698   6697   6699     1   110.5600475 386.601600
   6698   6697   6700     1   109.7500473 328.025600
   6699   6697   6700     1   110.5600475 386.601600
   6701   6699   6703     1   108.7700466 392.459200
   6701   6699   6702     1   107.5800459 329.699200
   6702   6699   6703     1   108.7700466 392.459200
   6703   6704   6714     1   106.5500460 417.563200
   6706   6696   6708     1   110.5600475 386.601600
   6706   6696   6707     1   109.7500473 328.025600
   6707   6696   6708     1   110.5600475 386.601600
   6709   6708   6711     1   108.7700466 392.459200
   6709   6708   6710     1   107.5800459 329.699200
   6710   6708   6711     1   108.7700466 392.459200
   6711   6713   6715     1   106.5500460 417.563200
   6717   6719   6720     1   108.8800464 416.726400
   6717   6719   6722     1   108.8800464 416.726400
   6718   6717   6719     1   117.6800502 383.254400
   6719   6721   6723     1   110.5600475 386.601600
   6719   6721   6724     1   110.5600475 386.601600
   6720   6719   6721     1   109.5600471 388.275200
   6720   6719   6722     1   108.4600466 328.025600
   6721   6725   6746     1   110.1100470 384.091200
   6721   6719   6722     1   109.5600471 388.275200
   6723   6721   6725     1   108.0100461 406.684800
   6723   6721   6724     1   109.7500473 328.025600
   6724   6721   6725     1   108.0100461 406.684800
   6725   6726   6736     1   108.0100461 406.684800
   6725   6726   6737     1   108.0100461 406.684800
   6725   6727   6728     1   108.0100461 406.684800
   6725   6727   6730     1   108.0100461 406.684800
   6726   6738   6739     1   109.8000471 387.438400
   6726   6738   6740     1   109.8000471 387.438400
   6726   6725   6746     1   110.1100470 384.091200
   6727   6729   6731     1   109.8000471 387.438400
   6727   6729   6732     1   109.8000471 387.438400
   6727   6725   6746     1   110.1100470 384.091200
   6728   6727   6729     1   110.5600475 386.601600
   6728   6727   6730     1   109.7500473 328.025600
   6729   6727   6730     1   110.5600475 386.601600
   6731   6729   6733     1   108.7700466 392.459200
   6731   6729   6732     1   107.5800459 329.699200
   6732   6729   6733     1   108.7700466 392.459200
   6733   6734   6744     1   106.5500460 417.563200
   6736   6726   6738     1   110.5600475 386.601600
   6736   6726   6737     1   109.7500473 328.025600
   6737   6726   6738     1   110.5600475 386.601600
   6739   6738   6741     1   108.7700466 392.459200
   6739   6738   6740     1   107.5800459 329.699200
   6740   6738   6741     1   108.7700466 392.459200
   6741   6743   6745     1   106.5500460 417.563200
   6747   6749   6750     1   108.8800464 416.726400
   6747   6749   6752     1   108.8800464 416.726400
   6748   6747   6749     1   117.6800502 383.254400
   6749   6751   6753     1   110.5600475 386.601600
   6749   6751   6754     1   110.5600475 386.601600
   6750   6749   6751     1   109.5600471 388.275200
   6750   6749   6752     1   108.4600466 328.025600
   6751   6749   6752     1   109.5600471 388.275200
   6751   6755   6776     1   110.1100470 384.091200
   6753   6751   6755     1   108.0100461 406.684800
   6753   6751   6754     1   109.7500473 328.025600
   6754   6751   6755     1   108.0100461 406.684800
   6755   6756   6766     1   108.0100461 406.684800
   6755   6756   6767     1   108.0100461 406.684800
   6755   6757   6758     1   108.0100461 406.684800
   6755   6757   6760     1   108.0100461 406.684800
   6756   6755   6776     1   110.1100470 384.091200
   6756   6768   6769     1   109.8000471 387.438400
   6756   6768   6770     1   109.8000471 387.438400
   6757   6755   6776     1   110.1100470 384.091200
   6757   6759   6761     1   109.8000471 387.438400
   6757   6759   6762     1   109.8000471 387.438400
   6758   6757   6759     1   110.5600475 386.601600
   6758   6757   6760     1   109.7500473 328.025600
   6759   6757   6760     1   110.5600475 386.601600
   6761   6759   6763     1   108.7700466 392.459200
   6761   6759   6762     1   107.5800459 329.699200
   6762   6759   6763     1   108.7700466 392.459200
   6763   6764   6774     1   106.5500460 417.563200
   6766   6756   6768     1   110.5600475 386.601600
   6766   6756   6767     1   109.7500473 328.025600
   6767   6756   6768     1   110.5600475 386.601600
   6769   6768   6771     1   108.7700466 392.459200
   6769   6768   6770     1   107.5800459 329.699200
   6770   6768   6771     1   108.7700466 392.459200
   6771   6773   6775     1   106.5500460 417.563200
   6777   6779   6780     1   108.8800464 416.726400
   6777   6779   6782     1   108.8800464 416.726400
   6778   6777   6779     1   117.6800502 383.254400
   6779   6781   6783     1   110.5600475 386.601600
   6779   6781   6784     1   110.5600475 386.601600
   6780   6779   6781     1   109.5600471 388.275200
   6780   6779   6782     1   108.4600466 328.025600
   6781   6785   6806     1   110.1100470 384.091200
   6781   6779   6782     1   109.5600471 388.275200
   6783   6781   6785     1   108.0100461 406.684800
   6783   6781   6784     1   109.7500473 328.025600
   6784   6781   6785     1   108.0100461 406.684800
   6785   6786   6796     1   108.0100461 406.684800
   6785   6786   6797     1   108.0100461 406.684800
   6785   6787   6788     1   108.0100461 406.684800
   6785   6787   6790     1   108.0100461 406.684800
   6786   6798   6799     1   109.8000471 387.438400
   6786   6798   6800     1   109.8000471 387.438400
   6786   6785   6806     1   110.1100470 384.091200
   6787   6789   6791     1   109.8000471 387.438400
   6787   6789   6792     1   109.8000471 387.438400
   6787   6785   6806     1   110.1100470 384.091200
   6788   6787   6789     1   110.5600475 386.601600
   6788   6787   6790     1   109.7500473 328.025600
   6789   6787   6790     1   110.5600475 386.601600
   6791   6789   6793     1   108.7700466 392.459200
   6791   6789   6792     1   107.5800459 329.699200
   6792   6789   6793     1   108.7700466 392.459200
   6793   6794   6804     1   106.5500460 417.563200
   6796   6786   6798     1   110.5600475 386.601600
   6796   6786   6797     1   109.7500473 328.025600
   6797   6786   6798     1   110.5600475 386.601600
   6799   6798   6801     1   108.7700466 392.459200
   6799   6798   6800     1   107.5800459 329.699200
   6800   6798   6801     1   108.7700466 392.459200
   6801   6803   6805     1   106.5500460 417.563200
   6807   6809   6810     1   108.8800464 416.726400
   6807   6809   6812     1   108.8800464 416.726400
   6808   6807   6809     1   117.6800502 383.254400
   6809   6811   6813     1   110.5600475 386.601600
   6809   6811   6814     1   110.5600475 386.601600
   6810   6809   6811     1   109.5600471 388.275200
   6810   6809   6812     1   108.4600466 328.025600
   6811   6809   6812     1   109.5600471 388.275200
   6811   6815   6836     1   110.1100470 384.091200
   6813   6811   6815     1   108.0100461 406.684800
   6813   6811   6814     1   109.7500473 328.025600
   6814   6811   6815     1   108.0100461 406.684800
   6815   6816   6826     1   108.0100461 406.684800
   6815   6816   6827     1   108.0100461 406.684800
   6815   6817   6818     1   108.0100461 406.684800
   6815   6817   6820     1   108.0100461 406.684800
   6816   6815   6836     1   110.1100470 384.091200
   6816   6828   6829     1   109.8000471 387.438400
   6816   6828   6830     1   109.8000471 387.438400
   6817   6815   6836     1   110.1100470 384.091200
   6817   6819   6821     1   109.8000471 387.438400
   6817   6819   6822     1   109.8000471 387.438400
   6818   6817   6819     1   110.5600475 386.601600
   6818   6817   6820     1   109.7500473 328.025600
   6819   6817   6820     1   110.5600475 386.601600
   6821   6819   6823     1   108.7700466 392.459200
   6821   6819   6822     1   107.5800459 329.699200
   6822   6819   6823     1   108.7700466 392.459200
   6823   6824   6834     1   106.5500460 417.563200
   6826   6816   6828     1   110.5600475 386.601600
   6826   6816   6827     1   109.7500473 328.025600
   6827   6816   6828     1   110.5600475 386.601600
   6829   6828   6831     1   108.7700466 392.459200
   6829   6828   6830     1   107.5800459 329.699200
   6830   6828   6831     1   108.7700466 392.459200
   6831   6833   6835     1   106.5500460 417.563200
   6837   6839   6840     1   108.8800464 416.726400
   6837   6839   6842     1   108.8800464 416.726400
   6838   6837   6839     1   117.6800502 383.254400
   6839   6841   6843     1   110.5600475 386.601600
   6839   6841   6844     1   110.5600475 386.601600
   6840   6839   6841     1   109.5600471 388.275200
   6840   6839   6842     1   108.4600466 328.025600
   6841   6845   6866     1   110.1100470 384.091200
   6841   6839   6842     1   109.5600471 388.275200
   6843   6841   6845     1   108.0100461 406.684800
   6843   6841   6844     1   109.7500473 328.025600
   6844   6841   6845     1   108.0100461 406.684800
   6845   6846   6856     1   108.0100461 406.684800
   6845   6846   6857     1   108.0100461 406.684800
   6845   6847   6848     1   108.0100461 406.684800
   6845   6847   6850     1   108.0100461 406.684800
   6846   6858   6859     1   109.8000471 387.438400
   6846   6858   6860     1   109.8000471 387.438400
   6846   6845   6866     1   110.1100470 384.091200
   6847   6849   6851     1   109.8000471 387.438400
   6847   6849   6852     1   109.8000471 387.438400
   6847   6845   6866     1   110.1100470 384.091200
   6848   6847   6849     1   110.5600475 386.601600
   6848   6847   6850     1   109.7500473 328.025600
   6849   6847   6850     1   110.5600475 386.601600
   6851   6849   6853     1   108.7700466 392.459200
   6851   6849   6852     1   107.5800459 329.699200
   6852   6849   6853     1   108.7700466 392.459200
   6853   6854   6864     1   106.5500460 417.563200
   6856   6846   6858     1   110.5600475 386.601600
   6856   6846   6857     1   109.7500473 328.025600
   6857   6846   6858     1   110.5600475 386.601600
   6859   6858   6861     1   108.7700466 392.459200
   6859   6858   6860     1   107.5800459 329.699200
   6860   6858   6861     1   108.7700466 392.459200
   6861   6863   6865     1   106.5500460 417.563200
   6867   6869   6870     1   108.8800464 416.726400
   6867   6869   6872     1   108.8800464 416.726400
   6868   6867   6869     1   117.6800502 383.254400
   6869   6871   6873     1   110.5600475 386.601600
   6869   6871   6874     1   110.5600475 386.601600
   6870   6869   6871     1   109.5600471 388.275200
   6870   6869   6872     1   108.4600466 328.025600
   6871   6869   6872     1   109.5600471 388.275200
   6871   6875   6896     1   110.1100470 384.091200
   6873   6871   6875     1   108.0100461 406.684800
   6873   6871   6874     1   109.7500473 328.025600
   6874   6871   6875     1   108.0100461 406.684800
   6875   6876   6886     1   108.0100461 406.684800
   6875   6876   6887     1   108.0100461 406.684800
   6875   6877   6878     1   108.0100461 406.684800
   6875   6877   6880     1   108.0100461 406.684800
   6876   6875   6896     1   110.1100470 384.091200
   6876   6888   6889     1   109.8000471 387.438400
   6876   6888   6890     1   109.8000471 387.438400
   6877   6875   6896     1   110.1100470 384.091200
   6877   6879   6881     1   109.8000471 387.438400
   6877   6879   6882     1   109.8000471 387.438400
   6878   6877   6879     1   110.5600475 386.601600
   6878   6877   6880     1   109.7500473 328.025600
   6879   6877   6880     1   110.5600475 386.601600
   6881   6879   6883     1   108.7700466 392.459200
   6881   6879   6882     1   107.5800459 329.699200
   6882   6879   6883     1   108.7700466 392.459200
   6883   6884   6894     1   106.5500460 417.563200
   6886   6876   6888     1   110.5600475 386.601600
   6886   6876   6887     1   109.7500473 328.025600
   6887   6876   6888     1   110.5600475 386.601600
   6889   6888   6891     1   108.7700466 392.459200
   6889   6888   6890     1   107.5800459 329.699200
   6890   6888   6891     1   108.7700466 392.459200
   6891   6893   6895     1   106.5500460 417.563200
   6897   6899   6900     1   108.8800464 416.726400
   6897   6899   6902     1   108.8800464 416.726400
   6898   6897   6899     1   117.6800502 383.254400
   6899   6901   6903     1   110.5600475 386.601600
   6899   6901   6904     1   110.5600475 386.601600
   6900   6899   6901     1   109.5600471 388.275200
   6900   6899   6902     1   108.4600466 328.025600
   6901   6905   6926     1   110.1100470 384.091200
   6901   6899   6902     1   109.5600471 388.275200
   6903   6901   6905     1   108.0100461 406.684800
   6903   6901   6904     1   109.7500473 328.025600
   6904   6901   6905     1   108.0100461 406.684800
   6905   6906   6916     1   108.0100461 406.684800
   6905   6906   6917     1   108.0100461 406.684800
   6905   6907   6908     1   108.0100461 406.684800
   6905   6907   6910     1   108.0100461 406.684800
   6906   6918   6919     1   109.8000471 387.438400
   6906   6918   6920     1   109.8000471 387.438400
   6906   6905   6926     1   110.1100470 384.091200
   6907   6909   6911     1   109.8000471 387.438400
   6907   6909   6912     1   109.8000471 387.438400
   6907   6905   6926     1   110.1100470 384.091200
   6908   6907   6909     1   110.5600475 386.601600
   6908   6907   6910     1   109.7500473 328.025600
   6909   6907   6910     1   110.5600475 386.601600
   6911   6909   6913     1   108.7700466 392.459200
   6911   6909   6912     1   107.5800459 329.699200
   6912   6909   6913     1   108.7700466 392.459200
   6913   6914   6924     1   106.5500460 417.563200
   6916   6906   6918     1   110.5600475 386.601600
   6916   6906   6917     1   109.7500473 328.025600
   6917   6906   6918     1   110.5600475 386.601600
   6919   6918   6921     1   108.7700466 392.459200
   6919   6918   6920     1   107.5800459 329.699200
   6920   6918   6921     1   108.7700466 392.459200
   6921   6923   6925     1   106.5500460 417.563200
   6927   6929   6930     1   108.8800464 416.726400
   6927   6929   6932     1   108.8800464 416.726400
   6928   6927   6929     1   117.6800502 383.254400
   6929   6931   6933     1   110.5600475 386.601600
   6929   6931   6934     1   110.5600475 386.601600
   6930   6929   6931     1   109.5600471 388.275200
   6930   6929   6932     1   108.4600466 328.025600
   6931   6929   6932     1   109.5600471 388.275200
   6931   6935   6956     1   110.1100470 384.091200
   6933   6931   6935     1   108.0100461 406.684800
   6933   6931   6934     1   109.7500473 328.025600
   6934   6931   6935     1   108.0100461 406.684800
   6935   6936   6946     1   108.0100461 406.684800
   6935   6936   6947     1   108.0100461 406.684800
   6935   6937   6938     1   108.0100461 406.684800
   6935   6937   6940     1   108.0100461 406.684800
   6936   6935   6956     1   110.1100470 384.091200
   6936   6948   6949     1   109.8000471 387.438400
   6936   6948   6950     1   109.8000471 387.438400
   6937   6935   6956     1   110.1100470 384.091200
   6937   6939   6941     1   109.8000471 387.438400
   6937   6939   6942     1   109.8000471 387.438400
   6938   6937   6939     1   110.5600475 386.601600
   6938   6937   6940     1   109.7500473 328.025600
   6939   6937   6940     1   110.5600475 386.601600
   6941   6939   6943     1   108.7700466 392.459200
   6941   6939   6942     1   107.5800459 329.699200
   6942   6939   6943     1   108.7700466 392.459200
   6943   6944   6954     1   106.5500460 417.563200
   6946   6936   6948     1   110.5600475 386.601600
   6946   6936   6947     1   109.7500473 328.025600
   6947   6936   6948     1   110.5600475 386.601600
   6949   6948   6951     1   108.7700466 392.459200
   6949   6948   6950     1   107.5800459 329.699200
   6950   6948   6951     1   108.7700466 392.459200
   6951   6953   6955     1   106.5500460 417.563200
   6957   6959   6960     1   108.8800464 416.726400
   6957   6959   6962     1   108.8800464 416.726400
   6958   6957   6959     1   117.6800502 383.254400
   6959   6961   6963     1   110.5600475 386.601600
   6959   6961   6964     1   110.5600475 386.601600
   6960   6959   6961     1   109.5600471 388.275200
   6960   6959   6962     1   108.4600466 328.025600
   6961   6965   6986     1   110.1100470 384.091200
   6961   6959   6962     1   109.5600471 388.275200
   6963   6961   6965     1   108.0100461 406.684800
   6963   6961   6964     1   109.7500473 328.025600
   6964   6961   6965     1   108.0100461 406.684800
   6965   6966   6976     1   108.0100461 406.684800
   6965   6966   6977     1   108.0100461 406.684800
   6965   6967   6968     1   108.0100461 406.684800
   6965   6967   6970     1   108.0100461 406.684800
   6966   6978   6979     1   109.8000471 387.438400
   6966   6978   6980     1   109.8000471 387.438400
   6966   6965   6986     1   110.1100470 384.091200
   6967   6969   6971     1   109.8000471 387.438400
   6967   6969   6972     1   109.8000471 387.438400
   6967   6965   6986     1   110.1100470 384.091200
   6968   6967   6969     1   110.5600475 386.601600
   6968   6967   6970     1   109.7500473 328.025600
   6969   6967   6970     1   110.5600475 386.601600
   6971   6969   6973     1   108.7700466 392.459200
   6971   6969   6972     1   107.5800459 329.699200
   6972   6969   6973     1   108.7700466 392.459200
   6973   6974   6984     1   106.5500460 417.563200
   6976   6966   6978     1   110.5600475 386.601600
   6976   6966   6977     1   109.7500473 328.025600
   6977   6966   6978     1   110.5600475 386.601600
   6979   6978   6981     1   108.7700466 392.459200
   6979   6978   6980     1   107.5800459 329.699200
   6980   6978   6981     1   108.7700466 392.459200
   6981   6983   6985     1   106.5500460 417.563200
   6987   6989   6990     1   108.8800464 416.726400
   6987   6989   6992     1   108.8800464 416.726400
   6988   6987   6989     1   117.6800502 383.254400
   6989   6991   6993     1   110.5600475 386.601600
   6989   6991   6994     1   110.5600475 386.601600
   6990   6989   6991     1   109.5600471 388.275200
   6990   6989   6992     1   108.4600466 328.025600
   6991   6989   6992     1   109.5600471 388.275200
   6991   6995   7016     1   110.1100470 384.091200
   6993   6991   6995     1   108.0100461 406.684800
   6993   6991   6994     1   109.7500473 328.025600
   6994   6991   6995     1   108.0100461 406.684800
   6995   6996   7006     1   108.0100461 406.684800
   6995   6996   7007     1   108.0100461 406.684800
   6995   6997   6998     1   108.0100461 406.684800
   6995   6997   7000     1   108.0100461 406.684800
   6996   6995   7016     1   110.1100470 384.091200
   6996   7008   7009     1   109.8000471 387.438400
   6996   7008   7010     1   109.8000471 387.438400
   6997   6995   7016     1   110.1100470 384.091200
   6997   6999   7001     1   109.8000471 387.438400
   6997   6999   7002     1   109.8000471 387.438400
   6998   6997   6999     1   110.5600475 386.601600
   6998   6997   7000     1   109.7500473 328.025600
   6999   6997   7000     1   110.5600475 386.601600
   7001   6999   7003     1   108.7700466 392.459200
   7001   6999   7002     1   107.5800459 329.699200
   7002   6999   7003     1   108.7700466 392.459200
   7003   7004   7014     1   106.5500460 417.563200
   7006   6996   7008     1   110.5600475 386.601600
   7006   6996   7007     1   109.7500473 328.025600
   7007   6996   7008     1   110.5600475 386.601600
   7009   7008   7011     1   108.7700466 392.459200
   7009   7008   7010     1   107.5800459 329.699200
   7010   7008   7011     1   108.7700466 392.459200
   7011   7013   7015     1   106.5500460 417.563200
   7017   7019   7020     1   108.8800464 416.726400
   7017   7019   7022     1   108.8800464 416.726400
   7018   7017   7019     1   117.6800502 383.254400
   7019   7021   7023     1   110.5600475 386.601600
   7019   7021   7024     1   110.5600475 386.601600
   7020   7019   7021     1   109.5600471 388.275200
   7020   7019   7022     1   108.4600466 328.025600
   7021   7025   7046     1   110.1100470 384.091200
   7021   7019   7022     1   109.5600471 388.275200
   7023   7021   7025     1   108.0100461 406.684800
   7023   7021   7024     1   109.7500473 328.025600
   7024   7021   7025     1   108.0100461 406.684800
   7025   7026   7036     1   108.0100461 406.684800
   7025   7026   7037     1   108.0100461 406.684800
   7025   7027   7028     1   108.0100461 406.684800
   7025   7027   7030     1   108.0100461 406.684800
   7026   7038   7039     1   109.8000471 387.438400
   7026   7038   7040     1   109.8000471 387.438400
   7026   7025   7046     1   110.1100470 384.091200
   7027   7029   7031     1   109.8000471 387.438400
   7027   7029   7032     1   109.8000471 387.438400
   7027   7025   7046     1   110.1100470 384.091200
   7028   7027   7029     1   110.5600475 386.601600
   7028   7027   7030     1   109.7500473 328.025600
   7029   7027   7030     1   110.5600475 386.601600
   7031   7029   7033     1   108.7700466 392.459200
   7031   7029   7032     1   107.5800459 329.699200
   7032   7029   7033     1   108.7700466 392.459200
   7033   7034   7044     1   106.5500460 417.563200
   7036   7026   7038     1   110.5600475 386.601600
   7036   7026   7037     1   109.7500473 328.025600
   7037   7026   7038     1   110.5600475 386.601600
   7039   7038   7041     1   108.7700466 392.459200
   7039   7038   7040     1   107.5800459 329.699200
   7040   7038   7041     1   108.7700466 392.459200
   7041   7043   7045     1   106.5500460 417.563200
   7047   7049   7050     1   108.8800464 416.726400
   7047   7049   7052     1   108.8800464 416.726400
   7048   7047   7049     1   117.6800502 383.254400
   7049   7051   7053     1   110.5600475 386.601600
   7049   7051   7054     1   110.5600475 386.601600
   7050   7049   7051     1   109.5600471 388.275200
   7050   7049   7052     1   108.4600466 328.025600
   7051   7049   7052     1   109.5600471 388.275200
   7051   7055   7076     1   110.1100470 384.091200
   7053   7051   7055     1   108.0100461 406.684800
   7053   7051   7054     1   109.7500473 328.025600
   7054   7051   7055     1   108.0100461 406.684800
   7055   7056   7066     1   108.0100461 406.684800
   7055   7056   7067     1   108.0100461 406.684800
   7055   7057   7058     1   108.0100461 406.684800
   7055   7057   7060     1   108.0100461 406.684800
   7056   7055   7076     1   110.1100470 384.091200
   7056   7068   7069     1   109.8000471 387.438400
   7056   7068   7070     1   109.8000471 387.438400
   7057   7055   7076     1   110.1100470 384.091200
   7057   7059   7061     1   109.8000471 387.438400
   7057   7059   7062     1   109.8000471 387.438400
   7058   7057   7059     1   110.5600475 386.601600
   7058   7057   7060     1   109.7500473 328.025600
   7059   7057   7060     1   110.5600475 386.601600
   7061   7059   7063     1   108.7700466 392.459200
   7061   7059   7062     1   107.5800459 329.699200
   7062   7059   7063     1   108.7700466 392.459200
   7063   7064   7074     1   106.5500460 417.563200
   7066   7056   7068     1   110.5600475 386.601600
   7066   7056   7067     1   109.7500473 328.025600
   7067   7056   7068     1   110.5600475 386.601600
   7069   7068   7071     1   108.7700466 392.459200
   7069   7068   7070     1   107.5800459 329.699200
   7070   7068   7071     1   108.7700466 392.459200
   7071   7073   7075     1   106.5500460 417.563200
   7077   7079   7080     1   108.8800464 416.726400
   7077   7079   7082     1   108.8800464 416.726400
   7078   7077   7079     1   117.6800502 383.254400
   7079   7081   7083     1   110.5600475 386.601600
   7079   7081   7084     1   110.5600475 386.601600
   7080   7079   7081     1   109.5600471 388.275200
   7080   7079   7082     1   108.4600466 328.025600
   7081   7085   7106     1   110.1100470 384.091200
   7081   7079   7082     1   109.5600471 388.275200
   7083   7081   7085     1   108.0100461 406.684800
   7083   7081   7084     1   109.7500473 328.025600
   7084   7081   7085     1   108.0100461 406.684800
   7085   7086   7096     1   108.0100461 406.684800
   7085   7086   7097     1   108.0100461 406.684800
   7085   7087   7088     1   108.0100461 406.684800
   7085   7087   7090     1   108.0100461 406.684800
   7086   7098   7099     1   109.8000471 387.438400
   7086   7098   7100     1   109.8000471 387.438400
   7086   7085   7106     1   110.1100470 384.091200
   7087   7089   7091     1   109.8000471 387.438400
   7087   7089   7092     1   109.8000471 387.438400
   7087   7085   7106     1   110.1100470 384.091200
   7088   7087   7089     1   110.5600475 386.601600
   7088   7087   7090     1   109.7500473 328.025600
   7089   7087   7090     1   110.5600475 386.601600
   7091   7089   7093     1   108.7700466 392.459200
   7091   7089   7092     1   107.5800459 329.699200
   7092   7089   7093     1   108.7700466 392.459200
   7093   7094   7104     1   106.5500460 417.563200
   7096   7086   7098     1   110.5600475 386.601600
   7096   7086   7097     1   109.7500473 328.025600
   7097   7086   7098     1   110.5600475 386.601600
   7099   7098   7101     1   108.7700466 392.459200
   7099   7098   7100     1   107.5800459 329.699200
   7100   7098   7101     1   108.7700466 392.459200
   7101   7103   7105     1   106.5500460 417.563200

[ dihedrals ]
;    ai     aj     ak     al funct         c0         c1         c2         c3         c4         c5
      1      2      3      4     1  0.0000000  0.6508444  3
      1      7     13     14     1  0.0000000  0.6508444  3
      1      8     15     16     1  0.0000000  0.6508444  3
      2      1      7     13     1  0.0000000  0.6508444  3
      2      1      8     15     1  0.0000000  0.6508444  3
      2      3      4      5     1  0.0000000  0.6508444  3
      2      3      4      6     1  0.0000000  0.6508444  3
      7      1      2      3     1  0.0000000  0.6508444  3
      8      1      2      3     1  0.0000000  0.6508444  3
      3      4      5     11     1  0.0000000  0.6508444  3
      3      4      6      9     1  0.0000000  0.6508444  3
      4      5     11     12     1  0.0000000  0.6508444  3
      4      6      9     10     1  0.0000000  0.6508444  3
      5      4      6      9     1  0.0000000  0.6508444  3
      5     11     12     17     1  180.0000771  0.0000000  2
      5     11     12     78     1  0.0000000  0.2928800  2
      5     11     12     78     1  0.0000000  0.4184000  4
      6      4      5     11     1  0.0000000  0.6508444  3
      6      9     10     18     1  180.0000771  0.0000000  2
      6      9     10     52     1  0.0000000  0.2928800  2
      6      9     10     52     1  0.0000000  0.4184000  4
      7      1      8     15     1  0.0000000  0.6508444  3
      7     13     14     20     1  180.0000771  0.0000000  2
      7     13     14    104     1  0.0000000  0.2928800  2
      7     13     14    104     1  0.0000000  0.4184000  4
      8      1      7     13     1  0.0000000  0.6508444  3
      8     15     16     19     1  180.0000771  0.0000000  2
      8     15     16    130     1  0.0000000  0.2928800  2
      8     15     16    130     1  0.0000000  0.4184000  4
      9     10     52     51     1  180.0000771  6.2760000  1
      9     10     52     51     1  0.0000000  0.0000000  2
     10     52     51     50     1  0.0000000  2.2175200  1
     10     52     51     50     1  0.0000000  0.0000000  2
     10     52     51     50     1  180.0000771  0.6276000  3
     10     52     51     50     1  180.0000771  2.0920000  4
     11     12     78     77     1  180.0000771  6.2760000  1
     11     12     78     77     1  0.0000000  0.0000000  2
     12     78     77     76     1  0.0000000  2.2175200  1
     12     78     77     76     1  0.0000000  0.0000000  2
     12     78     77     76     1  180.0000771  0.6276000  3
     12     78     77     76     1  180.0000771  2.0920000  4
     13     14    104    103     1  180.0000771  6.2760000  1
     13     14    104    103     1  0.0000000  0.0000000  2
     14    104    103    102     1  0.0000000  2.2175200  1
     14    104    103    102     1  0.0000000  0.0000000  2
     14    104    103    102     1  180.0000771  0.6276000  3
     14    104    103    102     1  180.0000771  2.0920000  4
     15     16    130    129     1  180.0000771  6.2760000  1
     15     16    130    129     1  0.0000000  0.0000000  2
     16    130    129    128     1  0.0000000  2.2175200  1
     16    130    129    128     1  0.0000000  0.0000000  2
     16    130    129    128     1  180.0000771  0.6276000  3
     16    130    129    128     1  180.0000771  2.0920000  4
     17     12     78     77     1  180.0000771  10.4600000  2
     18     10     52     51     1  180.0000771  10.4600000  2
     19     16    130    129     1  180.0000771  10.4600000  2
     20     14    104    103     1  180.0000771  10.4600000  2
     43     44     46     47     1  0.0000000  0.6508444  3
     43     45     48     49     1  0.0000000  0.6508444  3
     43     50     51     52     1  0.0000000  0.6508444  3
     44     43     45     48     1  0.0000000  0.6508444  3
     44     43     50     51     1  0.0000000  0.6508444  3
     44     46     47     53     1  180.0000771  0.0000000  2
     44     46     47    156     1  0.0000000  0.2928800  2
     44     46     47    156     1  0.0000000  0.4184000  4
     45     43     44     46     1  0.0000000  0.6508444  3
     45     43     50     51     1  0.0000000  0.6508444  3
     45     48     49     54     1  180.0000771  0.0000000  2
     45     48     49    182     1  0.0000000  0.2928800  2
     45     48     49    182     1  0.0000000  0.4184000  4
     46     44     43     50     1  0.0000000  0.6508444  3
     46     47    156    155     1  180.0000771  6.2760000  1
     46     47    156    155     1  0.0000000  0.0000000  2
     47    156    155    154     1  0.0000000  2.2175200  1
     47    156    155    154     1  0.0000000  0.0000000  2
     47    156    155    154     1  180.0000771  0.6276000  3
     47    156    155    154     1  180.0000771  2.0920000  4
     48     45     43     50     1  0.0000000  0.6508444  3
     48     49    182    181     1  180.0000771  6.2760000  1
     48     49    182    181     1  0.0000000  0.0000000  2
     49    182    181    180     1  0.0000000  2.2175200  1
     49    182    181    180     1  0.0000000  0.0000000  2
     49    182    181    180     1  180.0000771  0.6276000  3
     49    182    181    180     1  180.0000771  2.0920000  4
     53     47    156    155     1  180.0000771  10.4600000  2
     54     49    182    181     1  180.0000771  10.4600000  2
     69     70     72     73     1  0.0000000  0.6508444  3
     69     71     74     75     1  0.0000000  0.6508444  3
     69     76     77     78     1  0.0000000  0.6508444  3
     70     69     71     74     1  0.0000000  0.6508444  3
     70     69     76     77     1  0.0000000  0.6508444  3
     70     72     73     79     1  180.0000771  0.0000000  2
     70     72     73    208     1  0.0000000  0.2928800  2
     70     72     73    208     1  0.0000000  0.4184000  4
     71     69     70     72     1  0.0000000  0.6508444  3
     71     69     76     77     1  0.0000000  0.6508444  3
     71     74     75     80     1  180.0000771  0.0000000  2
     71     74     75    234     1  0.0000000  0.2928800  2
     71     74     75    234     1  0.0000000  0.4184000  4
     72     70     69     76     1  0.0000000  0.6508444  3
     72     73    208    207     1  180.0000771  6.2760000  1
     72     73    208    207     1  0.0000000  0.0000000  2
     73    208    207    206     1  0.0000000  2.2175200  1
     73    208    207    206     1  0.0000000  0.0000000  2
     73    208    207    206     1  180.0000771  0.6276000  3
     73    208    207    206     1  180.0000771  2.0920000  4
     74     71     69     76     1  0.0000000  0.6508444  3
     74     75    234    233     1  180.0000771  6.2760000  1
     74     75    234    233     1  0.0000000  0.0000000  2
     75    234    233    232     1  0.0000000  2.2175200  1
     75    234    233    232     1  0.0000000  0.0000000  2
     75    234    233    232     1  180.0000771  0.6276000  3
     75    234    233    232     1  180.0000771  2.0920000  4
     79     73    208    207     1  180.0000771  10.4600000  2
     80     75    234    233     1  180.0000771  10.4600000  2
     95     96     98     99     1  0.0000000  0.6508444  3
     95     97    100    101     1  0.0000000  0.6508444  3
     95    102    103    104     1  0.0000000  0.6508444  3
     96     95     97    100     1  0.0000000  0.6508444  3
     96     95    102    103     1  0.0000000  0.6508444  3
     96     98     99    105     1  180.0000771  0.0000000  2
     96     98     99    260     1  0.0000000  0.2928800  2
     96     98     99    260     1  0.0000000  0.4184000  4
     97     95     96     98     1  0.0000000  0.6508444  3
     97     95    102    103     1  0.0000000  0.6508444  3
     97    100    101    106     1  180.0000771  0.0000000  2
     97    100    101    286     1  0.0000000  0.2928800  2
     97    100    101    286     1  0.0000000  0.4184000  4
     98     96     95    102     1  0.0000000  0.6508444  3
     98     99    260    259     1  180.0000771  6.2760000  1
     98     99    260    259     1  0.0000000  0.0000000  2
     99    260    259    258     1  0.0000000  2.2175200  1
     99    260    259    258     1  0.0000000  0.0000000  2
     99    260    259    258     1  180.0000771  0.6276000  3
     99    260    259    258     1  180.0000771  2.0920000  4
    100     97     95    102     1  0.0000000  0.6508444  3
    100    101    286    285     1  180.0000771  6.2760000  1
    100    101    286    285     1  0.0000000  0.0000000  2
    101    286    285    284     1  0.0000000  2.2175200  1
    101    286    285    284     1  0.0000000  0.0000000  2
    101    286    285    284     1  180.0000771  0.6276000  3
    101    286    285    284     1  180.0000771  2.0920000  4
    105     99    260    259     1  180.0000771  10.4600000  2
    106    101    286    285     1  180.0000771  10.4600000  2
    121    122    124    125     1  0.0000000  0.6508444  3
    121    123    126    127     1  0.0000000  0.6508444  3
    121    128    129    130     1  0.0000000  0.6508444  3
    122    121    123    126     1  0.0000000  0.6508444  3
    122    121    128    129     1  0.0000000  0.6508444  3
    122    124    125    131     1  180.0000771  0.0000000  2
    122    124    125    312     1  0.0000000  0.2928800  2
    122    124    125    312     1  0.0000000  0.4184000  4
    123    121    122    124     1  0.0000000  0.6508444  3
    123    121    128    129     1  0.0000000  0.6508444  3
    123    126    127    132     1  180.0000771  0.0000000  2
    123    126    127    338     1  0.0000000  0.2928800  2
    123    126    127    338     1  0.0000000  0.4184000  4
    124    122    121    128     1  0.0000000  0.6508444  3
    124    125    312    311     1  180.0000771  6.2760000  1
    124    125    312    311     1  0.0000000  0.0000000  2
    125    312    311    310     1  0.0000000  2.2175200  1
    125    312    311    310     1  0.0000000  0.0000000  2
    125    312    311    310     1  180.0000771  0.6276000  3
    125    312    311    310     1  180.0000771  2.0920000  4
    126    123    121    128     1  0.0000000  0.6508444  3
    126    127    338    337     1  180.0000771  6.2760000  1
    126    127    338    337     1  0.0000000  0.0000000  2
    127    338    337    336     1  0.0000000  2.2175200  1
    127    338    337    336     1  0.0000000  0.0000000  2
    127    338    337    336     1  180.0000771  0.6276000  3
    127    338    337    336     1  180.0000771  2.0920000  4
    131    125    312    311     1  180.0000771  10.4600000  2
    132    127    338    337     1  180.0000771  10.4600000  2
    147    148    150    151     1  0.0000000  0.6508444  3
    147    149    152    153     1  0.0000000  0.6508444  3
    147    154    155    156     1  0.0000000  0.6508444  3
    148    147    149    152     1  0.0000000  0.6508444  3
    148    147    154    155     1  0.0000000  0.6508444  3
    148    150    151    157     1  180.0000771  0.0000000  2
    148    150    151    364     1  0.0000000  0.2928800  2
    148    150    151    364     1  0.0000000  0.4184000  4
    149    147    148    150     1  0.0000000  0.6508444  3
    149    147    154    155     1  0.0000000  0.6508444  3
    149    152    153    158     1  180.0000771  0.0000000  2
    149    152    153    390     1  0.0000000  0.2928800  2
    149    152    153    390     1  0.0000000  0.4184000  4
    150    148    147    154     1  0.0000000  0.6508444  3
    150    151    364    363     1  180.0000771  6.2760000  1
    150    151    364    363     1  0.0000000  0.0000000  2
    151    364    363    362     1  0.0000000  2.2175200  1
    151    364    363    362     1  0.0000000  0.0000000  2
    151    364    363    362     1  180.0000771  0.6276000  3
    151    364    363    362     1  180.0000771  2.0920000  4
    152    149    147    154     1  0.0000000  0.6508444  3
    152    153    390    389     1  180.0000771  6.2760000  1
    152    153    390    389     1  0.0000000  0.0000000  2
    153    390    389    388     1  0.0000000  2.2175200  1
    153    390    389    388     1  0.0000000  0.0000000  2
    153    390    389    388     1  180.0000771  0.6276000  3
    153    390    389    388     1  180.0000771  2.0920000  4
    157    151    364    363     1  180.0000771  10.4600000  2
    158    153    390    389     1  180.0000771  10.4600000  2
    173    174    176    177     1  0.0000000  0.6508444  3
    173    175    178    179     1  0.0000000  0.6508444  3
    173    180    181    182     1  0.0000000  0.6508444  3
    174    173    175    178     1  0.0000000  0.6508444  3
    174    173    180    181     1  0.0000000  0.6508444  3
    174    176    177    183     1  180.0000771  0.0000000  2
    174    176    177    416     1  0.0000000  0.2928800  2
    174    176    177    416     1  0.0000000  0.4184000  4
    175    173    174    176     1  0.0000000  0.6508444  3
    175    173    180    181     1  0.0000000  0.6508444  3
    175    178    179    184     1  180.0000771  0.0000000  2
    175    178    179    442     1  0.0000000  0.2928800  2
    175    178    179    442     1  0.0000000  0.4184000  4
    176    174    173    180     1  0.0000000  0.6508444  3
    176    177    416    415     1  180.0000771  6.2760000  1
    176    177    416    415     1  0.0000000  0.0000000  2
    177    416    415    414     1  0.0000000  2.2175200  1
    177    416    415    414     1  0.0000000  0.0000000  2
    177    416    415    414     1  180.0000771  0.6276000  3
    177    416    415    414     1  180.0000771  2.0920000  4
    178    175    173    180     1  0.0000000  0.6508444  3
    178    179    442    441     1  180.0000771  6.2760000  1
    178    179    442    441     1  0.0000000  0.0000000  2
    179    442    441    440     1  0.0000000  2.2175200  1
    179    442    441    440     1  0.0000000  0.0000000  2
    179    442    441    440     1  180.0000771  0.6276000  3
    179    442    441    440     1  180.0000771  2.0920000  4
    183    177    416    415     1  180.0000771  10.4600000  2
    184    179    442    441     1  180.0000771  10.4600000  2
    199    200    202    203     1  0.0000000  0.6508444  3
    199    201    204    205     1  0.0000000  0.6508444  3
    199    206    207    208     1  0.0000000  0.6508444  3
    200    199    201    204     1  0.0000000  0.6508444  3
    200    199    206    207     1  0.0000000  0.6508444  3
    200    202    203    209     1  180.0000771  0.0000000  2
    200    202    203    468     1  0.0000000  0.2928800  2
    200    202    203    468     1  0.0000000  0.4184000  4
    201    199    200    202     1  0.0000000  0.6508444  3
    201    199    206    207     1  0.0000000  0.6508444  3
    201    204    205    210     1  180.0000771  0.0000000  2
    201    204    205    494     1  0.0000000  0.2928800  2
    201    204    205    494     1  0.0000000  0.4184000  4
    202    200    199    206     1  0.0000000  0.6508444  3
    202    203    468    467     1  180.0000771  6.2760000  1
    202    203    468    467     1  0.0000000  0.0000000  2
    203    468    467    466     1  0.0000000  2.2175200  1
    203    468    467    466     1  0.0000000  0.0000000  2
    203    468    467    466     1  180.0000771  0.6276000  3
    203    468    467    466     1  180.0000771  2.0920000  4
    204    201    199    206     1  0.0000000  0.6508444  3
    204    205    494    493     1  180.0000771  6.2760000  1
    204    205    494    493     1  0.0000000  0.0000000  2
    205    494    493    492     1  0.0000000  2.2175200  1
    205    494    493    492     1  0.0000000  0.0000000  2
    205    494    493    492     1  180.0000771  0.6276000  3
    205    494    493    492     1  180.0000771  2.0920000  4
    209    203    468    467     1  180.0000771  10.4600000  2
    210    205    494    493     1  180.0000771  10.4600000  2
    225    226    228    229     1  0.0000000  0.6508444  3
    225    227    230    231     1  0.0000000  0.6508444  3
    225    232    233    234     1  0.0000000  0.6508444  3
    226    225    227    230     1  0.0000000  0.6508444  3
    226    225    232    233     1  0.0000000  0.6508444  3
    226    228    229    235     1  180.0000771  0.0000000  2
    226    228    229    520     1  0.0000000  0.2928800  2
    226    228    229    520     1  0.0000000  0.4184000  4
    227    225    226    228     1  0.0000000  0.6508444  3
    227    225    232    233     1  0.0000000  0.6508444  3
    227    230    231    236     1  180.0000771  0.0000000  2
    227    230    231    546     1  0.0000000  0.2928800  2
    227    230    231    546     1  0.0000000  0.4184000  4
    228    226    225    232     1  0.0000000  0.6508444  3
    228    229    520    519     1  180.0000771  6.2760000  1
    228    229    520    519     1  0.0000000  0.0000000  2
    229    520    519    518     1  0.0000000  2.2175200  1
    229    520    519    518     1  0.0000000  0.0000000  2
    229    520    519    518     1  180.0000771  0.6276000  3
    229    520    519    518     1  180.0000771  2.0920000  4
    230    227    225    232     1  0.0000000  0.6508444  3
    230    231    546    545     1  180.0000771  6.2760000  1
    230    231    546    545     1  0.0000000  0.0000000  2
    231    546    545    544     1  0.0000000  2.2175200  1
    231    546    545    544     1  0.0000000  0.0000000  2
    231    546    545    544     1  180.0000771  0.6276000  3
    231    546    545    544     1  180.0000771  2.0920000  4
    235    229    520    519     1  180.0000771  10.4600000  2
    236    231    546    545     1  180.0000771  10.4600000  2
    251    252    254    255     1  0.0000000  0.6508444  3
    251    253    256    257     1  0.0000000  0.6508444  3
    251    258    259    260     1  0.0000000  0.6508444  3
    252    251    253    256     1  0.0000000  0.6508444  3
    252    251    258    259     1  0.0000000  0.6508444  3
    252    254    255    261     1  180.0000771  0.0000000  2
    252    254    255    572     1  0.0000000  0.2928800  2
    252    254    255    572     1  0.0000000  0.4184000  4
    253    251    252    254     1  0.0000000  0.6508444  3
    253    251    258    259     1  0.0000000  0.6508444  3
    253    256    257    262     1  180.0000771  0.0000000  2
    253    256    257    598     1  0.0000000  0.2928800  2
    253    256    257    598     1  0.0000000  0.4184000  4
    254    252    251    258     1  0.0000000  0.6508444  3
    254    255    572    571     1  180.0000771  6.2760000  1
    254    255    572    571     1  0.0000000  0.0000000  2
    255    572    571    570     1  0.0000000  2.2175200  1
    255    572    571    570     1  0.0000000  0.0000000  2
    255    572    571    570     1  180.0000771  0.6276000  3
    255    572    571    570     1  180.0000771  2.0920000  4
    256    253    251    258     1  0.0000000  0.6508444  3
    256    257    598    597     1  180.0000771  6.2760000  1
    256    257    598    597     1  0.0000000  0.0000000  2
    257    598    597    596     1  0.0000000  2.2175200  1
    257    598    597    596     1  0.0000000  0.0000000  2
    257    598    597    596     1  180.0000771  0.6276000  3
    257    598    597    596     1  180.0000771  2.0920000  4
    261    255    572    571     1  180.0000771  10.4600000  2
    262    257    598    597     1  180.0000771  10.4600000  2
    277    278    280    281     1  0.0000000  0.6508444  3
    277    279    282    283     1  0.0000000  0.6508444  3
    277    284    285    286     1  0.0000000  0.6508444  3
    278    277    279    282     1  0.0000000  0.6508444  3
    278    277    284    285     1  0.0000000  0.6508444  3
    278    280    281    287     1  180.0000771  0.0000000  2
    278    280    281    624     1  0.0000000  0.2928800  2
    278    280    281    624     1  0.0000000  0.4184000  4
    279    277    278    280     1  0.0000000  0.6508444  3
    279    277    284    285     1  0.0000000  0.6508444  3
    279    282    283    288     1  180.0000771  0.0000000  2
    279    282    283    650     1  0.0000000  0.2928800  2
    279    282    283    650     1  0.0000000  0.4184000  4
    280    278    277    284     1  0.0000000  0.6508444  3
    280    281    624    623     1  180.0000771  6.2760000  1
    280    281    624    623     1  0.0000000  0.0000000  2
    281    624    623    622     1  0.0000000  2.2175200  1
    281    624    623    622     1  0.0000000  0.0000000  2
    281    624    623    622     1  180.0000771  0.6276000  3
    281    624    623    622     1  180.0000771  2.0920000  4
    282    279    277    284     1  0.0000000  0.6508444  3
    282    283    650    649     1  180.0000771  6.2760000  1
    282    283    650    649     1  0.0000000  0.0000000  2
    283    650    649    648     1  0.0000000  2.2175200  1
    283    650    649    648     1  0.0000000  0.0000000  2
    283    650    649    648     1  180.0000771  0.6276000  3
    283    650    649    648     1  180.0000771  2.0920000  4
    287    281    624    623     1  180.0000771  10.4600000  2
    288    283    650    649     1  180.0000771  10.4600000  2
    303    304    306    307     1  0.0000000  0.6508444  3
    303    305    308    309     1  0.0000000  0.6508444  3
    303    310    311    312     1  0.0000000  0.6508444  3
    304    303    305    308     1  0.0000000  0.6508444  3
    304    303    310    311     1  0.0000000  0.6508444  3
    304    306    307    313     1  180.0000771  0.0000000  2
    304    306    307    676     1  0.0000000  0.2928800  2
    304    306    307    676     1  0.0000000  0.4184000  4
    305    303    304    306     1  0.0000000  0.6508444  3
    305    303    310    311     1  0.0000000  0.6508444  3
    305    308    309    314     1  180.0000771  0.0000000  2
    305    308    309    702     1  0.0000000  0.2928800  2
    305    308    309    702     1  0.0000000  0.4184000  4
    306    304    303    310     1  0.0000000  0.6508444  3
    306    307    676    675     1  180.0000771  6.2760000  1
    306    307    676    675     1  0.0000000  0.0000000  2
    307    676    675    674     1  0.0000000  2.2175200  1
    307    676    675    674     1  0.0000000  0.0000000  2
    307    676    675    674     1  180.0000771  0.6276000  3
    307    676    675    674     1  180.0000771  2.0920000  4
    308    305    303    310     1  0.0000000  0.6508444  3
    308    309    702    701     1  180.0000771  6.2760000  1
    308    309    702    701     1  0.0000000  0.0000000  2
    309    702    701    700     1  0.0000000  2.2175200  1
    309    702    701    700     1  0.0000000  0.0000000  2
    309    702    701    700     1  180.0000771  0.6276000  3
    309    702    701    700     1  180.0000771  2.0920000  4
    313    307    676    675     1  180.0000771  10.4600000  2
    314    309    702    701     1  180.0000771  10.4600000  2
    329    330    332    333     1  0.0000000  0.6508444  3
    329    331    334    335     1  0.0000000  0.6508444  3
    329    336    337    338     1  0.0000000  0.6508444  3
    330    329    331    334     1  0.0000000  0.6508444  3
    330    329    336    337     1  0.0000000  0.6508444  3
    330    332    333    339     1  180.0000771  0.0000000  2
    330    332    333    728     1  0.0000000  0.2928800  2
    330    332    333    728     1  0.0000000  0.4184000  4
    331    329    330    332     1  0.0000000  0.6508444  3
    331    329    336    337     1  0.0000000  0.6508444  3
    331    334    335    340     1  180.0000771  0.0000000  2
    331    334    335    754     1  0.0000000  0.2928800  2
    331    334    335    754     1  0.0000000  0.4184000  4
    332    330    329    336     1  0.0000000  0.6508444  3
    332    333    728    727     1  180.0000771  6.2760000  1
    332    333    728    727     1  0.0000000  0.0000000  2
    333    728    727    726     1  0.0000000  2.2175200  1
    333    728    727    726     1  0.0000000  0.0000000  2
    333    728    727    726     1  180.0000771  0.6276000  3
    333    728    727    726     1  180.0000771  2.0920000  4
    334    331    329    336     1  0.0000000  0.6508444  3
    334    335    754    753     1  180.0000771  6.2760000  1
    334    335    754    753     1  0.0000000  0.0000000  2
    335    754    753    752     1  0.0000000  2.2175200  1
    335    754    753    752     1  0.0000000  0.0000000  2
    335    754    753    752     1  180.0000771  0.6276000  3
    335    754    753    752     1  180.0000771  2.0920000  4
    339    333    728    727     1  180.0000771  10.4600000  2
    340    335    754    753     1  180.0000771  10.4600000  2
    355    356    358    359     1  0.0000000  0.6508444  3
    355    357    360    361     1  0.0000000  0.6508444  3
    355    362    363    364     1  0.0000000  0.6508444  3
    356    355    357    360     1  0.0000000  0.6508444  3
    356    355    362    363     1  0.0000000  0.6508444  3
    356    358    359    365     1  180.0000771  0.0000000  2
    356    358    359    780     1  0.0000000  0.2928800  2
    356    358    359    780     1  0.0000000  0.4184000  4
    357    355    356    358     1  0.0000000  0.6508444  3
    357    355    362    363     1  0.0000000  0.6508444  3
    357    360    361    366     1  180.0000771  0.0000000  2
    357    360    361    806     1  0.0000000  0.2928800  2
    357    360    361    806     1  0.0000000  0.4184000  4
    358    356    355    362     1  0.0000000  0.6508444  3
    358    359    780    779     1  180.0000771  6.2760000  1
    358    359    780    779     1  0.0000000  0.0000000  2
    359    780    779    778     1  0.0000000  2.2175200  1
    359    780    779    778     1  0.0000000  0.0000000  2
    359    780    779    778     1  180.0000771  0.6276000  3
    359    780    779    778     1  180.0000771  2.0920000  4
    360    357    355    362     1  0.0000000  0.6508444  3
    360    361    806    805     1  180.0000771  6.2760000  1
    360    361    806    805     1  0.0000000  0.0000000  2
    361    806    805    804     1  0.0000000  2.2175200  1
    361    806    805    804     1  0.0000000  0.0000000  2
    361    806    805    804     1  180.0000771  0.6276000  3
    361    806    805    804     1  180.0000771  2.0920000  4
    365    359    780    779     1  180.0000771  10.4600000  2
    366    361    806    805     1  180.0000771  10.4600000  2
    381    382    384    385     1  0.0000000  0.6508444  3
    381    383    386    387     1  0.0000000  0.6508444  3
    381    388    389    390     1  0.0000000  0.6508444  3
    382    381    383    386     1  0.0000000  0.6508444  3
    382    381    388    389     1  0.0000000  0.6508444  3
    382    384    385    391     1  180.0000771  0.0000000  2
    382    384    385    832     1  0.0000000  0.2928800  2
    382    384    385    832     1  0.0000000  0.4184000  4
    383    381    382    384     1  0.0000000  0.6508444  3
    383    381    388    389     1  0.0000000  0.6508444  3
    383    386    387    392     1  180.0000771  0.0000000  2
    383    386    387    858     1  0.0000000  0.2928800  2
    383    386    387    858     1  0.0000000  0.4184000  4
    384    382    381    388     1  0.0000000  0.6508444  3
    384    385    832    831     1  180.0000771  6.2760000  1
    384    385    832    831     1  0.0000000  0.0000000  2
    385    832    831    830     1  0.0000000  2.2175200  1
    385    832    831    830     1  0.0000000  0.0000000  2
    385    832    831    830     1  180.0000771  0.6276000  3
    385    832    831    830     1  180.0000771  2.0920000  4
    386    383    381    388     1  0.0000000  0.6508444  3
    386    387    858    857     1  180.0000771  6.2760000  1
    386    387    858    857     1  0.0000000  0.0000000  2
    387    858    857    856     1  0.0000000  2.2175200  1
    387    858    857    856     1  0.0000000  0.0000000  2
    387    858    857    856     1  180.0000771  0.6276000  3
    387    858    857    856     1  180.0000771  2.0920000  4
    391    385    832    831     1  180.0000771  10.4600000  2
    392    387    858    857     1  180.0000771  10.4600000  2
    407    408    410    411     1  0.0000000  0.6508444  3
    407    409    412    413     1  0.0000000  0.6508444  3
    407    414    415    416     1  0.0000000  0.6508444  3
    408    407    409    412     1  0.0000000  0.6508444  3
    408    407    414    415     1  0.0000000  0.6508444  3
    408    410    411    417     1  180.0000771  0.0000000  2
    408    410    411    884     1  0.0000000  0.2928800  2
    408    410    411    884     1  0.0000000  0.4184000  4
    409    407    408    410     1  0.0000000  0.6508444  3
    409    407    414    415     1  0.0000000  0.6508444  3
    409    412    413    418     1  180.0000771  0.0000000  2
    409    412    413    910     1  0.0000000  0.2928800  2
    409    412    413    910     1  0.0000000  0.4184000  4
    410    408    407    414     1  0.0000000  0.6508444  3
    410    411    884    883     1  180.0000771  6.2760000  1
    410    411    884    883     1  0.0000000  0.0000000  2
    411    884    883    882     1  0.0000000  2.2175200  1
    411    884    883    882     1  0.0000000  0.0000000  2
    411    884    883    882     1  180.0000771  0.6276000  3
    411    884    883    882     1  180.0000771  2.0920000  4
    412    409    407    414     1  0.0000000  0.6508444  3
    412    413    910    909     1  180.0000771  6.2760000  1
    412    413    910    909     1  0.0000000  0.0000000  2
    413    910    909    908     1  0.0000000  2.2175200  1
    413    910    909    908     1  0.0000000  0.0000000  2
    413    910    909    908     1  180.0000771  0.6276000  3
    413    910    909    908     1  180.0000771  2.0920000  4
    417    411    884    883     1  180.0000771  10.4600000  2
    418    413    910    909     1  180.0000771  10.4600000  2
    433    434    436    437     1  0.0000000  0.6508444  3
    433    435    438    439     1  0.0000000  0.6508444  3
    433    440    441    442     1  0.0000000  0.6508444  3
    434    433    435    438     1  0.0000000  0.6508444  3
    434    433    440    441     1  0.0000000  0.6508444  3
    434    436    437    443     1  180.0000771  0.0000000  2
    434    436    437    936     1  0.0000000  0.2928800  2
    434    436    437    936     1  0.0000000  0.4184000  4
    435    433    434    436     1  0.0000000  0.6508444  3
    435    433    440    441     1  0.0000000  0.6508444  3
    435    438    439    444     1  180.0000771  0.0000000  2
    435    438    439    962     1  0.0000000  0.2928800  2
    435    438    439    962     1  0.0000000  0.4184000  4
    436    434    433    440     1  0.0000000  0.6508444  3
    436    437    936    935     1  180.0000771  6.2760000  1
    436    437    936    935     1  0.0000000  0.0000000  2
    437    936    935    934     1  0.0000000  2.2175200  1
    437    936    935    934     1  0.0000000  0.0000000  2
    437    936    935    934     1  180.0000771  0.6276000  3
    437    936    935    934     1  180.0000771  2.0920000  4
    438    435    433    440     1  0.0000000  0.6508444  3
    438    439    962    961     1  180.0000771  6.2760000  1
    438    439    962    961     1  0.0000000  0.0000000  2
    439    962    961    960     1  0.0000000  2.2175200  1
    439    962    961    960     1  0.0000000  0.0000000  2
    439    962    961    960     1  180.0000771  0.6276000  3
    439    962    961    960     1  180.0000771  2.0920000  4
    443    437    936    935     1  180.0000771  10.4600000  2
    444    439    962    961     1  180.0000771  10.4600000  2
    459    460    462    463     1  0.0000000  0.6508444  3
    459    461    464    465     1  0.0000000  0.6508444  3
    459    466    467    468     1  0.0000000  0.6508444  3
    460    459    461    464     1  0.0000000  0.6508444  3
    460    459    466    467     1  0.0000000  0.6508444  3
    460    462    463    469     1  180.0000771  0.0000000  2
    460    462    463    988     1  0.0000000  0.2928800  2
    460    462    463    988     1  0.0000000  0.4184000  4
    461    459    460    462     1  0.0000000  0.6508444  3
    461    459    466    467     1  0.0000000  0.6508444  3
    461    464    465    470     1  180.0000771  0.0000000  2
    461    464    465   1014     1  0.0000000  0.2928800  2
    461    464    465   1014     1  0.0000000  0.4184000  4
    462    460    459    466     1  0.0000000  0.6508444  3
    462    463    988    987     1  180.0000771  6.2760000  1
    462    463    988    987     1  0.0000000  0.0000000  2
    463    988    987    986     1  0.0000000  2.2175200  1
    463    988    987    986     1  0.0000000  0.0000000  2
    463    988    987    986     1  180.0000771  0.6276000  3
    463    988    987    986     1  180.0000771  2.0920000  4
    464    461    459    466     1  0.0000000  0.6508444  3
    464    465   1014   1013     1  180.0000771  6.2760000  1
    464    465   1014   1013     1  0.0000000  0.0000000  2
    465   1014   1013   1012     1  0.0000000  2.2175200  1
    465   1014   1013   1012     1  0.0000000  0.0000000  2
    465   1014   1013   1012     1  180.0000771  0.6276000  3
    465   1014   1013   1012     1  180.0000771  2.0920000  4
    469    463    988    987     1  180.0000771  10.4600000  2
    470    465   1014   1013     1  180.0000771  10.4600000  2
    485    486    488    489     1  0.0000000  0.6508444  3
    485    487    490    491     1  0.0000000  0.6508444  3
    485    492    493    494     1  0.0000000  0.6508444  3
    486    485    487    490     1  0.0000000  0.6508444  3
    486    485    492    493     1  0.0000000  0.6508444  3
    486    488    489    495     1  180.0000771  0.0000000  2
    486    488    489   1040     1  0.0000000  0.2928800  2
    486    488    489   1040     1  0.0000000  0.4184000  4
    487    485    486    488     1  0.0000000  0.6508444  3
    487    485    492    493     1  0.0000000  0.6508444  3
    487    490    491    496     1  180.0000771  0.0000000  2
    487    490    491   1066     1  0.0000000  0.2928800  2
    487    490    491   1066     1  0.0000000  0.4184000  4
    488    486    485    492     1  0.0000000  0.6508444  3
    488    489   1040   1039     1  180.0000771  6.2760000  1
    488    489   1040   1039     1  0.0000000  0.0000000  2
    489   1040   1039   1038     1  0.0000000  2.2175200  1
    489   1040   1039   1038     1  0.0000000  0.0000000  2
    489   1040   1039   1038     1  180.0000771  0.6276000  3
    489   1040   1039   1038     1  180.0000771  2.0920000  4
    490    487    485    492     1  0.0000000  0.6508444  3
    490    491   1066   1065     1  180.0000771  6.2760000  1
    490    491   1066   1065     1  0.0000000  0.0000000  2
    491   1066   1065   1064     1  0.0000000  2.2175200  1
    491   1066   1065   1064     1  0.0000000  0.0000000  2
    491   1066   1065   1064     1  180.0000771  0.6276000  3
    491   1066   1065   1064     1  180.0000771  2.0920000  4
    495    489   1040   1039     1  180.0000771  10.4600000  2
    496    491   1066   1065     1  180.0000771  10.4600000  2
    511    512    514    515     1  0.0000000  0.6508444  3
    511    513    516    517     1  0.0000000  0.6508444  3
    511    518    519    520     1  0.0000000  0.6508444  3
    512    511    513    516     1  0.0000000  0.6508444  3
    512    511    518    519     1  0.0000000  0.6508444  3
    512    514    515    521     1  180.0000771  0.0000000  2
    512    514    515   1092     1  0.0000000  0.2928800  2
    512    514    515   1092     1  0.0000000  0.4184000  4
    513    511    512    514     1  0.0000000  0.6508444  3
    513    511    518    519     1  0.0000000  0.6508444  3
    513    516    517    522     1  180.0000771  0.0000000  2
    513    516    517   1118     1  0.0000000  0.2928800  2
    513    516    517   1118     1  0.0000000  0.4184000  4
    514    512    511    518     1  0.0000000  0.6508444  3
    514    515   1092   1091     1  180.0000771  6.2760000  1
    514    515   1092   1091     1  0.0000000  0.0000000  2
    515   1092   1091   1090     1  0.0000000  2.2175200  1
    515   1092   1091   1090     1  0.0000000  0.0000000  2
    515   1092   1091   1090     1  180.0000771  0.6276000  3
    515   1092   1091   1090     1  180.0000771  2.0920000  4
    516    513    511    518     1  0.0000000  0.6508444  3
    516    517   1118   1117     1  180.0000771  6.2760000  1
    516    517   1118   1117     1  0.0000000  0.0000000  2
    517   1118   1117   1116     1  0.0000000  2.2175200  1
    517   1118   1117   1116     1  0.0000000  0.0000000  2
    517   1118   1117   1116     1  180.0000771  0.6276000  3
    517   1118   1117   1116     1  180.0000771  2.0920000  4
    521    515   1092   1091     1  180.0000771  10.4600000  2
    522    517   1118   1117     1  180.0000771  10.4600000  2
    537    538    540    541     1  0.0000000  0.6508444  3
    537    539    542    543     1  0.0000000  0.6508444  3
    537    544    545    546     1  0.0000000  0.6508444  3
    538    537    539    542     1  0.0000000  0.6508444  3
    538    537    544    545     1  0.0000000  0.6508444  3
    538    540    541    547     1  180.0000771  0.0000000  2
    538    540    541   1144     1  0.0000000  0.2928800  2
    538    540    541   1144     1  0.0000000  0.4184000  4
    539    537    538    540     1  0.0000000  0.6508444  3
    539    537    544    545     1  0.0000000  0.6508444  3
    539    542    543    548     1  180.0000771  0.0000000  2
    539    542    543   1170     1  0.0000000  0.2928800  2
    539    542    543   1170     1  0.0000000  0.4184000  4
    540    538    537    544     1  0.0000000  0.6508444  3
    540    541   1144   1143     1  180.0000771  6.2760000  1
    540    541   1144   1143     1  0.0000000  0.0000000  2
    541   1144   1143   1142     1  0.0000000  2.2175200  1
    541   1144   1143   1142     1  0.0000000  0.0000000  2
    541   1144   1143   1142     1  180.0000771  0.6276000  3
    541   1144   1143   1142     1  180.0000771  2.0920000  4
    542    539    537    544     1  0.0000000  0.6508444  3
    542    543   1170   1169     1  180.0000771  6.2760000  1
    542    543   1170   1169     1  0.0000000  0.0000000  2
    543   1170   1169   1168     1  0.0000000  2.2175200  1
    543   1170   1169   1168     1  0.0000000  0.0000000  2
    543   1170   1169   1168     1  180.0000771  0.6276000  3
    543   1170   1169   1168     1  180.0000771  2.0920000  4
    547    541   1144   1143     1  180.0000771  10.4600000  2
    548    543   1170   1169     1  180.0000771  10.4600000  2
    563    564    566    567     1  0.0000000  0.6508444  3
    563    565    568    569     1  0.0000000  0.6508444  3
    563    570    571    572     1  0.0000000  0.6508444  3
    564    563    565    568     1  0.0000000  0.6508444  3
    564    563    570    571     1  0.0000000  0.6508444  3
    564    566    567    573     1  180.0000771  0.0000000  2
    564    566    567   1196     1  0.0000000  0.2928800  2
    564    566    567   1196     1  0.0000000  0.4184000  4
    565    563    564    566     1  0.0000000  0.6508444  3
    565    563    570    571     1  0.0000000  0.6508444  3
    565    568    569    574     1  180.0000771  0.0000000  2
    565    568    569   1222     1  0.0000000  0.2928800  2
    565    568    569   1222     1  0.0000000  0.4184000  4
    566    564    563    570     1  0.0000000  0.6508444  3
    566    567   1196   1195     1  180.0000771  6.2760000  1
    566    567   1196   1195     1  0.0000000  0.0000000  2
    567   1196   1195   1194     1  0.0000000  2.2175200  1
    567   1196   1195   1194     1  0.0000000  0.0000000  2
    567   1196   1195   1194     1  180.0000771  0.6276000  3
    567   1196   1195   1194     1  180.0000771  2.0920000  4
    568    565    563    570     1  0.0000000  0.6508444  3
    568    569   1222   1221     1  180.0000771  6.2760000  1
    568    569   1222   1221     1  0.0000000  0.0000000  2
    569   1222   1221   1220     1  0.0000000  2.2175200  1
    569   1222   1221   1220     1  0.0000000  0.0000000  2
    569   1222   1221   1220     1  180.0000771  0.6276000  3
    569   1222   1221   1220     1  180.0000771  2.0920000  4
    573    567   1196   1195     1  180.0000771  10.4600000  2
    574    569   1222   1221     1  180.0000771  10.4600000  2
    589    590    592    593     1  0.0000000  0.6508444  3
    589    591    594    595     1  0.0000000  0.6508444  3
    589    596    597    598     1  0.0000000  0.6508444  3
    590    589    591    594     1  0.0000000  0.6508444  3
    590    589    596    597     1  0.0000000  0.6508444  3
    590    592    593    599     1  180.0000771  0.0000000  2
    590    592    593   1248     1  0.0000000  0.2928800  2
    590    592    593   1248     1  0.0000000  0.4184000  4
    591    589    590    592     1  0.0000000  0.6508444  3
    591    589    596    597     1  0.0000000  0.6508444  3
    591    594    595    600     1  180.0000771  0.0000000  2
    591    594    595   1274     1  0.0000000  0.2928800  2
    591    594    595   1274     1  0.0000000  0.4184000  4
    592    590    589    596     1  0.0000000  0.6508444  3
    592    593   1248   1247     1  180.0000771  6.2760000  1
    592    593   1248   1247     1  0.0000000  0.0000000  2
    593   1248   1247   1246     1  0.0000000  2.2175200  1
    593   1248   1247   1246     1  0.0000000  0.0000000  2
    593   1248   1247   1246     1  180.0000771  0.6276000  3
    593   1248   1247   1246     1  180.0000771  2.0920000  4
    594    591    589    596     1  0.0000000  0.6508444  3
    594    595   1274   1273     1  180.0000771  6.2760000  1
    594    595   1274   1273     1  0.0000000  0.0000000  2
    595   1274   1273   1272     1  0.0000000  2.2175200  1
    595   1274   1273   1272     1  0.0000000  0.0000000  2
    595   1274   1273   1272     1  180.0000771  0.6276000  3
    595   1274   1273   1272     1  180.0000771  2.0920000  4
    599    593   1248   1247     1  180.0000771  10.4600000  2
    600    595   1274   1273     1  180.0000771  10.4600000  2
    615    616    618    619     1  0.0000000  0.6508444  3
    615    617    620    621     1  0.0000000  0.6508444  3
    615    622    623    624     1  0.0000000  0.6508444  3
    616    615    617    620     1  0.0000000  0.6508444  3
    616    615    622    623     1  0.0000000  0.6508444  3
    616    618    619    625     1  180.0000771  0.0000000  2
    616    618    619   1300     1  0.0000000  0.2928800  2
    616    618    619   1300     1  0.0000000  0.4184000  4
    617    615    616    618     1  0.0000000  0.6508444  3
    617    615    622    623     1  0.0000000  0.6508444  3
    617    620    621    626     1  180.0000771  0.0000000  2
    617    620    621   1326     1  0.0000000  0.2928800  2
    617    620    621   1326     1  0.0000000  0.4184000  4
    618    616    615    622     1  0.0000000  0.6508444  3
    618    619   1300   1299     1  180.0000771  6.2760000  1
    618    619   1300   1299     1  0.0000000  0.0000000  2
    619   1300   1299   1298     1  0.0000000  2.2175200  1
    619   1300   1299   1298     1  0.0000000  0.0000000  2
    619   1300   1299   1298     1  180.0000771  0.6276000  3
    619   1300   1299   1298     1  180.0000771  2.0920000  4
    620    617    615    622     1  0.0000000  0.6508444  3
    620    621   1326   1325     1  180.0000771  6.2760000  1
    620    621   1326   1325     1  0.0000000  0.0000000  2
    621   1326   1325   1324     1  0.0000000  2.2175200  1
    621   1326   1325   1324     1  0.0000000  0.0000000  2
    621   1326   1325   1324     1  180.0000771  0.6276000  3
    621   1326   1325   1324     1  180.0000771  2.0920000  4
    625    619   1300   1299     1  180.0000771  10.4600000  2
    626    621   1326   1325     1  180.0000771  10.4600000  2
    641    642    644    645     1  0.0000000  0.6508444  3
    641    643    646    647     1  0.0000000  0.6508444  3
    641    648    649    650     1  0.0000000  0.6508444  3
    642    641    643    646     1  0.0000000  0.6508444  3
    642    641    648    649     1  0.0000000  0.6508444  3
    642    644    645    651     1  180.0000771  0.0000000  2
    642    644    645   1352     1  0.0000000  0.2928800  2
    642    644    645   1352     1  0.0000000  0.4184000  4
    643    641    642    644     1  0.0000000  0.6508444  3
    643    641    648    649     1  0.0000000  0.6508444  3
    643    646    647    652     1  180.0000771  0.0000000  2
    643    646    647   1378     1  0.0000000  0.2928800  2
    643    646    647   1378     1  0.0000000  0.4184000  4
    644    642    641    648     1  0.0000000  0.6508444  3
    644    645   1352   1351     1  180.0000771  6.2760000  1
    644    645   1352   1351     1  0.0000000  0.0000000  2
    645   1352   1351   1350     1  0.0000000  2.2175200  1
    645   1352   1351   1350     1  0.0000000  0.0000000  2
    645   1352   1351   1350     1  180.0000771  0.6276000  3
    645   1352   1351   1350     1  180.0000771  2.0920000  4
    646    643    641    648     1  0.0000000  0.6508444  3
    646    647   1378   1377     1  180.0000771  6.2760000  1
    646    647   1378   1377     1  0.0000000  0.0000000  2
    647   1378   1377   1376     1  0.0000000  2.2175200  1
    647   1378   1377   1376     1  0.0000000  0.0000000  2
    647   1378   1377   1376     1  180.0000771  0.6276000  3
    647   1378   1377   1376     1  180.0000771  2.0920000  4
    651    645   1352   1351     1  180.0000771  10.4600000  2
    652    647   1378   1377     1  180.0000771  10.4600000  2
    667    668    670    671     1  0.0000000  0.6508444  3
    667    669    672    673     1  0.0000000  0.6508444  3
    667    674    675    676     1  0.0000000  0.6508444  3
    668    667    669    672     1  0.0000000  0.6508444  3
    668    667    674    675     1  0.0000000  0.6508444  3
    668    670    671    677     1  180.0000771  0.0000000  2
    668    670    671   1404     1  0.0000000  0.2928800  2
    668    670    671   1404     1  0.0000000  0.4184000  4
    669    667    668    670     1  0.0000000  0.6508444  3
    669    667    674    675     1  0.0000000  0.6508444  3
    669    672    673    678     1  180.0000771  0.0000000  2
    669    672    673   1430     1  0.0000000  0.2928800  2
    669    672    673   1430     1  0.0000000  0.4184000  4
    670    668    667    674     1  0.0000000  0.6508444  3
    670    671   1404   1403     1  180.0000771  6.2760000  1
    670    671   1404   1403     1  0.0000000  0.0000000  2
    671   1404   1403   1402     1  0.0000000  2.2175200  1
    671   1404   1403   1402     1  0.0000000  0.0000000  2
    671   1404   1403   1402     1  180.0000771  0.6276000  3
    671   1404   1403   1402     1  180.0000771  2.0920000  4
    672    669    667    674     1  0.0000000  0.6508444  3
    672    673   1430   1429     1  180.0000771  6.2760000  1
    672    673   1430   1429     1  0.0000000  0.0000000  2
    673   1430   1429   1428     1  0.0000000  2.2175200  1
    673   1430   1429   1428     1  0.0000000  0.0000000  2
    673   1430   1429   1428     1  180.0000771  0.6276000  3
    673   1430   1429   1428     1  180.0000771  2.0920000  4
    677    671   1404   1403     1  180.0000771  10.4600000  2
    678    673   1430   1429     1  180.0000771  10.4600000  2
    693    694    696    697     1  0.0000000  0.6508444  3
    693    695    698    699     1  0.0000000  0.6508444  3
    693    700    701    702     1  0.0000000  0.6508444  3
    694    693    695    698     1  0.0000000  0.6508444  3
    694    693    700    701     1  0.0000000  0.6508444  3
    694    696    697    703     1  180.0000771  0.0000000  2
    694    696    697   1456     1  0.0000000  0.2928800  2
    694    696    697   1456     1  0.0000000  0.4184000  4
    695    693    694    696     1  0.0000000  0.6508444  3
    695    693    700    701     1  0.0000000  0.6508444  3
    695    698    699    704     1  180.0000771  0.0000000  2
    695    698    699   1482     1  0.0000000  0.2928800  2
    695    698    699   1482     1  0.0000000  0.4184000  4
    696    694    693    700     1  0.0000000  0.6508444  3
    696    697   1456   1455     1  180.0000771  6.2760000  1
    696    697   1456   1455     1  0.0000000  0.0000000  2
    697   1456   1455   1454     1  0.0000000  2.2175200  1
    697   1456   1455   1454     1  0.0000000  0.0000000  2
    697   1456   1455   1454     1  180.0000771  0.6276000  3
    697   1456   1455   1454     1  180.0000771  2.0920000  4
    698    695    693    700     1  0.0000000  0.6508444  3
    698    699   1482   1481     1  180.0000771  6.2760000  1
    698    699   1482   1481     1  0.0000000  0.0000000  2
    699   1482   1481   1480     1  0.0000000  2.2175200  1
    699   1482   1481   1480     1  0.0000000  0.0000000  2
    699   1482   1481   1480     1  180.0000771  0.6276000  3
    699   1482   1481   1480     1  180.0000771  2.0920000  4
    703    697   1456   1455     1  180.0000771  10.4600000  2
    704    699   1482   1481     1  180.0000771  10.4600000  2
    719    720    722    723     1  0.0000000  0.6508444  3
    719    721    724    725     1  0.0000000  0.6508444  3
    719    726    727    728     1  0.0000000  0.6508444  3
    720    719    721    724     1  0.0000000  0.6508444  3
    720    719    726    727     1  0.0000000  0.6508444  3
    720    722    723    729     1  180.0000771  0.0000000  2
    720    722    723   1508     1  0.0000000  0.2928800  2
    720    722    723   1508     1  0.0000000  0.4184000  4
    721    719    720    722     1  0.0000000  0.6508444  3
    721    719    726    727     1  0.0000000  0.6508444  3
    721    724    725    730     1  180.0000771  0.0000000  2
    721    724    725   1534     1  0.0000000  0.2928800  2
    721    724    725   1534     1  0.0000000  0.4184000  4
    722    720    719    726     1  0.0000000  0.6508444  3
    722    723   1508   1507     1  180.0000771  6.2760000  1
    722    723   1508   1507     1  0.0000000  0.0000000  2
    723   1508   1507   1506     1  0.0000000  2.2175200  1
    723   1508   1507   1506     1  0.0000000  0.0000000  2
    723   1508   1507   1506     1  180.0000771  0.6276000  3
    723   1508   1507   1506     1  180.0000771  2.0920000  4
    724    721    719    726     1  0.0000000  0.6508444  3
    724    725   1534   1533     1  180.0000771  6.2760000  1
    724    725   1534   1533     1  0.0000000  0.0000000  2
    725   1534   1533   1532     1  0.0000000  2.2175200  1
    725   1534   1533   1532     1  0.0000000  0.0000000  2
    725   1534   1533   1532     1  180.0000771  0.6276000  3
    725   1534   1533   1532     1  180.0000771  2.0920000  4
    729    723   1508   1507     1  180.0000771  10.4600000  2
    730    725   1534   1533     1  180.0000771  10.4600000  2
    745    746    748    749     1  0.0000000  0.6508444  3
    745    747    750    751     1  0.0000000  0.6508444  3
    745    752    753    754     1  0.0000000  0.6508444  3
    746    745    747    750     1  0.0000000  0.6508444  3
    746    745    752    753     1  0.0000000  0.6508444  3
    746    748    749    755     1  180.0000771  0.0000000  2
    746    748    749   1560     1  0.0000000  0.2928800  2
    746    748    749   1560     1  0.0000000  0.4184000  4
    747    745    746    748     1  0.0000000  0.6508444  3
    747    745    752    753     1  0.0000000  0.6508444  3
    747    750    751    756     1  180.0000771  0.0000000  2
    747    750    751   1586     1  0.0000000  0.2928800  2
    747    750    751   1586     1  0.0000000  0.4184000  4
    748    746    745    752     1  0.0000000  0.6508444  3
    748    749   1560   1559     1  180.0000771  6.2760000  1
    748    749   1560   1559     1  0.0000000  0.0000000  2
    749   1560   1559   1558     1  0.0000000  2.2175200  1
    749   1560   1559   1558     1  0.0000000  0.0000000  2
    749   1560   1559   1558     1  180.0000771  0.6276000  3
    749   1560   1559   1558     1  180.0000771  2.0920000  4
    750    747    745    752     1  0.0000000  0.6508444  3
    750    751   1586   1585     1  180.0000771  6.2760000  1
    750    751   1586   1585     1  0.0000000  0.0000000  2
    751   1586   1585   1584     1  0.0000000  2.2175200  1
    751   1586   1585   1584     1  0.0000000  0.0000000  2
    751   1586   1585   1584     1  180.0000771  0.6276000  3
    751   1586   1585   1584     1  180.0000771  2.0920000  4
    755    749   1560   1559     1  180.0000771  10.4600000  2
    756    751   1586   1585     1  180.0000771  10.4600000  2
    771    772    774    775     1  0.0000000  0.6508444  3
    771    773    776    777     1  0.0000000  0.6508444  3
    771    778    779    780     1  0.0000000  0.6508444  3
    772    771    773    776     1  0.0000000  0.6508444  3
    772    771    778    779     1  0.0000000  0.6508444  3
    772    774    775    781     1  180.0000771  0.0000000  2
    772    774    775   1612     1  0.0000000  0.2928800  2
    772    774    775   1612     1  0.0000000  0.4184000  4
    773    771    772    774     1  0.0000000  0.6508444  3
    773    771    778    779     1  0.0000000  0.6508444  3
    773    776    777    782     1  180.0000771  0.0000000  2
    773    776    777   1638     1  0.0000000  0.2928800  2
    773    776    777   1638     1  0.0000000  0.4184000  4
    774    772    771    778     1  0.0000000  0.6508444  3
    774    775   1612   1611     1  180.0000771  6.2760000  1
    774    775   1612   1611     1  0.0000000  0.0000000  2
    775   1612   1611   1610     1  0.0000000  2.2175200  1
    775   1612   1611   1610     1  0.0000000  0.0000000  2
    775   1612   1611   1610     1  180.0000771  0.6276000  3
    775   1612   1611   1610     1  180.0000771  2.0920000  4
    776    773    771    778     1  0.0000000  0.6508444  3
    776    777   1638   1637     1  180.0000771  6.2760000  1
    776    777   1638   1637     1  0.0000000  0.0000000  2
    777   1638   1637   1636     1  0.0000000  2.2175200  1
    777   1638   1637   1636     1  0.0000000  0.0000000  2
    777   1638   1637   1636     1  180.0000771  0.6276000  3
    777   1638   1637   1636     1  180.0000771  2.0920000  4
    781    775   1612   1611     1  180.0000771  10.4600000  2
    782    777   1638   1637     1  180.0000771  10.4600000  2
    797    798    800    801     1  0.0000000  0.6508444  3
    797    799    802    803     1  0.0000000  0.6508444  3
    797    804    805    806     1  0.0000000  0.6508444  3
    798    797    799    802     1  0.0000000  0.6508444  3
    798    797    804    805     1  0.0000000  0.6508444  3
    798    800    801    807     1  180.0000771  0.0000000  2
    798    800    801   1664     1  0.0000000  0.2928800  2
    798    800    801   1664     1  0.0000000  0.4184000  4
    799    797    798    800     1  0.0000000  0.6508444  3
    799    797    804    805     1  0.0000000  0.6508444  3
    799    802    803    808     1  180.0000771  0.0000000  2
    799    802    803   1690     1  0.0000000  0.2928800  2
    799    802    803   1690     1  0.0000000  0.4184000  4
    800    798    797    804     1  0.0000000  0.6508444  3
    800    801   1664   1663     1  180.0000771  6.2760000  1
    800    801   1664   1663     1  0.0000000  0.0000000  2
    801   1664   1663   1662     1  0.0000000  2.2175200  1
    801   1664   1663   1662     1  0.0000000  0.0000000  2
    801   1664   1663   1662     1  180.0000771  0.6276000  3
    801   1664   1663   1662     1  180.0000771  2.0920000  4
    802    799    797    804     1  0.0000000  0.6508444  3
    802    803   1690   1689     1  180.0000771  6.2760000  1
    802    803   1690   1689     1  0.0000000  0.0000000  2
    803   1690   1689   1688     1  0.0000000  2.2175200  1
    803   1690   1689   1688     1  0.0000000  0.0000000  2
    803   1690   1689   1688     1  180.0000771  0.6276000  3
    803   1690   1689   1688     1  180.0000771  2.0920000  4
    807    801   1664   1663     1  180.0000771  10.4600000  2
    808    803   1690   1689     1  180.0000771  10.4600000  2
    823    824    826    827     1  0.0000000  0.6508444  3
    823    825    828    829     1  0.0000000  0.6508444  3
    823    830    831    832     1  0.0000000  0.6508444  3
    824    823    825    828     1  0.0000000  0.6508444  3
    824    823    830    831     1  0.0000000  0.6508444  3
    824    826    827    833     1  180.0000771  0.0000000  2
    824    826    827   1716     1  0.0000000  0.2928800  2
    824    826    827   1716     1  0.0000000  0.4184000  4
    825    823    824    826     1  0.0000000  0.6508444  3
    825    823    830    831     1  0.0000000  0.6508444  3
    825    828    829    834     1  180.0000771  0.0000000  2
    825    828    829   1742     1  0.0000000  0.2928800  2
    825    828    829   1742     1  0.0000000  0.4184000  4
    826    824    823    830     1  0.0000000  0.6508444  3
    826    827   1716   1715     1  180.0000771  6.2760000  1
    826    827   1716   1715     1  0.0000000  0.0000000  2
    827   1716   1715   1714     1  0.0000000  2.2175200  1
    827   1716   1715   1714     1  0.0000000  0.0000000  2
    827   1716   1715   1714     1  180.0000771  0.6276000  3
    827   1716   1715   1714     1  180.0000771  2.0920000  4
    828    825    823    830     1  0.0000000  0.6508444  3
    828    829   1742   1741     1  180.0000771  6.2760000  1
    828    829   1742   1741     1  0.0000000  0.0000000  2
    829   1742   1741   1740     1  0.0000000  2.2175200  1
    829   1742   1741   1740     1  0.0000000  0.0000000  2
    829   1742   1741   1740     1  180.0000771  0.6276000  3
    829   1742   1741   1740     1  180.0000771  2.0920000  4
    833    827   1716   1715     1  180.0000771  10.4600000  2
    834    829   1742   1741     1  180.0000771  10.4600000  2
    849    850    852    853     1  0.0000000  0.6508444  3
    849    851    854    855     1  0.0000000  0.6508444  3
    849    856    857    858     1  0.0000000  0.6508444  3
    850    849    851    854     1  0.0000000  0.6508444  3
    850    849    856    857     1  0.0000000  0.6508444  3
    850    852    853    859     1  180.0000771  0.0000000  2
    850    852    853   1768     1  0.0000000  0.2928800  2
    850    852    853   1768     1  0.0000000  0.4184000  4
    851    849    850    852     1  0.0000000  0.6508444  3
    851    849    856    857     1  0.0000000  0.6508444  3
    851    854    855    860     1  180.0000771  0.0000000  2
    851    854    855   1794     1  0.0000000  0.2928800  2
    851    854    855   1794     1  0.0000000  0.4184000  4
    852    850    849    856     1  0.0000000  0.6508444  3
    852    853   1768   1767     1  180.0000771  6.2760000  1
    852    853   1768   1767     1  0.0000000  0.0000000  2
    853   1768   1767   1766     1  0.0000000  2.2175200  1
    853   1768   1767   1766     1  0.0000000  0.0000000  2
    853   1768   1767   1766     1  180.0000771  0.6276000  3
    853   1768   1767   1766     1  180.0000771  2.0920000  4
    854    851    849    856     1  0.0000000  0.6508444  3
    854    855   1794   1793     1  180.0000771  6.2760000  1
    854    855   1794   1793     1  0.0000000  0.0000000  2
    855   1794   1793   1792     1  0.0000000  2.2175200  1
    855   1794   1793   1792     1  0.0000000  0.0000000  2
    855   1794   1793   1792     1  180.0000771  0.6276000  3
    855   1794   1793   1792     1  180.0000771  2.0920000  4
    859    853   1768   1767     1  180.0000771  10.4600000  2
    860    855   1794   1793     1  180.0000771  10.4600000  2
    875    876    878    879     1  0.0000000  0.6508444  3
    875    877    880    881     1  0.0000000  0.6508444  3
    875    882    883    884     1  0.0000000  0.6508444  3
    876    875    877    880     1  0.0000000  0.6508444  3
    876    875    882    883     1  0.0000000  0.6508444  3
    876    878    879    885     1  180.0000771  0.0000000  2
    876    878    879   1820     1  0.0000000  0.2928800  2
    876    878    879   1820     1  0.0000000  0.4184000  4
    877    875    876    878     1  0.0000000  0.6508444  3
    877    875    882    883     1  0.0000000  0.6508444  3
    877    880    881    886     1  180.0000771  0.0000000  2
    877    880    881   1846     1  0.0000000  0.2928800  2
    877    880    881   1846     1  0.0000000  0.4184000  4
    878    876    875    882     1  0.0000000  0.6508444  3
    878    879   1820   1819     1  180.0000771  6.2760000  1
    878    879   1820   1819     1  0.0000000  0.0000000  2
    879   1820   1819   1818     1  0.0000000  2.2175200  1
    879   1820   1819   1818     1  0.0000000  0.0000000  2
    879   1820   1819   1818     1  180.0000771  0.6276000  3
    879   1820   1819   1818     1  180.0000771  2.0920000  4
    880    877    875    882     1  0.0000000  0.6508444  3
    880    881   1846   1845     1  180.0000771  6.2760000  1
    880    881   1846   1845     1  0.0000000  0.0000000  2
    881   1846   1845   1844     1  0.0000000  2.2175200  1
    881   1846   1845   1844     1  0.0000000  0.0000000  2
    881   1846   1845   1844     1  180.0000771  0.6276000  3
    881   1846   1845   1844     1  180.0000771  2.0920000  4
    885    879   1820   1819     1  180.0000771  10.4600000  2
    886    881   1846   1845     1  180.0000771  10.4600000  2
    901    902    904    905     1  0.0000000  0.6508444  3
    901    903    906    907     1  0.0000000  0.6508444  3
    901    908    909    910     1  0.0000000  0.6508444  3
    902    901    903    906     1  0.0000000  0.6508444  3
    902    901    908    909     1  0.0000000  0.6508444  3
    902    904    905    911     1  180.0000771  0.0000000  2
    902    904    905   1872     1  0.0000000  0.2928800  2
    902    904    905   1872     1  0.0000000  0.4184000  4
    903    901    902    904     1  0.0000000  0.6508444  3
    903    901    908    909     1  0.0000000  0.6508444  3
    903    906    907    912     1  180.0000771  0.0000000  2
    903    906    907   1898     1  0.0000000  0.2928800  2
    903    906    907   1898     1  0.0000000  0.4184000  4
    904    902    901    908     1  0.0000000  0.6508444  3
    904    905   1872   1871     1  180.0000771  6.2760000  1
    904    905   1872   1871     1  0.0000000  0.0000000  2
    905   1872   1871   1870     1  0.0000000  2.2175200  1
    905   1872   1871   1870     1  0.0000000  0.0000000  2
    905   1872   1871   1870     1  180.0000771  0.6276000  3
    905   1872   1871   1870     1  180.0000771  2.0920000  4
    906    903    901    908     1  0.0000000  0.6508444  3
    906    907   1898   1897     1  180.0000771  6.2760000  1
    906    907   1898   1897     1  0.0000000  0.0000000  2
    907   1898   1897   1896     1  0.0000000  2.2175200  1
    907   1898   1897   1896     1  0.0000000  0.0000000  2
    907   1898   1897   1896     1  180.0000771  0.6276000  3
    907   1898   1897   1896     1  180.0000771  2.0920000  4
    911    905   1872   1871     1  180.0000771  10.4600000  2
    912    907   1898   1897     1  180.0000771  10.4600000  2
    927    928    930    931     1  0.0000000  0.6508444  3
    927    929    932    933     1  0.0000000  0.6508444  3
    927    934    935    936     1  0.0000000  0.6508444  3
    928    927    929    932     1  0.0000000  0.6508444  3
    928    927    934    935     1  0.0000000  0.6508444  3
    928    930    931    937     1  180.0000771  0.0000000  2
    928    930    931   1924     1  0.0000000  0.2928800  2
    928    930    931   1924     1  0.0000000  0.4184000  4
    929    927    928    930     1  0.0000000  0.6508444  3
    929    927    934    935     1  0.0000000  0.6508444  3
    929    932    933    938     1  180.0000771  0.0000000  2
    929    932    933   1950     1  0.0000000  0.2928800  2
    929    932    933   1950     1  0.0000000  0.4184000  4
    930    928    927    934     1  0.0000000  0.6508444  3
    930    931   1924   1923     1  180.0000771  6.2760000  1
    930    931   1924   1923     1  0.0000000  0.0000000  2
    931   1924   1923   1922     1  0.0000000  2.2175200  1
    931   1924   1923   1922     1  0.0000000  0.0000000  2
    931   1924   1923   1922     1  180.0000771  0.6276000  3
    931   1924   1923   1922     1  180.0000771  2.0920000  4
    932    929    927    934     1  0.0000000  0.6508444  3
    932    933   1950   1949     1  180.0000771  6.2760000  1
    932    933   1950   1949     1  0.0000000  0.0000000  2
    933   1950   1949   1948     1  0.0000000  2.2175200  1
    933   1950   1949   1948     1  0.0000000  0.0000000  2
    933   1950   1949   1948     1  180.0000771  0.6276000  3
    933   1950   1949   1948     1  180.0000771  2.0920000  4
    937    931   1924   1923     1  180.0000771  10.4600000  2
    938    933   1950   1949     1  180.0000771  10.4600000  2
    953    954    956    957     1  0.0000000  0.6508444  3
    953    955    958    959     1  0.0000000  0.6508444  3
    953    960    961    962     1  0.0000000  0.6508444  3
    954    953    955    958     1  0.0000000  0.6508444  3
    954    953    960    961     1  0.0000000  0.6508444  3
    954    956    957    963     1  180.0000771  0.0000000  2
    954    956    957   1976     1  0.0000000  0.2928800  2
    954    956    957   1976     1  0.0000000  0.4184000  4
    955    953    954    956     1  0.0000000  0.6508444  3
    955    953    960    961     1  0.0000000  0.6508444  3
    955    958    959    964     1  180.0000771  0.0000000  2
    955    958    959   2002     1  0.0000000  0.2928800  2
    955    958    959   2002     1  0.0000000  0.4184000  4
    956    954    953    960     1  0.0000000  0.6508444  3
    956    957   1976   1975     1  180.0000771  6.2760000  1
    956    957   1976   1975     1  0.0000000  0.0000000  2
    957   1976   1975   1974     1  0.0000000  2.2175200  1
    957   1976   1975   1974     1  0.0000000  0.0000000  2
    957   1976   1975   1974     1  180.0000771  0.6276000  3
    957   1976   1975   1974     1  180.0000771  2.0920000  4
    958    955    953    960     1  0.0000000  0.6508444  3
    958    959   2002   2001     1  180.0000771  6.2760000  1
    958    959   2002   2001     1  0.0000000  0.0000000  2
    959   2002   2001   2000     1  0.0000000  2.2175200  1
    959   2002   2001   2000     1  0.0000000  0.0000000  2
    959   2002   2001   2000     1  180.0000771  0.6276000  3
    959   2002   2001   2000     1  180.0000771  2.0920000  4
    963    957   1976   1975     1  180.0000771  10.4600000  2
    964    959   2002   2001     1  180.0000771  10.4600000  2
    979    980    982    983     1  0.0000000  0.6508444  3
    979    981    984    985     1  0.0000000  0.6508444  3
    979    986    987    988     1  0.0000000  0.6508444  3
    980    979    981    984     1  0.0000000  0.6508444  3
    980    979    986    987     1  0.0000000  0.6508444  3
    980    982    983    989     1  180.0000771  0.0000000  2
    980    982    983   2028     1  0.0000000  0.2928800  2
    980    982    983   2028     1  0.0000000  0.4184000  4
    981    979    980    982     1  0.0000000  0.6508444  3
    981    979    986    987     1  0.0000000  0.6508444  3
    981    984    985    990     1  180.0000771  0.0000000  2
    981    984    985   2054     1  0.0000000  0.2928800  2
    981    984    985   2054     1  0.0000000  0.4184000  4
    982    980    979    986     1  0.0000000  0.6508444  3
    982    983   2028   2027     1  180.0000771  6.2760000  1
    982    983   2028   2027     1  0.0000000  0.0000000  2
    983   2028   2027   2026     1  0.0000000  2.2175200  1
    983   2028   2027   2026     1  0.0000000  0.0000000  2
    983   2028   2027   2026     1  180.0000771  0.6276000  3
    983   2028   2027   2026     1  180.0000771  2.0920000  4
    984    981    979    986     1  0.0000000  0.6508444  3
    984    985   2054   2053     1  180.0000771  6.2760000  1
    984    985   2054   2053     1  0.0000000  0.0000000  2
    985   2054   2053   2052     1  0.0000000  2.2175200  1
    985   2054   2053   2052     1  0.0000000  0.0000000  2
    985   2054   2053   2052     1  180.0000771  0.6276000  3
    985   2054   2053   2052     1  180.0000771  2.0920000  4
    989    983   2028   2027     1  180.0000771  10.4600000  2
    990    985   2054   2053     1  180.0000771  10.4600000  2
   1005   1006   1008   1009     1  0.0000000  0.6508444  3
   1005   1007   1010   1011     1  0.0000000  0.6508444  3
   1005   1012   1013   1014     1  0.0000000  0.6508444  3
   1006   1005   1007   1010     1  0.0000000  0.6508444  3
   1006   1005   1012   1013     1  0.0000000  0.6508444  3
   1006   1008   1009   1015     1  180.0000771  0.0000000  2
   1006   1008   1009   2080     1  0.0000000  0.2928800  2
   1006   1008   1009   2080     1  0.0000000  0.4184000  4
   1007   1005   1006   1008     1  0.0000000  0.6508444  3
   1007   1005   1012   1013     1  0.0000000  0.6508444  3
   1007   1010   1011   1016     1  180.0000771  0.0000000  2
   1007   1010   1011   2106     1  0.0000000  0.2928800  2
   1007   1010   1011   2106     1  0.0000000  0.4184000  4
   1008   1006   1005   1012     1  0.0000000  0.6508444  3
   1008   1009   2080   2079     1  180.0000771  6.2760000  1
   1008   1009   2080   2079     1  0.0000000  0.0000000  2
   1009   2080   2079   2078     1  0.0000000  2.2175200  1
   1009   2080   2079   2078     1  0.0000000  0.0000000  2
   1009   2080   2079   2078     1  180.0000771  0.6276000  3
   1009   2080   2079   2078     1  180.0000771  2.0920000  4
   1010   1007   1005   1012     1  0.0000000  0.6508444  3
   1010   1011   2106   2105     1  180.0000771  6.2760000  1
   1010   1011   2106   2105     1  0.0000000  0.0000000  2
   1011   2106   2105   2104     1  0.0000000  2.2175200  1
   1011   2106   2105   2104     1  0.0000000  0.0000000  2
   1011   2106   2105   2104     1  180.0000771  0.6276000  3
   1011   2106   2105   2104     1  180.0000771  2.0920000  4
   1015   1009   2080   2079     1  180.0000771  10.4600000  2
   1016   1011   2106   2105     1  180.0000771  10.4600000  2
   1031   1032   1034   1035     1  0.0000000  0.6508444  3
   1031   1033   1036   1037     1  0.0000000  0.6508444  3
   1031   1038   1039   1040     1  0.0000000  0.6508444  3
   1032   1031   1033   1036     1  0.0000000  0.6508444  3
   1032   1031   1038   1039     1  0.0000000  0.6508444  3
   1032   1034   1035   1041     1  180.0000771  0.0000000  2
   1032   1034   1035   2132     1  0.0000000  0.2928800  2
   1032   1034   1035   2132     1  0.0000000  0.4184000  4
   1033   1031   1032   1034     1  0.0000000  0.6508444  3
   1033   1031   1038   1039     1  0.0000000  0.6508444  3
   1033   1036   1037   1042     1  180.0000771  0.0000000  2
   1033   1036   1037   2158     1  0.0000000  0.2928800  2
   1033   1036   1037   2158     1  0.0000000  0.4184000  4
   1034   1032   1031   1038     1  0.0000000  0.6508444  3
   1034   1035   2132   2131     1  180.0000771  6.2760000  1
   1034   1035   2132   2131     1  0.0000000  0.0000000  2
   1035   2132   2131   2130     1  0.0000000  2.2175200  1
   1035   2132   2131   2130     1  0.0000000  0.0000000  2
   1035   2132   2131   2130     1  180.0000771  0.6276000  3
   1035   2132   2131   2130     1  180.0000771  2.0920000  4
   1036   1033   1031   1038     1  0.0000000  0.6508444  3
   1036   1037   2158   2157     1  180.0000771  6.2760000  1
   1036   1037   2158   2157     1  0.0000000  0.0000000  2
   1037   2158   2157   2156     1  0.0000000  2.2175200  1
   1037   2158   2157   2156     1  0.0000000  0.0000000  2
   1037   2158   2157   2156     1  180.0000771  0.6276000  3
   1037   2158   2157   2156     1  180.0000771  2.0920000  4
   1041   1035   2132   2131     1  180.0000771  10.4600000  2
   1042   1037   2158   2157     1  180.0000771  10.4600000  2
   1057   1058   1060   1061     1  0.0000000  0.6508444  3
   1057   1059   1062   1063     1  0.0000000  0.6508444  3
   1057   1064   1065   1066     1  0.0000000  0.6508444  3
   1058   1057   1059   1062     1  0.0000000  0.6508444  3
   1058   1057   1064   1065     1  0.0000000  0.6508444  3
   1058   1060   1061   1067     1  180.0000771  0.0000000  2
   1058   1060   1061   2184     1  0.0000000  0.2928800  2
   1058   1060   1061   2184     1  0.0000000  0.4184000  4
   1059   1057   1058   1060     1  0.0000000  0.6508444  3
   1059   1057   1064   1065     1  0.0000000  0.6508444  3
   1059   1062   1063   1068     1  180.0000771  0.0000000  2
   1059   1062   1063   2210     1  0.0000000  0.2928800  2
   1059   1062   1063   2210     1  0.0000000  0.4184000  4
   1060   1058   1057   1064     1  0.0000000  0.6508444  3
   1060   1061   2184   2183     1  180.0000771  6.2760000  1
   1060   1061   2184   2183     1  0.0000000  0.0000000  2
   1061   2184   2183   2182     1  0.0000000  2.2175200  1
   1061   2184   2183   2182     1  0.0000000  0.0000000  2
   1061   2184   2183   2182     1  180.0000771  0.6276000  3
   1061   2184   2183   2182     1  180.0000771  2.0920000  4
   1062   1059   1057   1064     1  0.0000000  0.6508444  3
   1062   1063   2210   2209     1  180.0000771  6.2760000  1
   1062   1063   2210   2209     1  0.0000000  0.0000000  2
   1063   2210   2209   2208     1  0.0000000  2.2175200  1
   1063   2210   2209   2208     1  0.0000000  0.0000000  2
   1063   2210   2209   2208     1  180.0000771  0.6276000  3
   1063   2210   2209   2208     1  180.0000771  2.0920000  4
   1067   1061   2184   2183     1  180.0000771  10.4600000  2
   1068   1063   2210   2209     1  180.0000771  10.4600000  2
   1083   1084   1086   1087     1  0.0000000  0.6508444  3
   1083   1085   1088   1089     1  0.0000000  0.6508444  3
   1083   1090   1091   1092     1  0.0000000  0.6508444  3
   1084   1083   1085   1088     1  0.0000000  0.6508444  3
   1084   1083   1090   1091     1  0.0000000  0.6508444  3
   1084   1086   1087   1093     1  180.0000771  0.0000000  2
   1084   1086   1087   2236     1  0.0000000  0.2928800  2
   1084   1086   1087   2236     1  0.0000000  0.4184000  4
   1085   1083   1084   1086     1  0.0000000  0.6508444  3
   1085   1083   1090   1091     1  0.0000000  0.6508444  3
   1085   1088   1089   1094     1  180.0000771  0.0000000  2
   1085   1088   1089   2262     1  0.0000000  0.2928800  2
   1085   1088   1089   2262     1  0.0000000  0.4184000  4
   1086   1084   1083   1090     1  0.0000000  0.6508444  3
   1086   1087   2236   2235     1  180.0000771  6.2760000  1
   1086   1087   2236   2235     1  0.0000000  0.0000000  2
   1087   2236   2235   2234     1  0.0000000  2.2175200  1
   1087   2236   2235   2234     1  0.0000000  0.0000000  2
   1087   2236   2235   2234     1  180.0000771  0.6276000  3
   1087   2236   2235   2234     1  180.0000771  2.0920000  4
   1088   1085   1083   1090     1  0.0000000  0.6508444  3
   1088   1089   2262   2261     1  180.0000771  6.2760000  1
   1088   1089   2262   2261     1  0.0000000  0.0000000  2
   1089   2262   2261   2260     1  0.0000000  2.2175200  1
   1089   2262   2261   2260     1  0.0000000  0.0000000  2
   1089   2262   2261   2260     1  180.0000771  0.6276000  3
   1089   2262   2261   2260     1  180.0000771  2.0920000  4
   1093   1087   2236   2235     1  180.0000771  10.4600000  2
   1094   1089   2262   2261     1  180.0000771  10.4600000  2
   1109   1110   1112   1113     1  0.0000000  0.6508444  3
   1109   1111   1114   1115     1  0.0000000  0.6508444  3
   1109   1116   1117   1118     1  0.0000000  0.6508444  3
   1110   1109   1111   1114     1  0.0000000  0.6508444  3
   1110   1109   1116   1117     1  0.0000000  0.6508444  3
   1110   1112   1113   1119     1  180.0000771  0.0000000  2
   1110   1112   1113   2288     1  0.0000000  0.2928800  2
   1110   1112   1113   2288     1  0.0000000  0.4184000  4
   1111   1109   1110   1112     1  0.0000000  0.6508444  3
   1111   1109   1116   1117     1  0.0000000  0.6508444  3
   1111   1114   1115   1120     1  180.0000771  0.0000000  2
   1111   1114   1115   2314     1  0.0000000  0.2928800  2
   1111   1114   1115   2314     1  0.0000000  0.4184000  4
   1112   1110   1109   1116     1  0.0000000  0.6508444  3
   1112   1113   2288   2287     1  180.0000771  6.2760000  1
   1112   1113   2288   2287     1  0.0000000  0.0000000  2
   1113   2288   2287   2286     1  0.0000000  2.2175200  1
   1113   2288   2287   2286     1  0.0000000  0.0000000  2
   1113   2288   2287   2286     1  180.0000771  0.6276000  3
   1113   2288   2287   2286     1  180.0000771  2.0920000  4
   1114   1111   1109   1116     1  0.0000000  0.6508444  3
   1114   1115   2314   2313     1  180.0000771  6.2760000  1
   1114   1115   2314   2313     1  0.0000000  0.0000000  2
   1115   2314   2313   2312     1  0.0000000  2.2175200  1
   1115   2314   2313   2312     1  0.0000000  0.0000000  2
   1115   2314   2313   2312     1  180.0000771  0.6276000  3
   1115   2314   2313   2312     1  180.0000771  2.0920000  4
   1119   1113   2288   2287     1  180.0000771  10.4600000  2
   1120   1115   2314   2313     1  180.0000771  10.4600000  2
   1135   1136   1138   1139     1  0.0000000  0.6508444  3
   1135   1137   1140   1141     1  0.0000000  0.6508444  3
   1135   1142   1143   1144     1  0.0000000  0.6508444  3
   1136   1135   1137   1140     1  0.0000000  0.6508444  3
   1136   1135   1142   1143     1  0.0000000  0.6508444  3
   1136   1138   1139   1145     1  180.0000771  0.0000000  2
   1136   1138   1139   2340     1  0.0000000  0.2928800  2
   1136   1138   1139   2340     1  0.0000000  0.4184000  4
   1137   1135   1136   1138     1  0.0000000  0.6508444  3
   1137   1135   1142   1143     1  0.0000000  0.6508444  3
   1137   1140   1141   1146     1  180.0000771  0.0000000  2
   1137   1140   1141   2366     1  0.0000000  0.2928800  2
   1137   1140   1141   2366     1  0.0000000  0.4184000  4
   1138   1136   1135   1142     1  0.0000000  0.6508444  3
   1138   1139   2340   2339     1  180.0000771  6.2760000  1
   1138   1139   2340   2339     1  0.0000000  0.0000000  2
   1139   2340   2339   2338     1  0.0000000  2.2175200  1
   1139   2340   2339   2338     1  0.0000000  0.0000000  2
   1139   2340   2339   2338     1  180.0000771  0.6276000  3
   1139   2340   2339   2338     1  180.0000771  2.0920000  4
   1140   1137   1135   1142     1  0.0000000  0.6508444  3
   1140   1141   2366   2365     1  180.0000771  6.2760000  1
   1140   1141   2366   2365     1  0.0000000  0.0000000  2
   1141   2366   2365   2364     1  0.0000000  2.2175200  1
   1141   2366   2365   2364     1  0.0000000  0.0000000  2
   1141   2366   2365   2364     1  180.0000771  0.6276000  3
   1141   2366   2365   2364     1  180.0000771  2.0920000  4
   1145   1139   2340   2339     1  180.0000771  10.4600000  2
   1146   1141   2366   2365     1  180.0000771  10.4600000  2
   1161   1162   1164   1165     1  0.0000000  0.6508444  3
   1161   1163   1166   1167     1  0.0000000  0.6508444  3
   1161   1168   1169   1170     1  0.0000000  0.6508444  3
   1162   1161   1163   1166     1  0.0000000  0.6508444  3
   1162   1161   1168   1169     1  0.0000000  0.6508444  3
   1162   1164   1165   1171     1  180.0000771  0.0000000  2
   1162   1164   1165   2392     1  0.0000000  0.2928800  2
   1162   1164   1165   2392     1  0.0000000  0.4184000  4
   1163   1161   1162   1164     1  0.0000000  0.6508444  3
   1163   1161   1168   1169     1  0.0000000  0.6508444  3
   1163   1166   1167   1172     1  180.0000771  0.0000000  2
   1163   1166   1167   2418     1  0.0000000  0.2928800  2
   1163   1166   1167   2418     1  0.0000000  0.4184000  4
   1164   1162   1161   1168     1  0.0000000  0.6508444  3
   1164   1165   2392   2391     1  180.0000771  6.2760000  1
   1164   1165   2392   2391     1  0.0000000  0.0000000  2
   1165   2392   2391   2390     1  0.0000000  2.2175200  1
   1165   2392   2391   2390     1  0.0000000  0.0000000  2
   1165   2392   2391   2390     1  180.0000771  0.6276000  3
   1165   2392   2391   2390     1  180.0000771  2.0920000  4
   1166   1163   1161   1168     1  0.0000000  0.6508444  3
   1166   1167   2418   2417     1  180.0000771  6.2760000  1
   1166   1167   2418   2417     1  0.0000000  0.0000000  2
   1167   2418   2417   2416     1  0.0000000  2.2175200  1
   1167   2418   2417   2416     1  0.0000000  0.0000000  2
   1167   2418   2417   2416     1  180.0000771  0.6276000  3
   1167   2418   2417   2416     1  180.0000771  2.0920000  4
   1171   1165   2392   2391     1  180.0000771  10.4600000  2
   1172   1167   2418   2417     1  180.0000771  10.4600000  2
   1187   1188   1190   1191     1  0.0000000  0.6508444  3
   1187   1189   1192   1193     1  0.0000000  0.6508444  3
   1187   1194   1195   1196     1  0.0000000  0.6508444  3
   1188   1187   1189   1192     1  0.0000000  0.6508444  3
   1188   1187   1194   1195     1  0.0000000  0.6508444  3
   1188   1190   1191   1197     1  180.0000771  0.0000000  2
   1188   1190   1191   2444     1  0.0000000  0.2928800  2
   1188   1190   1191   2444     1  0.0000000  0.4184000  4
   1189   1187   1188   1190     1  0.0000000  0.6508444  3
   1189   1187   1194   1195     1  0.0000000  0.6508444  3
   1189   1192   1193   1198     1  180.0000771  0.0000000  2
   1189   1192   1193   2470     1  0.0000000  0.2928800  2
   1189   1192   1193   2470     1  0.0000000  0.4184000  4
   1190   1188   1187   1194     1  0.0000000  0.6508444  3
   1190   1191   2444   2443     1  180.0000771  6.2760000  1
   1190   1191   2444   2443     1  0.0000000  0.0000000  2
   1191   2444   2443   2442     1  0.0000000  2.2175200  1
   1191   2444   2443   2442     1  0.0000000  0.0000000  2
   1191   2444   2443   2442     1  180.0000771  0.6276000  3
   1191   2444   2443   2442     1  180.0000771  2.0920000  4
   1192   1189   1187   1194     1  0.0000000  0.6508444  3
   1192   1193   2470   2469     1  180.0000771  6.2760000  1
   1192   1193   2470   2469     1  0.0000000  0.0000000  2
   1193   2470   2469   2468     1  0.0000000  2.2175200  1
   1193   2470   2469   2468     1  0.0000000  0.0000000  2
   1193   2470   2469   2468     1  180.0000771  0.6276000  3
   1193   2470   2469   2468     1  180.0000771  2.0920000  4
   1197   1191   2444   2443     1  180.0000771  10.4600000  2
   1198   1193   2470   2469     1  180.0000771  10.4600000  2
   1213   1214   1216   1217     1  0.0000000  0.6508444  3
   1213   1215   1218   1219     1  0.0000000  0.6508444  3
   1213   1220   1221   1222     1  0.0000000  0.6508444  3
   1214   1213   1215   1218     1  0.0000000  0.6508444  3
   1214   1213   1220   1221     1  0.0000000  0.6508444  3
   1214   1216   1217   1223     1  180.0000771  0.0000000  2
   1214   1216   1217   2496     1  0.0000000  0.2928800  2
   1214   1216   1217   2496     1  0.0000000  0.4184000  4
   1215   1213   1214   1216     1  0.0000000  0.6508444  3
   1215   1213   1220   1221     1  0.0000000  0.6508444  3
   1215   1218   1219   1224     1  180.0000771  0.0000000  2
   1215   1218   1219   2522     1  0.0000000  0.2928800  2
   1215   1218   1219   2522     1  0.0000000  0.4184000  4
   1216   1214   1213   1220     1  0.0000000  0.6508444  3
   1216   1217   2496   2495     1  180.0000771  6.2760000  1
   1216   1217   2496   2495     1  0.0000000  0.0000000  2
   1217   2496   2495   2494     1  0.0000000  2.2175200  1
   1217   2496   2495   2494     1  0.0000000  0.0000000  2
   1217   2496   2495   2494     1  180.0000771  0.6276000  3
   1217   2496   2495   2494     1  180.0000771  2.0920000  4
   1218   1215   1213   1220     1  0.0000000  0.6508444  3
   1218   1219   2522   2521     1  180.0000771  6.2760000  1
   1218   1219   2522   2521     1  0.0000000  0.0000000  2
   1219   2522   2521   2520     1  0.0000000  2.2175200  1
   1219   2522   2521   2520     1  0.0000000  0.0000000  2
   1219   2522   2521   2520     1  180.0000771  0.6276000  3
   1219   2522   2521   2520     1  180.0000771  2.0920000  4
   1223   1217   2496   2495     1  180.0000771  10.4600000  2
   1224   1219   2522   2521     1  180.0000771  10.4600000  2
   1239   1240   1242   1243     1  0.0000000  0.6508444  3
   1239   1241   1244   1245     1  0.0000000  0.6508444  3
   1239   1246   1247   1248     1  0.0000000  0.6508444  3
   1240   1239   1241   1244     1  0.0000000  0.6508444  3
   1240   1239   1246   1247     1  0.0000000  0.6508444  3
   1240   1242   1243   1249     1  180.0000771  0.0000000  2
   1240   1242   1243   2548     1  0.0000000  0.2928800  2
   1240   1242   1243   2548     1  0.0000000  0.4184000  4
   1241   1239   1240   1242     1  0.0000000  0.6508444  3
   1241   1239   1246   1247     1  0.0000000  0.6508444  3
   1241   1244   1245   1250     1  180.0000771  0.0000000  2
   1241   1244   1245   2574     1  0.0000000  0.2928800  2
   1241   1244   1245   2574     1  0.0000000  0.4184000  4
   1242   1240   1239   1246     1  0.0000000  0.6508444  3
   1242   1243   2548   2547     1  180.0000771  6.2760000  1
   1242   1243   2548   2547     1  0.0000000  0.0000000  2
   1243   2548   2547   2546     1  0.0000000  2.2175200  1
   1243   2548   2547   2546     1  0.0000000  0.0000000  2
   1243   2548   2547   2546     1  180.0000771  0.6276000  3
   1243   2548   2547   2546     1  180.0000771  2.0920000  4
   1244   1241   1239   1246     1  0.0000000  0.6508444  3
   1244   1245   2574   2573     1  180.0000771  6.2760000  1
   1244   1245   2574   2573     1  0.0000000  0.0000000  2
   1245   2574   2573   2572     1  0.0000000  2.2175200  1
   1245   2574   2573   2572     1  0.0000000  0.0000000  2
   1245   2574   2573   2572     1  180.0000771  0.6276000  3
   1245   2574   2573   2572     1  180.0000771  2.0920000  4
   1249   1243   2548   2547     1  180.0000771  10.4600000  2
   1250   1245   2574   2573     1  180.0000771  10.4600000  2
   1265   1266   1268   1269     1  0.0000000  0.6508444  3
   1265   1267   1270   1271     1  0.0000000  0.6508444  3
   1265   1272   1273   1274     1  0.0000000  0.6508444  3
   1266   1265   1267   1270     1  0.0000000  0.6508444  3
   1266   1265   1272   1273     1  0.0000000  0.6508444  3
   1266   1268   1269   1275     1  180.0000771  0.0000000  2
   1266   1268   1269   2600     1  0.0000000  0.2928800  2
   1266   1268   1269   2600     1  0.0000000  0.4184000  4
   1267   1265   1266   1268     1  0.0000000  0.6508444  3
   1267   1265   1272   1273     1  0.0000000  0.6508444  3
   1267   1270   1271   1276     1  180.0000771  0.0000000  2
   1267   1270   1271   2626     1  0.0000000  0.2928800  2
   1267   1270   1271   2626     1  0.0000000  0.4184000  4
   1268   1266   1265   1272     1  0.0000000  0.6508444  3
   1268   1269   2600   2599     1  180.0000771  6.2760000  1
   1268   1269   2600   2599     1  0.0000000  0.0000000  2
   1269   2600   2599   2598     1  0.0000000  2.2175200  1
   1269   2600   2599   2598     1  0.0000000  0.0000000  2
   1269   2600   2599   2598     1  180.0000771  0.6276000  3
   1269   2600   2599   2598     1  180.0000771  2.0920000  4
   1270   1267   1265   1272     1  0.0000000  0.6508444  3
   1270   1271   2626   2625     1  180.0000771  6.2760000  1
   1270   1271   2626   2625     1  0.0000000  0.0000000  2
   1271   2626   2625   2624     1  0.0000000  2.2175200  1
   1271   2626   2625   2624     1  0.0000000  0.0000000  2
   1271   2626   2625   2624     1  180.0000771  0.6276000  3
   1271   2626   2625   2624     1  180.0000771  2.0920000  4
   1275   1269   2600   2599     1  180.0000771  10.4600000  2
   1276   1271   2626   2625     1  180.0000771  10.4600000  2
   1291   1292   1294   1295     1  0.0000000  0.6508444  3
   1291   1293   1296   1297     1  0.0000000  0.6508444  3
   1291   1298   1299   1300     1  0.0000000  0.6508444  3
   1292   1291   1293   1296     1  0.0000000  0.6508444  3
   1292   1291   1298   1299     1  0.0000000  0.6508444  3
   1292   1294   1295   1301     1  180.0000771  0.0000000  2
   1292   1294   1295   2652     1  0.0000000  0.2928800  2
   1292   1294   1295   2652     1  0.0000000  0.4184000  4
   1293   1291   1292   1294     1  0.0000000  0.6508444  3
   1293   1291   1298   1299     1  0.0000000  0.6508444  3
   1293   1296   1297   1302     1  180.0000771  0.0000000  2
   1293   1296   1297   2678     1  0.0000000  0.2928800  2
   1293   1296   1297   2678     1  0.0000000  0.4184000  4
   1294   1292   1291   1298     1  0.0000000  0.6508444  3
   1294   1295   2652   2651     1  180.0000771  6.2760000  1
   1294   1295   2652   2651     1  0.0000000  0.0000000  2
   1295   2652   2651   2650     1  0.0000000  2.2175200  1
   1295   2652   2651   2650     1  0.0000000  0.0000000  2
   1295   2652   2651   2650     1  180.0000771  0.6276000  3
   1295   2652   2651   2650     1  180.0000771  2.0920000  4
   1296   1293   1291   1298     1  0.0000000  0.6508444  3
   1296   1297   2678   2677     1  180.0000771  6.2760000  1
   1296   1297   2678   2677     1  0.0000000  0.0000000  2
   1297   2678   2677   2676     1  0.0000000  2.2175200  1
   1297   2678   2677   2676     1  0.0000000  0.0000000  2
   1297   2678   2677   2676     1  180.0000771  0.6276000  3
   1297   2678   2677   2676     1  180.0000771  2.0920000  4
   1301   1295   2652   2651     1  180.0000771  10.4600000  2
   1302   1297   2678   2677     1  180.0000771  10.4600000  2
   1317   1318   1320   1321     1  0.0000000  0.6508444  3
   1317   1319   1322   1323     1  0.0000000  0.6508444  3
   1317   1324   1325   1326     1  0.0000000  0.6508444  3
   1318   1317   1319   1322     1  0.0000000  0.6508444  3
   1318   1317   1324   1325     1  0.0000000  0.6508444  3
   1318   1320   1321   1327     1  180.0000771  0.0000000  2
   1318   1320   1321   2704     1  0.0000000  0.2928800  2
   1318   1320   1321   2704     1  0.0000000  0.4184000  4
   1319   1317   1318   1320     1  0.0000000  0.6508444  3
   1319   1317   1324   1325     1  0.0000000  0.6508444  3
   1319   1322   1323   1328     1  180.0000771  0.0000000  2
   1319   1322   1323   2730     1  0.0000000  0.2928800  2
   1319   1322   1323   2730     1  0.0000000  0.4184000  4
   1320   1318   1317   1324     1  0.0000000  0.6508444  3
   1320   1321   2704   2703     1  180.0000771  6.2760000  1
   1320   1321   2704   2703     1  0.0000000  0.0000000  2
   1321   2704   2703   2702     1  0.0000000  2.2175200  1
   1321   2704   2703   2702     1  0.0000000  0.0000000  2
   1321   2704   2703   2702     1  180.0000771  0.6276000  3
   1321   2704   2703   2702     1  180.0000771  2.0920000  4
   1322   1319   1317   1324     1  0.0000000  0.6508444  3
   1322   1323   2730   2729     1  180.0000771  6.2760000  1
   1322   1323   2730   2729     1  0.0000000  0.0000000  2
   1323   2730   2729   2728     1  0.0000000  2.2175200  1
   1323   2730   2729   2728     1  0.0000000  0.0000000  2
   1323   2730   2729   2728     1  180.0000771  0.6276000  3
   1323   2730   2729   2728     1  180.0000771  2.0920000  4
   1327   1321   2704   2703     1  180.0000771  10.4600000  2
   1328   1323   2730   2729     1  180.0000771  10.4600000  2
   1343   1344   1346   1347     1  0.0000000  0.6508444  3
   1343   1345   1348   1349     1  0.0000000  0.6508444  3
   1343   1350   1351   1352     1  0.0000000  0.6508444  3
   1344   1343   1345   1348     1  0.0000000  0.6508444  3
   1344   1343   1350   1351     1  0.0000000  0.6508444  3
   1344   1346   1347   1353     1  180.0000771  0.0000000  2
   1344   1346   1347   2756     1  0.0000000  0.2928800  2
   1344   1346   1347   2756     1  0.0000000  0.4184000  4
   1345   1343   1344   1346     1  0.0000000  0.6508444  3
   1345   1343   1350   1351     1  0.0000000  0.6508444  3
   1345   1348   1349   1354     1  180.0000771  0.0000000  2
   1345   1348   1349   2782     1  0.0000000  0.2928800  2
   1345   1348   1349   2782     1  0.0000000  0.4184000  4
   1346   1344   1343   1350     1  0.0000000  0.6508444  3
   1346   1347   2756   2755     1  180.0000771  6.2760000  1
   1346   1347   2756   2755     1  0.0000000  0.0000000  2
   1347   2756   2755   2754     1  0.0000000  2.2175200  1
   1347   2756   2755   2754     1  0.0000000  0.0000000  2
   1347   2756   2755   2754     1  180.0000771  0.6276000  3
   1347   2756   2755   2754     1  180.0000771  2.0920000  4
   1348   1345   1343   1350     1  0.0000000  0.6508444  3
   1348   1349   2782   2781     1  180.0000771  6.2760000  1
   1348   1349   2782   2781     1  0.0000000  0.0000000  2
   1349   2782   2781   2780     1  0.0000000  2.2175200  1
   1349   2782   2781   2780     1  0.0000000  0.0000000  2
   1349   2782   2781   2780     1  180.0000771  0.6276000  3
   1349   2782   2781   2780     1  180.0000771  2.0920000  4
   1353   1347   2756   2755     1  180.0000771  10.4600000  2
   1354   1349   2782   2781     1  180.0000771  10.4600000  2
   1369   1370   1372   1373     1  0.0000000  0.6508444  3
   1369   1371   1374   1375     1  0.0000000  0.6508444  3
   1369   1376   1377   1378     1  0.0000000  0.6508444  3
   1370   1369   1371   1374     1  0.0000000  0.6508444  3
   1370   1369   1376   1377     1  0.0000000  0.6508444  3
   1370   1372   1373   1379     1  180.0000771  0.0000000  2
   1370   1372   1373   2808     1  0.0000000  0.2928800  2
   1370   1372   1373   2808     1  0.0000000  0.4184000  4
   1371   1369   1370   1372     1  0.0000000  0.6508444  3
   1371   1369   1376   1377     1  0.0000000  0.6508444  3
   1371   1374   1375   1380     1  180.0000771  0.0000000  2
   1371   1374   1375   2834     1  0.0000000  0.2928800  2
   1371   1374   1375   2834     1  0.0000000  0.4184000  4
   1372   1370   1369   1376     1  0.0000000  0.6508444  3
   1372   1373   2808   2807     1  180.0000771  6.2760000  1
   1372   1373   2808   2807     1  0.0000000  0.0000000  2
   1373   2808   2807   2806     1  0.0000000  2.2175200  1
   1373   2808   2807   2806     1  0.0000000  0.0000000  2
   1373   2808   2807   2806     1  180.0000771  0.6276000  3
   1373   2808   2807   2806     1  180.0000771  2.0920000  4
   1374   1371   1369   1376     1  0.0000000  0.6508444  3
   1374   1375   2834   2833     1  180.0000771  6.2760000  1
   1374   1375   2834   2833     1  0.0000000  0.0000000  2
   1375   2834   2833   2832     1  0.0000000  2.2175200  1
   1375   2834   2833   2832     1  0.0000000  0.0000000  2
   1375   2834   2833   2832     1  180.0000771  0.6276000  3
   1375   2834   2833   2832     1  180.0000771  2.0920000  4
   1379   1373   2808   2807     1  180.0000771  10.4600000  2
   1380   1375   2834   2833     1  180.0000771  10.4600000  2
   1395   1396   1398   1399     1  0.0000000  0.6508444  3
   1395   1397   1400   1401     1  0.0000000  0.6508444  3
   1395   1402   1403   1404     1  0.0000000  0.6508444  3
   1396   1395   1397   1400     1  0.0000000  0.6508444  3
   1396   1395   1402   1403     1  0.0000000  0.6508444  3
   1396   1398   1399   1405     1  180.0000771  0.0000000  2
   1396   1398   1399   2860     1  0.0000000  0.2928800  2
   1396   1398   1399   2860     1  0.0000000  0.4184000  4
   1397   1395   1396   1398     1  0.0000000  0.6508444  3
   1397   1395   1402   1403     1  0.0000000  0.6508444  3
   1397   1400   1401   1406     1  180.0000771  0.0000000  2
   1397   1400   1401   2886     1  0.0000000  0.2928800  2
   1397   1400   1401   2886     1  0.0000000  0.4184000  4
   1398   1396   1395   1402     1  0.0000000  0.6508444  3
   1398   1399   2860   2859     1  180.0000771  6.2760000  1
   1398   1399   2860   2859     1  0.0000000  0.0000000  2
   1399   2860   2859   2858     1  0.0000000  2.2175200  1
   1399   2860   2859   2858     1  0.0000000  0.0000000  2
   1399   2860   2859   2858     1  180.0000771  0.6276000  3
   1399   2860   2859   2858     1  180.0000771  2.0920000  4
   1400   1397   1395   1402     1  0.0000000  0.6508444  3
   1400   1401   2886   2885     1  180.0000771  6.2760000  1
   1400   1401   2886   2885     1  0.0000000  0.0000000  2
   1401   2886   2885   2884     1  0.0000000  2.2175200  1
   1401   2886   2885   2884     1  0.0000000  0.0000000  2
   1401   2886   2885   2884     1  180.0000771  0.6276000  3
   1401   2886   2885   2884     1  180.0000771  2.0920000  4
   1405   1399   2860   2859     1  180.0000771  10.4600000  2
   1406   1401   2886   2885     1  180.0000771  10.4600000  2
   1421   1422   1424   1425     1  0.0000000  0.6508444  3
   1421   1423   1426   1427     1  0.0000000  0.6508444  3
   1421   1428   1429   1430     1  0.0000000  0.6508444  3
   1422   1421   1423   1426     1  0.0000000  0.6508444  3
   1422   1421   1428   1429     1  0.0000000  0.6508444  3
   1422   1424   1425   1431     1  180.0000771  0.0000000  2
   1422   1424   1425   2912     1  0.0000000  0.2928800  2
   1422   1424   1425   2912     1  0.0000000  0.4184000  4
   1423   1421   1422   1424     1  0.0000000  0.6508444  3
   1423   1421   1428   1429     1  0.0000000  0.6508444  3
   1423   1426   1427   1432     1  180.0000771  0.0000000  2
   1423   1426   1427   2938     1  0.0000000  0.2928800  2
   1423   1426   1427   2938     1  0.0000000  0.4184000  4
   1424   1422   1421   1428     1  0.0000000  0.6508444  3
   1424   1425   2912   2911     1  180.0000771  6.2760000  1
   1424   1425   2912   2911     1  0.0000000  0.0000000  2
   1425   2912   2911   2910     1  0.0000000  2.2175200  1
   1425   2912   2911   2910     1  0.0000000  0.0000000  2
   1425   2912   2911   2910     1  180.0000771  0.6276000  3
   1425   2912   2911   2910     1  180.0000771  2.0920000  4
   1426   1423   1421   1428     1  0.0000000  0.6508444  3
   1426   1427   2938   2937     1  180.0000771  6.2760000  1
   1426   1427   2938   2937     1  0.0000000  0.0000000  2
   1427   2938   2937   2936     1  0.0000000  2.2175200  1
   1427   2938   2937   2936     1  0.0000000  0.0000000  2
   1427   2938   2937   2936     1  180.0000771  0.6276000  3
   1427   2938   2937   2936     1  180.0000771  2.0920000  4
   1431   1425   2912   2911     1  180.0000771  10.4600000  2
   1432   1427   2938   2937     1  180.0000771  10.4600000  2
   1447   1448   1450   1451     1  0.0000000  0.6508444  3
   1447   1449   1452   1453     1  0.0000000  0.6508444  3
   1447   1454   1455   1456     1  0.0000000  0.6508444  3
   1448   1447   1449   1452     1  0.0000000  0.6508444  3
   1448   1447   1454   1455     1  0.0000000  0.6508444  3
   1448   1450   1451   1457     1  180.0000771  0.0000000  2
   1448   1450   1451   2964     1  0.0000000  0.2928800  2
   1448   1450   1451   2964     1  0.0000000  0.4184000  4
   1449   1447   1448   1450     1  0.0000000  0.6508444  3
   1449   1447   1454   1455     1  0.0000000  0.6508444  3
   1449   1452   1453   1458     1  180.0000771  0.0000000  2
   1449   1452   1453   2990     1  0.0000000  0.2928800  2
   1449   1452   1453   2990     1  0.0000000  0.4184000  4
   1450   1448   1447   1454     1  0.0000000  0.6508444  3
   1450   1451   2964   2963     1  180.0000771  6.2760000  1
   1450   1451   2964   2963     1  0.0000000  0.0000000  2
   1451   2964   2963   2962     1  0.0000000  2.2175200  1
   1451   2964   2963   2962     1  0.0000000  0.0000000  2
   1451   2964   2963   2962     1  180.0000771  0.6276000  3
   1451   2964   2963   2962     1  180.0000771  2.0920000  4
   1452   1449   1447   1454     1  0.0000000  0.6508444  3
   1452   1453   2990   2989     1  180.0000771  6.2760000  1
   1452   1453   2990   2989     1  0.0000000  0.0000000  2
   1453   2990   2989   2988     1  0.0000000  2.2175200  1
   1453   2990   2989   2988     1  0.0000000  0.0000000  2
   1453   2990   2989   2988     1  180.0000771  0.6276000  3
   1453   2990   2989   2988     1  180.0000771  2.0920000  4
   1457   1451   2964   2963     1  180.0000771  10.4600000  2
   1458   1453   2990   2989     1  180.0000771  10.4600000  2
   1473   1474   1476   1477     1  0.0000000  0.6508444  3
   1473   1475   1478   1479     1  0.0000000  0.6508444  3
   1473   1480   1481   1482     1  0.0000000  0.6508444  3
   1474   1473   1475   1478     1  0.0000000  0.6508444  3
   1474   1473   1480   1481     1  0.0000000  0.6508444  3
   1474   1476   1477   1483     1  180.0000771  0.0000000  2
   1474   1476   1477   3016     1  0.0000000  0.2928800  2
   1474   1476   1477   3016     1  0.0000000  0.4184000  4
   1475   1473   1474   1476     1  0.0000000  0.6508444  3
   1475   1473   1480   1481     1  0.0000000  0.6508444  3
   1475   1478   1479   1484     1  180.0000771  0.0000000  2
   1475   1478   1479   3042     1  0.0000000  0.2928800  2
   1475   1478   1479   3042     1  0.0000000  0.4184000  4
   1476   1474   1473   1480     1  0.0000000  0.6508444  3
   1476   1477   3016   3015     1  180.0000771  6.2760000  1
   1476   1477   3016   3015     1  0.0000000  0.0000000  2
   1477   3016   3015   3014     1  0.0000000  2.2175200  1
   1477   3016   3015   3014     1  0.0000000  0.0000000  2
   1477   3016   3015   3014     1  180.0000771  0.6276000  3
   1477   3016   3015   3014     1  180.0000771  2.0920000  4
   1478   1475   1473   1480     1  0.0000000  0.6508444  3
   1478   1479   3042   3041     1  180.0000771  6.2760000  1
   1478   1479   3042   3041     1  0.0000000  0.0000000  2
   1479   3042   3041   3040     1  0.0000000  2.2175200  1
   1479   3042   3041   3040     1  0.0000000  0.0000000  2
   1479   3042   3041   3040     1  180.0000771  0.6276000  3
   1479   3042   3041   3040     1  180.0000771  2.0920000  4
   1483   1477   3016   3015     1  180.0000771  10.4600000  2
   1484   1479   3042   3041     1  180.0000771  10.4600000  2
   1499   1500   1502   1503     1  0.0000000  0.6508444  3
   1499   1501   1504   1505     1  0.0000000  0.6508444  3
   1499   1506   1507   1508     1  0.0000000  0.6508444  3
   1500   1499   1501   1504     1  0.0000000  0.6508444  3
   1500   1499   1506   1507     1  0.0000000  0.6508444  3
   1500   1502   1503   1509     1  180.0000771  0.0000000  2
   1500   1502   1503   3068     1  0.0000000  0.2928800  2
   1500   1502   1503   3068     1  0.0000000  0.4184000  4
   1501   1499   1500   1502     1  0.0000000  0.6508444  3
   1501   1499   1506   1507     1  0.0000000  0.6508444  3
   1501   1504   1505   1510     1  180.0000771  0.0000000  2
   1501   1504   1505   3094     1  0.0000000  0.2928800  2
   1501   1504   1505   3094     1  0.0000000  0.4184000  4
   1502   1500   1499   1506     1  0.0000000  0.6508444  3
   1502   1503   3068   3067     1  180.0000771  6.2760000  1
   1502   1503   3068   3067     1  0.0000000  0.0000000  2
   1503   3068   3067   3066     1  0.0000000  2.2175200  1
   1503   3068   3067   3066     1  0.0000000  0.0000000  2
   1503   3068   3067   3066     1  180.0000771  0.6276000  3
   1503   3068   3067   3066     1  180.0000771  2.0920000  4
   1504   1501   1499   1506     1  0.0000000  0.6508444  3
   1504   1505   3094   3093     1  180.0000771  6.2760000  1
   1504   1505   3094   3093     1  0.0000000  0.0000000  2
   1505   3094   3093   3092     1  0.0000000  2.2175200  1
   1505   3094   3093   3092     1  0.0000000  0.0000000  2
   1505   3094   3093   3092     1  180.0000771  0.6276000  3
   1505   3094   3093   3092     1  180.0000771  2.0920000  4
   1509   1503   3068   3067     1  180.0000771  10.4600000  2
   1510   1505   3094   3093     1  180.0000771  10.4600000  2
   1525   1526   1528   1529     1  0.0000000  0.6508444  3
   1525   1527   1530   1531     1  0.0000000  0.6508444  3
   1525   1532   1533   1534     1  0.0000000  0.6508444  3
   1526   1525   1527   1530     1  0.0000000  0.6508444  3
   1526   1525   1532   1533     1  0.0000000  0.6508444  3
   1526   1528   1529   1535     1  180.0000771  0.0000000  2
   1526   1528   1529   3120     1  0.0000000  0.2928800  2
   1526   1528   1529   3120     1  0.0000000  0.4184000  4
   1527   1525   1526   1528     1  0.0000000  0.6508444  3
   1527   1525   1532   1533     1  0.0000000  0.6508444  3
   1527   1530   1531   1536     1  180.0000771  0.0000000  2
   1527   1530   1531   3146     1  0.0000000  0.2928800  2
   1527   1530   1531   3146     1  0.0000000  0.4184000  4
   1528   1526   1525   1532     1  0.0000000  0.6508444  3
   1528   1529   3120   3119     1  180.0000771  6.2760000  1
   1528   1529   3120   3119     1  0.0000000  0.0000000  2
   1529   3120   3119   3118     1  0.0000000  2.2175200  1
   1529   3120   3119   3118     1  0.0000000  0.0000000  2
   1529   3120   3119   3118     1  180.0000771  0.6276000  3
   1529   3120   3119   3118     1  180.0000771  2.0920000  4
   1530   1527   1525   1532     1  0.0000000  0.6508444  3
   1530   1531   3146   3145     1  180.0000771  6.2760000  1
   1530   1531   3146   3145     1  0.0000000  0.0000000  2
   1531   3146   3145   3144     1  0.0000000  2.2175200  1
   1531   3146   3145   3144     1  0.0000000  0.0000000  2
   1531   3146   3145   3144     1  180.0000771  0.6276000  3
   1531   3146   3145   3144     1  180.0000771  2.0920000  4
   1535   1529   3120   3119     1  180.0000771  10.4600000  2
   1536   1531   3146   3145     1  180.0000771  10.4600000  2
   1551   1552   1554   1555     1  0.0000000  0.6508444  3
   1551   1553   1556   1557     1  0.0000000  0.6508444  3
   1551   1558   1559   1560     1  0.0000000  0.6508444  3
   1552   1551   1553   1556     1  0.0000000  0.6508444  3
   1552   1551   1558   1559     1  0.0000000  0.6508444  3
   1552   1554   1555   1561     1  180.0000771  0.0000000  2
   1552   1554   1555   3172     1  0.0000000  0.2928800  2
   1552   1554   1555   3172     1  0.0000000  0.4184000  4
   1553   1551   1552   1554     1  0.0000000  0.6508444  3
   1553   1551   1558   1559     1  0.0000000  0.6508444  3
   1553   1556   1557   1562     1  180.0000771  0.0000000  2
   1553   1556   1557   3198     1  0.0000000  0.2928800  2
   1553   1556   1557   3198     1  0.0000000  0.4184000  4
   1554   1552   1551   1558     1  0.0000000  0.6508444  3
   1554   1555   3172   3171     1  180.0000771  6.2760000  1
   1554   1555   3172   3171     1  0.0000000  0.0000000  2
   1555   3172   3171   3170     1  0.0000000  2.2175200  1
   1555   3172   3171   3170     1  0.0000000  0.0000000  2
   1555   3172   3171   3170     1  180.0000771  0.6276000  3
   1555   3172   3171   3170     1  180.0000771  2.0920000  4
   1556   1553   1551   1558     1  0.0000000  0.6508444  3
   1556   1557   3198   3197     1  180.0000771  6.2760000  1
   1556   1557   3198   3197     1  0.0000000  0.0000000  2
   1557   3198   3197   3196     1  0.0000000  2.2175200  1
   1557   3198   3197   3196     1  0.0000000  0.0000000  2
   1557   3198   3197   3196     1  180.0000771  0.6276000  3
   1557   3198   3197   3196     1  180.0000771  2.0920000  4
   1561   1555   3172   3171     1  180.0000771  10.4600000  2
   1562   1557   3198   3197     1  180.0000771  10.4600000  2
   1577   1578   1580   1581     1  0.0000000  0.6508444  3
   1577   1579   1582   1583     1  0.0000000  0.6508444  3
   1577   1584   1585   1586     1  0.0000000  0.6508444  3
   1578   1577   1579   1582     1  0.0000000  0.6508444  3
   1578   1577   1584   1585     1  0.0000000  0.6508444  3
   1578   1580   1581   1587     1  180.0000771  0.0000000  2
   1578   1580   1581   3224     1  0.0000000  0.2928800  2
   1578   1580   1581   3224     1  0.0000000  0.4184000  4
   1579   1577   1578   1580     1  0.0000000  0.6508444  3
   1579   1577   1584   1585     1  0.0000000  0.6508444  3
   1579   1582   1583   1588     1  180.0000771  0.0000000  2
   1579   1582   1583   3250     1  0.0000000  0.2928800  2
   1579   1582   1583   3250     1  0.0000000  0.4184000  4
   1580   1578   1577   1584     1  0.0000000  0.6508444  3
   1580   1581   3224   3223     1  180.0000771  6.2760000  1
   1580   1581   3224   3223     1  0.0000000  0.0000000  2
   1581   3224   3223   3222     1  0.0000000  2.2175200  1
   1581   3224   3223   3222     1  0.0000000  0.0000000  2
   1581   3224   3223   3222     1  180.0000771  0.6276000  3
   1581   3224   3223   3222     1  180.0000771  2.0920000  4
   1582   1579   1577   1584     1  0.0000000  0.6508444  3
   1582   1583   3250   3249     1  180.0000771  6.2760000  1
   1582   1583   3250   3249     1  0.0000000  0.0000000  2
   1583   3250   3249   3248     1  0.0000000  2.2175200  1
   1583   3250   3249   3248     1  0.0000000  0.0000000  2
   1583   3250   3249   3248     1  180.0000771  0.6276000  3
   1583   3250   3249   3248     1  180.0000771  2.0920000  4
   1587   1581   3224   3223     1  180.0000771  10.4600000  2
   1588   1583   3250   3249     1  180.0000771  10.4600000  2
   1603   1604   1606   1607     1  0.0000000  0.6508444  3
   1603   1605   1608   1609     1  0.0000000  0.6508444  3
   1603   1610   1611   1612     1  0.0000000  0.6508444  3
   1604   1603   1605   1608     1  0.0000000  0.6508444  3
   1604   1603   1610   1611     1  0.0000000  0.6508444  3
   1604   1606   1607   3267     1  0.0000000  0.2928800  2
   1604   1606   1607   3267     1  0.0000000  0.4184000  4
   1604   1606   1607   1613     1  180.0000771  0.0000000  2
   1605   1603   1604   1606     1  0.0000000  0.6508444  3
   1605   1603   1610   1611     1  0.0000000  0.6508444  3
   1605   1608   1609   1614     1  180.0000771  0.0000000  2
   1605   1608   1609   3297     1  0.0000000  0.2928800  2
   1605   1608   1609   3297     1  0.0000000  0.4184000  4
   1606   1604   1603   1610     1  0.0000000  0.6508444  3
   1606   1607   3267   3269     1  180.0000771  6.2760000  1
   1606   1607   3267   3269     1  0.0000000  0.0000000  2
   1607   3267   3269   3271     1  0.0000000  2.2175200  1
   1607   3267   3269   3271     1  0.0000000  0.0000000  2
   1607   3267   3269   3271     1  180.0000771  0.6276000  3
   1607   3267   3269   3271     1  180.0000771  2.0920000  4
   1608   1605   1603   1610     1  0.0000000  0.6508444  3
   1608   1609   3297   3299     1  180.0000771  6.2760000  1
   1608   1609   3297   3299     1  0.0000000  0.0000000  2
   1609   3297   3299   3301     1  0.0000000  2.2175200  1
   1609   3297   3299   3301     1  0.0000000  0.0000000  2
   1609   3297   3299   3301     1  180.0000771  0.6276000  3
   1609   3297   3299   3301     1  180.0000771  2.0920000  4
   1613   1607   3267   3269     1  180.0000771  10.4600000  2
   1614   1609   3297   3299     1  180.0000771  10.4600000  2
   1629   1630   1632   1633     1  0.0000000  0.6508444  3
   1629   1631   1634   1635     1  0.0000000  0.6508444  3
   1629   1636   1637   1638     1  0.0000000  0.6508444  3
   1630   1629   1631   1634     1  0.0000000  0.6508444  3
   1630   1629   1636   1637     1  0.0000000  0.6508444  3
   1630   1632   1633   3327     1  0.0000000  0.2928800  2
   1630   1632   1633   3327     1  0.0000000  0.4184000  4
   1630   1632   1633   1639     1  180.0000771  0.0000000  2
   1631   1629   1630   1632     1  0.0000000  0.6508444  3
   1631   1629   1636   1637     1  0.0000000  0.6508444  3
   1631   1634   1635   1640     1  180.0000771  0.0000000  2
   1631   1634   1635   3357     1  0.0000000  0.2928800  2
   1631   1634   1635   3357     1  0.0000000  0.4184000  4
   1632   1630   1629   1636     1  0.0000000  0.6508444  3
   1632   1633   3327   3329     1  180.0000771  6.2760000  1
   1632   1633   3327   3329     1  0.0000000  0.0000000  2
   1633   3327   3329   3331     1  0.0000000  2.2175200  1
   1633   3327   3329   3331     1  0.0000000  0.0000000  2
   1633   3327   3329   3331     1  180.0000771  0.6276000  3
   1633   3327   3329   3331     1  180.0000771  2.0920000  4
   1634   1631   1629   1636     1  0.0000000  0.6508444  3
   1634   1635   3357   3359     1  180.0000771  6.2760000  1
   1634   1635   3357   3359     1  0.0000000  0.0000000  2
   1635   3357   3359   3361     1  0.0000000  2.2175200  1
   1635   3357   3359   3361     1  0.0000000  0.0000000  2
   1635   3357   3359   3361     1  180.0000771  0.6276000  3
   1635   3357   3359   3361     1  180.0000771  2.0920000  4
   1639   1633   3327   3329     1  180.0000771  10.4600000  2
   1640   1635   3357   3359     1  180.0000771  10.4600000  2
   1655   1656   1658   1659     1  0.0000000  0.6508444  3
   1655   1657   1660   1661     1  0.0000000  0.6508444  3
   1655   1662   1663   1664     1  0.0000000  0.6508444  3
   1656   1655   1657   1660     1  0.0000000  0.6508444  3
   1656   1655   1662   1663     1  0.0000000  0.6508444  3
   1656   1658   1659   3387     1  0.0000000  0.2928800  2
   1656   1658   1659   3387     1  0.0000000  0.4184000  4
   1656   1658   1659   1665     1  180.0000771  0.0000000  2
   1657   1655   1656   1658     1  0.0000000  0.6508444  3
   1657   1655   1662   1663     1  0.0000000  0.6508444  3
   1657   1660   1661   1666     1  180.0000771  0.0000000  2
   1657   1660   1661   3417     1  0.0000000  0.2928800  2
   1657   1660   1661   3417     1  0.0000000  0.4184000  4
   1658   1656   1655   1662     1  0.0000000  0.6508444  3
   1658   1659   3387   3389     1  180.0000771  6.2760000  1
   1658   1659   3387   3389     1  0.0000000  0.0000000  2
   1659   3387   3389   3391     1  0.0000000  2.2175200  1
   1659   3387   3389   3391     1  0.0000000  0.0000000  2
   1659   3387   3389   3391     1  180.0000771  0.6276000  3
   1659   3387   3389   3391     1  180.0000771  2.0920000  4
   1660   1657   1655   1662     1  0.0000000  0.6508444  3
   1660   1661   3417   3419     1  180.0000771  6.2760000  1
   1660   1661   3417   3419     1  0.0000000  0.0000000  2
   1661   3417   3419   3421     1  0.0000000  2.2175200  1
   1661   3417   3419   3421     1  0.0000000  0.0000000  2
   1661   3417   3419   3421     1  180.0000771  0.6276000  3
   1661   3417   3419   3421     1  180.0000771  2.0920000  4
   1665   1659   3387   3389     1  180.0000771  10.4600000  2
   1666   1661   3417   3419     1  180.0000771  10.4600000  2
   1681   1682   1684   1685     1  0.0000000  0.6508444  3
   1681   1683   1686   1687     1  0.0000000  0.6508444  3
   1681   1688   1689   1690     1  0.0000000  0.6508444  3
   1682   1681   1683   1686     1  0.0000000  0.6508444  3
   1682   1681   1688   1689     1  0.0000000  0.6508444  3
   1682   1684   1685   3447     1  0.0000000  0.2928800  2
   1682   1684   1685   3447     1  0.0000000  0.4184000  4
   1682   1684   1685   1691     1  180.0000771  0.0000000  2
   1683   1681   1682   1684     1  0.0000000  0.6508444  3
   1683   1681   1688   1689     1  0.0000000  0.6508444  3
   1683   1686   1687   1692     1  180.0000771  0.0000000  2
   1683   1686   1687   3477     1  0.0000000  0.2928800  2
   1683   1686   1687   3477     1  0.0000000  0.4184000  4
   1684   1682   1681   1688     1  0.0000000  0.6508444  3
   1684   1685   3447   3449     1  180.0000771  6.2760000  1
   1684   1685   3447   3449     1  0.0000000  0.0000000  2
   1685   3447   3449   3451     1  0.0000000  2.2175200  1
   1685   3447   3449   3451     1  0.0000000  0.0000000  2
   1685   3447   3449   3451     1  180.0000771  0.6276000  3
   1685   3447   3449   3451     1  180.0000771  2.0920000  4
   1686   1683   1681   1688     1  0.0000000  0.6508444  3
   1686   1687   3477   3479     1  180.0000771  6.2760000  1
   1686   1687   3477   3479     1  0.0000000  0.0000000  2
   1687   3477   3479   3481     1  0.0000000  2.2175200  1
   1687   3477   3479   3481     1  0.0000000  0.0000000  2
   1687   3477   3479   3481     1  180.0000771  0.6276000  3
   1687   3477   3479   3481     1  180.0000771  2.0920000  4
   1691   1685   3447   3449     1  180.0000771  10.4600000  2
   1692   1687   3477   3479     1  180.0000771  10.4600000  2
   1707   1708   1710   1711     1  0.0000000  0.6508444  3
   1707   1709   1712   1713     1  0.0000000  0.6508444  3
   1707   1714   1715   1716     1  0.0000000  0.6508444  3
   1708   1707   1709   1712     1  0.0000000  0.6508444  3
   1708   1707   1714   1715     1  0.0000000  0.6508444  3
   1708   1710   1711   3507     1  0.0000000  0.2928800  2
   1708   1710   1711   3507     1  0.0000000  0.4184000  4
   1708   1710   1711   1717     1  180.0000771  0.0000000  2
   1709   1707   1708   1710     1  0.0000000  0.6508444  3
   1709   1707   1714   1715     1  0.0000000  0.6508444  3
   1709   1712   1713   1718     1  180.0000771  0.0000000  2
   1709   1712   1713   3537     1  0.0000000  0.2928800  2
   1709   1712   1713   3537     1  0.0000000  0.4184000  4
   1710   1708   1707   1714     1  0.0000000  0.6508444  3
   1710   1711   3507   3509     1  180.0000771  6.2760000  1
   1710   1711   3507   3509     1  0.0000000  0.0000000  2
   1711   3507   3509   3511     1  0.0000000  2.2175200  1
   1711   3507   3509   3511     1  0.0000000  0.0000000  2
   1711   3507   3509   3511     1  180.0000771  0.6276000  3
   1711   3507   3509   3511     1  180.0000771  2.0920000  4
   1712   1709   1707   1714     1  0.0000000  0.6508444  3
   1712   1713   3537   3539     1  180.0000771  6.2760000  1
   1712   1713   3537   3539     1  0.0000000  0.0000000  2
   1713   3537   3539   3541     1  0.0000000  2.2175200  1
   1713   3537   3539   3541     1  0.0000000  0.0000000  2
   1713   3537   3539   3541     1  180.0000771  0.6276000  3
   1713   3537   3539   3541     1  180.0000771  2.0920000  4
   1717   1711   3507   3509     1  180.0000771  10.4600000  2
   1718   1713   3537   3539     1  180.0000771  10.4600000  2
   1733   1734   1736   1737     1  0.0000000  0.6508444  3
   1733   1735   1738   1739     1  0.0000000  0.6508444  3
   1733   1740   1741   1742     1  0.0000000  0.6508444  3
   1734   1733   1735   1738     1  0.0000000  0.6508444  3
   1734   1733   1740   1741     1  0.0000000  0.6508444  3
   1734   1736   1737   3567     1  0.0000000  0.2928800  2
   1734   1736   1737   3567     1  0.0000000  0.4184000  4
   1734   1736   1737   1743     1  180.0000771  0.0000000  2
   1735   1733   1734   1736     1  0.0000000  0.6508444  3
   1735   1733   1740   1741     1  0.0000000  0.6508444  3
   1735   1738   1739   1744     1  180.0000771  0.0000000  2
   1735   1738   1739   3597     1  0.0000000  0.2928800  2
   1735   1738   1739   3597     1  0.0000000  0.4184000  4
   1736   1734   1733   1740     1  0.0000000  0.6508444  3
   1736   1737   3567   3569     1  180.0000771  6.2760000  1
   1736   1737   3567   3569     1  0.0000000  0.0000000  2
   1737   3567   3569   3571     1  0.0000000  2.2175200  1
   1737   3567   3569   3571     1  0.0000000  0.0000000  2
   1737   3567   3569   3571     1  180.0000771  0.6276000  3
   1737   3567   3569   3571     1  180.0000771  2.0920000  4
   1738   1735   1733   1740     1  0.0000000  0.6508444  3
   1738   1739   3597   3599     1  180.0000771  6.2760000  1
   1738   1739   3597   3599     1  0.0000000  0.0000000  2
   1739   3597   3599   3601     1  0.0000000  2.2175200  1
   1739   3597   3599   3601     1  0.0000000  0.0000000  2
   1739   3597   3599   3601     1  180.0000771  0.6276000  3
   1739   3597   3599   3601     1  180.0000771  2.0920000  4
   1743   1737   3567   3569     1  180.0000771  10.4600000  2
   1744   1739   3597   3599     1  180.0000771  10.4600000  2
   1759   1760   1762   1763     1  0.0000000  0.6508444  3
   1759   1761   1764   1765     1  0.0000000  0.6508444  3
   1759   1766   1767   1768     1  0.0000000  0.6508444  3
   1760   1759   1761   1764     1  0.0000000  0.6508444  3
   1760   1759   1766   1767     1  0.0000000  0.6508444  3
   1760   1762   1763   3627     1  0.0000000  0.2928800  2
   1760   1762   1763   3627     1  0.0000000  0.4184000  4
   1760   1762   1763   1769     1  180.0000771  0.0000000  2
   1761   1759   1760   1762     1  0.0000000  0.6508444  3
   1761   1759   1766   1767     1  0.0000000  0.6508444  3
   1761   1764   1765   1770     1  180.0000771  0.0000000  2
   1761   1764   1765   3657     1  0.0000000  0.2928800  2
   1761   1764   1765   3657     1  0.0000000  0.4184000  4
   1762   1760   1759   1766     1  0.0000000  0.6508444  3
   1762   1763   3627   3629     1  180.0000771  6.2760000  1
   1762   1763   3627   3629     1  0.0000000  0.0000000  2
   1763   3627   3629   3631     1  0.0000000  2.2175200  1
   1763   3627   3629   3631     1  0.0000000  0.0000000  2
   1763   3627   3629   3631     1  180.0000771  0.6276000  3
   1763   3627   3629   3631     1  180.0000771  2.0920000  4
   1764   1761   1759   1766     1  0.0000000  0.6508444  3
   1764   1765   3657   3659     1  180.0000771  6.2760000  1
   1764   1765   3657   3659     1  0.0000000  0.0000000  2
   1765   3657   3659   3661     1  0.0000000  2.2175200  1
   1765   3657   3659   3661     1  0.0000000  0.0000000  2
   1765   3657   3659   3661     1  180.0000771  0.6276000  3
   1765   3657   3659   3661     1  180.0000771  2.0920000  4
   1769   1763   3627   3629     1  180.0000771  10.4600000  2
   1770   1765   3657   3659     1  180.0000771  10.4600000  2
   1785   1786   1788   1789     1  0.0000000  0.6508444  3
   1785   1787   1790   1791     1  0.0000000  0.6508444  3
   1785   1792   1793   1794     1  0.0000000  0.6508444  3
   1786   1785   1787   1790     1  0.0000000  0.6508444  3
   1786   1785   1792   1793     1  0.0000000  0.6508444  3
   1786   1788   1789   3687     1  0.0000000  0.2928800  2
   1786   1788   1789   3687     1  0.0000000  0.4184000  4
   1786   1788   1789   1795     1  180.0000771  0.0000000  2
   1787   1785   1786   1788     1  0.0000000  0.6508444  3
   1787   1785   1792   1793     1  0.0000000  0.6508444  3
   1787   1790   1791   1796     1  180.0000771  0.0000000  2
   1787   1790   1791   3717     1  0.0000000  0.2928800  2
   1787   1790   1791   3717     1  0.0000000  0.4184000  4
   1788   1786   1785   1792     1  0.0000000  0.6508444  3
   1788   1789   3687   3689     1  180.0000771  6.2760000  1
   1788   1789   3687   3689     1  0.0000000  0.0000000  2
   1789   3687   3689   3691     1  0.0000000  2.2175200  1
   1789   3687   3689   3691     1  0.0000000  0.0000000  2
   1789   3687   3689   3691     1  180.0000771  0.6276000  3
   1789   3687   3689   3691     1  180.0000771  2.0920000  4
   1790   1787   1785   1792     1  0.0000000  0.6508444  3
   1790   1791   3717   3719     1  180.0000771  6.2760000  1
   1790   1791   3717   3719     1  0.0000000  0.0000000  2
   1791   3717   3719   3721     1  0.0000000  2.2175200  1
   1791   3717   3719   3721     1  0.0000000  0.0000000  2
   1791   3717   3719   3721     1  180.0000771  0.6276000  3
   1791   3717   3719   3721     1  180.0000771  2.0920000  4
   1795   1789   3687   3689     1  180.0000771  10.4600000  2
   1796   1791   3717   3719     1  180.0000771  10.4600000  2
   1811   1812   1814   1815     1  0.0000000  0.6508444  3
   1811   1813   1816   1817     1  0.0000000  0.6508444  3
   1811   1818   1819   1820     1  0.0000000  0.6508444  3
   1812   1811   1813   1816     1  0.0000000  0.6508444  3
   1812   1811   1818   1819     1  0.0000000  0.6508444  3
   1812   1814   1815   3747     1  0.0000000  0.2928800  2
   1812   1814   1815   3747     1  0.0000000  0.4184000  4
   1812   1814   1815   1821     1  180.0000771  0.0000000  2
   1813   1811   1812   1814     1  0.0000000  0.6508444  3
   1813   1811   1818   1819     1  0.0000000  0.6508444  3
   1813   1816   1817   1822     1  180.0000771  0.0000000  2
   1813   1816   1817   3777     1  0.0000000  0.2928800  2
   1813   1816   1817   3777     1  0.0000000  0.4184000  4
   1814   1812   1811   1818     1  0.0000000  0.6508444  3
   1814   1815   3747   3749     1  180.0000771  6.2760000  1
   1814   1815   3747   3749     1  0.0000000  0.0000000  2
   1815   3747   3749   3751     1  0.0000000  2.2175200  1
   1815   3747   3749   3751     1  0.0000000  0.0000000  2
   1815   3747   3749   3751     1  180.0000771  0.6276000  3
   1815   3747   3749   3751     1  180.0000771  2.0920000  4
   1816   1813   1811   1818     1  0.0000000  0.6508444  3
   1816   1817   3777   3779     1  180.0000771  6.2760000  1
   1816   1817   3777   3779     1  0.0000000  0.0000000  2
   1817   3777   3779   3781     1  0.0000000  2.2175200  1
   1817   3777   3779   3781     1  0.0000000  0.0000000  2
   1817   3777   3779   3781     1  180.0000771  0.6276000  3
   1817   3777   3779   3781     1  180.0000771  2.0920000  4
   1821   1815   3747   3749     1  180.0000771  10.4600000  2
   1822   1817   3777   3779     1  180.0000771  10.4600000  2
   1837   1838   1840   1841     1  0.0000000  0.6508444  3
   1837   1839   1842   1843     1  0.0000000  0.6508444  3
   1837   1844   1845   1846     1  0.0000000  0.6508444  3
   1838   1837   1839   1842     1  0.0000000  0.6508444  3
   1838   1837   1844   1845     1  0.0000000  0.6508444  3
   1838   1840   1841   3807     1  0.0000000  0.2928800  2
   1838   1840   1841   3807     1  0.0000000  0.4184000  4
   1838   1840   1841   1847     1  180.0000771  0.0000000  2
   1839   1837   1838   1840     1  0.0000000  0.6508444  3
   1839   1837   1844   1845     1  0.0000000  0.6508444  3
   1839   1842   1843   1848     1  180.0000771  0.0000000  2
   1839   1842   1843   3837     1  0.0000000  0.2928800  2
   1839   1842   1843   3837     1  0.0000000  0.4184000  4
   1840   1838   1837   1844     1  0.0000000  0.6508444  3
   1840   1841   3807   3809     1  180.0000771  6.2760000  1
   1840   1841   3807   3809     1  0.0000000  0.0000000  2
   1841   3807   3809   3811     1  0.0000000  2.2175200  1
   1841   3807   3809   3811     1  0.0000000  0.0000000  2
   1841   3807   3809   3811     1  180.0000771  0.6276000  3
   1841   3807   3809   3811     1  180.0000771  2.0920000  4
   1842   1839   1837   1844     1  0.0000000  0.6508444  3
   1842   1843   3837   3839     1  180.0000771  6.2760000  1
   1842   1843   3837   3839     1  0.0000000  0.0000000  2
   1843   3837   3839   3841     1  0.0000000  2.2175200  1
   1843   3837   3839   3841     1  0.0000000  0.0000000  2
   1843   3837   3839   3841     1  180.0000771  0.6276000  3
   1843   3837   3839   3841     1  180.0000771  2.0920000  4
   1847   1841   3807   3809     1  180.0000771  10.4600000  2
   1848   1843   3837   3839     1  180.0000771  10.4600000  2
   1863   1864   1866   1867     1  0.0000000  0.6508444  3
   1863   1865   1868   1869     1  0.0000000  0.6508444  3
   1863   1870   1871   1872     1  0.0000000  0.6508444  3
   1864   1863   1865   1868     1  0.0000000  0.6508444  3
   1864   1863   1870   1871     1  0.0000000  0.6508444  3
   1864   1866   1867   3867     1  0.0000000  0.2928800  2
   1864   1866   1867   3867     1  0.0000000  0.4184000  4
   1864   1866   1867   1873     1  180.0000771  0.0000000  2
   1865   1863   1864   1866     1  0.0000000  0.6508444  3
   1865   1863   1870   1871     1  0.0000000  0.6508444  3
   1865   1868   1869   1874     1  180.0000771  0.0000000  2
   1865   1868   1869   3897     1  0.0000000  0.2928800  2
   1865   1868   1869   3897     1  0.0000000  0.4184000  4
   1866   1864   1863   1870     1  0.0000000  0.6508444  3
   1866   1867   3867   3869     1  180.0000771  6.2760000  1
   1866   1867   3867   3869     1  0.0000000  0.0000000  2
   1867   3867   3869   3871     1  0.0000000  2.2175200  1
   1867   3867   3869   3871     1  0.0000000  0.0000000  2
   1867   3867   3869   3871     1  180.0000771  0.6276000  3
   1867   3867   3869   3871     1  180.0000771  2.0920000  4
   1868   1865   1863   1870     1  0.0000000  0.6508444  3
   1868   1869   3897   3899     1  180.0000771  6.2760000  1
   1868   1869   3897   3899     1  0.0000000  0.0000000  2
   1869   3897   3899   3901     1  0.0000000  2.2175200  1
   1869   3897   3899   3901     1  0.0000000  0.0000000  2
   1869   3897   3899   3901     1  180.0000771  0.6276000  3
   1869   3897   3899   3901     1  180.0000771  2.0920000  4
   1873   1867   3867   3869     1  180.0000771  10.4600000  2
   1874   1869   3897   3899     1  180.0000771  10.4600000  2
   1889   1890   1892   1893     1  0.0000000  0.6508444  3
   1889   1891   1894   1895     1  0.0000000  0.6508444  3
   1889   1896   1897   1898     1  0.0000000  0.6508444  3
   1890   1889   1891   1894     1  0.0000000  0.6508444  3
   1890   1889   1896   1897     1  0.0000000  0.6508444  3
   1890   1892   1893   3927     1  0.0000000  0.2928800  2
   1890   1892   1893   3927     1  0.0000000  0.4184000  4
   1890   1892   1893   1899     1  180.0000771  0.0000000  2
   1891   1889   1890   1892     1  0.0000000  0.6508444  3
   1891   1889   1896   1897     1  0.0000000  0.6508444  3
   1891   1894   1895   1900     1  180.0000771  0.0000000  2
   1891   1894   1895   3957     1  0.0000000  0.2928800  2
   1891   1894   1895   3957     1  0.0000000  0.4184000  4
   1892   1890   1889   1896     1  0.0000000  0.6508444  3
   1892   1893   3927   3929     1  180.0000771  6.2760000  1
   1892   1893   3927   3929     1  0.0000000  0.0000000  2
   1893   3927   3929   3931     1  0.0000000  2.2175200  1
   1893   3927   3929   3931     1  0.0000000  0.0000000  2
   1893   3927   3929   3931     1  180.0000771  0.6276000  3
   1893   3927   3929   3931     1  180.0000771  2.0920000  4
   1894   1891   1889   1896     1  0.0000000  0.6508444  3
   1894   1895   3957   3959     1  180.0000771  6.2760000  1
   1894   1895   3957   3959     1  0.0000000  0.0000000  2
   1895   3957   3959   3961     1  0.0000000  2.2175200  1
   1895   3957   3959   3961     1  0.0000000  0.0000000  2
   1895   3957   3959   3961     1  180.0000771  0.6276000  3
   1895   3957   3959   3961     1  180.0000771  2.0920000  4
   1899   1893   3927   3929     1  180.0000771  10.4600000  2
   1900   1895   3957   3959     1  180.0000771  10.4600000  2
   1915   1916   1918   1919     1  0.0000000  0.6508444  3
   1915   1917   1920   1921     1  0.0000000  0.6508444  3
   1915   1922   1923   1924     1  0.0000000  0.6508444  3
   1916   1915   1917   1920     1  0.0000000  0.6508444  3
   1916   1915   1922   1923     1  0.0000000  0.6508444  3
   1916   1918   1919   3987     1  0.0000000  0.2928800  2
   1916   1918   1919   3987     1  0.0000000  0.4184000  4
   1916   1918   1919   1925     1  180.0000771  0.0000000  2
   1917   1915   1916   1918     1  0.0000000  0.6508444  3
   1917   1915   1922   1923     1  0.0000000  0.6508444  3
   1917   1920   1921   1926     1  180.0000771  0.0000000  2
   1917   1920   1921   4017     1  0.0000000  0.2928800  2
   1917   1920   1921   4017     1  0.0000000  0.4184000  4
   1918   1916   1915   1922     1  0.0000000  0.6508444  3
   1918   1919   3987   3989     1  180.0000771  6.2760000  1
   1918   1919   3987   3989     1  0.0000000  0.0000000  2
   1919   3987   3989   3991     1  0.0000000  2.2175200  1
   1919   3987   3989   3991     1  0.0000000  0.0000000  2
   1919   3987   3989   3991     1  180.0000771  0.6276000  3
   1919   3987   3989   3991     1  180.0000771  2.0920000  4
   1920   1917   1915   1922     1  0.0000000  0.6508444  3
   1920   1921   4017   4019     1  180.0000771  6.2760000  1
   1920   1921   4017   4019     1  0.0000000  0.0000000  2
   1921   4017   4019   4021     1  0.0000000  2.2175200  1
   1921   4017   4019   4021     1  0.0000000  0.0000000  2
   1921   4017   4019   4021     1  180.0000771  0.6276000  3
   1921   4017   4019   4021     1  180.0000771  2.0920000  4
   1925   1919   3987   3989     1  180.0000771  10.4600000  2
   1926   1921   4017   4019     1  180.0000771  10.4600000  2
   1941   1942   1944   1945     1  0.0000000  0.6508444  3
   1941   1943   1946   1947     1  0.0000000  0.6508444  3
   1941   1948   1949   1950     1  0.0000000  0.6508444  3
   1942   1941   1943   1946     1  0.0000000  0.6508444  3
   1942   1941   1948   1949     1  0.0000000  0.6508444  3
   1942   1944   1945   4047     1  0.0000000  0.2928800  2
   1942   1944   1945   4047     1  0.0000000  0.4184000  4
   1942   1944   1945   1951     1  180.0000771  0.0000000  2
   1943   1941   1942   1944     1  0.0000000  0.6508444  3
   1943   1941   1948   1949     1  0.0000000  0.6508444  3
   1943   1946   1947   1952     1  180.0000771  0.0000000  2
   1943   1946   1947   4077     1  0.0000000  0.2928800  2
   1943   1946   1947   4077     1  0.0000000  0.4184000  4
   1944   1942   1941   1948     1  0.0000000  0.6508444  3
   1944   1945   4047   4049     1  180.0000771  6.2760000  1
   1944   1945   4047   4049     1  0.0000000  0.0000000  2
   1945   4047   4049   4051     1  0.0000000  2.2175200  1
   1945   4047   4049   4051     1  0.0000000  0.0000000  2
   1945   4047   4049   4051     1  180.0000771  0.6276000  3
   1945   4047   4049   4051     1  180.0000771  2.0920000  4
   1946   1943   1941   1948     1  0.0000000  0.6508444  3
   1946   1947   4077   4079     1  180.0000771  6.2760000  1
   1946   1947   4077   4079     1  0.0000000  0.0000000  2
   1947   4077   4079   4081     1  0.0000000  2.2175200  1
   1947   4077   4079   4081     1  0.0000000  0.0000000  2
   1947   4077   4079   4081     1  180.0000771  0.6276000  3
   1947   4077   4079   4081     1  180.0000771  2.0920000  4
   1951   1945   4047   4049     1  180.0000771  10.4600000  2
   1952   1947   4077   4079     1  180.0000771  10.4600000  2
   1967   1968   1970   1971     1  0.0000000  0.6508444  3
   1967   1969   1972   1973     1  0.0000000  0.6508444  3
   1967   1974   1975   1976     1  0.0000000  0.6508444  3
   1968   1967   1969   1972     1  0.0000000  0.6508444  3
   1968   1967   1974   1975     1  0.0000000  0.6508444  3
   1968   1970   1971   4107     1  0.0000000  0.2928800  2
   1968   1970   1971   4107     1  0.0000000  0.4184000  4
   1968   1970   1971   1977     1  180.0000771  0.0000000  2
   1969   1967   1968   1970     1  0.0000000  0.6508444  3
   1969   1967   1974   1975     1  0.0000000  0.6508444  3
   1969   1972   1973   1978     1  180.0000771  0.0000000  2
   1969   1972   1973   4137     1  0.0000000  0.2928800  2
   1969   1972   1973   4137     1  0.0000000  0.4184000  4
   1970   1968   1967   1974     1  0.0000000  0.6508444  3
   1970   1971   4107   4109     1  180.0000771  6.2760000  1
   1970   1971   4107   4109     1  0.0000000  0.0000000  2
   1971   4107   4109   4111     1  0.0000000  2.2175200  1
   1971   4107   4109   4111     1  0.0000000  0.0000000  2
   1971   4107   4109   4111     1  180.0000771  0.6276000  3
   1971   4107   4109   4111     1  180.0000771  2.0920000  4
   1972   1969   1967   1974     1  0.0000000  0.6508444  3
   1972   1973   4137   4139     1  180.0000771  6.2760000  1
   1972   1973   4137   4139     1  0.0000000  0.0000000  2
   1973   4137   4139   4141     1  0.0000000  2.2175200  1
   1973   4137   4139   4141     1  0.0000000  0.0000000  2
   1973   4137   4139   4141     1  180.0000771  0.6276000  3
   1973   4137   4139   4141     1  180.0000771  2.0920000  4
   1977   1971   4107   4109     1  180.0000771  10.4600000  2
   1978   1973   4137   4139     1  180.0000771  10.4600000  2
   1993   1994   1996   1997     1  0.0000000  0.6508444  3
   1993   1995   1998   1999     1  0.0000000  0.6508444  3
   1993   2000   2001   2002     1  0.0000000  0.6508444  3
   1994   1993   1995   1998     1  0.0000000  0.6508444  3
   1994   1993   2000   2001     1  0.0000000  0.6508444  3
   1994   1996   1997   4167     1  0.0000000  0.2928800  2
   1994   1996   1997   4167     1  0.0000000  0.4184000  4
   1994   1996   1997   2003     1  180.0000771  0.0000000  2
   1995   1993   1994   1996     1  0.0000000  0.6508444  3
   1995   1993   2000   2001     1  0.0000000  0.6508444  3
   1995   1998   1999   2004     1  180.0000771  0.0000000  2
   1995   1998   1999   4197     1  0.0000000  0.2928800  2
   1995   1998   1999   4197     1  0.0000000  0.4184000  4
   1996   1994   1993   2000     1  0.0000000  0.6508444  3
   1996   1997   4167   4169     1  180.0000771  6.2760000  1
   1996   1997   4167   4169     1  0.0000000  0.0000000  2
   1997   4167   4169   4171     1  0.0000000  2.2175200  1
   1997   4167   4169   4171     1  0.0000000  0.0000000  2
   1997   4167   4169   4171     1  180.0000771  0.6276000  3
   1997   4167   4169   4171     1  180.0000771  2.0920000  4
   1998   1995   1993   2000     1  0.0000000  0.6508444  3
   1998   1999   4197   4199     1  180.0000771  6.2760000  1
   1998   1999   4197   4199     1  0.0000000  0.0000000  2
   1999   4197   4199   4201     1  0.0000000  2.2175200  1
   1999   4197   4199   4201     1  0.0000000  0.0000000  2
   1999   4197   4199   4201     1  180.0000771  0.6276000  3
   1999   4197   4199   4201     1  180.0000771  2.0920000  4
   2003   1997   4167   4169     1  180.0000771  10.4600000  2
   2004   1999   4197   4199     1  180.0000771  10.4600000  2
   2019   2020   2022   2023     1  0.0000000  0.6508444  3
   2019   2021   2024   2025     1  0.0000000  0.6508444  3
   2019   2026   2027   2028     1  0.0000000  0.6508444  3
   2020   2019   2021   2024     1  0.0000000  0.6508444  3
   2020   2019   2026   2027     1  0.0000000  0.6508444  3
   2020   2022   2023   4227     1  0.0000000  0.2928800  2
   2020   2022   2023   4227     1  0.0000000  0.4184000  4
   2020   2022   2023   2029     1  180.0000771  0.0000000  2
   2021   2019   2020   2022     1  0.0000000  0.6508444  3
   2021   2019   2026   2027     1  0.0000000  0.6508444  3
   2021   2024   2025   2030     1  180.0000771  0.0000000  2
   2021   2024   2025   4257     1  0.0000000  0.2928800  2
   2021   2024   2025   4257     1  0.0000000  0.4184000  4
   2022   2020   2019   2026     1  0.0000000  0.6508444  3
   2022   2023   4227   4229     1  180.0000771  6.2760000  1
   2022   2023   4227   4229     1  0.0000000  0.0000000  2
   2023   4227   4229   4231     1  0.0000000  2.2175200  1
   2023   4227   4229   4231     1  0.0000000  0.0000000  2
   2023   4227   4229   4231     1  180.0000771  0.6276000  3
   2023   4227   4229   4231     1  180.0000771  2.0920000  4
   2024   2021   2019   2026     1  0.0000000  0.6508444  3
   2024   2025   4257   4259     1  180.0000771  6.2760000  1
   2024   2025   4257   4259     1  0.0000000  0.0000000  2
   2025   4257   4259   4261     1  0.0000000  2.2175200  1
   2025   4257   4259   4261     1  0.0000000  0.0000000  2
   2025   4257   4259   4261     1  180.0000771  0.6276000  3
   2025   4257   4259   4261     1  180.0000771  2.0920000  4
   2029   2023   4227   4229     1  180.0000771  10.4600000  2
   2030   2025   4257   4259     1  180.0000771  10.4600000  2
   2045   2046   2048   2049     1  0.0000000  0.6508444  3
   2045   2047   2050   2051     1  0.0000000  0.6508444  3
   2045   2052   2053   2054     1  0.0000000  0.6508444  3
   2046   2045   2047   2050     1  0.0000000  0.6508444  3
   2046   2045   2052   2053     1  0.0000000  0.6508444  3
   2046   2048   2049   4287     1  0.0000000  0.2928800  2
   2046   2048   2049   4287     1  0.0000000  0.4184000  4
   2046   2048   2049   2055     1  180.0000771  0.0000000  2
   2047   2045   2046   2048     1  0.0000000  0.6508444  3
   2047   2045   2052   2053     1  0.0000000  0.6508444  3
   2047   2050   2051   2056     1  180.0000771  0.0000000  2
   2047   2050   2051   4317     1  0.0000000  0.2928800  2
   2047   2050   2051   4317     1  0.0000000  0.4184000  4
   2048   2046   2045   2052     1  0.0000000  0.6508444  3
   2048   2049   4287   4289     1  180.0000771  6.2760000  1
   2048   2049   4287   4289     1  0.0000000  0.0000000  2
   2049   4287   4289   4291     1  0.0000000  2.2175200  1
   2049   4287   4289   4291     1  0.0000000  0.0000000  2
   2049   4287   4289   4291     1  180.0000771  0.6276000  3
   2049   4287   4289   4291     1  180.0000771  2.0920000  4
   2050   2047   2045   2052     1  0.0000000  0.6508444  3
   2050   2051   4317   4319     1  180.0000771  6.2760000  1
   2050   2051   4317   4319     1  0.0000000  0.0000000  2
   2051   4317   4319   4321     1  0.0000000  2.2175200  1
   2051   4317   4319   4321     1  0.0000000  0.0000000  2
   2051   4317   4319   4321     1  180.0000771  0.6276000  3
   2051   4317   4319   4321     1  180.0000771  2.0920000  4
   2055   2049   4287   4289     1  180.0000771  10.4600000  2
   2056   2051   4317   4319     1  180.0000771  10.4600000  2
   2071   2072   2074   2075     1  0.0000000  0.6508444  3
   2071   2073   2076   2077     1  0.0000000  0.6508444  3
   2071   2078   2079   2080     1  0.0000000  0.6508444  3
   2072   2071   2073   2076     1  0.0000000  0.6508444  3
   2072   2071   2078   2079     1  0.0000000  0.6508444  3
   2072   2074   2075   4347     1  0.0000000  0.2928800  2
   2072   2074   2075   4347     1  0.0000000  0.4184000  4
   2072   2074   2075   2081     1  180.0000771  0.0000000  2
   2073   2071   2072   2074     1  0.0000000  0.6508444  3
   2073   2071   2078   2079     1  0.0000000  0.6508444  3
   2073   2076   2077   2082     1  180.0000771  0.0000000  2
   2073   2076   2077   4377     1  0.0000000  0.2928800  2
   2073   2076   2077   4377     1  0.0000000  0.4184000  4
   2074   2072   2071   2078     1  0.0000000  0.6508444  3
   2074   2075   4347   4349     1  180.0000771  6.2760000  1
   2074   2075   4347   4349     1  0.0000000  0.0000000  2
   2075   4347   4349   4351     1  0.0000000  2.2175200  1
   2075   4347   4349   4351     1  0.0000000  0.0000000  2
   2075   4347   4349   4351     1  180.0000771  0.6276000  3
   2075   4347   4349   4351     1  180.0000771  2.0920000  4
   2076   2073   2071   2078     1  0.0000000  0.6508444  3
   2076   2077   4377   4379     1  180.0000771  6.2760000  1
   2076   2077   4377   4379     1  0.0000000  0.0000000  2
   2077   4377   4379   4381     1  0.0000000  2.2175200  1
   2077   4377   4379   4381     1  0.0000000  0.0000000  2
   2077   4377   4379   4381     1  180.0000771  0.6276000  3
   2077   4377   4379   4381     1  180.0000771  2.0920000  4
   2081   2075   4347   4349     1  180.0000771  10.4600000  2
   2082   2077   4377   4379     1  180.0000771  10.4600000  2
   2097   2098   2100   2101     1  0.0000000  0.6508444  3
   2097   2099   2102   2103     1  0.0000000  0.6508444  3
   2097   2104   2105   2106     1  0.0000000  0.6508444  3
   2098   2097   2099   2102     1  0.0000000  0.6508444  3
   2098   2097   2104   2105     1  0.0000000  0.6508444  3
   2098   2100   2101   4407     1  0.0000000  0.2928800  2
   2098   2100   2101   4407     1  0.0000000  0.4184000  4
   2098   2100   2101   2107     1  180.0000771  0.0000000  2
   2099   2097   2098   2100     1  0.0000000  0.6508444  3
   2099   2097   2104   2105     1  0.0000000  0.6508444  3
   2099   2102   2103   2108     1  180.0000771  0.0000000  2
   2099   2102   2103   4437     1  0.0000000  0.2928800  2
   2099   2102   2103   4437     1  0.0000000  0.4184000  4
   2100   2098   2097   2104     1  0.0000000  0.6508444  3
   2100   2101   4407   4409     1  180.0000771  6.2760000  1
   2100   2101   4407   4409     1  0.0000000  0.0000000  2
   2101   4407   4409   4411     1  0.0000000  2.2175200  1
   2101   4407   4409   4411     1  0.0000000  0.0000000  2
   2101   4407   4409   4411     1  180.0000771  0.6276000  3
   2101   4407   4409   4411     1  180.0000771  2.0920000  4
   2102   2099   2097   2104     1  0.0000000  0.6508444  3
   2102   2103   4437   4439     1  180.0000771  6.2760000  1
   2102   2103   4437   4439     1  0.0000000  0.0000000  2
   2103   4437   4439   4441     1  0.0000000  2.2175200  1
   2103   4437   4439   4441     1  0.0000000  0.0000000  2
   2103   4437   4439   4441     1  180.0000771  0.6276000  3
   2103   4437   4439   4441     1  180.0000771  2.0920000  4
   2107   2101   4407   4409     1  180.0000771  10.4600000  2
   2108   2103   4437   4439     1  180.0000771  10.4600000  2
   2123   2124   2126   2127     1  0.0000000  0.6508444  3
   2123   2125   2128   2129     1  0.0000000  0.6508444  3
   2123   2130   2131   2132     1  0.0000000  0.6508444  3
   2124   2123   2125   2128     1  0.0000000  0.6508444  3
   2124   2123   2130   2131     1  0.0000000  0.6508444  3
   2124   2126   2127   4467     1  0.0000000  0.2928800  2
   2124   2126   2127   4467     1  0.0000000  0.4184000  4
   2124   2126   2127   2133     1  180.0000771  0.0000000  2
   2125   2123   2124   2126     1  0.0000000  0.6508444  3
   2125   2123   2130   2131     1  0.0000000  0.6508444  3
   2125   2128   2129   2134     1  180.0000771  0.0000000  2
   2125   2128   2129   4497     1  0.0000000  0.2928800  2
   2125   2128   2129   4497     1  0.0000000  0.4184000  4
   2126   2124   2123   2130     1  0.0000000  0.6508444  3
   2126   2127   4467   4469     1  180.0000771  6.2760000  1
   2126   2127   4467   4469     1  0.0000000  0.0000000  2
   2127   4467   4469   4471     1  0.0000000  2.2175200  1
   2127   4467   4469   4471     1  0.0000000  0.0000000  2
   2127   4467   4469   4471     1  180.0000771  0.6276000  3
   2127   4467   4469   4471     1  180.0000771  2.0920000  4
   2128   2125   2123   2130     1  0.0000000  0.6508444  3
   2128   2129   4497   4499     1  180.0000771  6.2760000  1
   2128   2129   4497   4499     1  0.0000000  0.0000000  2
   2129   4497   4499   4501     1  0.0000000  2.2175200  1
   2129   4497   4499   4501     1  0.0000000  0.0000000  2
   2129   4497   4499   4501     1  180.0000771  0.6276000  3
   2129   4497   4499   4501     1  180.0000771  2.0920000  4
   2133   2127   4467   4469     1  180.0000771  10.4600000  2
   2134   2129   4497   4499     1  180.0000771  10.4600000  2
   2149   2150   2152   2153     1  0.0000000  0.6508444  3
   2149   2151   2154   2155     1  0.0000000  0.6508444  3
   2149   2156   2157   2158     1  0.0000000  0.6508444  3
   2150   2149   2151   2154     1  0.0000000  0.6508444  3
   2150   2149   2156   2157     1  0.0000000  0.6508444  3
   2150   2152   2153   4527     1  0.0000000  0.2928800  2
   2150   2152   2153   4527     1  0.0000000  0.4184000  4
   2150   2152   2153   2159     1  180.0000771  0.0000000  2
   2151   2149   2150   2152     1  0.0000000  0.6508444  3
   2151   2149   2156   2157     1  0.0000000  0.6508444  3
   2151   2154   2155   2160     1  180.0000771  0.0000000  2
   2151   2154   2155   4557     1  0.0000000  0.2928800  2
   2151   2154   2155   4557     1  0.0000000  0.4184000  4
   2152   2150   2149   2156     1  0.0000000  0.6508444  3
   2152   2153   4527   4529     1  180.0000771  6.2760000  1
   2152   2153   4527   4529     1  0.0000000  0.0000000  2
   2153   4527   4529   4531     1  0.0000000  2.2175200  1
   2153   4527   4529   4531     1  0.0000000  0.0000000  2
   2153   4527   4529   4531     1  180.0000771  0.6276000  3
   2153   4527   4529   4531     1  180.0000771  2.0920000  4
   2154   2151   2149   2156     1  0.0000000  0.6508444  3
   2154   2155   4557   4559     1  180.0000771  6.2760000  1
   2154   2155   4557   4559     1  0.0000000  0.0000000  2
   2155   4557   4559   4561     1  0.0000000  2.2175200  1
   2155   4557   4559   4561     1  0.0000000  0.0000000  2
   2155   4557   4559   4561     1  180.0000771  0.6276000  3
   2155   4557   4559   4561     1  180.0000771  2.0920000  4
   2159   2153   4527   4529     1  180.0000771  10.4600000  2
   2160   2155   4557   4559     1  180.0000771  10.4600000  2
   2175   2176   2178   2179     1  0.0000000  0.6508444  3
   2175   2177   2180   2181     1  0.0000000  0.6508444  3
   2175   2182   2183   2184     1  0.0000000  0.6508444  3
   2176   2175   2177   2180     1  0.0000000  0.6508444  3
   2176   2175   2182   2183     1  0.0000000  0.6508444  3
   2176   2178   2179   4587     1  0.0000000  0.2928800  2
   2176   2178   2179   4587     1  0.0000000  0.4184000  4
   2176   2178   2179   2185     1  180.0000771  0.0000000  2
   2177   2175   2176   2178     1  0.0000000  0.6508444  3
   2177   2175   2182   2183     1  0.0000000  0.6508444  3
   2177   2180   2181   2186     1  180.0000771  0.0000000  2
   2177   2180   2181   4617     1  0.0000000  0.2928800  2
   2177   2180   2181   4617     1  0.0000000  0.4184000  4
   2178   2176   2175   2182     1  0.0000000  0.6508444  3
   2178   2179   4587   4589     1  180.0000771  6.2760000  1
   2178   2179   4587   4589     1  0.0000000  0.0000000  2
   2179   4587   4589   4591     1  0.0000000  2.2175200  1
   2179   4587   4589   4591     1  0.0000000  0.0000000  2
   2179   4587   4589   4591     1  180.0000771  0.6276000  3
   2179   4587   4589   4591     1  180.0000771  2.0920000  4
   2180   2177   2175   2182     1  0.0000000  0.6508444  3
   2180   2181   4617   4619     1  180.0000771  6.2760000  1
   2180   2181   4617   4619     1  0.0000000  0.0000000  2
   2181   4617   4619   4621     1  0.0000000  2.2175200  1
   2181   4617   4619   4621     1  0.0000000  0.0000000  2
   2181   4617   4619   4621     1  180.0000771  0.6276000  3
   2181   4617   4619   4621     1  180.0000771  2.0920000  4
   2185   2179   4587   4589     1  180.0000771  10.4600000  2
   2186   2181   4617   4619     1  180.0000771  10.4600000  2
   2201   2202   2204   2205     1  0.0000000  0.6508444  3
   2201   2203   2206   2207     1  0.0000000  0.6508444  3
   2201   2208   2209   2210     1  0.0000000  0.6508444  3
   2202   2201   2203   2206     1  0.0000000  0.6508444  3
   2202   2201   2208   2209     1  0.0000000  0.6508444  3
   2202   2204   2205   4647     1  0.0000000  0.2928800  2
   2202   2204   2205   4647     1  0.0000000  0.4184000  4
   2202   2204   2205   2211     1  180.0000771  0.0000000  2
   2203   2201   2202   2204     1  0.0000000  0.6508444  3
   2203   2201   2208   2209     1  0.0000000  0.6508444  3
   2203   2206   2207   2212     1  180.0000771  0.0000000  2
   2203   2206   2207   4677     1  0.0000000  0.2928800  2
   2203   2206   2207   4677     1  0.0000000  0.4184000  4
   2204   2202   2201   2208     1  0.0000000  0.6508444  3
   2204   2205   4647   4649     1  180.0000771  6.2760000  1
   2204   2205   4647   4649     1  0.0000000  0.0000000  2
   2205   4647   4649   4651     1  0.0000000  2.2175200  1
   2205   4647   4649   4651     1  0.0000000  0.0000000  2
   2205   4647   4649   4651     1  180.0000771  0.6276000  3
   2205   4647   4649   4651     1  180.0000771  2.0920000  4
   2206   2203   2201   2208     1  0.0000000  0.6508444  3
   2206   2207   4677   4679     1  180.0000771  6.2760000  1
   2206   2207   4677   4679     1  0.0000000  0.0000000  2
   2207   4677   4679   4681     1  0.0000000  2.2175200  1
   2207   4677   4679   4681     1  0.0000000  0.0000000  2
   2207   4677   4679   4681     1  180.0000771  0.6276000  3
   2207   4677   4679   4681     1  180.0000771  2.0920000  4
   2211   2205   4647   4649     1  180.0000771  10.4600000  2
   2212   2207   4677   4679     1  180.0000771  10.4600000  2
   2227   2228   2230   2231     1  0.0000000  0.6508444  3
   2227   2229   2232   2233     1  0.0000000  0.6508444  3
   2227   2234   2235   2236     1  0.0000000  0.6508444  3
   2228   2227   2229   2232     1  0.0000000  0.6508444  3
   2228   2227   2234   2235     1  0.0000000  0.6508444  3
   2228   2230   2231   4707     1  0.0000000  0.2928800  2
   2228   2230   2231   4707     1  0.0000000  0.4184000  4
   2228   2230   2231   2237     1  180.0000771  0.0000000  2
   2229   2227   2228   2230     1  0.0000000  0.6508444  3
   2229   2227   2234   2235     1  0.0000000  0.6508444  3
   2229   2232   2233   2238     1  180.0000771  0.0000000  2
   2229   2232   2233   4737     1  0.0000000  0.2928800  2
   2229   2232   2233   4737     1  0.0000000  0.4184000  4
   2230   2228   2227   2234     1  0.0000000  0.6508444  3
   2230   2231   4707   4709     1  180.0000771  6.2760000  1
   2230   2231   4707   4709     1  0.0000000  0.0000000  2
   2231   4707   4709   4711     1  0.0000000  2.2175200  1
   2231   4707   4709   4711     1  0.0000000  0.0000000  2
   2231   4707   4709   4711     1  180.0000771  0.6276000  3
   2231   4707   4709   4711     1  180.0000771  2.0920000  4
   2232   2229   2227   2234     1  0.0000000  0.6508444  3
   2232   2233   4737   4739     1  180.0000771  6.2760000  1
   2232   2233   4737   4739     1  0.0000000  0.0000000  2
   2233   4737   4739   4741     1  0.0000000  2.2175200  1
   2233   4737   4739   4741     1  0.0000000  0.0000000  2
   2233   4737   4739   4741     1  180.0000771  0.6276000  3
   2233   4737   4739   4741     1  180.0000771  2.0920000  4
   2237   2231   4707   4709     1  180.0000771  10.4600000  2
   2238   2233   4737   4739     1  180.0000771  10.4600000  2
   2253   2254   2256   2257     1  0.0000000  0.6508444  3
   2253   2255   2258   2259     1  0.0000000  0.6508444  3
   2253   2260   2261   2262     1  0.0000000  0.6508444  3
   2254   2253   2255   2258     1  0.0000000  0.6508444  3
   2254   2253   2260   2261     1  0.0000000  0.6508444  3
   2254   2256   2257   4767     1  0.0000000  0.2928800  2
   2254   2256   2257   4767     1  0.0000000  0.4184000  4
   2254   2256   2257   2263     1  180.0000771  0.0000000  2
   2255   2253   2254   2256     1  0.0000000  0.6508444  3
   2255   2253   2260   2261     1  0.0000000  0.6508444  3
   2255   2258   2259   2264     1  180.0000771  0.0000000  2
   2255   2258   2259   4797     1  0.0000000  0.2928800  2
   2255   2258   2259   4797     1  0.0000000  0.4184000  4
   2256   2254   2253   2260     1  0.0000000  0.6508444  3
   2256   2257   4767   4769     1  180.0000771  6.2760000  1
   2256   2257   4767   4769     1  0.0000000  0.0000000  2
   2257   4767   4769   4771     1  0.0000000  2.2175200  1
   2257   4767   4769   4771     1  0.0000000  0.0000000  2
   2257   4767   4769   4771     1  180.0000771  0.6276000  3
   2257   4767   4769   4771     1  180.0000771  2.0920000  4
   2258   2255   2253   2260     1  0.0000000  0.6508444  3
   2258   2259   4797   4799     1  180.0000771  6.2760000  1
   2258   2259   4797   4799     1  0.0000000  0.0000000  2
   2259   4797   4799   4801     1  0.0000000  2.2175200  1
   2259   4797   4799   4801     1  0.0000000  0.0000000  2
   2259   4797   4799   4801     1  180.0000771  0.6276000  3
   2259   4797   4799   4801     1  180.0000771  2.0920000  4
   2263   2257   4767   4769     1  180.0000771  10.4600000  2
   2264   2259   4797   4799     1  180.0000771  10.4600000  2
   2279   2280   2282   2283     1  0.0000000  0.6508444  3
   2279   2281   2284   2285     1  0.0000000  0.6508444  3
   2279   2286   2287   2288     1  0.0000000  0.6508444  3
   2280   2279   2281   2284     1  0.0000000  0.6508444  3
   2280   2279   2286   2287     1  0.0000000  0.6508444  3
   2280   2282   2283   4827     1  0.0000000  0.2928800  2
   2280   2282   2283   4827     1  0.0000000  0.4184000  4
   2280   2282   2283   2289     1  180.0000771  0.0000000  2
   2281   2279   2280   2282     1  0.0000000  0.6508444  3
   2281   2279   2286   2287     1  0.0000000  0.6508444  3
   2281   2284   2285   2290     1  180.0000771  0.0000000  2
   2281   2284   2285   4857     1  0.0000000  0.2928800  2
   2281   2284   2285   4857     1  0.0000000  0.4184000  4
   2282   2280   2279   2286     1  0.0000000  0.6508444  3
   2282   2283   4827   4829     1  180.0000771  6.2760000  1
   2282   2283   4827   4829     1  0.0000000  0.0000000  2
   2283   4827   4829   4831     1  0.0000000  2.2175200  1
   2283   4827   4829   4831     1  0.0000000  0.0000000  2
   2283   4827   4829   4831     1  180.0000771  0.6276000  3
   2283   4827   4829   4831     1  180.0000771  2.0920000  4
   2284   2281   2279   2286     1  0.0000000  0.6508444  3
   2284   2285   4857   4859     1  180.0000771  6.2760000  1
   2284   2285   4857   4859     1  0.0000000  0.0000000  2
   2285   4857   4859   4861     1  0.0000000  2.2175200  1
   2285   4857   4859   4861     1  0.0000000  0.0000000  2
   2285   4857   4859   4861     1  180.0000771  0.6276000  3
   2285   4857   4859   4861     1  180.0000771  2.0920000  4
   2289   2283   4827   4829     1  180.0000771  10.4600000  2
   2290   2285   4857   4859     1  180.0000771  10.4600000  2
   2305   2306   2308   2309     1  0.0000000  0.6508444  3
   2305   2307   2310   2311     1  0.0000000  0.6508444  3
   2305   2312   2313   2314     1  0.0000000  0.6508444  3
   2306   2305   2307   2310     1  0.0000000  0.6508444  3
   2306   2305   2312   2313     1  0.0000000  0.6508444  3
   2306   2308   2309   4887     1  0.0000000  0.2928800  2
   2306   2308   2309   4887     1  0.0000000  0.4184000  4
   2306   2308   2309   2315     1  180.0000771  0.0000000  2
   2307   2305   2306   2308     1  0.0000000  0.6508444  3
   2307   2305   2312   2313     1  0.0000000  0.6508444  3
   2307   2310   2311   2316     1  180.0000771  0.0000000  2
   2307   2310   2311   4917     1  0.0000000  0.2928800  2
   2307   2310   2311   4917     1  0.0000000  0.4184000  4
   2308   2306   2305   2312     1  0.0000000  0.6508444  3
   2308   2309   4887   4889     1  180.0000771  6.2760000  1
   2308   2309   4887   4889     1  0.0000000  0.0000000  2
   2309   4887   4889   4891     1  0.0000000  2.2175200  1
   2309   4887   4889   4891     1  0.0000000  0.0000000  2
   2309   4887   4889   4891     1  180.0000771  0.6276000  3
   2309   4887   4889   4891     1  180.0000771  2.0920000  4
   2310   2307   2305   2312     1  0.0000000  0.6508444  3
   2310   2311   4917   4919     1  180.0000771  6.2760000  1
   2310   2311   4917   4919     1  0.0000000  0.0000000  2
   2311   4917   4919   4921     1  0.0000000  2.2175200  1
   2311   4917   4919   4921     1  0.0000000  0.0000000  2
   2311   4917   4919   4921     1  180.0000771  0.6276000  3
   2311   4917   4919   4921     1  180.0000771  2.0920000  4
   2315   2309   4887   4889     1  180.0000771  10.4600000  2
   2316   2311   4917   4919     1  180.0000771  10.4600000  2
   2331   2332   2334   2335     1  0.0000000  0.6508444  3
   2331   2333   2336   2337     1  0.0000000  0.6508444  3
   2331   2338   2339   2340     1  0.0000000  0.6508444  3
   2332   2331   2333   2336     1  0.0000000  0.6508444  3
   2332   2331   2338   2339     1  0.0000000  0.6508444  3
   2332   2334   2335   4947     1  0.0000000  0.2928800  2
   2332   2334   2335   4947     1  0.0000000  0.4184000  4
   2332   2334   2335   2341     1  180.0000771  0.0000000  2
   2333   2331   2332   2334     1  0.0000000  0.6508444  3
   2333   2331   2338   2339     1  0.0000000  0.6508444  3
   2333   2336   2337   2342     1  180.0000771  0.0000000  2
   2333   2336   2337   4977     1  0.0000000  0.2928800  2
   2333   2336   2337   4977     1  0.0000000  0.4184000  4
   2334   2332   2331   2338     1  0.0000000  0.6508444  3
   2334   2335   4947   4949     1  180.0000771  6.2760000  1
   2334   2335   4947   4949     1  0.0000000  0.0000000  2
   2335   4947   4949   4951     1  0.0000000  2.2175200  1
   2335   4947   4949   4951     1  0.0000000  0.0000000  2
   2335   4947   4949   4951     1  180.0000771  0.6276000  3
   2335   4947   4949   4951     1  180.0000771  2.0920000  4
   2336   2333   2331   2338     1  0.0000000  0.6508444  3
   2336   2337   4977   4979     1  180.0000771  6.2760000  1
   2336   2337   4977   4979     1  0.0000000  0.0000000  2
   2337   4977   4979   4981     1  0.0000000  2.2175200  1
   2337   4977   4979   4981     1  0.0000000  0.0000000  2
   2337   4977   4979   4981     1  180.0000771  0.6276000  3
   2337   4977   4979   4981     1  180.0000771  2.0920000  4
   2341   2335   4947   4949     1  180.0000771  10.4600000  2
   2342   2337   4977   4979     1  180.0000771  10.4600000  2
   2357   2358   2360   2361     1  0.0000000  0.6508444  3
   2357   2359   2362   2363     1  0.0000000  0.6508444  3
   2357   2364   2365   2366     1  0.0000000  0.6508444  3
   2358   2357   2359   2362     1  0.0000000  0.6508444  3
   2358   2357   2364   2365     1  0.0000000  0.6508444  3
   2358   2360   2361   5007     1  0.0000000  0.2928800  2
   2358   2360   2361   5007     1  0.0000000  0.4184000  4
   2358   2360   2361   2367     1  180.0000771  0.0000000  2
   2359   2357   2358   2360     1  0.0000000  0.6508444  3
   2359   2357   2364   2365     1  0.0000000  0.6508444  3
   2359   2362   2363   2368     1  180.0000771  0.0000000  2
   2359   2362   2363   5037     1  0.0000000  0.2928800  2
   2359   2362   2363   5037     1  0.0000000  0.4184000  4
   2360   2358   2357   2364     1  0.0000000  0.6508444  3
   2360   2361   5007   5009     1  180.0000771  6.2760000  1
   2360   2361   5007   5009     1  0.0000000  0.0000000  2
   2361   5007   5009   5011     1  0.0000000  2.2175200  1
   2361   5007   5009   5011     1  0.0000000  0.0000000  2
   2361   5007   5009   5011     1  180.0000771  0.6276000  3
   2361   5007   5009   5011     1  180.0000771  2.0920000  4
   2362   2359   2357   2364     1  0.0000000  0.6508444  3
   2362   2363   5037   5039     1  180.0000771  6.2760000  1
   2362   2363   5037   5039     1  0.0000000  0.0000000  2
   2363   5037   5039   5041     1  0.0000000  2.2175200  1
   2363   5037   5039   5041     1  0.0000000  0.0000000  2
   2363   5037   5039   5041     1  180.0000771  0.6276000  3
   2363   5037   5039   5041     1  180.0000771  2.0920000  4
   2367   2361   5007   5009     1  180.0000771  10.4600000  2
   2368   2363   5037   5039     1  180.0000771  10.4600000  2
   2383   2384   2386   2387     1  0.0000000  0.6508444  3
   2383   2385   2388   2389     1  0.0000000  0.6508444  3
   2383   2390   2391   2392     1  0.0000000  0.6508444  3
   2384   2383   2385   2388     1  0.0000000  0.6508444  3
   2384   2383   2390   2391     1  0.0000000  0.6508444  3
   2384   2386   2387   5067     1  0.0000000  0.2928800  2
   2384   2386   2387   5067     1  0.0000000  0.4184000  4
   2384   2386   2387   2393     1  180.0000771  0.0000000  2
   2385   2383   2384   2386     1  0.0000000  0.6508444  3
   2385   2383   2390   2391     1  0.0000000  0.6508444  3
   2385   2388   2389   2394     1  180.0000771  0.0000000  2
   2385   2388   2389   5097     1  0.0000000  0.2928800  2
   2385   2388   2389   5097     1  0.0000000  0.4184000  4
   2386   2384   2383   2390     1  0.0000000  0.6508444  3
   2386   2387   5067   5069     1  180.0000771  6.2760000  1
   2386   2387   5067   5069     1  0.0000000  0.0000000  2
   2387   5067   5069   5071     1  0.0000000  2.2175200  1
   2387   5067   5069   5071     1  0.0000000  0.0000000  2
   2387   5067   5069   5071     1  180.0000771  0.6276000  3
   2387   5067   5069   5071     1  180.0000771  2.0920000  4
   2388   2385   2383   2390     1  0.0000000  0.6508444  3
   2388   2389   5097   5099     1  180.0000771  6.2760000  1
   2388   2389   5097   5099     1  0.0000000  0.0000000  2
   2389   5097   5099   5101     1  0.0000000  2.2175200  1
   2389   5097   5099   5101     1  0.0000000  0.0000000  2
   2389   5097   5099   5101     1  180.0000771  0.6276000  3
   2389   5097   5099   5101     1  180.0000771  2.0920000  4
   2393   2387   5067   5069     1  180.0000771  10.4600000  2
   2394   2389   5097   5099     1  180.0000771  10.4600000  2
   2409   2410   2412   2413     1  0.0000000  0.6508444  3
   2409   2411   2414   2415     1  0.0000000  0.6508444  3
   2409   2416   2417   2418     1  0.0000000  0.6508444  3
   2410   2409   2411   2414     1  0.0000000  0.6508444  3
   2410   2409   2416   2417     1  0.0000000  0.6508444  3
   2410   2412   2413   5127     1  0.0000000  0.2928800  2
   2410   2412   2413   5127     1  0.0000000  0.4184000  4
   2410   2412   2413   2419     1  180.0000771  0.0000000  2
   2411   2409   2410   2412     1  0.0000000  0.6508444  3
   2411   2409   2416   2417     1  0.0000000  0.6508444  3
   2411   2414   2415   2420     1  180.0000771  0.0000000  2
   2411   2414   2415   5157     1  0.0000000  0.2928800  2
   2411   2414   2415   5157     1  0.0000000  0.4184000  4
   2412   2410   2409   2416     1  0.0000000  0.6508444  3
   2412   2413   5127   5129     1  180.0000771  6.2760000  1
   2412   2413   5127   5129     1  0.0000000  0.0000000  2
   2413   5127   5129   5131     1  0.0000000  2.2175200  1
   2413   5127   5129   5131     1  0.0000000  0.0000000  2
   2413   5127   5129   5131     1  180.0000771  0.6276000  3
   2413   5127   5129   5131     1  180.0000771  2.0920000  4
   2414   2411   2409   2416     1  0.0000000  0.6508444  3
   2414   2415   5157   5159     1  180.0000771  6.2760000  1
   2414   2415   5157   5159     1  0.0000000  0.0000000  2
   2415   5157   5159   5161     1  0.0000000  2.2175200  1
   2415   5157   5159   5161     1  0.0000000  0.0000000  2
   2415   5157   5159   5161     1  180.0000771  0.6276000  3
   2415   5157   5159   5161     1  180.0000771  2.0920000  4
   2419   2413   5127   5129     1  180.0000771  10.4600000  2
   2420   2415   5157   5159     1  180.0000771  10.4600000  2
   2435   2436   2438   2439     1  0.0000000  0.6508444  3
   2435   2437   2440   2441     1  0.0000000  0.6508444  3
   2435   2442   2443   2444     1  0.0000000  0.6508444  3
   2436   2435   2437   2440     1  0.0000000  0.6508444  3
   2436   2435   2442   2443     1  0.0000000  0.6508444  3
   2436   2438   2439   5187     1  0.0000000  0.2928800  2
   2436   2438   2439   5187     1  0.0000000  0.4184000  4
   2436   2438   2439   2445     1  180.0000771  0.0000000  2
   2437   2435   2436   2438     1  0.0000000  0.6508444  3
   2437   2435   2442   2443     1  0.0000000  0.6508444  3
   2437   2440   2441   2446     1  180.0000771  0.0000000  2
   2437   2440   2441   5217     1  0.0000000  0.2928800  2
   2437   2440   2441   5217     1  0.0000000  0.4184000  4
   2438   2436   2435   2442     1  0.0000000  0.6508444  3
   2438   2439   5187   5189     1  180.0000771  6.2760000  1
   2438   2439   5187   5189     1  0.0000000  0.0000000  2
   2439   5187   5189   5191     1  0.0000000  2.2175200  1
   2439   5187   5189   5191     1  0.0000000  0.0000000  2
   2439   5187   5189   5191     1  180.0000771  0.6276000  3
   2439   5187   5189   5191     1  180.0000771  2.0920000  4
   2440   2437   2435   2442     1  0.0000000  0.6508444  3
   2440   2441   5217   5219     1  180.0000771  6.2760000  1
   2440   2441   5217   5219     1  0.0000000  0.0000000  2
   2441   5217   5219   5221     1  0.0000000  2.2175200  1
   2441   5217   5219   5221     1  0.0000000  0.0000000  2
   2441   5217   5219   5221     1  180.0000771  0.6276000  3
   2441   5217   5219   5221     1  180.0000771  2.0920000  4
   2445   2439   5187   5189     1  180.0000771  10.4600000  2
   2446   2441   5217   5219     1  180.0000771  10.4600000  2
   2461   2462   2464   2465     1  0.0000000  0.6508444  3
   2461   2463   2466   2467     1  0.0000000  0.6508444  3
   2461   2468   2469   2470     1  0.0000000  0.6508444  3
   2462   2461   2463   2466     1  0.0000000  0.6508444  3
   2462   2461   2468   2469     1  0.0000000  0.6508444  3
   2462   2464   2465   5247     1  0.0000000  0.2928800  2
   2462   2464   2465   5247     1  0.0000000  0.4184000  4
   2462   2464   2465   2471     1  180.0000771  0.0000000  2
   2463   2461   2462   2464     1  0.0000000  0.6508444  3
   2463   2461   2468   2469     1  0.0000000  0.6508444  3
   2463   2466   2467   2472     1  180.0000771  0.0000000  2
   2463   2466   2467   5277     1  0.0000000  0.2928800  2
   2463   2466   2467   5277     1  0.0000000  0.4184000  4
   2464   2462   2461   2468     1  0.0000000  0.6508444  3
   2464   2465   5247   5249     1  180.0000771  6.2760000  1
   2464   2465   5247   5249     1  0.0000000  0.0000000  2
   2465   5247   5249   5251     1  0.0000000  2.2175200  1
   2465   5247   5249   5251     1  0.0000000  0.0000000  2
   2465   5247   5249   5251     1  180.0000771  0.6276000  3
   2465   5247   5249   5251     1  180.0000771  2.0920000  4
   2466   2463   2461   2468     1  0.0000000  0.6508444  3
   2466   2467   5277   5279     1  180.0000771  6.2760000  1
   2466   2467   5277   5279     1  0.0000000  0.0000000  2
   2467   5277   5279   5281     1  0.0000000  2.2175200  1
   2467   5277   5279   5281     1  0.0000000  0.0000000  2
   2467   5277   5279   5281     1  180.0000771  0.6276000  3
   2467   5277   5279   5281     1  180.0000771  2.0920000  4
   2471   2465   5247   5249     1  180.0000771  10.4600000  2
   2472   2467   5277   5279     1  180.0000771  10.4600000  2
   2487   2488   2490   2491     1  0.0000000  0.6508444  3
   2487   2489   2492   2493     1  0.0000000  0.6508444  3
   2487   2494   2495   2496     1  0.0000000  0.6508444  3
   2488   2487   2489   2492     1  0.0000000  0.6508444  3
   2488   2487   2494   2495     1  0.0000000  0.6508444  3
   2488   2490   2491   5307     1  0.0000000  0.2928800  2
   2488   2490   2491   5307     1  0.0000000  0.4184000  4
   2488   2490   2491   2497     1  180.0000771  0.0000000  2
   2489   2487   2488   2490     1  0.0000000  0.6508444  3
   2489   2487   2494   2495     1  0.0000000  0.6508444  3
   2489   2492   2493   2498     1  180.0000771  0.0000000  2
   2489   2492   2493   5337     1  0.0000000  0.2928800  2
   2489   2492   2493   5337     1  0.0000000  0.4184000  4
   2490   2488   2487   2494     1  0.0000000  0.6508444  3
   2490   2491   5307   5309     1  180.0000771  6.2760000  1
   2490   2491   5307   5309     1  0.0000000  0.0000000  2
   2491   5307   5309   5311     1  0.0000000  2.2175200  1
   2491   5307   5309   5311     1  0.0000000  0.0000000  2
   2491   5307   5309   5311     1  180.0000771  0.6276000  3
   2491   5307   5309   5311     1  180.0000771  2.0920000  4
   2492   2489   2487   2494     1  0.0000000  0.6508444  3
   2492   2493   5337   5339     1  180.0000771  6.2760000  1
   2492   2493   5337   5339     1  0.0000000  0.0000000  2
   2493   5337   5339   5341     1  0.0000000  2.2175200  1
   2493   5337   5339   5341     1  0.0000000  0.0000000  2
   2493   5337   5339   5341     1  180.0000771  0.6276000  3
   2493   5337   5339   5341     1  180.0000771  2.0920000  4
   2497   2491   5307   5309     1  180.0000771  10.4600000  2
   2498   2493   5337   5339     1  180.0000771  10.4600000  2
   2513   2514   2516   2517     1  0.0000000  0.6508444  3
   2513   2515   2518   2519     1  0.0000000  0.6508444  3
   2513   2520   2521   2522     1  0.0000000  0.6508444  3
   2514   2513   2515   2518     1  0.0000000  0.6508444  3
   2514   2513   2520   2521     1  0.0000000  0.6508444  3
   2514   2516   2517   5367     1  0.0000000  0.2928800  2
   2514   2516   2517   5367     1  0.0000000  0.4184000  4
   2514   2516   2517   2523     1  180.0000771  0.0000000  2
   2515   2513   2514   2516     1  0.0000000  0.6508444  3
   2515   2513   2520   2521     1  0.0000000  0.6508444  3
   2515   2518   2519   2524     1  180.0000771  0.0000000  2
   2515   2518   2519   5397     1  0.0000000  0.2928800  2
   2515   2518   2519   5397     1  0.0000000  0.4184000  4
   2516   2514   2513   2520     1  0.0000000  0.6508444  3
   2516   2517   5367   5369     1  180.0000771  6.2760000  1
   2516   2517   5367   5369     1  0.0000000  0.0000000  2
   2517   5367   5369   5371     1  0.0000000  2.2175200  1
   2517   5367   5369   5371     1  0.0000000  0.0000000  2
   2517   5367   5369   5371     1  180.0000771  0.6276000  3
   2517   5367   5369   5371     1  180.0000771  2.0920000  4
   2518   2515   2513   2520     1  0.0000000  0.6508444  3
   2518   2519   5397   5399     1  180.0000771  6.2760000  1
   2518   2519   5397   5399     1  0.0000000  0.0000000  2
   2519   5397   5399   5401     1  0.0000000  2.2175200  1
   2519   5397   5399   5401     1  0.0000000  0.0000000  2
   2519   5397   5399   5401     1  180.0000771  0.6276000  3
   2519   5397   5399   5401     1  180.0000771  2.0920000  4
   2523   2517   5367   5369     1  180.0000771  10.4600000  2
   2524   2519   5397   5399     1  180.0000771  10.4600000  2
   2539   2540   2542   2543     1  0.0000000  0.6508444  3
   2539   2541   2544   2545     1  0.0000000  0.6508444  3
   2539   2546   2547   2548     1  0.0000000  0.6508444  3
   2540   2539   2541   2544     1  0.0000000  0.6508444  3
   2540   2539   2546   2547     1  0.0000000  0.6508444  3
   2540   2542   2543   5427     1  0.0000000  0.2928800  2
   2540   2542   2543   5427     1  0.0000000  0.4184000  4
   2540   2542   2543   2549     1  180.0000771  0.0000000  2
   2541   2539   2540   2542     1  0.0000000  0.6508444  3
   2541   2539   2546   2547     1  0.0000000  0.6508444  3
   2541   2544   2545   2550     1  180.0000771  0.0000000  2
   2541   2544   2545   5457     1  0.0000000  0.2928800  2
   2541   2544   2545   5457     1  0.0000000  0.4184000  4
   2542   2540   2539   2546     1  0.0000000  0.6508444  3
   2542   2543   5427   5429     1  180.0000771  6.2760000  1
   2542   2543   5427   5429     1  0.0000000  0.0000000  2
   2543   5427   5429   5431     1  0.0000000  2.2175200  1
   2543   5427   5429   5431     1  0.0000000  0.0000000  2
   2543   5427   5429   5431     1  180.0000771  0.6276000  3
   2543   5427   5429   5431     1  180.0000771  2.0920000  4
   2544   2541   2539   2546     1  0.0000000  0.6508444  3
   2544   2545   5457   5459     1  180.0000771  6.2760000  1
   2544   2545   5457   5459     1  0.0000000  0.0000000  2
   2545   5457   5459   5461     1  0.0000000  2.2175200  1
   2545   5457   5459   5461     1  0.0000000  0.0000000  2
   2545   5457   5459   5461     1  180.0000771  0.6276000  3
   2545   5457   5459   5461     1  180.0000771  2.0920000  4
   2549   2543   5427   5429     1  180.0000771  10.4600000  2
   2550   2545   5457   5459     1  180.0000771  10.4600000  2
   2565   2566   2568   2569     1  0.0000000  0.6508444  3
   2565   2567   2570   2571     1  0.0000000  0.6508444  3
   2565   2572   2573   2574     1  0.0000000  0.6508444  3
   2566   2565   2567   2570     1  0.0000000  0.6508444  3
   2566   2565   2572   2573     1  0.0000000  0.6508444  3
   2566   2568   2569   5487     1  0.0000000  0.2928800  2
   2566   2568   2569   5487     1  0.0000000  0.4184000  4
   2566   2568   2569   2575     1  180.0000771  0.0000000  2
   2567   2565   2566   2568     1  0.0000000  0.6508444  3
   2567   2565   2572   2573     1  0.0000000  0.6508444  3
   2567   2570   2571   2576     1  180.0000771  0.0000000  2
   2567   2570   2571   5517     1  0.0000000  0.2928800  2
   2567   2570   2571   5517     1  0.0000000  0.4184000  4
   2568   2566   2565   2572     1  0.0000000  0.6508444  3
   2568   2569   5487   5489     1  180.0000771  6.2760000  1
   2568   2569   5487   5489     1  0.0000000  0.0000000  2
   2569   5487   5489   5491     1  0.0000000  2.2175200  1
   2569   5487   5489   5491     1  0.0000000  0.0000000  2
   2569   5487   5489   5491     1  180.0000771  0.6276000  3
   2569   5487   5489   5491     1  180.0000771  2.0920000  4
   2570   2567   2565   2572     1  0.0000000  0.6508444  3
   2570   2571   5517   5519     1  180.0000771  6.2760000  1
   2570   2571   5517   5519     1  0.0000000  0.0000000  2
   2571   5517   5519   5521     1  0.0000000  2.2175200  1
   2571   5517   5519   5521     1  0.0000000  0.0000000  2
   2571   5517   5519   5521     1  180.0000771  0.6276000  3
   2571   5517   5519   5521     1  180.0000771  2.0920000  4
   2575   2569   5487   5489     1  180.0000771  10.4600000  2
   2576   2571   5517   5519     1  180.0000771  10.4600000  2
   2591   2592   2594   2595     1  0.0000000  0.6508444  3
   2591   2593   2596   2597     1  0.0000000  0.6508444  3
   2591   2598   2599   2600     1  0.0000000  0.6508444  3
   2592   2591   2593   2596     1  0.0000000  0.6508444  3
   2592   2591   2598   2599     1  0.0000000  0.6508444  3
   2592   2594   2595   5547     1  0.0000000  0.2928800  2
   2592   2594   2595   5547     1  0.0000000  0.4184000  4
   2592   2594   2595   2601     1  180.0000771  0.0000000  2
   2593   2591   2592   2594     1  0.0000000  0.6508444  3
   2593   2591   2598   2599     1  0.0000000  0.6508444  3
   2593   2596   2597   2602     1  180.0000771  0.0000000  2
   2593   2596   2597   5577     1  0.0000000  0.2928800  2
   2593   2596   2597   5577     1  0.0000000  0.4184000  4
   2594   2592   2591   2598     1  0.0000000  0.6508444  3
   2594   2595   5547   5549     1  180.0000771  6.2760000  1
   2594   2595   5547   5549     1  0.0000000  0.0000000  2
   2595   5547   5549   5551     1  0.0000000  2.2175200  1
   2595   5547   5549   5551     1  0.0000000  0.0000000  2
   2595   5547   5549   5551     1  180.0000771  0.6276000  3
   2595   5547   5549   5551     1  180.0000771  2.0920000  4
   2596   2593   2591   2598     1  0.0000000  0.6508444  3
   2596   2597   5577   5579     1  180.0000771  6.2760000  1
   2596   2597   5577   5579     1  0.0000000  0.0000000  2
   2597   5577   5579   5581     1  0.0000000  2.2175200  1
   2597   5577   5579   5581     1  0.0000000  0.0000000  2
   2597   5577   5579   5581     1  180.0000771  0.6276000  3
   2597   5577   5579   5581     1  180.0000771  2.0920000  4
   2601   2595   5547   5549     1  180.0000771  10.4600000  2
   2602   2597   5577   5579     1  180.0000771  10.4600000  2
   2617   2618   2620   2621     1  0.0000000  0.6508444  3
   2617   2619   2622   2623     1  0.0000000  0.6508444  3
   2617   2624   2625   2626     1  0.0000000  0.6508444  3
   2618   2617   2619   2622     1  0.0000000  0.6508444  3
   2618   2617   2624   2625     1  0.0000000  0.6508444  3
   2618   2620   2621   5607     1  0.0000000  0.2928800  2
   2618   2620   2621   5607     1  0.0000000  0.4184000  4
   2618   2620   2621   2627     1  180.0000771  0.0000000  2
   2619   2617   2618   2620     1  0.0000000  0.6508444  3
   2619   2617   2624   2625     1  0.0000000  0.6508444  3
   2619   2622   2623   2628     1  180.0000771  0.0000000  2
   2619   2622   2623   5637     1  0.0000000  0.2928800  2
   2619   2622   2623   5637     1  0.0000000  0.4184000  4
   2620   2618   2617   2624     1  0.0000000  0.6508444  3
   2620   2621   5607   5609     1  180.0000771  6.2760000  1
   2620   2621   5607   5609     1  0.0000000  0.0000000  2
   2621   5607   5609   5611     1  0.0000000  2.2175200  1
   2621   5607   5609   5611     1  0.0000000  0.0000000  2
   2621   5607   5609   5611     1  180.0000771  0.6276000  3
   2621   5607   5609   5611     1  180.0000771  2.0920000  4
   2622   2619   2617   2624     1  0.0000000  0.6508444  3
   2622   2623   5637   5639     1  180.0000771  6.2760000  1
   2622   2623   5637   5639     1  0.0000000  0.0000000  2
   2623   5637   5639   5641     1  0.0000000  2.2175200  1
   2623   5637   5639   5641     1  0.0000000  0.0000000  2
   2623   5637   5639   5641     1  180.0000771  0.6276000  3
   2623   5637   5639   5641     1  180.0000771  2.0920000  4
   2627   2621   5607   5609     1  180.0000771  10.4600000  2
   2628   2623   5637   5639     1  180.0000771  10.4600000  2
   2643   2644   2646   2647     1  0.0000000  0.6508444  3
   2643   2645   2648   2649     1  0.0000000  0.6508444  3
   2643   2650   2651   2652     1  0.0000000  0.6508444  3
   2644   2643   2645   2648     1  0.0000000  0.6508444  3
   2644   2643   2650   2651     1  0.0000000  0.6508444  3
   2644   2646   2647   5667     1  0.0000000  0.2928800  2
   2644   2646   2647   5667     1  0.0000000  0.4184000  4
   2644   2646   2647   2653     1  180.0000771  0.0000000  2
   2645   2643   2644   2646     1  0.0000000  0.6508444  3
   2645   2643   2650   2651     1  0.0000000  0.6508444  3
   2645   2648   2649   2654     1  180.0000771  0.0000000  2
   2645   2648   2649   5697     1  0.0000000  0.2928800  2
   2645   2648   2649   5697     1  0.0000000  0.4184000  4
   2646   2644   2643   2650     1  0.0000000  0.6508444  3
   2646   2647   5667   5669     1  180.0000771  6.2760000  1
   2646   2647   5667   5669     1  0.0000000  0.0000000  2
   2647   5667   5669   5671     1  0.0000000  2.2175200  1
   2647   5667   5669   5671     1  0.0000000  0.0000000  2
   2647   5667   5669   5671     1  180.0000771  0.6276000  3
   2647   5667   5669   5671     1  180.0000771  2.0920000  4
   2648   2645   2643   2650     1  0.0000000  0.6508444  3
   2648   2649   5697   5699     1  180.0000771  6.2760000  1
   2648   2649   5697   5699     1  0.0000000  0.0000000  2
   2649   5697   5699   5701     1  0.0000000  2.2175200  1
   2649   5697   5699   5701     1  0.0000000  0.0000000  2
   2649   5697   5699   5701     1  180.0000771  0.6276000  3
   2649   5697   5699   5701     1  180.0000771  2.0920000  4
   2653   2647   5667   5669     1  180.0000771  10.4600000  2
   2654   2649   5697   5699     1  180.0000771  10.4600000  2
   2669   2670   2672   2673     1  0.0000000  0.6508444  3
   2669   2671   2674   2675     1  0.0000000  0.6508444  3
   2669   2676   2677   2678     1  0.0000000  0.6508444  3
   2670   2669   2671   2674     1  0.0000000  0.6508444  3
   2670   2669   2676   2677     1  0.0000000  0.6508444  3
   2670   2672   2673   5727     1  0.0000000  0.2928800  2
   2670   2672   2673   5727     1  0.0000000  0.4184000  4
   2670   2672   2673   2679     1  180.0000771  0.0000000  2
   2671   2669   2670   2672     1  0.0000000  0.6508444  3
   2671   2669   2676   2677     1  0.0000000  0.6508444  3
   2671   2674   2675   2680     1  180.0000771  0.0000000  2
   2671   2674   2675   5757     1  0.0000000  0.2928800  2
   2671   2674   2675   5757     1  0.0000000  0.4184000  4
   2672   2670   2669   2676     1  0.0000000  0.6508444  3
   2672   2673   5727   5729     1  180.0000771  6.2760000  1
   2672   2673   5727   5729     1  0.0000000  0.0000000  2
   2673   5727   5729   5731     1  0.0000000  2.2175200  1
   2673   5727   5729   5731     1  0.0000000  0.0000000  2
   2673   5727   5729   5731     1  180.0000771  0.6276000  3
   2673   5727   5729   5731     1  180.0000771  2.0920000  4
   2674   2671   2669   2676     1  0.0000000  0.6508444  3
   2674   2675   5757   5759     1  180.0000771  6.2760000  1
   2674   2675   5757   5759     1  0.0000000  0.0000000  2
   2675   5757   5759   5761     1  0.0000000  2.2175200  1
   2675   5757   5759   5761     1  0.0000000  0.0000000  2
   2675   5757   5759   5761     1  180.0000771  0.6276000  3
   2675   5757   5759   5761     1  180.0000771  2.0920000  4
   2679   2673   5727   5729     1  180.0000771  10.4600000  2
   2680   2675   5757   5759     1  180.0000771  10.4600000  2
   2695   2696   2698   2699     1  0.0000000  0.6508444  3
   2695   2697   2700   2701     1  0.0000000  0.6508444  3
   2695   2702   2703   2704     1  0.0000000  0.6508444  3
   2696   2695   2697   2700     1  0.0000000  0.6508444  3
   2696   2695   2702   2703     1  0.0000000  0.6508444  3
   2696   2698   2699   5787     1  0.0000000  0.2928800  2
   2696   2698   2699   5787     1  0.0000000  0.4184000  4
   2696   2698   2699   2705     1  180.0000771  0.0000000  2
   2697   2695   2696   2698     1  0.0000000  0.6508444  3
   2697   2695   2702   2703     1  0.0000000  0.6508444  3
   2697   2700   2701   2706     1  180.0000771  0.0000000  2
   2697   2700   2701   5817     1  0.0000000  0.2928800  2
   2697   2700   2701   5817     1  0.0000000  0.4184000  4
   2698   2696   2695   2702     1  0.0000000  0.6508444  3
   2698   2699   5787   5789     1  180.0000771  6.2760000  1
   2698   2699   5787   5789     1  0.0000000  0.0000000  2
   2699   5787   5789   5791     1  0.0000000  2.2175200  1
   2699   5787   5789   5791     1  0.0000000  0.0000000  2
   2699   5787   5789   5791     1  180.0000771  0.6276000  3
   2699   5787   5789   5791     1  180.0000771  2.0920000  4
   2700   2697   2695   2702     1  0.0000000  0.6508444  3
   2700   2701   5817   5819     1  180.0000771  6.2760000  1
   2700   2701   5817   5819     1  0.0000000  0.0000000  2
   2701   5817   5819   5821     1  0.0000000  2.2175200  1
   2701   5817   5819   5821     1  0.0000000  0.0000000  2
   2701   5817   5819   5821     1  180.0000771  0.6276000  3
   2701   5817   5819   5821     1  180.0000771  2.0920000  4
   2705   2699   5787   5789     1  180.0000771  10.4600000  2
   2706   2701   5817   5819     1  180.0000771  10.4600000  2
   2721   2722   2724   2725     1  0.0000000  0.6508444  3
   2721   2723   2726   2727     1  0.0000000  0.6508444  3
   2721   2728   2729   2730     1  0.0000000  0.6508444  3
   2722   2721   2723   2726     1  0.0000000  0.6508444  3
   2722   2721   2728   2729     1  0.0000000  0.6508444  3
   2722   2724   2725   5847     1  0.0000000  0.2928800  2
   2722   2724   2725   5847     1  0.0000000  0.4184000  4
   2722   2724   2725   2731     1  180.0000771  0.0000000  2
   2723   2721   2722   2724     1  0.0000000  0.6508444  3
   2723   2721   2728   2729     1  0.0000000  0.6508444  3
   2723   2726   2727   2732     1  180.0000771  0.0000000  2
   2723   2726   2727   5877     1  0.0000000  0.2928800  2
   2723   2726   2727   5877     1  0.0000000  0.4184000  4
   2724   2722   2721   2728     1  0.0000000  0.6508444  3
   2724   2725   5847   5849     1  180.0000771  6.2760000  1
   2724   2725   5847   5849     1  0.0000000  0.0000000  2
   2725   5847   5849   5851     1  0.0000000  2.2175200  1
   2725   5847   5849   5851     1  0.0000000  0.0000000  2
   2725   5847   5849   5851     1  180.0000771  0.6276000  3
   2725   5847   5849   5851     1  180.0000771  2.0920000  4
   2726   2723   2721   2728     1  0.0000000  0.6508444  3
   2726   2727   5877   5879     1  180.0000771  6.2760000  1
   2726   2727   5877   5879     1  0.0000000  0.0000000  2
   2727   5877   5879   5881     1  0.0000000  2.2175200  1
   2727   5877   5879   5881     1  0.0000000  0.0000000  2
   2727   5877   5879   5881     1  180.0000771  0.6276000  3
   2727   5877   5879   5881     1  180.0000771  2.0920000  4
   2731   2725   5847   5849     1  180.0000771  10.4600000  2
   2732   2727   5877   5879     1  180.0000771  10.4600000  2
   2747   2748   2750   2751     1  0.0000000  0.6508444  3
   2747   2749   2752   2753     1  0.0000000  0.6508444  3
   2747   2754   2755   2756     1  0.0000000  0.6508444  3
   2748   2747   2749   2752     1  0.0000000  0.6508444  3
   2748   2747   2754   2755     1  0.0000000  0.6508444  3
   2748   2750   2751   5907     1  0.0000000  0.2928800  2
   2748   2750   2751   5907     1  0.0000000  0.4184000  4
   2748   2750   2751   2757     1  180.0000771  0.0000000  2
   2749   2747   2748   2750     1  0.0000000  0.6508444  3
   2749   2747   2754   2755     1  0.0000000  0.6508444  3
   2749   2752   2753   2758     1  180.0000771  0.0000000  2
   2749   2752   2753   5937     1  0.0000000  0.2928800  2
   2749   2752   2753   5937     1  0.0000000  0.4184000  4
   2750   2748   2747   2754     1  0.0000000  0.6508444  3
   2750   2751   5907   5909     1  180.0000771  6.2760000  1
   2750   2751   5907   5909     1  0.0000000  0.0000000  2
   2751   5907   5909   5911     1  0.0000000  2.2175200  1
   2751   5907   5909   5911     1  0.0000000  0.0000000  2
   2751   5907   5909   5911     1  180.0000771  0.6276000  3
   2751   5907   5909   5911     1  180.0000771  2.0920000  4
   2752   2749   2747   2754     1  0.0000000  0.6508444  3
   2752   2753   5937   5939     1  180.0000771  6.2760000  1
   2752   2753   5937   5939     1  0.0000000  0.0000000  2
   2753   5937   5939   5941     1  0.0000000  2.2175200  1
   2753   5937   5939   5941     1  0.0000000  0.0000000  2
   2753   5937   5939   5941     1  180.0000771  0.6276000  3
   2753   5937   5939   5941     1  180.0000771  2.0920000  4
   2757   2751   5907   5909     1  180.0000771  10.4600000  2
   2758   2753   5937   5939     1  180.0000771  10.4600000  2
   2773   2774   2776   2777     1  0.0000000  0.6508444  3
   2773   2775   2778   2779     1  0.0000000  0.6508444  3
   2773   2780   2781   2782     1  0.0000000  0.6508444  3
   2774   2773   2775   2778     1  0.0000000  0.6508444  3
   2774   2773   2780   2781     1  0.0000000  0.6508444  3
   2774   2776   2777   5967     1  0.0000000  0.2928800  2
   2774   2776   2777   5967     1  0.0000000  0.4184000  4
   2774   2776   2777   2783     1  180.0000771  0.0000000  2
   2775   2773   2774   2776     1  0.0000000  0.6508444  3
   2775   2773   2780   2781     1  0.0000000  0.6508444  3
   2775   2778   2779   2784     1  180.0000771  0.0000000  2
   2775   2778   2779   5997     1  0.0000000  0.2928800  2
   2775   2778   2779   5997     1  0.0000000  0.4184000  4
   2776   2774   2773   2780     1  0.0000000  0.6508444  3
   2776   2777   5967   5969     1  180.0000771  6.2760000  1
   2776   2777   5967   5969     1  0.0000000  0.0000000  2
   2777   5967   5969   5971     1  0.0000000  2.2175200  1
   2777   5967   5969   5971     1  0.0000000  0.0000000  2
   2777   5967   5969   5971     1  180.0000771  0.6276000  3
   2777   5967   5969   5971     1  180.0000771  2.0920000  4
   2778   2775   2773   2780     1  0.0000000  0.6508444  3
   2778   2779   5997   5999     1  180.0000771  6.2760000  1
   2778   2779   5997   5999     1  0.0000000  0.0000000  2
   2779   5997   5999   6001     1  0.0000000  2.2175200  1
   2779   5997   5999   6001     1  0.0000000  0.0000000  2
   2779   5997   5999   6001     1  180.0000771  0.6276000  3
   2779   5997   5999   6001     1  180.0000771  2.0920000  4
   2783   2777   5967   5969     1  180.0000771  10.4600000  2
   2784   2779   5997   5999     1  180.0000771  10.4600000  2
   2799   2800   2802   2803     1  0.0000000  0.6508444  3
   2799   2801   2804   2805     1  0.0000000  0.6508444  3
   2799   2806   2807   2808     1  0.0000000  0.6508444  3
   2800   2799   2801   2804     1  0.0000000  0.6508444  3
   2800   2799   2806   2807     1  0.0000000  0.6508444  3
   2800   2802   2803   6027     1  0.0000000  0.2928800  2
   2800   2802   2803   6027     1  0.0000000  0.4184000  4
   2800   2802   2803   2809     1  180.0000771  0.0000000  2
   2801   2799   2800   2802     1  0.0000000  0.6508444  3
   2801   2799   2806   2807     1  0.0000000  0.6508444  3
   2801   2804   2805   2810     1  180.0000771  0.0000000  2
   2801   2804   2805   6057     1  0.0000000  0.2928800  2
   2801   2804   2805   6057     1  0.0000000  0.4184000  4
   2802   2800   2799   2806     1  0.0000000  0.6508444  3
   2802   2803   6027   6029     1  180.0000771  6.2760000  1
   2802   2803   6027   6029     1  0.0000000  0.0000000  2
   2803   6027   6029   6031     1  0.0000000  2.2175200  1
   2803   6027   6029   6031     1  0.0000000  0.0000000  2
   2803   6027   6029   6031     1  180.0000771  0.6276000  3
   2803   6027   6029   6031     1  180.0000771  2.0920000  4
   2804   2801   2799   2806     1  0.0000000  0.6508444  3
   2804   2805   6057   6059     1  180.0000771  6.2760000  1
   2804   2805   6057   6059     1  0.0000000  0.0000000  2
   2805   6057   6059   6061     1  0.0000000  2.2175200  1
   2805   6057   6059   6061     1  0.0000000  0.0000000  2
   2805   6057   6059   6061     1  180.0000771  0.6276000  3
   2805   6057   6059   6061     1  180.0000771  2.0920000  4
   2809   2803   6027   6029     1  180.0000771  10.4600000  2
   2810   2805   6057   6059     1  180.0000771  10.4600000  2
   2825   2826   2828   2829     1  0.0000000  0.6508444  3
   2825   2827   2830   2831     1  0.0000000  0.6508444  3
   2825   2832   2833   2834     1  0.0000000  0.6508444  3
   2826   2825   2827   2830     1  0.0000000  0.6508444  3
   2826   2825   2832   2833     1  0.0000000  0.6508444  3
   2826   2828   2829   6087     1  0.0000000  0.2928800  2
   2826   2828   2829   6087     1  0.0000000  0.4184000  4
   2826   2828   2829   2835     1  180.0000771  0.0000000  2
   2827   2825   2826   2828     1  0.0000000  0.6508444  3
   2827   2825   2832   2833     1  0.0000000  0.6508444  3
   2827   2830   2831   2836     1  180.0000771  0.0000000  2
   2827   2830   2831   6117     1  0.0000000  0.2928800  2
   2827   2830   2831   6117     1  0.0000000  0.4184000  4
   2828   2826   2825   2832     1  0.0000000  0.6508444  3
   2828   2829   6087   6089     1  180.0000771  6.2760000  1
   2828   2829   6087   6089     1  0.0000000  0.0000000  2
   2829   6087   6089   6091     1  0.0000000  2.2175200  1
   2829   6087   6089   6091     1  0.0000000  0.0000000  2
   2829   6087   6089   6091     1  180.0000771  0.6276000  3
   2829   6087   6089   6091     1  180.0000771  2.0920000  4
   2830   2827   2825   2832     1  0.0000000  0.6508444  3
   2830   2831   6117   6119     1  180.0000771  6.2760000  1
   2830   2831   6117   6119     1  0.0000000  0.0000000  2
   2831   6117   6119   6121     1  0.0000000  2.2175200  1
   2831   6117   6119   6121     1  0.0000000  0.0000000  2
   2831   6117   6119   6121     1  180.0000771  0.6276000  3
   2831   6117   6119   6121     1  180.0000771  2.0920000  4
   2835   2829   6087   6089     1  180.0000771  10.4600000  2
   2836   2831   6117   6119     1  180.0000771  10.4600000  2
   2851   2852   2854   2855     1  0.0000000  0.6508444  3
   2851   2853   2856   2857     1  0.0000000  0.6508444  3
   2851   2858   2859   2860     1  0.0000000  0.6508444  3
   2852   2851   2853   2856     1  0.0000000  0.6508444  3
   2852   2851   2858   2859     1  0.0000000  0.6508444  3
   2852   2854   2855   6147     1  0.0000000  0.2928800  2
   2852   2854   2855   6147     1  0.0000000  0.4184000  4
   2852   2854   2855   2861     1  180.0000771  0.0000000  2
   2853   2851   2852   2854     1  0.0000000  0.6508444  3
   2853   2851   2858   2859     1  0.0000000  0.6508444  3
   2853   2856   2857   2862     1  180.0000771  0.0000000  2
   2853   2856   2857   6177     1  0.0000000  0.2928800  2
   2853   2856   2857   6177     1  0.0000000  0.4184000  4
   2854   2852   2851   2858     1  0.0000000  0.6508444  3
   2854   2855   6147   6149     1  180.0000771  6.2760000  1
   2854   2855   6147   6149     1  0.0000000  0.0000000  2
   2855   6147   6149   6151     1  0.0000000  2.2175200  1
   2855   6147   6149   6151     1  0.0000000  0.0000000  2
   2855   6147   6149   6151     1  180.0000771  0.6276000  3
   2855   6147   6149   6151     1  180.0000771  2.0920000  4
   2856   2853   2851   2858     1  0.0000000  0.6508444  3
   2856   2857   6177   6179     1  180.0000771  6.2760000  1
   2856   2857   6177   6179     1  0.0000000  0.0000000  2
   2857   6177   6179   6181     1  0.0000000  2.2175200  1
   2857   6177   6179   6181     1  0.0000000  0.0000000  2
   2857   6177   6179   6181     1  180.0000771  0.6276000  3
   2857   6177   6179   6181     1  180.0000771  2.0920000  4
   2861   2855   6147   6149     1  180.0000771  10.4600000  2
   2862   2857   6177   6179     1  180.0000771  10.4600000  2
   2877   2878   2880   2881     1  0.0000000  0.6508444  3
   2877   2879   2882   2883     1  0.0000000  0.6508444  3
   2877   2884   2885   2886     1  0.0000000  0.6508444  3
   2878   2877   2879   2882     1  0.0000000  0.6508444  3
   2878   2877   2884   2885     1  0.0000000  0.6508444  3
   2878   2880   2881   6207     1  0.0000000  0.2928800  2
   2878   2880   2881   6207     1  0.0000000  0.4184000  4
   2878   2880   2881   2887     1  180.0000771  0.0000000  2
   2879   2877   2878   2880     1  0.0000000  0.6508444  3
   2879   2877   2884   2885     1  0.0000000  0.6508444  3
   2879   2882   2883   2888     1  180.0000771  0.0000000  2
   2879   2882   2883   6237     1  0.0000000  0.2928800  2
   2879   2882   2883   6237     1  0.0000000  0.4184000  4
   2880   2878   2877   2884     1  0.0000000  0.6508444  3
   2880   2881   6207   6209     1  180.0000771  6.2760000  1
   2880   2881   6207   6209     1  0.0000000  0.0000000  2
   2881   6207   6209   6211     1  0.0000000  2.2175200  1
   2881   6207   6209   6211     1  0.0000000  0.0000000  2
   2881   6207   6209   6211     1  180.0000771  0.6276000  3
   2881   6207   6209   6211     1  180.0000771  2.0920000  4
   2882   2879   2877   2884     1  0.0000000  0.6508444  3
   2882   2883   6237   6239     1  180.0000771  6.2760000  1
   2882   2883   6237   6239     1  0.0000000  0.0000000  2
   2883   6237   6239   6241     1  0.0000000  2.2175200  1
   2883   6237   6239   6241     1  0.0000000  0.0000000  2
   2883   6237   6239   6241     1  180.0000771  0.6276000  3
   2883   6237   6239   6241     1  180.0000771  2.0920000  4
   2887   2881   6207   6209     1  180.0000771  10.4600000  2
   2888   2883   6237   6239     1  180.0000771  10.4600000  2
   2903   2904   2906   2907     1  0.0000000  0.6508444  3
   2903   2905   2908   2909     1  0.0000000  0.6508444  3
   2903   2910   2911   2912     1  0.0000000  0.6508444  3
   2904   2903   2905   2908     1  0.0000000  0.6508444  3
   2904   2903   2910   2911     1  0.0000000  0.6508444  3
   2904   2906   2907   6267     1  0.0000000  0.2928800  2
   2904   2906   2907   6267     1  0.0000000  0.4184000  4
   2904   2906   2907   2913     1  180.0000771  0.0000000  2
   2905   2903   2904   2906     1  0.0000000  0.6508444  3
   2905   2903   2910   2911     1  0.0000000  0.6508444  3
   2905   2908   2909   2914     1  180.0000771  0.0000000  2
   2905   2908   2909   6297     1  0.0000000  0.2928800  2
   2905   2908   2909   6297     1  0.0000000  0.4184000  4
   2906   2904   2903   2910     1  0.0000000  0.6508444  3
   2906   2907   6267   6269     1  180.0000771  6.2760000  1
   2906   2907   6267   6269     1  0.0000000  0.0000000  2
   2907   6267   6269   6271     1  0.0000000  2.2175200  1
   2907   6267   6269   6271     1  0.0000000  0.0000000  2
   2907   6267   6269   6271     1  180.0000771  0.6276000  3
   2907   6267   6269   6271     1  180.0000771  2.0920000  4
   2908   2905   2903   2910     1  0.0000000  0.6508444  3
   2908   2909   6297   6299     1  180.0000771  6.2760000  1
   2908   2909   6297   6299     1  0.0000000  0.0000000  2
   2909   6297   6299   6301     1  0.0000000  2.2175200  1
   2909   6297   6299   6301     1  0.0000000  0.0000000  2
   2909   6297   6299   6301     1  180.0000771  0.6276000  3
   2909   6297   6299   6301     1  180.0000771  2.0920000  4
   2913   2907   6267   6269     1  180.0000771  10.4600000  2
   2914   2909   6297   6299     1  180.0000771  10.4600000  2
   2929   2930   2932   2933     1  0.0000000  0.6508444  3
   2929   2931   2934   2935     1  0.0000000  0.6508444  3
   2929   2936   2937   2938     1  0.0000000  0.6508444  3
   2930   2929   2931   2934     1  0.0000000  0.6508444  3
   2930   2929   2936   2937     1  0.0000000  0.6508444  3
   2930   2932   2933   6327     1  0.0000000  0.2928800  2
   2930   2932   2933   6327     1  0.0000000  0.4184000  4
   2930   2932   2933   2939     1  180.0000771  0.0000000  2
   2931   2929   2930   2932     1  0.0000000  0.6508444  3
   2931   2929   2936   2937     1  0.0000000  0.6508444  3
   2931   2934   2935   2940     1  180.0000771  0.0000000  2
   2931   2934   2935   6357     1  0.0000000  0.2928800  2
   2931   2934   2935   6357     1  0.0000000  0.4184000  4
   2932   2930   2929   2936     1  0.0000000  0.6508444  3
   2932   2933   6327   6329     1  180.0000771  6.2760000  1
   2932   2933   6327   6329     1  0.0000000  0.0000000  2
   2933   6327   6329   6331     1  0.0000000  2.2175200  1
   2933   6327   6329   6331     1  0.0000000  0.0000000  2
   2933   6327   6329   6331     1  180.0000771  0.6276000  3
   2933   6327   6329   6331     1  180.0000771  2.0920000  4
   2934   2931   2929   2936     1  0.0000000  0.6508444  3
   2934   2935   6357   6359     1  180.0000771  6.2760000  1
   2934   2935   6357   6359     1  0.0000000  0.0000000  2
   2935   6357   6359   6361     1  0.0000000  2.2175200  1
   2935   6357   6359   6361     1  0.0000000  0.0000000  2
   2935   6357   6359   6361     1  180.0000771  0.6276000  3
   2935   6357   6359   6361     1  180.0000771  2.0920000  4
   2939   2933   6327   6329     1  180.0000771  10.4600000  2
   2940   2935   6357   6359     1  180.0000771  10.4600000  2
   2955   2956   2958   2959     1  0.0000000  0.6508444  3
   2955   2957   2960   2961     1  0.0000000  0.6508444  3
   2955   2962   2963   2964     1  0.0000000  0.6508444  3
   2956   2955   2957   2960     1  0.0000000  0.6508444  3
   2956   2955   2962   2963     1  0.0000000  0.6508444  3
   2956   2958   2959   6387     1  0.0000000  0.2928800  2
   2956   2958   2959   6387     1  0.0000000  0.4184000  4
   2956   2958   2959   2965     1  180.0000771  0.0000000  2
   2957   2955   2956   2958     1  0.0000000  0.6508444  3
   2957   2955   2962   2963     1  0.0000000  0.6508444  3
   2957   2960   2961   2966     1  180.0000771  0.0000000  2
   2957   2960   2961   6417     1  0.0000000  0.2928800  2
   2957   2960   2961   6417     1  0.0000000  0.4184000  4
   2958   2956   2955   2962     1  0.0000000  0.6508444  3
   2958   2959   6387   6389     1  180.0000771  6.2760000  1
   2958   2959   6387   6389     1  0.0000000  0.0000000  2
   2959   6387   6389   6391     1  0.0000000  2.2175200  1
   2959   6387   6389   6391     1  0.0000000  0.0000000  2
   2959   6387   6389   6391     1  180.0000771  0.6276000  3
   2959   6387   6389   6391     1  180.0000771  2.0920000  4
   2960   2957   2955   2962     1  0.0000000  0.6508444  3
   2960   2961   6417   6419     1  180.0000771  6.2760000  1
   2960   2961   6417   6419     1  0.0000000  0.0000000  2
   2961   6417   6419   6421     1  0.0000000  2.2175200  1
   2961   6417   6419   6421     1  0.0000000  0.0000000  2
   2961   6417   6419   6421     1  180.0000771  0.6276000  3
   2961   6417   6419   6421     1  180.0000771  2.0920000  4
   2965   2959   6387   6389     1  180.0000771  10.4600000  2
   2966   2961   6417   6419     1  180.0000771  10.4600000  2
   2981   2982   2984   2985     1  0.0000000  0.6508444  3
   2981   2983   2986   2987     1  0.0000000  0.6508444  3
   2981   2988   2989   2990     1  0.0000000  0.6508444  3
   2982   2981   2983   2986     1  0.0000000  0.6508444  3
   2982   2981   2988   2989     1  0.0000000  0.6508444  3
   2982   2984   2985   6447     1  0.0000000  0.2928800  2
   2982   2984   2985   6447     1  0.0000000  0.4184000  4
   2982   2984   2985   2991     1  180.0000771  0.0000000  2
   2983   2981   2982   2984     1  0.0000000  0.6508444  3
   2983   2981   2988   2989     1  0.0000000  0.6508444  3
   2983   2986   2987   2992     1  180.0000771  0.0000000  2
   2983   2986   2987   6477     1  0.0000000  0.2928800  2
   2983   2986   2987   6477     1  0.0000000  0.4184000  4
   2984   2982   2981   2988     1  0.0000000  0.6508444  3
   2984   2985   6447   6449     1  180.0000771  6.2760000  1
   2984   2985   6447   6449     1  0.0000000  0.0000000  2
   2985   6447   6449   6451     1  0.0000000  2.2175200  1
   2985   6447   6449   6451     1  0.0000000  0.0000000  2
   2985   6447   6449   6451     1  180.0000771  0.6276000  3
   2985   6447   6449   6451     1  180.0000771  2.0920000  4
   2986   2983   2981   2988     1  0.0000000  0.6508444  3
   2986   2987   6477   6479     1  180.0000771  6.2760000  1
   2986   2987   6477   6479     1  0.0000000  0.0000000  2
   2987   6477   6479   6481     1  0.0000000  2.2175200  1
   2987   6477   6479   6481     1  0.0000000  0.0000000  2
   2987   6477   6479   6481     1  180.0000771  0.6276000  3
   2987   6477   6479   6481     1  180.0000771  2.0920000  4
   2991   2985   6447   6449     1  180.0000771  10.4600000  2
   2992   2987   6477   6479     1  180.0000771  10.4600000  2
   3007   3008   3010   3011     1  0.0000000  0.6508444  3
   3007   3009   3012   3013     1  0.0000000  0.6508444  3
   3007   3014   3015   3016     1  0.0000000  0.6508444  3
   3008   3007   3009   3012     1  0.0000000  0.6508444  3
   3008   3007   3014   3015     1  0.0000000  0.6508444  3
   3008   3010   3011   6507     1  0.0000000  0.2928800  2
   3008   3010   3011   6507     1  0.0000000  0.4184000  4
   3008   3010   3011   3017     1  180.0000771  0.0000000  2
   3009   3007   3008   3010     1  0.0000000  0.6508444  3
   3009   3007   3014   3015     1  0.0000000  0.6508444  3
   3009   3012   3013   3018     1  180.0000771  0.0000000  2
   3009   3012   3013   6537     1  0.0000000  0.2928800  2
   3009   3012   3013   6537     1  0.0000000  0.4184000  4
   3010   3008   3007   3014     1  0.0000000  0.6508444  3
   3010   3011   6507   6509     1  180.0000771  6.2760000  1
   3010   3011   6507   6509     1  0.0000000  0.0000000  2
   3011   6507   6509   6511     1  0.0000000  2.2175200  1
   3011   6507   6509   6511     1  0.0000000  0.0000000  2
   3011   6507   6509   6511     1  180.0000771  0.6276000  3
   3011   6507   6509   6511     1  180.0000771  2.0920000  4
   3012   3009   3007   3014     1  0.0000000  0.6508444  3
   3012   3013   6537   6539     1  180.0000771  6.2760000  1
   3012   3013   6537   6539     1  0.0000000  0.0000000  2
   3013   6537   6539   6541     1  0.0000000  2.2175200  1
   3013   6537   6539   6541     1  0.0000000  0.0000000  2
   3013   6537   6539   6541     1  180.0000771  0.6276000  3
   3013   6537   6539   6541     1  180.0000771  2.0920000  4
   3017   3011   6507   6509     1  180.0000771  10.4600000  2
   3018   3013   6537   6539     1  180.0000771  10.4600000  2
   3033   3034   3036   3037     1  0.0000000  0.6508444  3
   3033   3035   3038   3039     1  0.0000000  0.6508444  3
   3033   3040   3041   3042     1  0.0000000  0.6508444  3
   3034   3033   3035   3038     1  0.0000000  0.6508444  3
   3034   3033   3040   3041     1  0.0000000  0.6508444  3
   3034   3036   3037   6567     1  0.0000000  0.2928800  2
   3034   3036   3037   6567     1  0.0000000  0.4184000  4
   3034   3036   3037   3043     1  180.0000771  0.0000000  2
   3035   3033   3034   3036     1  0.0000000  0.6508444  3
   3035   3033   3040   3041     1  0.0000000  0.6508444  3
   3035   3038   3039   3044     1  180.0000771  0.0000000  2
   3035   3038   3039   6597     1  0.0000000  0.2928800  2
   3035   3038   3039   6597     1  0.0000000  0.4184000  4
   3036   3034   3033   3040     1  0.0000000  0.6508444  3
   3036   3037   6567   6569     1  180.0000771  6.2760000  1
   3036   3037   6567   6569     1  0.0000000  0.0000000  2
   3037   6567   6569   6571     1  0.0000000  2.2175200  1
   3037   6567   6569   6571     1  0.0000000  0.0000000  2
   3037   6567   6569   6571     1  180.0000771  0.6276000  3
   3037   6567   6569   6571     1  180.0000771  2.0920000  4
   3038   3035   3033   3040     1  0.0000000  0.6508444  3
   3038   3039   6597   6599     1  180.0000771  6.2760000  1
   3038   3039   6597   6599     1  0.0000000  0.0000000  2
   3039   6597   6599   6601     1  0.0000000  2.2175200  1
   3039   6597   6599   6601     1  0.0000000  0.0000000  2
   3039   6597   6599   6601     1  180.0000771  0.6276000  3
   3039   6597   6599   6601     1  180.0000771  2.0920000  4
   3043   3037   6567   6569     1  180.0000771  10.4600000  2
   3044   3039   6597   6599     1  180.0000771  10.4600000  2
   3059   3060   3062   3063     1  0.0000000  0.6508444  3
   3059   3061   3064   3065     1  0.0000000  0.6508444  3
   3059   3066   3067   3068     1  0.0000000  0.6508444  3
   3060   3059   3061   3064     1  0.0000000  0.6508444  3
   3060   3059   3066   3067     1  0.0000000  0.6508444  3
   3060   3062   3063   6627     1  0.0000000  0.2928800  2
   3060   3062   3063   6627     1  0.0000000  0.4184000  4
   3060   3062   3063   3069     1  180.0000771  0.0000000  2
   3061   3059   3060   3062     1  0.0000000  0.6508444  3
   3061   3059   3066   3067     1  0.0000000  0.6508444  3
   3061   3064   3065   3070     1  180.0000771  0.0000000  2
   3061   3064   3065   6657     1  0.0000000  0.2928800  2
   3061   3064   3065   6657     1  0.0000000  0.4184000  4
   3062   3060   3059   3066     1  0.0000000  0.6508444  3
   3062   3063   6627   6629     1  180.0000771  6.2760000  1
   3062   3063   6627   6629     1  0.0000000  0.0000000  2
   3063   6627   6629   6631     1  0.0000000  2.2175200  1
   3063   6627   6629   6631     1  0.0000000  0.0000000  2
   3063   6627   6629   6631     1  180.0000771  0.6276000  3
   3063   6627   6629   6631     1  180.0000771  2.0920000  4
   3064   3061   3059   3066     1  0.0000000  0.6508444  3
   3064   3065   6657   6659     1  180.0000771  6.2760000  1
   3064   3065   6657   6659     1  0.0000000  0.0000000  2
   3065   6657   6659   6661     1  0.0000000  2.2175200  1
   3065   6657   6659   6661     1  0.0000000  0.0000000  2
   3065   6657   6659   6661     1  180.0000771  0.6276000  3
   3065   6657   6659   6661     1  180.0000771  2.0920000  4
   3069   3063   6627   6629     1  180.0000771  10.4600000  2
   3070   3065   6657   6659     1  180.0000771  10.4600000  2
   3085   3086   3088   3089     1  0.0000000  0.6508444  3
   3085   3087   3090   3091     1  0.0000000  0.6508444  3
   3085   3092   3093   3094     1  0.0000000  0.6508444  3
   3086   3085   3087   3090     1  0.0000000  0.6508444  3
   3086   3085   3092   3093     1  0.0000000  0.6508444  3
   3086   3088   3089   6687     1  0.0000000  0.2928800  2
   3086   3088   3089   6687     1  0.0000000  0.4184000  4
   3086   3088   3089   3095     1  180.0000771  0.0000000  2
   3087   3085   3086   3088     1  0.0000000  0.6508444  3
   3087   3085   3092   3093     1  0.0000000  0.6508444  3
   3087   3090   3091   3096     1  180.0000771  0.0000000  2
   3087   3090   3091   6717     1  0.0000000  0.2928800  2
   3087   3090   3091   6717     1  0.0000000  0.4184000  4
   3088   3086   3085   3092     1  0.0000000  0.6508444  3
   3088   3089   6687   6689     1  180.0000771  6.2760000  1
   3088   3089   6687   6689     1  0.0000000  0.0000000  2
   3089   6687   6689   6691     1  0.0000000  2.2175200  1
   3089   6687   6689   6691     1  0.0000000  0.0000000  2
   3089   6687   6689   6691     1  180.0000771  0.6276000  3
   3089   6687   6689   6691     1  180.0000771  2.0920000  4
   3090   3087   3085   3092     1  0.0000000  0.6508444  3
   3090   3091   6717   6719     1  180.0000771  6.2760000  1
   3090   3091   6717   6719     1  0.0000000  0.0000000  2
   3091   6717   6719   6721     1  0.0000000  2.2175200  1
   3091   6717   6719   6721     1  0.0000000  0.0000000  2
   3091   6717   6719   6721     1  180.0000771  0.6276000  3
   3091   6717   6719   6721     1  180.0000771  2.0920000  4
   3095   3089   6687   6689     1  180.0000771  10.4600000  2
   3096   3091   6717   6719     1  180.0000771  10.4600000  2
   3111   3112   3114   3115     1  0.0000000  0.6508444  3
   3111   3113   3116   3117     1  0.0000000  0.6508444  3
   3111   3118   3119   3120     1  0.0000000  0.6508444  3
   3112   3111   3113   3116     1  0.0000000  0.6508444  3
   3112   3111   3118   3119     1  0.0000000  0.6508444  3
   3112   3114   3115   6747     1  0.0000000  0.2928800  2
   3112   3114   3115   6747     1  0.0000000  0.4184000  4
   3112   3114   3115   3121     1  180.0000771  0.0000000  2
   3113   3111   3112   3114     1  0.0000000  0.6508444  3
   3113   3111   3118   3119     1  0.0000000  0.6508444  3
   3113   3116   3117   3122     1  180.0000771  0.0000000  2
   3113   3116   3117   6777     1  0.0000000  0.2928800  2
   3113   3116   3117   6777     1  0.0000000  0.4184000  4
   3114   3112   3111   3118     1  0.0000000  0.6508444  3
   3114   3115   6747   6749     1  180.0000771  6.2760000  1
   3114   3115   6747   6749     1  0.0000000  0.0000000  2
   3115   6747   6749   6751     1  0.0000000  2.2175200  1
   3115   6747   6749   6751     1  0.0000000  0.0000000  2
   3115   6747   6749   6751     1  180.0000771  0.6276000  3
   3115   6747   6749   6751     1  180.0000771  2.0920000  4
   3116   3113   3111   3118     1  0.0000000  0.6508444  3
   3116   3117   6777   6779     1  180.0000771  6.2760000  1
   3116   3117   6777   6779     1  0.0000000  0.0000000  2
   3117   6777   6779   6781     1  0.0000000  2.2175200  1
   3117   6777   6779   6781     1  0.0000000  0.0000000  2
   3117   6777   6779   6781     1  180.0000771  0.6276000  3
   3117   6777   6779   6781     1  180.0000771  2.0920000  4
   3121   3115   6747   6749     1  180.0000771  10.4600000  2
   3122   3117   6777   6779     1  180.0000771  10.4600000  2
   3137   3138   3140   3141     1  0.0000000  0.6508444  3
   3137   3139   3142   3143     1  0.0000000  0.6508444  3
   3137   3144   3145   3146     1  0.0000000  0.6508444  3
   3138   3137   3139   3142     1  0.0000000  0.6508444  3
   3138   3137   3144   3145     1  0.0000000  0.6508444  3
   3138   3140   3141   6807     1  0.0000000  0.2928800  2
   3138   3140   3141   6807     1  0.0000000  0.4184000  4
   3138   3140   3141   3147     1  180.0000771  0.0000000  2
   3139   3137   3138   3140     1  0.0000000  0.6508444  3
   3139   3137   3144   3145     1  0.0000000  0.6508444  3
   3139   3142   3143   3148     1  180.0000771  0.0000000  2
   3139   3142   3143   6837     1  0.0000000  0.2928800  2
   3139   3142   3143   6837     1  0.0000000  0.4184000  4
   3140   3138   3137   3144     1  0.0000000  0.6508444  3
   3140   3141   6807   6809     1  180.0000771  6.2760000  1
   3140   3141   6807   6809     1  0.0000000  0.0000000  2
   3141   6807   6809   6811     1  0.0000000  2.2175200  1
   3141   6807   6809   6811     1  0.0000000  0.0000000  2
   3141   6807   6809   6811     1  180.0000771  0.6276000  3
   3141   6807   6809   6811     1  180.0000771  2.0920000  4
   3142   3139   3137   3144     1  0.0000000  0.6508444  3
   3142   3143   6837   6839     1  180.0000771  6.2760000  1
   3142   3143   6837   6839     1  0.0000000  0.0000000  2
   3143   6837   6839   6841     1  0.0000000  2.2175200  1
   3143   6837   6839   6841     1  0.0000000  0.0000000  2
   3143   6837   6839   6841     1  180.0000771  0.6276000  3
   3143   6837   6839   6841     1  180.0000771  2.0920000  4
   3147   3141   6807   6809     1  180.0000771  10.4600000  2
   3148   3143   6837   6839     1  180.0000771  10.4600000  2
   3163   3164   3166   3167     1  0.0000000  0.6508444  3
   3163   3165   3168   3169     1  0.0000000  0.6508444  3
   3163   3170   3171   3172     1  0.0000000  0.6508444  3
   3164   3163   3165   3168     1  0.0000000  0.6508444  3
   3164   3163   3170   3171     1  0.0000000  0.6508444  3
   3164   3166   3167   6867     1  0.0000000  0.2928800  2
   3164   3166   3167   6867     1  0.0000000  0.4184000  4
   3164   3166   3167   3173     1  180.0000771  0.0000000  2
   3165   3163   3164   3166     1  0.0000000  0.6508444  3
   3165   3163   3170   3171     1  0.0000000  0.6508444  3
   3165   3168   3169   3174     1  180.0000771  0.0000000  2
   3165   3168   3169   6897     1  0.0000000  0.2928800  2
   3165   3168   3169   6897     1  0.0000000  0.4184000  4
   3166   3164   3163   3170     1  0.0000000  0.6508444  3
   3166   3167   6867   6869     1  180.0000771  6.2760000  1
   3166   3167   6867   6869     1  0.0000000  0.0000000  2
   3167   6867   6869   6871     1  0.0000000  2.2175200  1
   3167   6867   6869   6871     1  0.0000000  0.0000000  2
   3167   6867   6869   6871     1  180.0000771  0.6276000  3
   3167   6867   6869   6871     1  180.0000771  2.0920000  4
   3168   3165   3163   3170     1  0.0000000  0.6508444  3
   3168   3169   6897   6899     1  180.0000771  6.2760000  1
   3168   3169   6897   6899     1  0.0000000  0.0000000  2
   3169   6897   6899   6901     1  0.0000000  2.2175200  1
   3169   6897   6899   6901     1  0.0000000  0.0000000  2
   3169   6897   6899   6901     1  180.0000771  0.6276000  3
   3169   6897   6899   6901     1  180.0000771  2.0920000  4
   3173   3167   6867   6869     1  180.0000771  10.4600000  2
   3174   3169   6897   6899     1  180.0000771  10.4600000  2
   3189   3190   3192   3193     1  0.0000000  0.6508444  3
   3189   3191   3194   3195     1  0.0000000  0.6508444  3
   3189   3196   3197   3198     1  0.0000000  0.6508444  3
   3190   3189   3191   3194     1  0.0000000  0.6508444  3
   3190   3189   3196   3197     1  0.0000000  0.6508444  3
   3190   3192   3193   6927     1  0.0000000  0.2928800  2
   3190   3192   3193   6927     1  0.0000000  0.4184000  4
   3190   3192   3193   3199     1  180.0000771  0.0000000  2
   3191   3189   3190   3192     1  0.0000000  0.6508444  3
   3191   3189   3196   3197     1  0.0000000  0.6508444  3
   3191   3194   3195   3200     1  180.0000771  0.0000000  2
   3191   3194   3195   6957     1  0.0000000  0.2928800  2
   3191   3194   3195   6957     1  0.0000000  0.4184000  4
   3192   3190   3189   3196     1  0.0000000  0.6508444  3
   3192   3193   6927   6929     1  180.0000771  6.2760000  1
   3192   3193   6927   6929     1  0.0000000  0.0000000  2
   3193   6927   6929   6931     1  0.0000000  2.2175200  1
   3193   6927   6929   6931     1  0.0000000  0.0000000  2
   3193   6927   6929   6931     1  180.0000771  0.6276000  3
   3193   6927   6929   6931     1  180.0000771  2.0920000  4
   3194   3191   3189   3196     1  0.0000000  0.6508444  3
   3194   3195   6957   6959     1  180.0000771  6.2760000  1
   3194   3195   6957   6959     1  0.0000000  0.0000000  2
   3195   6957   6959   6961     1  0.0000000  2.2175200  1
   3195   6957   6959   6961     1  0.0000000  0.0000000  2
   3195   6957   6959   6961     1  180.0000771  0.6276000  3
   3195   6957   6959   6961     1  180.0000771  2.0920000  4
   3199   3193   6927   6929     1  180.0000771  10.4600000  2
   3200   3195   6957   6959     1  180.0000771  10.4600000  2
   3215   3216   3218   3219     1  0.0000000  0.6508444  3
   3215   3217   3220   3221     1  0.0000000  0.6508444  3
   3215   3222   3223   3224     1  0.0000000  0.6508444  3
   3216   3215   3217   3220     1  0.0000000  0.6508444  3
   3216   3215   3222   3223     1  0.0000000  0.6508444  3
   3216   3218   3219   6987     1  0.0000000  0.2928800  2
   3216   3218   3219   6987     1  0.0000000  0.4184000  4
   3216   3218   3219   3225     1  180.0000771  0.0000000  2
   3217   3215   3216   3218     1  0.0000000  0.6508444  3
   3217   3215   3222   3223     1  0.0000000  0.6508444  3
   3217   3220   3221   3226     1  180.0000771  0.0000000  2
   3217   3220   3221   7017     1  0.0000000  0.2928800  2
   3217   3220   3221   7017     1  0.0000000  0.4184000  4
   3218   3216   3215   3222     1  0.0000000  0.6508444  3
   3218   3219   6987   6989     1  180.0000771  6.2760000  1
   3218   3219   6987   6989     1  0.0000000  0.0000000  2
   3219   6987   6989   6991     1  0.0000000  2.2175200  1
   3219   6987   6989   6991     1  0.0000000  0.0000000  2
   3219   6987   6989   6991     1  180.0000771  0.6276000  3
   3219   6987   6989   6991     1  180.0000771  2.0920000  4
   3220   3217   3215   3222     1  0.0000000  0.6508444  3
   3220   3221   7017   7019     1  180.0000771  6.2760000  1
   3220   3221   7017   7019     1  0.0000000  0.0000000  2
   3221   7017   7019   7021     1  0.0000000  2.2175200  1
   3221   7017   7019   7021     1  0.0000000  0.0000000  2
   3221   7017   7019   7021     1  180.0000771  0.6276000  3
   3221   7017   7019   7021     1  180.0000771  2.0920000  4
   3225   3219   6987   6989     1  180.0000771  10.4600000  2
   3226   3221   7017   7019     1  180.0000771  10.4600000  2
   3241   3242   3244   3245     1  0.0000000  0.6508444  3
   3241   3243   3246   3247     1  0.0000000  0.6508444  3
   3241   3248   3249   3250     1  0.0000000  0.6508444  3
   3242   3241   3243   3246     1  0.0000000  0.6508444  3
   3242   3241   3248   3249     1  0.0000000  0.6508444  3
   3242   3244   3245   7047     1  0.0000000  0.2928800  2
   3242   3244   3245   7047     1  0.0000000  0.4184000  4
   3242   3244   3245   3251     1  180.0000771  0.0000000  2
   3243   3241   3242   3244     1  0.0000000  0.6508444  3
   3243   3241   3248   3249     1  0.0000000  0.6508444  3
   3243   3246   3247   7077     1  0.0000000  0.2928800  2
   3243   3246   3247   7077     1  0.0000000  0.4184000  4
   3243   3246   3247   3252     1  180.0000771  0.0000000  2
   3244   3242   3241   3248     1  0.0000000  0.6508444  3
   3244   3245   7047   7049     1  180.0000771  6.2760000  1
   3244   3245   7047   7049     1  0.0000000  0.0000000  2
   3245   7047   7049   7051     1  0.0000000  2.2175200  1
   3245   7047   7049   7051     1  0.0000000  0.0000000  2
   3245   7047   7049   7051     1  180.0000771  0.6276000  3
   3245   7047   7049   7051     1  180.0000771  2.0920000  4
   3246   3243   3241   3248     1  0.0000000  0.6508444  3
   3246   3247   7077   7079     1  180.0000771  6.2760000  1
   3246   3247   7077   7079     1  0.0000000  0.0000000  2
   3247   7077   7079   7081     1  0.0000000  2.2175200  1
   3247   7077   7079   7081     1  0.0000000  0.0000000  2
   3247   7077   7079   7081     1  180.0000771  0.6276000  3
   3247   7077   7079   7081     1  180.0000771  2.0920000  4
   3251   3245   7047   7049     1  180.0000771  10.4600000  2
   3252   3247   7077   7079     1  180.0000771  10.4600000  2
   3267   3269   3271   3275     1  0.0000000  0.6508444  3
   3269   3271   3275   3276     1  0.0000000  0.6508444  3
   3269   3271   3275   3277     1  0.0000000  0.6508444  3
   3271   3275   3276   3288     1  0.0000000  0.6508444  3
   3271   3275   3277   3279     1  0.0000000  0.6508444  3
   3275   3276   3288   3291     1  0.0000000  0.6508444  3
   3275   3277   3279   3283     1  0.0000000  0.6508444  3
   3276   3275   3277   3279     1  0.0000000  0.6508444  3
   3276   3288   3291   3292     1  180.0000771  0.0000000  2
   3276   3288   3291   3293     1  180.0000771  0.0000000  2
   3277   3275   3276   3288     1  0.0000000  0.6508444  3
   3277   3279   3283   3284     1  180.0000771  0.0000000  2
   3277   3279   3283   3285     1  180.0000771  0.0000000  2
   3297   3299   3301   3305     1  0.0000000  0.6508444  3
   3299   3301   3305   3306     1  0.0000000  0.6508444  3
   3299   3301   3305   3307     1  0.0000000  0.6508444  3
   3301   3305   3306   3318     1  0.0000000  0.6508444  3
   3301   3305   3307   3309     1  0.0000000  0.6508444  3
   3305   3306   3318   3321     1  0.0000000  0.6508444  3
   3305   3307   3309   3313     1  0.0000000  0.6508444  3
   3306   3318   3321   3322     1  180.0000771  0.0000000  2
   3306   3318   3321   3323     1  180.0000771  0.0000000  2
   3306   3305   3307   3309     1  0.0000000  0.6508444  3
   3307   3309   3313   3314     1  180.0000771  0.0000000  2
   3307   3309   3313   3315     1  180.0000771  0.0000000  2
   3307   3305   3306   3318     1  0.0000000  0.6508444  3
   3327   3329   3331   3335     1  0.0000000  0.6508444  3
   3329   3331   3335   3336     1  0.0000000  0.6508444  3
   3329   3331   3335   3337     1  0.0000000  0.6508444  3
   3331   3335   3336   3348     1  0.0000000  0.6508444  3
   3331   3335   3337   3339     1  0.0000000  0.6508444  3
   3335   3336   3348   3351     1  0.0000000  0.6508444  3
   3335   3337   3339   3343     1  0.0000000  0.6508444  3
   3336   3335   3337   3339     1  0.0000000  0.6508444  3
   3336   3348   3351   3352     1  180.0000771  0.0000000  2
   3336   3348   3351   3353     1  180.0000771  0.0000000  2
   3337   3335   3336   3348     1  0.0000000  0.6508444  3
   3337   3339   3343   3344     1  180.0000771  0.0000000  2
   3337   3339   3343   3345     1  180.0000771  0.0000000  2
   3357   3359   3361   3365     1  0.0000000  0.6508444  3
   3359   3361   3365   3366     1  0.0000000  0.6508444  3
   3359   3361   3365   3367     1  0.0000000  0.6508444  3
   3361   3365   3366   3378     1  0.0000000  0.6508444  3
   3361   3365   3367   3369     1  0.0000000  0.6508444  3
   3365   3366   3378   3381     1  0.0000000  0.6508444  3
   3365   3367   3369   3373     1  0.0000000  0.6508444  3
   3366   3378   3381   3382     1  180.0000771  0.0000000  2
   3366   3378   3381   3383     1  180.0000771  0.0000000  2
   3366   3365   3367   3369     1  0.0000000  0.6508444  3
   3367   3369   3373   3374     1  180.0000771  0.0000000  2
   3367   3369   3373   3375     1  180.0000771  0.0000000  2
   3367   3365   3366   3378     1  0.0000000  0.6508444  3
   3387   3389   3391   3395     1  0.0000000  0.6508444  3
   3389   3391   3395   3396     1  0.0000000  0.6508444  3
   3389   3391   3395   3397     1  0.0000000  0.6508444  3
   3391   3395   3396   3408     1  0.0000000  0.6508444  3
   3391   3395   3397   3399     1  0.0000000  0.6508444  3
   3395   3396   3408   3411     1  0.0000000  0.6508444  3
   3395   3397   3399   3403     1  0.0000000  0.6508444  3
   3396   3395   3397   3399     1  0.0000000  0.6508444  3
   3396   3408   3411   3412     1  180.0000771  0.0000000  2
   3396   3408   3411   3413     1  180.0000771  0.0000000  2
   3397   3395   3396   3408     1  0.0000000  0.6508444  3
   3397   3399   3403   3404     1  180.0000771  0.0000000  2
   3397   3399   3403   3405     1  180.0000771  0.0000000  2
   3417   3419   3421   3425     1  0.0000000  0.6508444  3
   3419   3421   3425   3426     1  0.0000000  0.6508444  3
   3419   3421   3425   3427     1  0.0000000  0.6508444  3
   3421   3425   3426   3438     1  0.0000000  0.6508444  3
   3421   3425   3427   3429     1  0.0000000  0.6508444  3
   3425   3426   3438   3441     1  0.0000000  0.6508444  3
   3425   3427   3429   3433     1  0.0000000  0.6508444  3
   3426   3438   3441   3442     1  180.0000771  0.0000000  2
   3426   3438   3441   3443     1  180.0000771  0.0000000  2
   3426   3425   3427   3429     1  0.0000000  0.6508444  3
   3427   3429   3433   3434     1  180.0000771  0.0000000  2
   3427   3429   3433   3435     1  180.0000771  0.0000000  2
   3427   3425   3426   3438     1  0.0000000  0.6508444  3
   3447   3449   3451   3455     1  0.0000000  0.6508444  3
   3449   3451   3455   3456     1  0.0000000  0.6508444  3
   3449   3451   3455   3457     1  0.0000000  0.6508444  3
   3451   3455   3456   3468     1  0.0000000  0.6508444  3
   3451   3455   3457   3459     1  0.0000000  0.6508444  3
   3455   3456   3468   3471     1  0.0000000  0.6508444  3
   3455   3457   3459   3463     1  0.0000000  0.6508444  3
   3456   3455   3457   3459     1  0.0000000  0.6508444  3
   3456   3468   3471   3472     1  180.0000771  0.0000000  2
   3456   3468   3471   3473     1  180.0000771  0.0000000  2
   3457   3455   3456   3468     1  0.0000000  0.6508444  3
   3457   3459   3463   3464     1  180.0000771  0.0000000  2
   3457   3459   3463   3465     1  180.0000771  0.0000000  2
   3477   3479   3481   3485     1  0.0000000  0.6508444  3
   3479   3481   3485   3486     1  0.0000000  0.6508444  3
   3479   3481   3485   3487     1  0.0000000  0.6508444  3
   3481   3485   3486   3498     1  0.0000000  0.6508444  3
   3481   3485   3487   3489     1  0.0000000  0.6508444  3
   3485   3486   3498   3501     1  0.0000000  0.6508444  3
   3485   3487   3489   3493     1  0.0000000  0.6508444  3
   3486   3498   3501   3502     1  180.0000771  0.0000000  2
   3486   3498   3501   3503     1  180.0000771  0.0000000  2
   3486   3485   3487   3489     1  0.0000000  0.6508444  3
   3487   3489   3493   3494     1  180.0000771  0.0000000  2
   3487   3489   3493   3495     1  180.0000771  0.0000000  2
   3487   3485   3486   3498     1  0.0000000  0.6508444  3
   3507   3509   3511   3515     1  0.0000000  0.6508444  3
   3509   3511   3515   3516     1  0.0000000  0.6508444  3
   3509   3511   3515   3517     1  0.0000000  0.6508444  3
   3511   3515   3516   3528     1  0.0000000  0.6508444  3
   3511   3515   3517   3519     1  0.0000000  0.6508444  3
   3515   3516   3528   3531     1  0.0000000  0.6508444  3
   3515   3517   3519   3523     1  0.0000000  0.6508444  3
   3516   3515   3517   3519     1  0.0000000  0.6508444  3
   3516   3528   3531   3532     1  180.0000771  0.0000000  2
   3516   3528   3531   3533     1  180.0000771  0.0000000  2
   3517   3515   3516   3528     1  0.0000000  0.6508444  3
   3517   3519   3523   3524     1  180.0000771  0.0000000  2
   3517   3519   3523   3525     1  180.0000771  0.0000000  2
   3537   3539   3541   3545     1  0.0000000  0.6508444  3
   3539   3541   3545   3546     1  0.0000000  0.6508444  3
   3539   3541   3545   3547     1  0.0000000  0.6508444  3
   3541   3545   3546   3558     1  0.0000000  0.6508444  3
   3541   3545   3547   3549     1  0.0000000  0.6508444  3
   3545   3546   3558   3561     1  0.0000000  0.6508444  3
   3545   3547   3549   3553     1  0.0000000  0.6508444  3
   3546   3558   3561   3562     1  180.0000771  0.0000000  2
   3546   3558   3561   3563     1  180.0000771  0.0000000  2
   3546   3545   3547   3549     1  0.0000000  0.6508444  3
   3547   3549   3553   3554     1  180.0000771  0.0000000  2
   3547   3549   3553   3555     1  180.0000771  0.0000000  2
   3547   3545   3546   3558     1  0.0000000  0.6508444  3
   3567   3569   3571   3575     1  0.0000000  0.6508444  3
   3569   3571   3575   3576     1  0.0000000  0.6508444  3
   3569   3571   3575   3577     1  0.0000000  0.6508444  3
   3571   3575   3576   3588     1  0.0000000  0.6508444  3
   3571   3575   3577   3579     1  0.0000000  0.6508444  3
   3575   3576   3588   3591     1  0.0000000  0.6508444  3
   3575   3577   3579   3583     1  0.0000000  0.6508444  3
   3576   3575   3577   3579     1  0.0000000  0.6508444  3
   3576   3588   3591   3592     1  180.0000771  0.0000000  2
   3576   3588   3591   3593     1  180.0000771  0.0000000  2
   3577   3575   3576   3588     1  0.0000000  0.6508444  3
   3577   3579   3583   3584     1  180.0000771  0.0000000  2
   3577   3579   3583   3585     1  180.0000771  0.0000000  2
   3597   3599   3601   3605     1  0.0000000  0.6508444  3
   3599   3601   3605   3606     1  0.0000000  0.6508444  3
   3599   3601   3605   3607     1  0.0000000  0.6508444  3
   3601   3605   3606   3618     1  0.0000000  0.6508444  3
   3601   3605   3607   3609     1  0.0000000  0.6508444  3
   3605   3606   3618   3621     1  0.0000000  0.6508444  3
   3605   3607   3609   3613     1  0.0000000  0.6508444  3
   3606   3618   3621   3622     1  180.0000771  0.0000000  2
   3606   3618   3621   3623     1  180.0000771  0.0000000  2
   3606   3605   3607   3609     1  0.0000000  0.6508444  3
   3607   3609   3613   3614     1  180.0000771  0.0000000  2
   3607   3609   3613   3615     1  180.0000771  0.0000000  2
   3607   3605   3606   3618     1  0.0000000  0.6508444  3
   3627   3629   3631   3635     1  0.0000000  0.6508444  3
   3629   3631   3635   3636     1  0.0000000  0.6508444  3
   3629   3631   3635   3637     1  0.0000000  0.6508444  3
   3631   3635   3636   3648     1  0.0000000  0.6508444  3
   3631   3635   3637   3639     1  0.0000000  0.6508444  3
   3635   3636   3648   3651     1  0.0000000  0.6508444  3
   3635   3637   3639   3643     1  0.0000000  0.6508444  3
   3636   3635   3637   3639     1  0.0000000  0.6508444  3
   3636   3648   3651   3652     1  180.0000771  0.0000000  2
   3636   3648   3651   3653     1  180.0000771  0.0000000  2
   3637   3635   3636   3648     1  0.0000000  0.6508444  3
   3637   3639   3643   3644     1  180.0000771  0.0000000  2
   3637   3639   3643   3645     1  180.0000771  0.0000000  2
   3657   3659   3661   3665     1  0.0000000  0.6508444  3
   3659   3661   3665   3666     1  0.0000000  0.6508444  3
   3659   3661   3665   3667     1  0.0000000  0.6508444  3
   3661   3665   3666   3678     1  0.0000000  0.6508444  3
   3661   3665   3667   3669     1  0.0000000  0.6508444  3
   3665   3666   3678   3681     1  0.0000000  0.6508444  3
   3665   3667   3669   3673     1  0.0000000  0.6508444  3
   3666   3678   3681   3682     1  180.0000771  0.0000000  2
   3666   3678   3681   3683     1  180.0000771  0.0000000  2
   3666   3665   3667   3669     1  0.0000000  0.6508444  3
   3667   3669   3673   3674     1  180.0000771  0.0000000  2
   3667   3669   3673   3675     1  180.0000771  0.0000000  2
   3667   3665   3666   3678     1  0.0000000  0.6508444  3
   3687   3689   3691   3695     1  0.0000000  0.6508444  3
   3689   3691   3695   3696     1  0.0000000  0.6508444  3
   3689   3691   3695   3697     1  0.0000000  0.6508444  3
   3691   3695   3696   3708     1  0.0000000  0.6508444  3
   3691   3695   3697   3699     1  0.0000000  0.6508444  3
   3695   3696   3708   3711     1  0.0000000  0.6508444  3
   3695   3697   3699   3703     1  0.0000000  0.6508444  3
   3696   3695   3697   3699     1  0.0000000  0.6508444  3
   3696   3708   3711   3712     1  180.0000771  0.0000000  2
   3696   3708   3711   3713     1  180.0000771  0.0000000  2
   3697   3695   3696   3708     1  0.0000000  0.6508444  3
   3697   3699   3703   3704     1  180.0000771  0.0000000  2
   3697   3699   3703   3705     1  180.0000771  0.0000000  2
   3717   3719   3721   3725     1  0.0000000  0.6508444  3
   3719   3721   3725   3726     1  0.0000000  0.6508444  3
   3719   3721   3725   3727     1  0.0000000  0.6508444  3
   3721   3725   3726   3738     1  0.0000000  0.6508444  3
   3721   3725   3727   3729     1  0.0000000  0.6508444  3
   3725   3726   3738   3741     1  0.0000000  0.6508444  3
   3725   3727   3729   3733     1  0.0000000  0.6508444  3
   3726   3738   3741   3742     1  180.0000771  0.0000000  2
   3726   3738   3741   3743     1  180.0000771  0.0000000  2
   3726   3725   3727   3729     1  0.0000000  0.6508444  3
   3727   3729   3733   3734     1  180.0000771  0.0000000  2
   3727   3729   3733   3735     1  180.0000771  0.0000000  2
   3727   3725   3726   3738     1  0.0000000  0.6508444  3
   3747   3749   3751   3755     1  0.0000000  0.6508444  3
   3749   3751   3755   3756     1  0.0000000  0.6508444  3
   3749   3751   3755   3757     1  0.0000000  0.6508444  3
   3751   3755   3756   3768     1  0.0000000  0.6508444  3
   3751   3755   3757   3759     1  0.0000000  0.6508444  3
   3755   3756   3768   3771     1  0.0000000  0.6508444  3
   3755   3757   3759   3763     1  0.0000000  0.6508444  3
   3756   3755   3757   3759     1  0.0000000  0.6508444  3
   3756   3768   3771   3772     1  180.0000771  0.0000000  2
   3756   3768   3771   3773     1  180.0000771  0.0000000  2
   3757   3755   3756   3768     1  0.0000000  0.6508444  3
   3757   3759   3763   3764     1  180.0000771  0.0000000  2
   3757   3759   3763   3765     1  180.0000771  0.0000000  2
   3777   3779   3781   3785     1  0.0000000  0.6508444  3
   3779   3781   3785   3786     1  0.0000000  0.6508444  3
   3779   3781   3785   3787     1  0.0000000  0.6508444  3
   3781   3785   3786   3798     1  0.0000000  0.6508444  3
   3781   3785   3787   3789     1  0.0000000  0.6508444  3
   3785   3786   3798   3801     1  0.0000000  0.6508444  3
   3785   3787   3789   3793     1  0.0000000  0.6508444  3
   3786   3798   3801   3802     1  180.0000771  0.0000000  2
   3786   3798   3801   3803     1  180.0000771  0.0000000  2
   3786   3785   3787   3789     1  0.0000000  0.6508444  3
   3787   3789   3793   3794     1  180.0000771  0.0000000  2
   3787   3789   3793   3795     1  180.0000771  0.0000000  2
   3787   3785   3786   3798     1  0.0000000  0.6508444  3
   3807   3809   3811   3815     1  0.0000000  0.6508444  3
   3809   3811   3815   3816     1  0.0000000  0.6508444  3
   3809   3811   3815   3817     1  0.0000000  0.6508444  3
   3811   3815   3816   3828     1  0.0000000  0.6508444  3
   3811   3815   3817   3819     1  0.0000000  0.6508444  3
   3815   3816   3828   3831     1  0.0000000  0.6508444  3
   3815   3817   3819   3823     1  0.0000000  0.6508444  3
   3816   3815   3817   3819     1  0.0000000  0.6508444  3
   3816   3828   3831   3832     1  180.0000771  0.0000000  2
   3816   3828   3831   3833     1  180.0000771  0.0000000  2
   3817   3815   3816   3828     1  0.0000000  0.6508444  3
   3817   3819   3823   3824     1  180.0000771  0.0000000  2
   3817   3819   3823   3825     1  180.0000771  0.0000000  2
   3837   3839   3841   3845     1  0.0000000  0.6508444  3
   3839   3841   3845   3846     1  0.0000000  0.6508444  3
   3839   3841   3845   3847     1  0.0000000  0.6508444  3
   3841   3845   3846   3858     1  0.0000000  0.6508444  3
   3841   3845   3847   3849     1  0.0000000  0.6508444  3
   3845   3846   3858   3861     1  0.0000000  0.6508444  3
   3845   3847   3849   3853     1  0.0000000  0.6508444  3
   3846   3858   3861   3862     1  180.0000771  0.0000000  2
   3846   3858   3861   3863     1  180.0000771  0.0000000  2
   3846   3845   3847   3849     1  0.0000000  0.6508444  3
   3847   3849   3853   3854     1  180.0000771  0.0000000  2
   3847   3849   3853   3855     1  180.0000771  0.0000000  2
   3847   3845   3846   3858     1  0.0000000  0.6508444  3
   3867   3869   3871   3875     1  0.0000000  0.6508444  3
   3869   3871   3875   3876     1  0.0000000  0.6508444  3
   3869   3871   3875   3877     1  0.0000000  0.6508444  3
   3871   3875   3876   3888     1  0.0000000  0.6508444  3
   3871   3875   3877   3879     1  0.0000000  0.6508444  3
   3875   3876   3888   3891     1  0.0000000  0.6508444  3
   3875   3877   3879   3883     1  0.0000000  0.6508444  3
   3876   3875   3877   3879     1  0.0000000  0.6508444  3
   3876   3888   3891   3892     1  180.0000771  0.0000000  2
   3876   3888   3891   3893     1  180.0000771  0.0000000  2
   3877   3875   3876   3888     1  0.0000000  0.6508444  3
   3877   3879   3883   3884     1  180.0000771  0.0000000  2
   3877   3879   3883   3885     1  180.0000771  0.0000000  2
   3897   3899   3901   3905     1  0.0000000  0.6508444  3
   3899   3901   3905   3906     1  0.0000000  0.6508444  3
   3899   3901   3905   3907     1  0.0000000  0.6508444  3
   3901   3905   3906   3918     1  0.0000000  0.6508444  3
   3901   3905   3907   3909     1  0.0000000  0.6508444  3
   3905   3906   3918   3921     1  0.0000000  0.6508444  3
   3905   3907   3909   3913     1  0.0000000  0.6508444  3
   3906   3918   3921   3922     1  180.0000771  0.0000000  2
   3906   3918   3921   3923     1  180.0000771  0.0000000  2
   3906   3905   3907   3909     1  0.0000000  0.6508444  3
   3907   3909   3913   3914     1  180.0000771  0.0000000  2
   3907   3909   3913   3915     1  180.0000771  0.0000000  2
   3907   3905   3906   3918     1  0.0000000  0.6508444  3
   3927   3929   3931   3935     1  0.0000000  0.6508444  3
   3929   3931   3935   3936     1  0.0000000  0.6508444  3
   3929   3931   3935   3937     1  0.0000000  0.6508444  3
   3931   3935   3936   3948     1  0.0000000  0.6508444  3
   3931   3935   3937   3939     1  0.0000000  0.6508444  3
   3935   3936   3948   3951     1  0.0000000  0.6508444  3
   3935   3937   3939   3943     1  0.0000000  0.6508444  3
   3936   3935   3937   3939     1  0.0000000  0.6508444  3
   3936   3948   3951   3952     1  180.0000771  0.0000000  2
   3936   3948   3951   3953     1  180.0000771  0.0000000  2
   3937   3935   3936   3948     1  0.0000000  0.6508444  3
   3937   3939   3943   3944     1  180.0000771  0.0000000  2
   3937   3939   3943   3945     1  180.0000771  0.0000000  2
   3957   3959   3961   3965     1  0.0000000  0.6508444  3
   3959   3961   3965   3966     1  0.0000000  0.6508444  3
   3959   3961   3965   3967     1  0.0000000  0.6508444  3
   3961   3965   3966   3978     1  0.0000000  0.6508444  3
   3961   3965   3967   3969     1  0.0000000  0.6508444  3
   3965   3966   3978   3981     1  0.0000000  0.6508444  3
   3965   3967   3969   3973     1  0.0000000  0.6508444  3
   3966   3978   3981   3982     1  180.0000771  0.0000000  2
   3966   3978   3981   3983     1  180.0000771  0.0000000  2
   3966   3965   3967   3969     1  0.0000000  0.6508444  3
   3967   3969   3973   3974     1  180.0000771  0.0000000  2
   3967   3969   3973   3975     1  180.0000771  0.0000000  2
   3967   3965   3966   3978     1  0.0000000  0.6508444  3
   3987   3989   3991   3995     1  0.0000000  0.6508444  3
   3989   3991   3995   3996     1  0.0000000  0.6508444  3
   3989   3991   3995   3997     1  0.0000000  0.6508444  3
   3991   3995   3996   4008     1  0.0000000  0.6508444  3
   3991   3995   3997   3999     1  0.0000000  0.6508444  3
   3995   3996   4008   4011     1  0.0000000  0.6508444  3
   3995   3997   3999   4003     1  0.0000000  0.6508444  3
   3996   3995   3997   3999     1  0.0000000  0.6508444  3
   3996   4008   4011   4012     1  180.0000771  0.0000000  2
   3996   4008   4011   4013     1  180.0000771  0.0000000  2
   3997   3995   3996   4008     1  0.0000000  0.6508444  3
   3997   3999   4003   4004     1  180.0000771  0.0000000  2
   3997   3999   4003   4005     1  180.0000771  0.0000000  2
   4017   4019   4021   4025     1  0.0000000  0.6508444  3
   4019   4021   4025   4026     1  0.0000000  0.6508444  3
   4019   4021   4025   4027     1  0.0000000  0.6508444  3
   4021   4025   4026   4038     1  0.0000000  0.6508444  3
   4021   4025   4027   4029     1  0.0000000  0.6508444  3
   4025   4026   4038   4041     1  0.0000000  0.6508444  3
   4025   4027   4029   4033     1  0.0000000  0.6508444  3
   4026   4038   4041   4042     1  180.0000771  0.0000000  2
   4026   4038   4041   4043     1  180.0000771  0.0000000  2
   4026   4025   4027   4029     1  0.0000000  0.6508444  3
   4027   4029   4033   4034     1  180.0000771  0.0000000  2
   4027   4029   4033   4035     1  180.0000771  0.0000000  2
   4027   4025   4026   4038     1  0.0000000  0.6508444  3
   4047   4049   4051   4055     1  0.0000000  0.6508444  3
   4049   4051   4055   4056     1  0.0000000  0.6508444  3
   4049   4051   4055   4057     1  0.0000000  0.6508444  3
   4051   4055   4056   4068     1  0.0000000  0.6508444  3
   4051   4055   4057   4059     1  0.0000000  0.6508444  3
   4055   4056   4068   4071     1  0.0000000  0.6508444  3
   4055   4057   4059   4063     1  0.0000000  0.6508444  3
   4056   4055   4057   4059     1  0.0000000  0.6508444  3
   4056   4068   4071   4072     1  180.0000771  0.0000000  2
   4056   4068   4071   4073     1  180.0000771  0.0000000  2
   4057   4055   4056   4068     1  0.0000000  0.6508444  3
   4057   4059   4063   4064     1  180.0000771  0.0000000  2
   4057   4059   4063   4065     1  180.0000771  0.0000000  2
   4077   4079   4081   4085     1  0.0000000  0.6508444  3
   4079   4081   4085   4086     1  0.0000000  0.6508444  3
   4079   4081   4085   4087     1  0.0000000  0.6508444  3
   4081   4085   4086   4098     1  0.0000000  0.6508444  3
   4081   4085   4087   4089     1  0.0000000  0.6508444  3
   4085   4086   4098   4101     1  0.0000000  0.6508444  3
   4085   4087   4089   4093     1  0.0000000  0.6508444  3
   4086   4098   4101   4102     1  180.0000771  0.0000000  2
   4086   4098   4101   4103     1  180.0000771  0.0000000  2
   4086   4085   4087   4089     1  0.0000000  0.6508444  3
   4087   4089   4093   4094     1  180.0000771  0.0000000  2
   4087   4089   4093   4095     1  180.0000771  0.0000000  2
   4087   4085   4086   4098     1  0.0000000  0.6508444  3
   4107   4109   4111   4115     1  0.0000000  0.6508444  3
   4109   4111   4115   4116     1  0.0000000  0.6508444  3
   4109   4111   4115   4117     1  0.0000000  0.6508444  3
   4111   4115   4116   4128     1  0.0000000  0.6508444  3
   4111   4115   4117   4119     1  0.0000000  0.6508444  3
   4115   4116   4128   4131     1  0.0000000  0.6508444  3
   4115   4117   4119   4123     1  0.0000000  0.6508444  3
   4116   4115   4117   4119     1  0.0000000  0.6508444  3
   4116   4128   4131   4132     1  180.0000771  0.0000000  2
   4116   4128   4131   4133     1  180.0000771  0.0000000  2
   4117   4115   4116   4128     1  0.0000000  0.6508444  3
   4117   4119   4123   4124     1  180.0000771  0.0000000  2
   4117   4119   4123   4125     1  180.0000771  0.0000000  2
   4137   4139   4141   4145     1  0.0000000  0.6508444  3
   4139   4141   4145   4146     1  0.0000000  0.6508444  3
   4139   4141   4145   4147     1  0.0000000  0.6508444  3
   4141   4145   4146   4158     1  0.0000000  0.6508444  3
   4141   4145   4147   4149     1  0.0000000  0.6508444  3
   4145   4146   4158   4161     1  0.0000000  0.6508444  3
   4145   4147   4149   4153     1  0.0000000  0.6508444  3
   4146   4158   4161   4162     1  180.0000771  0.0000000  2
   4146   4158   4161   4163     1  180.0000771  0.0000000  2
   4146   4145   4147   4149     1  0.0000000  0.6508444  3
   4147   4149   4153   4154     1  180.0000771  0.0000000  2
   4147   4149   4153   4155     1  180.0000771  0.0000000  2
   4147   4145   4146   4158     1  0.0000000  0.6508444  3
   4167   4169   4171   4175     1  0.0000000  0.6508444  3
   4169   4171   4175   4176     1  0.0000000  0.6508444  3
   4169   4171   4175   4177     1  0.0000000  0.6508444  3
   4171   4175   4176   4188     1  0.0000000  0.6508444  3
   4171   4175   4177   4179     1  0.0000000  0.6508444  3
   4175   4176   4188   4191     1  0.0000000  0.6508444  3
   4175   4177   4179   4183     1  0.0000000  0.6508444  3
   4176   4175   4177   4179     1  0.0000000  0.6508444  3
   4176   4188   4191   4192     1  180.0000771  0.0000000  2
   4176   4188   4191   4193     1  180.0000771  0.0000000  2
   4177   4175   4176   4188     1  0.0000000  0.6508444  3
   4177   4179   4183   4184     1  180.0000771  0.0000000  2
   4177   4179   4183   4185     1  180.0000771  0.0000000  2
   4197   4199   4201   4205     1  0.0000000  0.6508444  3
   4199   4201   4205   4206     1  0.0000000  0.6508444  3
   4199   4201   4205   4207     1  0.0000000  0.6508444  3
   4201   4205   4206   4218     1  0.0000000  0.6508444  3
   4201   4205   4207   4209     1  0.0000000  0.6508444  3
   4205   4206   4218   4221     1  0.0000000  0.6508444  3
   4205   4207   4209   4213     1  0.0000000  0.6508444  3
   4206   4218   4221   4222     1  180.0000771  0.0000000  2
   4206   4218   4221   4223     1  180.0000771  0.0000000  2
   4206   4205   4207   4209     1  0.0000000  0.6508444  3
   4207   4209   4213   4214     1  180.0000771  0.0000000  2
   4207   4209   4213   4215     1  180.0000771  0.0000000  2
   4207   4205   4206   4218     1  0.0000000  0.6508444  3
   4227   4229   4231   4235     1  0.0000000  0.6508444  3
   4229   4231   4235   4236     1  0.0000000  0.6508444  3
   4229   4231   4235   4237     1  0.0000000  0.6508444  3
   4231   4235   4236   4248     1  0.0000000  0.6508444  3
   4231   4235   4237   4239     1  0.0000000  0.6508444  3
   4235   4236   4248   4251     1  0.0000000  0.6508444  3
   4235   4237   4239   4243     1  0.0000000  0.6508444  3
   4236   4235   4237   4239     1  0.0000000  0.6508444  3
   4236   4248   4251   4252     1  180.0000771  0.0000000  2
   4236   4248   4251   4253     1  180.0000771  0.0000000  2
   4237   4235   4236   4248     1  0.0000000  0.6508444  3
   4237   4239   4243   4244     1  180.0000771  0.0000000  2
   4237   4239   4243   4245     1  180.0000771  0.0000000  2
   4257   4259   4261   4265     1  0.0000000  0.6508444  3
   4259   4261   4265   4266     1  0.0000000  0.6508444  3
   4259   4261   4265   4267     1  0.0000000  0.6508444  3
   4261   4265   4266   4278     1  0.0000000  0.6508444  3
   4261   4265   4267   4269     1  0.0000000  0.6508444  3
   4265   4266   4278   4281     1  0.0000000  0.6508444  3
   4265   4267   4269   4273     1  0.0000000  0.6508444  3
   4266   4278   4281   4282     1  180.0000771  0.0000000  2
   4266   4278   4281   4283     1  180.0000771  0.0000000  2
   4266   4265   4267   4269     1  0.0000000  0.6508444  3
   4267   4269   4273   4274     1  180.0000771  0.0000000  2
   4267   4269   4273   4275     1  180.0000771  0.0000000  2
   4267   4265   4266   4278     1  0.0000000  0.6508444  3
   4287   4289   4291   4295     1  0.0000000  0.6508444  3
   4289   4291   4295   4296     1  0.0000000  0.6508444  3
   4289   4291   4295   4297     1  0.0000000  0.6508444  3
   4291   4295   4296   4308     1  0.0000000  0.6508444  3
   4291   4295   4297   4299     1  0.0000000  0.6508444  3
   4295   4296   4308   4311     1  0.0000000  0.6508444  3
   4295   4297   4299   4303     1  0.0000000  0.6508444  3
   4296   4295   4297   4299     1  0.0000000  0.6508444  3
   4296   4308   4311   4312     1  180.0000771  0.0000000  2
   4296   4308   4311   4313     1  180.0000771  0.0000000  2
   4297   4295   4296   4308     1  0.0000000  0.6508444  3
   4297   4299   4303   4304     1  180.0000771  0.0000000  2
   4297   4299   4303   4305     1  180.0000771  0.0000000  2
   4317   4319   4321   4325     1  0.0000000  0.6508444  3
   4319   4321   4325   4326     1  0.0000000  0.6508444  3
   4319   4321   4325   4327     1  0.0000000  0.6508444  3
   4321   4325   4326   4338     1  0.0000000  0.6508444  3
   4321   4325   4327   4329     1  0.0000000  0.6508444  3
   4325   4326   4338   4341     1  0.0000000  0.6508444  3
   4325   4327   4329   4333     1  0.0000000  0.6508444  3
   4326   4338   4341   4342     1  180.0000771  0.0000000  2
   4326   4338   4341   4343     1  180.0000771  0.0000000  2
   4326   4325   4327   4329     1  0.0000000  0.6508444  3
   4327   4329   4333   4334     1  180.0000771  0.0000000  2
   4327   4329   4333   4335     1  180.0000771  0.0000000  2
   4327   4325   4326   4338     1  0.0000000  0.6508444  3
   4347   4349   4351   4355     1  0.0000000  0.6508444  3
   4349   4351   4355   4356     1  0.0000000  0.6508444  3
   4349   4351   4355   4357     1  0.0000000  0.6508444  3
   4351   4355   4356   4368     1  0.0000000  0.6508444  3
   4351   4355   4357   4359     1  0.0000000  0.6508444  3
   4355   4356   4368   4371     1  0.0000000  0.6508444  3
   4355   4357   4359   4363     1  0.0000000  0.6508444  3
   4356   4355   4357   4359     1  0.0000000  0.6508444  3
   4356   4368   4371   4372     1  180.0000771  0.0000000  2
   4356   4368   4371   4373     1  180.0000771  0.0000000  2
   4357   4355   4356   4368     1  0.0000000  0.6508444  3
   4357   4359   4363   4364     1  180.0000771  0.0000000  2
   4357   4359   4363   4365     1  180.0000771  0.0000000  2
   4377   4379   4381   4385     1  0.0000000  0.6508444  3
   4379   4381   4385   4386     1  0.0000000  0.6508444  3
   4379   4381   4385   4387     1  0.0000000  0.6508444  3
   4381   4385   4386   4398     1  0.0000000  0.6508444  3
   4381   4385   4387   4389     1  0.0000000  0.6508444  3
   4385   4386   4398   4401     1  0.0000000  0.6508444  3
   4385   4387   4389   4393     1  0.0000000  0.6508444  3
   4386   4398   4401   4402     1  180.0000771  0.0000000  2
   4386   4398   4401   4403     1  180.0000771  0.0000000  2
   4386   4385   4387   4389     1  0.0000000  0.6508444  3
   4387   4389   4393   4394     1  180.0000771  0.0000000  2
   4387   4389   4393   4395     1  180.0000771  0.0000000  2
   4387   4385   4386   4398     1  0.0000000  0.6508444  3
   4407   4409   4411   4415     1  0.0000000  0.6508444  3
   4409   4411   4415   4416     1  0.0000000  0.6508444  3
   4409   4411   4415   4417     1  0.0000000  0.6508444  3
   4411   4415   4416   4428     1  0.0000000  0.6508444  3
   4411   4415   4417   4419     1  0.0000000  0.6508444  3
   4415   4416   4428   4431     1  0.0000000  0.6508444  3
   4415   4417   4419   4423     1  0.0000000  0.6508444  3
   4416   4415   4417   4419     1  0.0000000  0.6508444  3
   4416   4428   4431   4432     1  180.0000771  0.0000000  2
   4416   4428   4431   4433     1  180.0000771  0.0000000  2
   4417   4415   4416   4428     1  0.0000000  0.6508444  3
   4417   4419   4423   4424     1  180.0000771  0.0000000  2
   4417   4419   4423   4425     1  180.0000771  0.0000000  2
   4437   4439   4441   4445     1  0.0000000  0.6508444  3
   4439   4441   4445   4446     1  0.0000000  0.6508444  3
   4439   4441   4445   4447     1  0.0000000  0.6508444  3
   4441   4445   4446   4458     1  0.0000000  0.6508444  3
   4441   4445   4447   4449     1  0.0000000  0.6508444  3
   4445   4446   4458   4461     1  0.0000000  0.6508444  3
   4445   4447   4449   4453     1  0.0000000  0.6508444  3
   4446   4458   4461   4462     1  180.0000771  0.0000000  2
   4446   4458   4461   4463     1  180.0000771  0.0000000  2
   4446   4445   4447   4449     1  0.0000000  0.6508444  3
   4447   4449   4453   4454     1  180.0000771  0.0000000  2
   4447   4449   4453   4455     1  180.0000771  0.0000000  2
   4447   4445   4446   4458     1  0.0000000  0.6508444  3
   4467   4469   4471   4475     1  0.0000000  0.6508444  3
   4469   4471   4475   4476     1  0.0000000  0.6508444  3
   4469   4471   4475   4477     1  0.0000000  0.6508444  3
   4471   4475   4476   4488     1  0.0000000  0.6508444  3
   4471   4475   4477   4479     1  0.0000000  0.6508444  3
   4475   4476   4488   4491     1  0.0000000  0.6508444  3
   4475   4477   4479   4483     1  0.0000000  0.6508444  3
   4476   4475   4477   4479     1  0.0000000  0.6508444  3
   4476   4488   4491   4492     1  180.0000771  0.0000000  2
   4476   4488   4491   4493     1  180.0000771  0.0000000  2
   4477   4475   4476   4488     1  0.0000000  0.6508444  3
   4477   4479   4483   4484     1  180.0000771  0.0000000  2
   4477   4479   4483   4485     1  180.0000771  0.0000000  2
   4497   4499   4501   4505     1  0.0000000  0.6508444  3
   4499   4501   4505   4506     1  0.0000000  0.6508444  3
   4499   4501   4505   4507     1  0.0000000  0.6508444  3
   4501   4505   4506   4518     1  0.0000000  0.6508444  3
   4501   4505   4507   4509     1  0.0000000  0.6508444  3
   4505   4506   4518   4521     1  0.0000000  0.6508444  3
   4505   4507   4509   4513     1  0.0000000  0.6508444  3
   4506   4518   4521   4522     1  180.0000771  0.0000000  2
   4506   4518   4521   4523     1  180.0000771  0.0000000  2
   4506   4505   4507   4509     1  0.0000000  0.6508444  3
   4507   4509   4513   4514     1  180.0000771  0.0000000  2
   4507   4509   4513   4515     1  180.0000771  0.0000000  2
   4507   4505   4506   4518     1  0.0000000  0.6508444  3
   4527   4529   4531   4535     1  0.0000000  0.6508444  3
   4529   4531   4535   4536     1  0.0000000  0.6508444  3
   4529   4531   4535   4537     1  0.0000000  0.6508444  3
   4531   4535   4536   4548     1  0.0000000  0.6508444  3
   4531   4535   4537   4539     1  0.0000000  0.6508444  3
   4535   4536   4548   4551     1  0.0000000  0.6508444  3
   4535   4537   4539   4543     1  0.0000000  0.6508444  3
   4536   4535   4537   4539     1  0.0000000  0.6508444  3
   4536   4548   4551   4552     1  180.0000771  0.0000000  2
   4536   4548   4551   4553     1  180.0000771  0.0000000  2
   4537   4535   4536   4548     1  0.0000000  0.6508444  3
   4537   4539   4543   4544     1  180.0000771  0.0000000  2
   4537   4539   4543   4545     1  180.0000771  0.0000000  2
   4557   4559   4561   4565     1  0.0000000  0.6508444  3
   4559   4561   4565   4566     1  0.0000000  0.6508444  3
   4559   4561   4565   4567     1  0.0000000  0.6508444  3
   4561   4565   4566   4578     1  0.0000000  0.6508444  3
   4561   4565   4567   4569     1  0.0000000  0.6508444  3
   4565   4566   4578   4581     1  0.0000000  0.6508444  3
   4565   4567   4569   4573     1  0.0000000  0.6508444  3
   4566   4578   4581   4582     1  180.0000771  0.0000000  2
   4566   4578   4581   4583     1  180.0000771  0.0000000  2
   4566   4565   4567   4569     1  0.0000000  0.6508444  3
   4567   4569   4573   4574     1  180.0000771  0.0000000  2
   4567   4569   4573   4575     1  180.0000771  0.0000000  2
   4567   4565   4566   4578     1  0.0000000  0.6508444  3
   4587   4589   4591   4595     1  0.0000000  0.6508444  3
   4589   4591   4595   4596     1  0.0000000  0.6508444  3
   4589   4591   4595   4597     1  0.0000000  0.6508444  3
   4591   4595   4596   4608     1  0.0000000  0.6508444  3
   4591   4595   4597   4599     1  0.0000000  0.6508444  3
   4595   4596   4608   4611     1  0.0000000  0.6508444  3
   4595   4597   4599   4603     1  0.0000000  0.6508444  3
   4596   4595   4597   4599     1  0.0000000  0.6508444  3
   4596   4608   4611   4612     1  180.0000771  0.0000000  2
   4596   4608   4611   4613     1  180.0000771  0.0000000  2
   4597   4595   4596   4608     1  0.0000000  0.6508444  3
   4597   4599   4603   4604     1  180.0000771  0.0000000  2
   4597   4599   4603   4605     1  180.0000771  0.0000000  2
   4617   4619   4621   4625     1  0.0000000  0.6508444  3
   4619   4621   4625   4626     1  0.0000000  0.6508444  3
   4619   4621   4625   4627     1  0.0000000  0.6508444  3
   4621   4625   4626   4638     1  0.0000000  0.6508444  3
   4621   4625   4627   4629     1  0.0000000  0.6508444  3
   4625   4626   4638   4641     1  0.0000000  0.6508444  3
   4625   4627   4629   4633     1  0.0000000  0.6508444  3
   4626   4638   4641   4642     1  180.0000771  0.0000000  2
   4626   4638   4641   4643     1  180.0000771  0.0000000  2
   4626   4625   4627   4629     1  0.0000000  0.6508444  3
   4627   4629   4633   4634     1  180.0000771  0.0000000  2
   4627   4629   4633   4635     1  180.0000771  0.0000000  2
   4627   4625   4626   4638     1  0.0000000  0.6508444  3
   4647   4649   4651   4655     1  0.0000000  0.6508444  3
   4649   4651   4655   4656     1  0.0000000  0.6508444  3
   4649   4651   4655   4657     1  0.0000000  0.6508444  3
   4651   4655   4656   4668     1  0.0000000  0.6508444  3
   4651   4655   4657   4659     1  0.0000000  0.6508444  3
   4655   4656   4668   4671     1  0.0000000  0.6508444  3
   4655   4657   4659   4663     1  0.0000000  0.6508444  3
   4656   4655   4657   4659     1  0.0000000  0.6508444  3
   4656   4668   4671   4672     1  180.0000771  0.0000000  2
   4656   4668   4671   4673     1  180.0000771  0.0000000  2
   4657   4655   4656   4668     1  0.0000000  0.6508444  3
   4657   4659   4663   4664     1  180.0000771  0.0000000  2
   4657   4659   4663   4665     1  180.0000771  0.0000000  2
   4677   4679   4681   4685     1  0.0000000  0.6508444  3
   4679   4681   4685   4686     1  0.0000000  0.6508444  3
   4679   4681   4685   4687     1  0.0000000  0.6508444  3
   4681   4685   4686   4698     1  0.0000000  0.6508444  3
   4681   4685   4687   4689     1  0.0000000  0.6508444  3
   4685   4686   4698   4701     1  0.0000000  0.6508444  3
   4685   4687   4689   4693     1  0.0000000  0.6508444  3
   4686   4698   4701   4702     1  180.0000771  0.0000000  2
   4686   4698   4701   4703     1  180.0000771  0.0000000  2
   4686   4685   4687   4689     1  0.0000000  0.6508444  3
   4687   4689   4693   4694     1  180.0000771  0.0000000  2
   4687   4689   4693   4695     1  180.0000771  0.0000000  2
   4687   4685   4686   4698     1  0.0000000  0.6508444  3
   4707   4709   4711   4715     1  0.0000000  0.6508444  3
   4709   4711   4715   4716     1  0.0000000  0.6508444  3
   4709   4711   4715   4717     1  0.0000000  0.6508444  3
   4711   4715   4716   4728     1  0.0000000  0.6508444  3
   4711   4715   4717   4719     1  0.0000000  0.6508444  3
   4715   4716   4728   4731     1  0.0000000  0.6508444  3
   4715   4717   4719   4723     1  0.0000000  0.6508444  3
   4716   4715   4717   4719     1  0.0000000  0.6508444  3
   4716   4728   4731   4732     1  180.0000771  0.0000000  2
   4716   4728   4731   4733     1  180.0000771  0.0000000  2
   4717   4715   4716   4728     1  0.0000000  0.6508444  3
   4717   4719   4723   4724     1  180.0000771  0.0000000  2
   4717   4719   4723   4725     1  180.0000771  0.0000000  2
   4737   4739   4741   4745     1  0.0000000  0.6508444  3
   4739   4741   4745   4746     1  0.0000000  0.6508444  3
   4739   4741   4745   4747     1  0.0000000  0.6508444  3
   4741   4745   4746   4758     1  0.0000000  0.6508444  3
   4741   4745   4747   4749     1  0.0000000  0.6508444  3
   4745   4746   4758   4761     1  0.0000000  0.6508444  3
   4745   4747   4749   4753     1  0.0000000  0.6508444  3
   4746   4758   4761   4762     1  180.0000771  0.0000000  2
   4746   4758   4761   4763     1  180.0000771  0.0000000  2
   4746   4745   4747   4749     1  0.0000000  0.6508444  3
   4747   4749   4753   4754     1  180.0000771  0.0000000  2
   4747   4749   4753   4755     1  180.0000771  0.0000000  2
   4747   4745   4746   4758     1  0.0000000  0.6508444  3
   4767   4769   4771   4775     1  0.0000000  0.6508444  3
   4769   4771   4775   4776     1  0.0000000  0.6508444  3
   4769   4771   4775   4777     1  0.0000000  0.6508444  3
   4771   4775   4776   4788     1  0.0000000  0.6508444  3
   4771   4775   4777   4779     1  0.0000000  0.6508444  3
   4775   4776   4788   4791     1  0.0000000  0.6508444  3
   4775   4777   4779   4783     1  0.0000000  0.6508444  3
   4776   4775   4777   4779     1  0.0000000  0.6508444  3
   4776   4788   4791   4792     1  180.0000771  0.0000000  2
   4776   4788   4791   4793     1  180.0000771  0.0000000  2
   4777   4775   4776   4788     1  0.0000000  0.6508444  3
   4777   4779   4783   4784     1  180.0000771  0.0000000  2
   4777   4779   4783   4785     1  180.0000771  0.0000000  2
   4797   4799   4801   4805     1  0.0000000  0.6508444  3
   4799   4801   4805   4806     1  0.0000000  0.6508444  3
   4799   4801   4805   4807     1  0.0000000  0.6508444  3
   4801   4805   4806   4818     1  0.0000000  0.6508444  3
   4801   4805   4807   4809     1  0.0000000  0.6508444  3
   4805   4806   4818   4821     1  0.0000000  0.6508444  3
   4805   4807   4809   4813     1  0.0000000  0.6508444  3
   4806   4818   4821   4822     1  180.0000771  0.0000000  2
   4806   4818   4821   4823     1  180.0000771  0.0000000  2
   4806   4805   4807   4809     1  0.0000000  0.6508444  3
   4807   4809   4813   4814     1  180.0000771  0.0000000  2
   4807   4809   4813   4815     1  180.0000771  0.0000000  2
   4807   4805   4806   4818     1  0.0000000  0.6508444  3
   4827   4829   4831   4835     1  0.0000000  0.6508444  3
   4829   4831   4835   4836     1  0.0000000  0.6508444  3
   4829   4831   4835   4837     1  0.0000000  0.6508444  3
   4831   4835   4836   4848     1  0.0000000  0.6508444  3
   4831   4835   4837   4839     1  0.0000000  0.6508444  3
   4835   4836   4848   4851     1  0.0000000  0.6508444  3
   4835   4837   4839   4843     1  0.0000000  0.6508444  3
   4836   4835   4837   4839     1  0.0000000  0.6508444  3
   4836   4848   4851   4852     1  180.0000771  0.0000000  2
   4836   4848   4851   4853     1  180.0000771  0.0000000  2
   4837   4835   4836   4848     1  0.0000000  0.6508444  3
   4837   4839   4843   4844     1  180.0000771  0.0000000  2
   4837   4839   4843   4845     1  180.0000771  0.0000000  2
   4857   4859   4861   4865     1  0.0000000  0.6508444  3
   4859   4861   4865   4866     1  0.0000000  0.6508444  3
   4859   4861   4865   4867     1  0.0000000  0.6508444  3
   4861   4865   4866   4878     1  0.0000000  0.6508444  3
   4861   4865   4867   4869     1  0.0000000  0.6508444  3
   4865   4866   4878   4881     1  0.0000000  0.6508444  3
   4865   4867   4869   4873     1  0.0000000  0.6508444  3
   4866   4878   4881   4882     1  180.0000771  0.0000000  2
   4866   4878   4881   4883     1  180.0000771  0.0000000  2
   4866   4865   4867   4869     1  0.0000000  0.6508444  3
   4867   4869   4873   4874     1  180.0000771  0.0000000  2
   4867   4869   4873   4875     1  180.0000771  0.0000000  2
   4867   4865   4866   4878     1  0.0000000  0.6508444  3
   4887   4889   4891   4895     1  0.0000000  0.6508444  3
   4889   4891   4895   4896     1  0.0000000  0.6508444  3
   4889   4891   4895   4897     1  0.0000000  0.6508444  3
   4891   4895   4896   4908     1  0.0000000  0.6508444  3
   4891   4895   4897   4899     1  0.0000000  0.6508444  3
   4895   4896   4908   4911     1  0.0000000  0.6508444  3
   4895   4897   4899   4903     1  0.0000000  0.6508444  3
   4896   4895   4897   4899     1  0.0000000  0.6508444  3
   4896   4908   4911   4912     1  180.0000771  0.0000000  2
   4896   4908   4911   4913     1  180.0000771  0.0000000  2
   4897   4895   4896   4908     1  0.0000000  0.6508444  3
   4897   4899   4903   4904     1  180.0000771  0.0000000  2
   4897   4899   4903   4905     1  180.0000771  0.0000000  2
   4917   4919   4921   4925     1  0.0000000  0.6508444  3
   4919   4921   4925   4926     1  0.0000000  0.6508444  3
   4919   4921   4925   4927     1  0.0000000  0.6508444  3
   4921   4925   4926   4938     1  0.0000000  0.6508444  3
   4921   4925   4927   4929     1  0.0000000  0.6508444  3
   4925   4926   4938   4941     1  0.0000000  0.6508444  3
   4925   4927   4929   4933     1  0.0000000  0.6508444  3
   4926   4938   4941   4942     1  180.0000771  0.0000000  2
   4926   4938   4941   4943     1  180.0000771  0.0000000  2
   4926   4925   4927   4929     1  0.0000000  0.6508444  3
   4927   4929   4933   4934     1  180.0000771  0.0000000  2
   4927   4929   4933   4935     1  180.0000771  0.0000000  2
   4927   4925   4926   4938     1  0.0000000  0.6508444  3
   4947   4949   4951   4955     1  0.0000000  0.6508444  3
   4949   4951   4955   4956     1  0.0000000  0.6508444  3
   4949   4951   4955   4957     1  0.0000000  0.6508444  3
   4951   4955   4956   4968     1  0.0000000  0.6508444  3
   4951   4955   4957   4959     1  0.0000000  0.6508444  3
   4955   4956   4968   4971     1  0.0000000  0.6508444  3
   4955   4957   4959   4963     1  0.0000000  0.6508444  3
   4956   4955   4957   4959     1  0.0000000  0.6508444  3
   4956   4968   4971   4972     1  180.0000771  0.0000000  2
   4956   4968   4971   4973     1  180.0000771  0.0000000  2
   4957   4955   4956   4968     1  0.0000000  0.6508444  3
   4957   4959   4963   4964     1  180.0000771  0.0000000  2
   4957   4959   4963   4965     1  180.0000771  0.0000000  2
   4977   4979   4981   4985     1  0.0000000  0.6508444  3
   4979   4981   4985   4986     1  0.0000000  0.6508444  3
   4979   4981   4985   4987     1  0.0000000  0.6508444  3
   4981   4985   4986   4998     1  0.0000000  0.6508444  3
   4981   4985   4987   4989     1  0.0000000  0.6508444  3
   4985   4986   4998   5001     1  0.0000000  0.6508444  3
   4985   4987   4989   4993     1  0.0000000  0.6508444  3
   4986   4998   5001   5002     1  180.0000771  0.0000000  2
   4986   4998   5001   5003     1  180.0000771  0.0000000  2
   4986   4985   4987   4989     1  0.0000000  0.6508444  3
   4987   4989   4993   4994     1  180.0000771  0.0000000  2
   4987   4989   4993   4995     1  180.0000771  0.0000000  2
   4987   4985   4986   4998     1  0.0000000  0.6508444  3
   5007   5009   5011   5015     1  0.0000000  0.6508444  3
   5009   5011   5015   5016     1  0.0000000  0.6508444  3
   5009   5011   5015   5017     1  0.0000000  0.6508444  3
   5011   5015   5016   5028     1  0.0000000  0.6508444  3
   5011   5015   5017   5019     1  0.0000000  0.6508444  3
   5015   5016   5028   5031     1  0.0000000  0.6508444  3
   5015   5017   5019   5023     1  0.0000000  0.6508444  3
   5016   5015   5017   5019     1  0.0000000  0.6508444  3
   5016   5028   5031   5032     1  180.0000771  0.0000000  2
   5016   5028   5031   5033     1  180.0000771  0.0000000  2
   5017   5015   5016   5028     1  0.0000000  0.6508444  3
   5017   5019   5023   5024     1  180.0000771  0.0000000  2
   5017   5019   5023   5025     1  180.0000771  0.0000000  2
   5037   5039   5041   5045     1  0.0000000  0.6508444  3
   5039   5041   5045   5046     1  0.0000000  0.6508444  3
   5039   5041   5045   5047     1  0.0000000  0.6508444  3
   5041   5045   5046   5058     1  0.0000000  0.6508444  3
   5041   5045   5047   5049     1  0.0000000  0.6508444  3
   5045   5046   5058   5061     1  0.0000000  0.6508444  3
   5045   5047   5049   5053     1  0.0000000  0.6508444  3
   5046   5058   5061   5062     1  180.0000771  0.0000000  2
   5046   5058   5061   5063     1  180.0000771  0.0000000  2
   5046   5045   5047   5049     1  0.0000000  0.6508444  3
   5047   5049   5053   5054     1  180.0000771  0.0000000  2
   5047   5049   5053   5055     1  180.0000771  0.0000000  2
   5047   5045   5046   5058     1  0.0000000  0.6508444  3
   5067   5069   5071   5075     1  0.0000000  0.6508444  3
   5069   5071   5075   5076     1  0.0000000  0.6508444  3
   5069   5071   5075   5077     1  0.0000000  0.6508444  3
   5071   5075   5076   5088     1  0.0000000  0.6508444  3
   5071   5075   5077   5079     1  0.0000000  0.6508444  3
   5075   5076   5088   5091     1  0.0000000  0.6508444  3
   5075   5077   5079   5083     1  0.0000000  0.6508444  3
   5076   5075   5077   5079     1  0.0000000  0.6508444  3
   5076   5088   5091   5092     1  180.0000771  0.0000000  2
   5076   5088   5091   5093     1  180.0000771  0.0000000  2
   5077   5075   5076   5088     1  0.0000000  0.6508444  3
   5077   5079   5083   5084     1  180.0000771  0.0000000  2
   5077   5079   5083   5085     1  180.0000771  0.0000000  2
   5097   5099   5101   5105     1  0.0000000  0.6508444  3
   5099   5101   5105   5106     1  0.0000000  0.6508444  3
   5099   5101   5105   5107     1  0.0000000  0.6508444  3
   5101   5105   5106   5118     1  0.0000000  0.6508444  3
   5101   5105   5107   5109     1  0.0000000  0.6508444  3
   5105   5106   5118   5121     1  0.0000000  0.6508444  3
   5105   5107   5109   5113     1  0.0000000  0.6508444  3
   5106   5118   5121   5122     1  180.0000771  0.0000000  2
   5106   5118   5121   5123     1  180.0000771  0.0000000  2
   5106   5105   5107   5109     1  0.0000000  0.6508444  3
   5107   5109   5113   5114     1  180.0000771  0.0000000  2
   5107   5109   5113   5115     1  180.0000771  0.0000000  2
   5107   5105   5106   5118     1  0.0000000  0.6508444  3
   5127   5129   5131   5135     1  0.0000000  0.6508444  3
   5129   5131   5135   5136     1  0.0000000  0.6508444  3
   5129   5131   5135   5137     1  0.0000000  0.6508444  3
   5131   5135   5136   5148     1  0.0000000  0.6508444  3
   5131   5135   5137   5139     1  0.0000000  0.6508444  3
   5135   5136   5148   5151     1  0.0000000  0.6508444  3
   5135   5137   5139   5143     1  0.0000000  0.6508444  3
   5136   5135   5137   5139     1  0.0000000  0.6508444  3
   5136   5148   5151   5152     1  180.0000771  0.0000000  2
   5136   5148   5151   5153     1  180.0000771  0.0000000  2
   5137   5135   5136   5148     1  0.0000000  0.6508444  3
   5137   5139   5143   5144     1  180.0000771  0.0000000  2
   5137   5139   5143   5145     1  180.0000771  0.0000000  2
   5157   5159   5161   5165     1  0.0000000  0.6508444  3
   5159   5161   5165   5166     1  0.0000000  0.6508444  3
   5159   5161   5165   5167     1  0.0000000  0.6508444  3
   5161   5165   5166   5178     1  0.0000000  0.6508444  3
   5161   5165   5167   5169     1  0.0000000  0.6508444  3
   5165   5166   5178   5181     1  0.0000000  0.6508444  3
   5165   5167   5169   5173     1  0.0000000  0.6508444  3
   5166   5178   5181   5182     1  180.0000771  0.0000000  2
   5166   5178   5181   5183     1  180.0000771  0.0000000  2
   5166   5165   5167   5169     1  0.0000000  0.6508444  3
   5167   5169   5173   5174     1  180.0000771  0.0000000  2
   5167   5169   5173   5175     1  180.0000771  0.0000000  2
   5167   5165   5166   5178     1  0.0000000  0.6508444  3
   5187   5189   5191   5195     1  0.0000000  0.6508444  3
   5189   5191   5195   5196     1  0.0000000  0.6508444  3
   5189   5191   5195   5197     1  0.0000000  0.6508444  3
   5191   5195   5196   5208     1  0.0000000  0.6508444  3
   5191   5195   5197   5199     1  0.0000000  0.6508444  3
   5195   5196   5208   5211     1  0.0000000  0.6508444  3
   5195   5197   5199   5203     1  0.0000000  0.6508444  3
   5196   5195   5197   5199     1  0.0000000  0.6508444  3
   5196   5208   5211   5212     1  180.0000771  0.0000000  2
   5196   5208   5211   5213     1  180.0000771  0.0000000  2
   5197   5195   5196   5208     1  0.0000000  0.6508444  3
   5197   5199   5203   5204     1  180.0000771  0.0000000  2
   5197   5199   5203   5205     1  180.0000771  0.0000000  2
   5217   5219   5221   5225     1  0.0000000  0.6508444  3
   5219   5221   5225   5226     1  0.0000000  0.6508444  3
   5219   5221   5225   5227     1  0.0000000  0.6508444  3
   5221   5225   5226   5238     1  0.0000000  0.6508444  3
   5221   5225   5227   5229     1  0.0000000  0.6508444  3
   5225   5226   5238   5241     1  0.0000000  0.6508444  3
   5225   5227   5229   5233     1  0.0000000  0.6508444  3
   5226   5238   5241   5242     1  180.0000771  0.0000000  2
   5226   5238   5241   5243     1  180.0000771  0.0000000  2
   5226   5225   5227   5229     1  0.0000000  0.6508444  3
   5227   5229   5233   5234     1  180.0000771  0.0000000  2
   5227   5229   5233   5235     1  180.0000771  0.0000000  2
   5227   5225   5226   5238     1  0.0000000  0.6508444  3
   5247   5249   5251   5255     1  0.0000000  0.6508444  3
   5249   5251   5255   5256     1  0.0000000  0.6508444  3
   5249   5251   5255   5257     1  0.0000000  0.6508444  3
   5251   5255   5256   5268     1  0.0000000  0.6508444  3
   5251   5255   5257   5259     1  0.0000000  0.6508444  3
   5255   5256   5268   5271     1  0.0000000  0.6508444  3
   5255   5257   5259   5263     1  0.0000000  0.6508444  3
   5256   5255   5257   5259     1  0.0000000  0.6508444  3
   5256   5268   5271   5272     1  180.0000771  0.0000000  2
   5256   5268   5271   5273     1  180.0000771  0.0000000  2
   5257   5255   5256   5268     1  0.0000000  0.6508444  3
   5257   5259   5263   5264     1  180.0000771  0.0000000  2
   5257   5259   5263   5265     1  180.0000771  0.0000000  2
   5277   5279   5281   5285     1  0.0000000  0.6508444  3
   5279   5281   5285   5286     1  0.0000000  0.6508444  3
   5279   5281   5285   5287     1  0.0000000  0.6508444  3
   5281   5285   5286   5298     1  0.0000000  0.6508444  3
   5281   5285   5287   5289     1  0.0000000  0.6508444  3
   5285   5286   5298   5301     1  0.0000000  0.6508444  3
   5285   5287   5289   5293     1  0.0000000  0.6508444  3
   5286   5298   5301   5302     1  180.0000771  0.0000000  2
   5286   5298   5301   5303     1  180.0000771  0.0000000  2
   5286   5285   5287   5289     1  0.0000000  0.6508444  3
   5287   5289   5293   5294     1  180.0000771  0.0000000  2
   5287   5289   5293   5295     1  180.0000771  0.0000000  2
   5287   5285   5286   5298     1  0.0000000  0.6508444  3
   5307   5309   5311   5315     1  0.0000000  0.6508444  3
   5309   5311   5315   5316     1  0.0000000  0.6508444  3
   5309   5311   5315   5317     1  0.0000000  0.6508444  3
   5311   5315   5316   5328     1  0.0000000  0.6508444  3
   5311   5315   5317   5319     1  0.0000000  0.6508444  3
   5315   5316   5328   5331     1  0.0000000  0.6508444  3
   5315   5317   5319   5323     1  0.0000000  0.6508444  3
   5316   5315   5317   5319     1  0.0000000  0.6508444  3
   5316   5328   5331   5332     1  180.0000771  0.0000000  2
   5316   5328   5331   5333     1  180.0000771  0.0000000  2
   5317   5315   5316   5328     1  0.0000000  0.6508444  3
   5317   5319   5323   5324     1  180.0000771  0.0000000  2
   5317   5319   5323   5325     1  180.0000771  0.0000000  2
   5337   5339   5341   5345     1  0.0000000  0.6508444  3
   5339   5341   5345   5346     1  0.0000000  0.6508444  3
   5339   5341   5345   5347     1  0.0000000  0.6508444  3
   5341   5345   5346   5358     1  0.0000000  0.6508444  3
   5341   5345   5347   5349     1  0.0000000  0.6508444  3
   5345   5346   5358   5361     1  0.0000000  0.6508444  3
   5345   5347   5349   5353     1  0.0000000  0.6508444  3
   5346   5358   5361   5362     1  180.0000771  0.0000000  2
   5346   5358   5361   5363     1  180.0000771  0.0000000  2
   5346   5345   5347   5349     1  0.0000000  0.6508444  3
   5347   5349   5353   5354     1  180.0000771  0.0000000  2
   5347   5349   5353   5355     1  180.0000771  0.0000000  2
   5347   5345   5346   5358     1  0.0000000  0.6508444  3
   5367   5369   5371   5375     1  0.0000000  0.6508444  3
   5369   5371   5375   5376     1  0.0000000  0.6508444  3
   5369   5371   5375   5377     1  0.0000000  0.6508444  3
   5371   5375   5376   5388     1  0.0000000  0.6508444  3
   5371   5375   5377   5379     1  0.0000000  0.6508444  3
   5375   5376   5388   5391     1  0.0000000  0.6508444  3
   5375   5377   5379   5383     1  0.0000000  0.6508444  3
   5376   5375   5377   5379     1  0.0000000  0.6508444  3
   5376   5388   5391   5392     1  180.0000771  0.0000000  2
   5376   5388   5391   5393     1  180.0000771  0.0000000  2
   5377   5375   5376   5388     1  0.0000000  0.6508444  3
   5377   5379   5383   5384     1  180.0000771  0.0000000  2
   5377   5379   5383   5385     1  180.0000771  0.0000000  2
   5397   5399   5401   5405     1  0.0000000  0.6508444  3
   5399   5401   5405   5406     1  0.0000000  0.6508444  3
   5399   5401   5405   5407     1  0.0000000  0.6508444  3
   5401   5405   5406   5418     1  0.0000000  0.6508444  3
   5401   5405   5407   5409     1  0.0000000  0.6508444  3
   5405   5406   5418   5421     1  0.0000000  0.6508444  3
   5405   5407   5409   5413     1  0.0000000  0.6508444  3
   5406   5418   5421   5422     1  180.0000771  0.0000000  2
   5406   5418   5421   5423     1  180.0000771  0.0000000  2
   5406   5405   5407   5409     1  0.0000000  0.6508444  3
   5407   5409   5413   5414     1  180.0000771  0.0000000  2
   5407   5409   5413   5415     1  180.0000771  0.0000000  2
   5407   5405   5406   5418     1  0.0000000  0.6508444  3
   5427   5429   5431   5435     1  0.0000000  0.6508444  3
   5429   5431   5435   5436     1  0.0000000  0.6508444  3
   5429   5431   5435   5437     1  0.0000000  0.6508444  3
   5431   5435   5436   5448     1  0.0000000  0.6508444  3
   5431   5435   5437   5439     1  0.0000000  0.6508444  3
   5435   5436   5448   5451     1  0.0000000  0.6508444  3
   5435   5437   5439   5443     1  0.0000000  0.6508444  3
   5436   5435   5437   5439     1  0.0000000  0.6508444  3
   5436   5448   5451   5452     1  180.0000771  0.0000000  2
   5436   5448   5451   5453     1  180.0000771  0.0000000  2
   5437   5435   5436   5448     1  0.0000000  0.6508444  3
   5437   5439   5443   5444     1  180.0000771  0.0000000  2
   5437   5439   5443   5445     1  180.0000771  0.0000000  2
   5457   5459   5461   5465     1  0.0000000  0.6508444  3
   5459   5461   5465   5466     1  0.0000000  0.6508444  3
   5459   5461   5465   5467     1  0.0000000  0.6508444  3
   5461   5465   5466   5478     1  0.0000000  0.6508444  3
   5461   5465   5467   5469     1  0.0000000  0.6508444  3
   5465   5466   5478   5481     1  0.0000000  0.6508444  3
   5465   5467   5469   5473     1  0.0000000  0.6508444  3
   5466   5478   5481   5482     1  180.0000771  0.0000000  2
   5466   5478   5481   5483     1  180.0000771  0.0000000  2
   5466   5465   5467   5469     1  0.0000000  0.6508444  3
   5467   5469   5473   5474     1  180.0000771  0.0000000  2
   5467   5469   5473   5475     1  180.0000771  0.0000000  2
   5467   5465   5466   5478     1  0.0000000  0.6508444  3
   5487   5489   5491   5495     1  0.0000000  0.6508444  3
   5489   5491   5495   5496     1  0.0000000  0.6508444  3
   5489   5491   5495   5497     1  0.0000000  0.6508444  3
   5491   5495   5496   5508     1  0.0000000  0.6508444  3
   5491   5495   5497   5499     1  0.0000000  0.6508444  3
   5495   5496   5508   5511     1  0.0000000  0.6508444  3
   5495   5497   5499   5503     1  0.0000000  0.6508444  3
   5496   5495   5497   5499     1  0.0000000  0.6508444  3
   5496   5508   5511   5512     1  180.0000771  0.0000000  2
   5496   5508   5511   5513     1  180.0000771  0.0000000  2
   5497   5495   5496   5508     1  0.0000000  0.6508444  3
   5497   5499   5503   5504     1  180.0000771  0.0000000  2
   5497   5499   5503   5505     1  180.0000771  0.0000000  2
   5517   5519   5521   5525     1  0.0000000  0.6508444  3
   5519   5521   5525   5526     1  0.0000000  0.6508444  3
   5519   5521   5525   5527     1  0.0000000  0.6508444  3
   5521   5525   5526   5538     1  0.0000000  0.6508444  3
   5521   5525   5527   5529     1  0.0000000  0.6508444  3
   5525   5526   5538   5541     1  0.0000000  0.6508444  3
   5525   5527   5529   5533     1  0.0000000  0.6508444  3
   5526   5538   5541   5542     1  180.0000771  0.0000000  2
   5526   5538   5541   5543     1  180.0000771  0.0000000  2
   5526   5525   5527   5529     1  0.0000000  0.6508444  3
   5527   5529   5533   5534     1  180.0000771  0.0000000  2
   5527   5529   5533   5535     1  180.0000771  0.0000000  2
   5527   5525   5526   5538     1  0.0000000  0.6508444  3
   5547   5549   5551   5555     1  0.0000000  0.6508444  3
   5549   5551   5555   5556     1  0.0000000  0.6508444  3
   5549   5551   5555   5557     1  0.0000000  0.6508444  3
   5551   5555   5556   5568     1  0.0000000  0.6508444  3
   5551   5555   5557   5559     1  0.0000000  0.6508444  3
   5555   5556   5568   5571     1  0.0000000  0.6508444  3
   5555   5557   5559   5563     1  0.0000000  0.6508444  3
   5556   5555   5557   5559     1  0.0000000  0.6508444  3
   5556   5568   5571   5572     1  180.0000771  0.0000000  2
   5556   5568   5571   5573     1  180.0000771  0.0000000  2
   5557   5555   5556   5568     1  0.0000000  0.6508444  3
   5557   5559   5563   5564     1  180.0000771  0.0000000  2
   5557   5559   5563   5565     1  180.0000771  0.0000000  2
   5577   5579   5581   5585     1  0.0000000  0.6508444  3
   5579   5581   5585   5586     1  0.0000000  0.6508444  3
   5579   5581   5585   5587     1  0.0000000  0.6508444  3
   5581   5585   5586   5598     1  0.0000000  0.6508444  3
   5581   5585   5587   5589     1  0.0000000  0.6508444  3
   5585   5586   5598   5601     1  0.0000000  0.6508444  3
   5585   5587   5589   5593     1  0.0000000  0.6508444  3
   5586   5598   5601   5602     1  180.0000771  0.0000000  2
   5586   5598   5601   5603     1  180.0000771  0.0000000  2
   5586   5585   5587   5589     1  0.0000000  0.6508444  3
   5587   5589   5593   5594     1  180.0000771  0.0000000  2
   5587   5589   5593   5595     1  180.0000771  0.0000000  2
   5587   5585   5586   5598     1  0.0000000  0.6508444  3
   5607   5609   5611   5615     1  0.0000000  0.6508444  3
   5609   5611   5615   5616     1  0.0000000  0.6508444  3
   5609   5611   5615   5617     1  0.0000000  0.6508444  3
   5611   5615   5616   5628     1  0.0000000  0.6508444  3
   5611   5615   5617   5619     1  0.0000000  0.6508444  3
   5615   5616   5628   5631     1  0.0000000  0.6508444  3
   5615   5617   5619   5623     1  0.0000000  0.6508444  3
   5616   5615   5617   5619     1  0.0000000  0.6508444  3
   5616   5628   5631   5632     1  180.0000771  0.0000000  2
   5616   5628   5631   5633     1  180.0000771  0.0000000  2
   5617   5615   5616   5628     1  0.0000000  0.6508444  3
   5617   5619   5623   5624     1  180.0000771  0.0000000  2
   5617   5619   5623   5625     1  180.0000771  0.0000000  2
   5637   5639   5641   5645     1  0.0000000  0.6508444  3
   5639   5641   5645   5646     1  0.0000000  0.6508444  3
   5639   5641   5645   5647     1  0.0000000  0.6508444  3
   5641   5645   5646   5658     1  0.0000000  0.6508444  3
   5641   5645   5647   5649     1  0.0000000  0.6508444  3
   5645   5646   5658   5661     1  0.0000000  0.6508444  3
   5645   5647   5649   5653     1  0.0000000  0.6508444  3
   5646   5658   5661   5662     1  180.0000771  0.0000000  2
   5646   5658   5661   5663     1  180.0000771  0.0000000  2
   5646   5645   5647   5649     1  0.0000000  0.6508444  3
   5647   5649   5653   5654     1  180.0000771  0.0000000  2
   5647   5649   5653   5655     1  180.0000771  0.0000000  2
   5647   5645   5646   5658     1  0.0000000  0.6508444  3
   5667   5669   5671   5675     1  0.0000000  0.6508444  3
   5669   5671   5675   5676     1  0.0000000  0.6508444  3
   5669   5671   5675   5677     1  0.0000000  0.6508444  3
   5671   5675   5676   5688     1  0.0000000  0.6508444  3
   5671   5675   5677   5679     1  0.0000000  0.6508444  3
   5675   5676   5688   5691     1  0.0000000  0.6508444  3
   5675   5677   5679   5683     1  0.0000000  0.6508444  3
   5676   5675   5677   5679     1  0.0000000  0.6508444  3
   5676   5688   5691   5692     1  180.0000771  0.0000000  2
   5676   5688   5691   5693     1  180.0000771  0.0000000  2
   5677   5675   5676   5688     1  0.0000000  0.6508444  3
   5677   5679   5683   5684     1  180.0000771  0.0000000  2
   5677   5679   5683   5685     1  180.0000771  0.0000000  2
   5697   5699   5701   5705     1  0.0000000  0.6508444  3
   5699   5701   5705   5706     1  0.0000000  0.6508444  3
   5699   5701   5705   5707     1  0.0000000  0.6508444  3
   5701   5705   5706   5718     1  0.0000000  0.6508444  3
   5701   5705   5707   5709     1  0.0000000  0.6508444  3
   5705   5706   5718   5721     1  0.0000000  0.6508444  3
   5705   5707   5709   5713     1  0.0000000  0.6508444  3
   5706   5718   5721   5722     1  180.0000771  0.0000000  2
   5706   5718   5721   5723     1  180.0000771  0.0000000  2
   5706   5705   5707   5709     1  0.0000000  0.6508444  3
   5707   5709   5713   5714     1  180.0000771  0.0000000  2
   5707   5709   5713   5715     1  180.0000771  0.0000000  2
   5707   5705   5706   5718     1  0.0000000  0.6508444  3
   5727   5729   5731   5735     1  0.0000000  0.6508444  3
   5729   5731   5735   5736     1  0.0000000  0.6508444  3
   5729   5731   5735   5737     1  0.0000000  0.6508444  3
   5731   5735   5736   5748     1  0.0000000  0.6508444  3
   5731   5735   5737   5739     1  0.0000000  0.6508444  3
   5735   5736   5748   5751     1  0.0000000  0.6508444  3
   5735   5737   5739   5743     1  0.0000000  0.6508444  3
   5736   5735   5737   5739     1  0.0000000  0.6508444  3
   5736   5748   5751   5752     1  180.0000771  0.0000000  2
   5736   5748   5751   5753     1  180.0000771  0.0000000  2
   5737   5735   5736   5748     1  0.0000000  0.6508444  3
   5737   5739   5743   5744     1  180.0000771  0.0000000  2
   5737   5739   5743   5745     1  180.0000771  0.0000000  2
   5757   5759   5761   5765     1  0.0000000  0.6508444  3
   5759   5761   5765   5766     1  0.0000000  0.6508444  3
   5759   5761   5765   5767     1  0.0000000  0.6508444  3
   5761   5765   5766   5778     1  0.0000000  0.6508444  3
   5761   5765   5767   5769     1  0.0000000  0.6508444  3
   5765   5766   5778   5781     1  0.0000000  0.6508444  3
   5765   5767   5769   5773     1  0.0000000  0.6508444  3
   5766   5778   5781   5782     1  180.0000771  0.0000000  2
   5766   5778   5781   5783     1  180.0000771  0.0000000  2
   5766   5765   5767   5769     1  0.0000000  0.6508444  3
   5767   5769   5773   5774     1  180.0000771  0.0000000  2
   5767   5769   5773   5775     1  180.0000771  0.0000000  2
   5767   5765   5766   5778     1  0.0000000  0.6508444  3
   5787   5789   5791   5795     1  0.0000000  0.6508444  3
   5789   5791   5795   5796     1  0.0000000  0.6508444  3
   5789   5791   5795   5797     1  0.0000000  0.6508444  3
   5791   5795   5796   5808     1  0.0000000  0.6508444  3
   5791   5795   5797   5799     1  0.0000000  0.6508444  3
   5795   5796   5808   5811     1  0.0000000  0.6508444  3
   5795   5797   5799   5803     1  0.0000000  0.6508444  3
   5796   5795   5797   5799     1  0.0000000  0.6508444  3
   5796   5808   5811   5812     1  180.0000771  0.0000000  2
   5796   5808   5811   5813     1  180.0000771  0.0000000  2
   5797   5795   5796   5808     1  0.0000000  0.6508444  3
   5797   5799   5803   5804     1  180.0000771  0.0000000  2
   5797   5799   5803   5805     1  180.0000771  0.0000000  2
   5817   5819   5821   5825     1  0.0000000  0.6508444  3
   5819   5821   5825   5826     1  0.0000000  0.6508444  3
   5819   5821   5825   5827     1  0.0000000  0.6508444  3
   5821   5825   5826   5838     1  0.0000000  0.6508444  3
   5821   5825   5827   5829     1  0.0000000  0.6508444  3
   5825   5826   5838   5841     1  0.0000000  0.6508444  3
   5825   5827   5829   5833     1  0.0000000  0.6508444  3
   5826   5838   5841   5842     1  180.0000771  0.0000000  2
   5826   5838   5841   5843     1  180.0000771  0.0000000  2
   5826   5825   5827   5829     1  0.0000000  0.6508444  3
   5827   5829   5833   5834     1  180.0000771  0.0000000  2
   5827   5829   5833   5835     1  180.0000771  0.0000000  2
   5827   5825   5826   5838     1  0.0000000  0.6508444  3
   5847   5849   5851   5855     1  0.0000000  0.6508444  3
   5849   5851   5855   5856     1  0.0000000  0.6508444  3
   5849   5851   5855   5857     1  0.0000000  0.6508444  3
   5851   5855   5856   5868     1  0.0000000  0.6508444  3
   5851   5855   5857   5859     1  0.0000000  0.6508444  3
   5855   5856   5868   5871     1  0.0000000  0.6508444  3
   5855   5857   5859   5863     1  0.0000000  0.6508444  3
   5856   5855   5857   5859     1  0.0000000  0.6508444  3
   5856   5868   5871   5872     1  180.0000771  0.0000000  2
   5856   5868   5871   5873     1  180.0000771  0.0000000  2
   5857   5855   5856   5868     1  0.0000000  0.6508444  3
   5857   5859   5863   5864     1  180.0000771  0.0000000  2
   5857   5859   5863   5865     1  180.0000771  0.0000000  2
   5877   5879   5881   5885     1  0.0000000  0.6508444  3
   5879   5881   5885   5886     1  0.0000000  0.6508444  3
   5879   5881   5885   5887     1  0.0000000  0.6508444  3
   5881   5885   5886   5898     1  0.0000000  0.6508444  3
   5881   5885   5887   5889     1  0.0000000  0.6508444  3
   5885   5886   5898   5901     1  0.0000000  0.6508444  3
   5885   5887   5889   5893     1  0.0000000  0.6508444  3
   5886   5898   5901   5902     1  180.0000771  0.0000000  2
   5886   5898   5901   5903     1  180.0000771  0.0000000  2
   5886   5885   5887   5889     1  0.0000000  0.6508444  3
   5887   5889   5893   5894     1  180.0000771  0.0000000  2
   5887   5889   5893   5895     1  180.0000771  0.0000000  2
   5887   5885   5886   5898     1  0.0000000  0.6508444  3
   5907   5909   5911   5915     1  0.0000000  0.6508444  3
   5909   5911   5915   5916     1  0.0000000  0.6508444  3
   5909   5911   5915   5917     1  0.0000000  0.6508444  3
   5911   5915   5916   5928     1  0.0000000  0.6508444  3
   5911   5915   5917   5919     1  0.0000000  0.6508444  3
   5915   5916   5928   5931     1  0.0000000  0.6508444  3
   5915   5917   5919   5923     1  0.0000000  0.6508444  3
   5916   5915   5917   5919     1  0.0000000  0.6508444  3
   5916   5928   5931   5932     1  180.0000771  0.0000000  2
   5916   5928   5931   5933     1  180.0000771  0.0000000  2
   5917   5915   5916   5928     1  0.0000000  0.6508444  3
   5917   5919   5923   5924     1  180.0000771  0.0000000  2
   5917   5919   5923   5925     1  180.0000771  0.0000000  2
   5937   5939   5941   5945     1  0.0000000  0.6508444  3
   5939   5941   5945   5946     1  0.0000000  0.6508444  3
   5939   5941   5945   5947     1  0.0000000  0.6508444  3
   5941   5945   5946   5958     1  0.0000000  0.6508444  3
   5941   5945   5947   5949     1  0.0000000  0.6508444  3
   5945   5946   5958   5961     1  0.0000000  0.6508444  3
   5945   5947   5949   5953     1  0.0000000  0.6508444  3
   5946   5958   5961   5962     1  180.0000771  0.0000000  2
   5946   5958   5961   5963     1  180.0000771  0.0000000  2
   5946   5945   5947   5949     1  0.0000000  0.6508444  3
   5947   5949   5953   5954     1  180.0000771  0.0000000  2
   5947   5949   5953   5955     1  180.0000771  0.0000000  2
   5947   5945   5946   5958     1  0.0000000  0.6508444  3
   5967   5969   5971   5975     1  0.0000000  0.6508444  3
   5969   5971   5975   5976     1  0.0000000  0.6508444  3
   5969   5971   5975   5977     1  0.0000000  0.6508444  3
   5971   5975   5976   5988     1  0.0000000  0.6508444  3
   5971   5975   5977   5979     1  0.0000000  0.6508444  3
   5975   5976   5988   5991     1  0.0000000  0.6508444  3
   5975   5977   5979   5983     1  0.0000000  0.6508444  3
   5976   5975   5977   5979     1  0.0000000  0.6508444  3
   5976   5988   5991   5992     1  180.0000771  0.0000000  2
   5976   5988   5991   5993     1  180.0000771  0.0000000  2
   5977   5975   5976   5988     1  0.0000000  0.6508444  3
   5977   5979   5983   5984     1  180.0000771  0.0000000  2
   5977   5979   5983   5985     1  180.0000771  0.0000000  2
   5997   5999   6001   6005     1  0.0000000  0.6508444  3
   5999   6001   6005   6006     1  0.0000000  0.6508444  3
   5999   6001   6005   6007     1  0.0000000  0.6508444  3
   6001   6005   6006   6018     1  0.0000000  0.6508444  3
   6001   6005   6007   6009     1  0.0000000  0.6508444  3
   6005   6006   6018   6021     1  0.0000000  0.6508444  3
   6005   6007   6009   6013     1  0.0000000  0.6508444  3
   6006   6018   6021   6022     1  180.0000771  0.0000000  2
   6006   6018   6021   6023     1  180.0000771  0.0000000  2
   6006   6005   6007   6009     1  0.0000000  0.6508444  3
   6007   6009   6013   6014     1  180.0000771  0.0000000  2
   6007   6009   6013   6015     1  180.0000771  0.0000000  2
   6007   6005   6006   6018     1  0.0000000  0.6508444  3
   6027   6029   6031   6035     1  0.0000000  0.6508444  3
   6029   6031   6035   6036     1  0.0000000  0.6508444  3
   6029   6031   6035   6037     1  0.0000000  0.6508444  3
   6031   6035   6036   6048     1  0.0000000  0.6508444  3
   6031   6035   6037   6039     1  0.0000000  0.6508444  3
   6035   6036   6048   6051     1  0.0000000  0.6508444  3
   6035   6037   6039   6043     1  0.0000000  0.6508444  3
   6036   6035   6037   6039     1  0.0000000  0.6508444  3
   6036   6048   6051   6052     1  180.0000771  0.0000000  2
   6036   6048   6051   6053     1  180.0000771  0.0000000  2
   6037   6035   6036   6048     1  0.0000000  0.6508444  3
   6037   6039   6043   6044     1  180.0000771  0.0000000  2
   6037   6039   6043   6045     1  180.0000771  0.0000000  2
   6057   6059   6061   6065     1  0.0000000  0.6508444  3
   6059   6061   6065   6066     1  0.0000000  0.6508444  3
   6059   6061   6065   6067     1  0.0000000  0.6508444  3
   6061   6065   6066   6078     1  0.0000000  0.6508444  3
   6061   6065   6067   6069     1  0.0000000  0.6508444  3
   6065   6066   6078   6081     1  0.0000000  0.6508444  3
   6065   6067   6069   6073     1  0.0000000  0.6508444  3
   6066   6078   6081   6082     1  180.0000771  0.0000000  2
   6066   6078   6081   6083     1  180.0000771  0.0000000  2
   6066   6065   6067   6069     1  0.0000000  0.6508444  3
   6067   6069   6073   6074     1  180.0000771  0.0000000  2
   6067   6069   6073   6075     1  180.0000771  0.0000000  2
   6067   6065   6066   6078     1  0.0000000  0.6508444  3
   6087   6089   6091   6095     1  0.0000000  0.6508444  3
   6089   6091   6095   6096     1  0.0000000  0.6508444  3
   6089   6091   6095   6097     1  0.0000000  0.6508444  3
   6091   6095   6096   6108     1  0.0000000  0.6508444  3
   6091   6095   6097   6099     1  0.0000000  0.6508444  3
   6095   6096   6108   6111     1  0.0000000  0.6508444  3
   6095   6097   6099   6103     1  0.0000000  0.6508444  3
   6096   6095   6097   6099     1  0.0000000  0.6508444  3
   6096   6108   6111   6112     1  180.0000771  0.0000000  2
   6096   6108   6111   6113     1  180.0000771  0.0000000  2
   6097   6095   6096   6108     1  0.0000000  0.6508444  3
   6097   6099   6103   6104     1  180.0000771  0.0000000  2
   6097   6099   6103   6105     1  180.0000771  0.0000000  2
   6117   6119   6121   6125     1  0.0000000  0.6508444  3
   6119   6121   6125   6126     1  0.0000000  0.6508444  3
   6119   6121   6125   6127     1  0.0000000  0.6508444  3
   6121   6125   6126   6138     1  0.0000000  0.6508444  3
   6121   6125   6127   6129     1  0.0000000  0.6508444  3
   6125   6126   6138   6141     1  0.0000000  0.6508444  3
   6125   6127   6129   6133     1  0.0000000  0.6508444  3
   6126   6138   6141   6142     1  180.0000771  0.0000000  2
   6126   6138   6141   6143     1  180.0000771  0.0000000  2
   6126   6125   6127   6129     1  0.0000000  0.6508444  3
   6127   6129   6133   6134     1  180.0000771  0.0000000  2
   6127   6129   6133   6135     1  180.0000771  0.0000000  2
   6127   6125   6126   6138     1  0.0000000  0.6508444  3
   6147   6149   6151   6155     1  0.0000000  0.6508444  3
   6149   6151   6155   6156     1  0.0000000  0.6508444  3
   6149   6151   6155   6157     1  0.0000000  0.6508444  3
   6151   6155   6156   6168     1  0.0000000  0.6508444  3
   6151   6155   6157   6159     1  0.0000000  0.6508444  3
   6155   6156   6168   6171     1  0.0000000  0.6508444  3
   6155   6157   6159   6163     1  0.0000000  0.6508444  3
   6156   6155   6157   6159     1  0.0000000  0.6508444  3
   6156   6168   6171   6172     1  180.0000771  0.0000000  2
   6156   6168   6171   6173     1  180.0000771  0.0000000  2
   6157   6155   6156   6168     1  0.0000000  0.6508444  3
   6157   6159   6163   6164     1  180.0000771  0.0000000  2
   6157   6159   6163   6165     1  180.0000771  0.0000000  2
   6177   6179   6181   6185     1  0.0000000  0.6508444  3
   6179   6181   6185   6186     1  0.0000000  0.6508444  3
   6179   6181   6185   6187     1  0.0000000  0.6508444  3
   6181   6185   6186   6198     1  0.0000000  0.6508444  3
   6181   6185   6187   6189     1  0.0000000  0.6508444  3
   6185   6186   6198   6201     1  0.0000000  0.6508444  3
   6185   6187   6189   6193     1  0.0000000  0.6508444  3
   6186   6198   6201   6202     1  180.0000771  0.0000000  2
   6186   6198   6201   6203     1  180.0000771  0.0000000  2
   6186   6185   6187   6189     1  0.0000000  0.6508444  3
   6187   6189   6193   6194     1  180.0000771  0.0000000  2
   6187   6189   6193   6195     1  180.0000771  0.0000000  2
   6187   6185   6186   6198     1  0.0000000  0.6508444  3
   6207   6209   6211   6215     1  0.0000000  0.6508444  3
   6209   6211   6215   6216     1  0.0000000  0.6508444  3
   6209   6211   6215   6217     1  0.0000000  0.6508444  3
   6211   6215   6216   6228     1  0.0000000  0.6508444  3
   6211   6215   6217   6219     1  0.0000000  0.6508444  3
   6215   6216   6228   6231     1  0.0000000  0.6508444  3
   6215   6217   6219   6223     1  0.0000000  0.6508444  3
   6216   6215   6217   6219     1  0.0000000  0.6508444  3
   6216   6228   6231   6232     1  180.0000771  0.0000000  2
   6216   6228   6231   6233     1  180.0000771  0.0000000  2
   6217   6215   6216   6228     1  0.0000000  0.6508444  3
   6217   6219   6223   6224     1  180.0000771  0.0000000  2
   6217   6219   6223   6225     1  180.0000771  0.0000000  2
   6237   6239   6241   6245     1  0.0000000  0.6508444  3
   6239   6241   6245   6246     1  0.0000000  0.6508444  3
   6239   6241   6245   6247     1  0.0000000  0.6508444  3
   6241   6245   6246   6258     1  0.0000000  0.6508444  3
   6241   6245   6247   6249     1  0.0000000  0.6508444  3
   6245   6246   6258   6261     1  0.0000000  0.6508444  3
   6245   6247   6249   6253     1  0.0000000  0.6508444  3
   6246   6258   6261   6262     1  180.0000771  0.0000000  2
   6246   6258   6261   6263     1  180.0000771  0.0000000  2
   6246   6245   6247   6249     1  0.0000000  0.6508444  3
   6247   6249   6253   6254     1  180.0000771  0.0000000  2
   6247   6249   6253   6255     1  180.0000771  0.0000000  2
   6247   6245   6246   6258     1  0.0000000  0.6508444  3
   6267   6269   6271   6275     1  0.0000000  0.6508444  3
   6269   6271   6275   6276     1  0.0000000  0.6508444  3
   6269   6271   6275   6277     1  0.0000000  0.6508444  3
   6271   6275   6276   6288     1  0.0000000  0.6508444  3
   6271   6275   6277   6279     1  0.0000000  0.6508444  3
   6275   6276   6288   6291     1  0.0000000  0.6508444  3
   6275   6277   6279   6283     1  0.0000000  0.6508444  3
   6276   6275   6277   6279     1  0.0000000  0.6508444  3
   6276   6288   6291   6292     1  180.0000771  0.0000000  2
   6276   6288   6291   6293     1  180.0000771  0.0000000  2
   6277   6275   6276   6288     1  0.0000000  0.6508444  3
   6277   6279   6283   6284     1  180.0000771  0.0000000  2
   6277   6279   6283   6285     1  180.0000771  0.0000000  2
   6297   6299   6301   6305     1  0.0000000  0.6508444  3
   6299   6301   6305   6306     1  0.0000000  0.6508444  3
   6299   6301   6305   6307     1  0.0000000  0.6508444  3
   6301   6305   6306   6318     1  0.0000000  0.6508444  3
   6301   6305   6307   6309     1  0.0000000  0.6508444  3
   6305   6306   6318   6321     1  0.0000000  0.6508444  3
   6305   6307   6309   6313     1  0.0000000  0.6508444  3
   6306   6318   6321   6322     1  180.0000771  0.0000000  2
   6306   6318   6321   6323     1  180.0000771  0.0000000  2
   6306   6305   6307   6309     1  0.0000000  0.6508444  3
   6307   6309   6313   6314     1  180.0000771  0.0000000  2
   6307   6309   6313   6315     1  180.0000771  0.0000000  2
   6307   6305   6306   6318     1  0.0000000  0.6508444  3
   6327   6329   6331   6335     1  0.0000000  0.6508444  3
   6329   6331   6335   6336     1  0.0000000  0.6508444  3
   6329   6331   6335   6337     1  0.0000000  0.6508444  3
   6331   6335   6336   6348     1  0.0000000  0.6508444  3
   6331   6335   6337   6339     1  0.0000000  0.6508444  3
   6335   6336   6348   6351     1  0.0000000  0.6508444  3
   6335   6337   6339   6343     1  0.0000000  0.6508444  3
   6336   6335   6337   6339     1  0.0000000  0.6508444  3
   6336   6348   6351   6352     1  180.0000771  0.0000000  2
   6336   6348   6351   6353     1  180.0000771  0.0000000  2
   6337   6335   6336   6348     1  0.0000000  0.6508444  3
   6337   6339   6343   6344     1  180.0000771  0.0000000  2
   6337   6339   6343   6345     1  180.0000771  0.0000000  2
   6357   6359   6361   6365     1  0.0000000  0.6508444  3
   6359   6361   6365   6366     1  0.0000000  0.6508444  3
   6359   6361   6365   6367     1  0.0000000  0.6508444  3
   6361   6365   6366   6378     1  0.0000000  0.6508444  3
   6361   6365   6367   6369     1  0.0000000  0.6508444  3
   6365   6366   6378   6381     1  0.0000000  0.6508444  3
   6365   6367   6369   6373     1  0.0000000  0.6508444  3
   6366   6378   6381   6382     1  180.0000771  0.0000000  2
   6366   6378   6381   6383     1  180.0000771  0.0000000  2
   6366   6365   6367   6369     1  0.0000000  0.6508444  3
   6367   6369   6373   6374     1  180.0000771  0.0000000  2
   6367   6369   6373   6375     1  180.0000771  0.0000000  2
   6367   6365   6366   6378     1  0.0000000  0.6508444  3
   6387   6389   6391   6395     1  0.0000000  0.6508444  3
   6389   6391   6395   6396     1  0.0000000  0.6508444  3
   6389   6391   6395   6397     1  0.0000000  0.6508444  3
   6391   6395   6396   6408     1  0.0000000  0.6508444  3
   6391   6395   6397   6399     1  0.0000000  0.6508444  3
   6395   6396   6408   6411     1  0.0000000  0.6508444  3
   6395   6397   6399   6403     1  0.0000000  0.6508444  3
   6396   6395   6397   6399     1  0.0000000  0.6508444  3
   6396   6408   6411   6412     1  180.0000771  0.0000000  2
   6396   6408   6411   6413     1  180.0000771  0.0000000  2
   6397   6395   6396   6408     1  0.0000000  0.6508444  3
   6397   6399   6403   6404     1  180.0000771  0.0000000  2
   6397   6399   6403   6405     1  180.0000771  0.0000000  2
   6417   6419   6421   6425     1  0.0000000  0.6508444  3
   6419   6421   6425   6426     1  0.0000000  0.6508444  3
   6419   6421   6425   6427     1  0.0000000  0.6508444  3
   6421   6425   6426   6438     1  0.0000000  0.6508444  3
   6421   6425   6427   6429     1  0.0000000  0.6508444  3
   6425   6426   6438   6441     1  0.0000000  0.6508444  3
   6425   6427   6429   6433     1  0.0000000  0.6508444  3
   6426   6438   6441   6442     1  180.0000771  0.0000000  2
   6426   6438   6441   6443     1  180.0000771  0.0000000  2
   6426   6425   6427   6429     1  0.0000000  0.6508444  3
   6427   6429   6433   6434     1  180.0000771  0.0000000  2
   6427   6429   6433   6435     1  180.0000771  0.0000000  2
   6427   6425   6426   6438     1  0.0000000  0.6508444  3
   6447   6449   6451   6455     1  0.0000000  0.6508444  3
   6449   6451   6455   6456     1  0.0000000  0.6508444  3
   6449   6451   6455   6457     1  0.0000000  0.6508444  3
   6451   6455   6456   6468     1  0.0000000  0.6508444  3
   6451   6455   6457   6459     1  0.0000000  0.6508444  3
   6455   6456   6468   6471     1  0.0000000  0.6508444  3
   6455   6457   6459   6463     1  0.0000000  0.6508444  3
   6456   6455   6457   6459     1  0.0000000  0.6508444  3
   6456   6468   6471   6472     1  180.0000771  0.0000000  2
   6456   6468   6471   6473     1  180.0000771  0.0000000  2
   6457   6455   6456   6468     1  0.0000000  0.6508444  3
   6457   6459   6463   6464     1  180.0000771  0.0000000  2
   6457   6459   6463   6465     1  180.0000771  0.0000000  2
   6477   6479   6481   6485     1  0.0000000  0.6508444  3
   6479   6481   6485   6486     1  0.0000000  0.6508444  3
   6479   6481   6485   6487     1  0.0000000  0.6508444  3
   6481   6485   6486   6498     1  0.0000000  0.6508444  3
   6481   6485   6487   6489     1  0.0000000  0.6508444  3
   6485   6486   6498   6501     1  0.0000000  0.6508444  3
   6485   6487   6489   6493     1  0.0000000  0.6508444  3
   6486   6498   6501   6502     1  180.0000771  0.0000000  2
   6486   6498   6501   6503     1  180.0000771  0.0000000  2
   6486   6485   6487   6489     1  0.0000000  0.6508444  3
   6487   6489   6493   6494     1  180.0000771  0.0000000  2
   6487   6489   6493   6495     1  180.0000771  0.0000000  2
   6487   6485   6486   6498     1  0.0000000  0.6508444  3
   6507   6509   6511   6515     1  0.0000000  0.6508444  3
   6509   6511   6515   6516     1  0.0000000  0.6508444  3
   6509   6511   6515   6517     1  0.0000000  0.6508444  3
   6511   6515   6516   6528     1  0.0000000  0.6508444  3
   6511   6515   6517   6519     1  0.0000000  0.6508444  3
   6515   6516   6528   6531     1  0.0000000  0.6508444  3
   6515   6517   6519   6523     1  0.0000000  0.6508444  3
   6516   6515   6517   6519     1  0.0000000  0.6508444  3
   6516   6528   6531   6532     1  180.0000771  0.0000000  2
   6516   6528   6531   6533     1  180.0000771  0.0000000  2
   6517   6515   6516   6528     1  0.0000000  0.6508444  3
   6517   6519   6523   6524     1  180.0000771  0.0000000  2
   6517   6519   6523   6525     1  180.0000771  0.0000000  2
   6537   6539   6541   6545     1  0.0000000  0.6508444  3
   6539   6541   6545   6546     1  0.0000000  0.6508444  3
   6539   6541   6545   6547     1  0.0000000  0.6508444  3
   6541   6545   6546   6558     1  0.0000000  0.6508444  3
   6541   6545   6547   6549     1  0.0000000  0.6508444  3
   6545   6546   6558   6561     1  0.0000000  0.6508444  3
   6545   6547   6549   6553     1  0.0000000  0.6508444  3
   6546   6558   6561   6562     1  180.0000771  0.0000000  2
   6546   6558   6561   6563     1  180.0000771  0.0000000  2
   6546   6545   6547   6549     1  0.0000000  0.6508444  3
   6547   6549   6553   6554     1  180.0000771  0.0000000  2
   6547   6549   6553   6555     1  180.0000771  0.0000000  2
   6547   6545   6546   6558     1  0.0000000  0.6508444  3
   6567   6569   6571   6575     1  0.0000000  0.6508444  3
   6569   6571   6575   6576     1  0.0000000  0.6508444  3
   6569   6571   6575   6577     1  0.0000000  0.6508444  3
   6571   6575   6576   6588     1  0.0000000  0.6508444  3
   6571   6575   6577   6579     1  0.0000000  0.6508444  3
   6575   6576   6588   6591     1  0.0000000  0.6508444  3
   6575   6577   6579   6583     1  0.0000000  0.6508444  3
   6576   6575   6577   6579     1  0.0000000  0.6508444  3
   6576   6588   6591   6592     1  180.0000771  0.0000000  2
   6576   6588   6591   6593     1  180.0000771  0.0000000  2
   6577   6575   6576   6588     1  0.0000000  0.6508444  3
   6577   6579   6583   6584     1  180.0000771  0.0000000  2
   6577   6579   6583   6585     1  180.0000771  0.0000000  2
   6597   6599   6601   6605     1  0.0000000  0.6508444  3
   6599   6601   6605   6606     1  0.0000000  0.6508444  3
   6599   6601   6605   6607     1  0.0000000  0.6508444  3
   6601   6605   6606   6618     1  0.0000000  0.6508444  3
   6601   6605   6607   6609     1  0.0000000  0.6508444  3
   6605   6606   6618   6621     1  0.0000000  0.6508444  3
   6605   6607   6609   6613     1  0.0000000  0.6508444  3
   6606   6618   6621   6622     1  180.0000771  0.0000000  2
   6606   6618   6621   6623     1  180.0000771  0.0000000  2
   6606   6605   6607   6609     1  0.0000000  0.6508444  3
   6607   6609   6613   6614     1  180.0000771  0.0000000  2
   6607   6609   6613   6615     1  180.0000771  0.0000000  2
   6607   6605   6606   6618     1  0.0000000  0.6508444  3
   6627   6629   6631   6635     1  0.0000000  0.6508444  3
   6629   6631   6635   6636     1  0.0000000  0.6508444  3
   6629   6631   6635   6637     1  0.0000000  0.6508444  3
   6631   6635   6636   6648     1  0.0000000  0.6508444  3
   6631   6635   6637   6639     1  0.0000000  0.6508444  3
   6635   6636   6648   6651     1  0.0000000  0.6508444  3
   6635   6637   6639   6643     1  0.0000000  0.6508444  3
   6636   6635   6637   6639     1  0.0000000  0.6508444  3
   6636   6648   6651   6652     1  180.0000771  0.0000000  2
   6636   6648   6651   6653     1  180.0000771  0.0000000  2
   6637   6635   6636   6648     1  0.0000000  0.6508444  3
   6637   6639   6643   6644     1  180.0000771  0.0000000  2
   6637   6639   6643   6645     1  180.0000771  0.0000000  2
   6657   6659   6661   6665     1  0.0000000  0.6508444  3
   6659   6661   6665   6666     1  0.0000000  0.6508444  3
   6659   6661   6665   6667     1  0.0000000  0.6508444  3
   6661   6665   6666   6678     1  0.0000000  0.6508444  3
   6661   6665   6667   6669     1  0.0000000  0.6508444  3
   6665   6666   6678   6681     1  0.0000000  0.6508444  3
   6665   6667   6669   6673     1  0.0000000  0.6508444  3
   6666   6678   6681   6682     1  180.0000771  0.0000000  2
   6666   6678   6681   6683     1  180.0000771  0.0000000  2
   6666   6665   6667   6669     1  0.0000000  0.6508444  3
   6667   6669   6673   6674     1  180.0000771  0.0000000  2
   6667   6669   6673   6675     1  180.0000771  0.0000000  2
   6667   6665   6666   6678     1  0.0000000  0.6508444  3
   6687   6689   6691   6695     1  0.0000000  0.6508444  3
   6689   6691   6695   6696     1  0.0000000  0.6508444  3
   6689   6691   6695   6697     1  0.0000000  0.6508444  3
   6691   6695   6696   6708     1  0.0000000  0.6508444  3
   6691   6695   6697   6699     1  0.0000000  0.6508444  3
   6695   6696   6708   6711     1  0.0000000  0.6508444  3
   6695   6697   6699   6703     1  0.0000000  0.6508444  3
   6696   6695   6697   6699     1  0.0000000  0.6508444  3
   6696   6708   6711   6712     1  180.0000771  0.0000000  2
   6696   6708   6711   6713     1  180.0000771  0.0000000  2
   6697   6695   6696   6708     1  0.0000000  0.6508444  3
   6697   6699   6703   6704     1  180.0000771  0.0000000  2
   6697   6699   6703   6705     1  180.0000771  0.0000000  2
   6717   6719   6721   6725     1  0.0000000  0.6508444  3
   6719   6721   6725   6726     1  0.0000000  0.6508444  3
   6719   6721   6725   6727     1  0.0000000  0.6508444  3
   6721   6725   6726   6738     1  0.0000000  0.6508444  3
   6721   6725   6727   6729     1  0.0000000  0.6508444  3
   6725   6726   6738   6741     1  0.0000000  0.6508444  3
   6725   6727   6729   6733     1  0.0000000  0.6508444  3
   6726   6738   6741   6742     1  180.0000771  0.0000000  2
   6726   6738   6741   6743     1  180.0000771  0.0000000  2
   6726   6725   6727   6729     1  0.0000000  0.6508444  3
   6727   6729   6733   6734     1  180.0000771  0.0000000  2
   6727   6729   6733   6735     1  180.0000771  0.0000000  2
   6727   6725   6726   6738     1  0.0000000  0.6508444  3
   6747   6749   6751   6755     1  0.0000000  0.6508444  3
   6749   6751   6755   6756     1  0.0000000  0.6508444  3
   6749   6751   6755   6757     1  0.0000000  0.6508444  3
   6751   6755   6756   6768     1  0.0000000  0.6508444  3
   6751   6755   6757   6759     1  0.0000000  0.6508444  3
   6755   6756   6768   6771     1  0.0000000  0.6508444  3
   6755   6757   6759   6763     1  0.0000000  0.6508444  3
   6756   6755   6757   6759     1  0.0000000  0.6508444  3
   6756   6768   6771   6772     1  180.0000771  0.0000000  2
   6756   6768   6771   6773     1  180.0000771  0.0000000  2
   6757   6755   6756   6768     1  0.0000000  0.6508444  3
   6757   6759   6763   6764     1  180.0000771  0.0000000  2
   6757   6759   6763   6765     1  180.0000771  0.0000000  2
   6777   6779   6781   6785     1  0.0000000  0.6508444  3
   6779   6781   6785   6786     1  0.0000000  0.6508444  3
   6779   6781   6785   6787     1  0.0000000  0.6508444  3
   6781   6785   6786   6798     1  0.0000000  0.6508444  3
   6781   6785   6787   6789     1  0.0000000  0.6508444  3
   6785   6786   6798   6801     1  0.0000000  0.6508444  3
   6785   6787   6789   6793     1  0.0000000  0.6508444  3
   6786   6798   6801   6802     1  180.0000771  0.0000000  2
   6786   6798   6801   6803     1  180.0000771  0.0000000  2
   6786   6785   6787   6789     1  0.0000000  0.6508444  3
   6787   6789   6793   6794     1  180.0000771  0.0000000  2
   6787   6789   6793   6795     1  180.0000771  0.0000000  2
   6787   6785   6786   6798     1  0.0000000  0.6508444  3
   6807   6809   6811   6815     1  0.0000000  0.6508444  3
   6809   6811   6815   6816     1  0.0000000  0.6508444  3
   6809   6811   6815   6817     1  0.0000000  0.6508444  3
   6811   6815   6816   6828     1  0.0000000  0.6508444  3
   6811   6815   6817   6819     1  0.0000000  0.6508444  3
   6815   6816   6828   6831     1  0.0000000  0.6508444  3
   6815   6817   6819   6823     1  0.0000000  0.6508444  3
   6816   6815   6817   6819     1  0.0000000  0.6508444  3
   6816   6828   6831   6832     1  180.0000771  0.0000000  2
   6816   6828   6831   6833     1  180.0000771  0.0000000  2
   6817   6815   6816   6828     1  0.0000000  0.6508444  3
   6817   6819   6823   6824     1  180.0000771  0.0000000  2
   6817   6819   6823   6825     1  180.0000771  0.0000000  2
   6837   6839   6841   6845     1  0.0000000  0.6508444  3
   6839   6841   6845   6846     1  0.0000000  0.6508444  3
   6839   6841   6845   6847     1  0.0000000  0.6508444  3
   6841   6845   6846   6858     1  0.0000000  0.6508444  3
   6841   6845   6847   6849     1  0.0000000  0.6508444  3
   6845   6846   6858   6861     1  0.0000000  0.6508444  3
   6845   6847   6849   6853     1  0.0000000  0.6508444  3
   6846   6858   6861   6862     1  180.0000771  0.0000000  2
   6846   6858   6861   6863     1  180.0000771  0.0000000  2
   6846   6845   6847   6849     1  0.0000000  0.6508444  3
   6847   6849   6853   6854     1  180.0000771  0.0000000  2
   6847   6849   6853   6855     1  180.0000771  0.0000000  2
   6847   6845   6846   6858     1  0.0000000  0.6508444  3
   6867   6869   6871   6875     1  0.0000000  0.6508444  3
   6869   6871   6875   6876     1  0.0000000  0.6508444  3
   6869   6871   6875   6877     1  0.0000000  0.6508444  3
   6871   6875   6876   6888     1  0.0000000  0.6508444  3
   6871   6875   6877   6879     1  0.0000000  0.6508444  3
   6875   6876   6888   6891     1  0.0000000  0.6508444  3
   6875   6877   6879   6883     1  0.0000000  0.6508444  3
   6876   6875   6877   6879     1  0.0000000  0.6508444  3
   6876   6888   6891   6892     1  180.0000771  0.0000000  2
   6876   6888   6891   6893     1  180.0000771  0.0000000  2
   6877   6875   6876   6888     1  0.0000000  0.6508444  3
   6877   6879   6883   6884     1  180.0000771  0.0000000  2
   6877   6879   6883   6885     1  180.0000771  0.0000000  2
   6897   6899   6901   6905     1  0.0000000  0.6508444  3
   6899   6901   6905   6906     1  0.0000000  0.6508444  3
   6899   6901   6905   6907     1  0.0000000  0.6508444  3
   6901   6905   6906   6918     1  0.0000000  0.6508444  3
   6901   6905   6907   6909     1  0.0000000  0.6508444  3
   6905   6906   6918   6921     1  0.0000000  0.6508444  3
   6905   6907   6909   6913     1  0.0000000  0.6508444  3
   6906   6918   6921   6922     1  180.0000771  0.0000000  2
   6906   6918   6921   6923     1  180.0000771  0.0000000  2
   6906   6905   6907   6909     1  0.0000000  0.6508444  3
   6907   6909   6913   6914     1  180.0000771  0.0000000  2
   6907   6909   6913   6915     1  180.0000771  0.0000000  2
   6907   6905   6906   6918     1  0.0000000  0.6508444  3
   6927   6929   6931   6935     1  0.0000000  0.6508444  3
   6929   6931   6935   6936     1  0.0000000  0.6508444  3
   6929   6931   6935   6937     1  0.0000000  0.6508444  3
   6931   6935   6936   6948     1  0.0000000  0.6508444  3
   6931   6935   6937   6939     1  0.0000000  0.6508444  3
   6935   6936   6948   6951     1  0.0000000  0.6508444  3
   6935   6937   6939   6943     1  0.0000000  0.6508444  3
   6936   6935   6937   6939     1  0.0000000  0.6508444  3
   6936   6948   6951   6952     1  180.0000771  0.0000000  2
   6936   6948   6951   6953     1  180.0000771  0.0000000  2
   6937   6935   6936   6948     1  0.0000000  0.6508444  3
   6937   6939   6943   6944     1  180.0000771  0.0000000  2
   6937   6939   6943   6945     1  180.0000771  0.0000000  2
   6957   6959   6961   6965     1  0.0000000  0.6508444  3
   6959   6961   6965   6966     1  0.0000000  0.6508444  3
   6959   6961   6965   6967     1  0.0000000  0.6508444  3
   6961   6965   6966   6978     1  0.0000000  0.6508444  3
   6961   6965   6967   6969     1  0.0000000  0.6508444  3
   6965   6966   6978   6981     1  0.0000000  0.6508444  3
   6965   6967   6969   6973     1  0.0000000  0.6508444  3
   6966   6978   6981   6982     1  180.0000771  0.0000000  2
   6966   6978   6981   6983     1  180.0000771  0.0000000  2
   6966   6965   6967   6969     1  0.0000000  0.6508444  3
   6967   6969   6973   6974     1  180.0000771  0.0000000  2
   6967   6969   6973   6975     1  180.0000771  0.0000000  2
   6967   6965   6966   6978     1  0.0000000  0.6508444  3
   6987   6989   6991   6995     1  0.0000000  0.6508444  3
   6989   6991   6995   6996     1  0.0000000  0.6508444  3
   6989   6991   6995   6997     1  0.0000000  0.6508444  3
   6991   6995   6996   7008     1  0.0000000  0.6508444  3
   6991   6995   6997   6999     1  0.0000000  0.6508444  3
   6995   6996   7008   7011     1  0.0000000  0.6508444  3
   6995   6997   6999   7003     1  0.0000000  0.6508444  3
   6996   6995   6997   6999     1  0.0000000  0.6508444  3
   6996   7008   7011   7012     1  180.0000771  0.0000000  2
   6996   7008   7011   7013     1  180.0000771  0.0000000  2
   6997   6995   6996   7008     1  0.0000000  0.6508444  3
   6997   6999   7003   7004     1  180.0000771  0.0000000  2
   6997   6999   7003   7005     1  180.0000771  0.0000000  2
   7017   7019   7021   7025     1  0.0000000  0.6508444  3
   7019   7021   7025   7026     1  0.0000000  0.6508444  3
   7019   7021   7025   7027     1  0.0000000  0.6508444  3
   7021   7025   7026   7038     1  0.0000000  0.6508444  3
   7021   7025   7027   7029     1  0.0000000  0.6508444  3
   7025   7026   7038   7041     1  0.0000000  0.6508444  3
   7025   7027   7029   7033     1  0.0000000  0.6508444  3
   7026   7038   7041   7042     1  180.0000771  0.0000000  2
   7026   7038   7041   7043     1  180.0000771  0.0000000  2
   7026   7025   7027   7029     1  0.0000000  0.6508444  3
   7027   7029   7033   7034     1  180.0000771  0.0000000  2
   7027   7029   7033   7035     1  180.0000771  0.0000000  2
   7027   7025   7026   7038     1  0.0000000  0.6508444  3
   7047   7049   7051   7055     1  0.0000000  0.6508444  3
   7049   7051   7055   7056     1  0.0000000  0.6508444  3
   7049   7051   7055   7057     1  0.0000000  0.6508444  3
   7051   7055   7056   7068     1  0.0000000  0.6508444  3
   7051   7055   7057   7059     1  0.0000000  0.6508444  3
   7055   7056   7068   7071     1  0.0000000  0.6508444  3
   7055   7057   7059   7063     1  0.0000000  0.6508444  3
   7056   7055   7057   7059     1  0.0000000  0.6508444  3
   7056   7068   7071   7072     1  180.0000771  0.0000000  2
   7056   7068   7071   7073     1  180.0000771  0.0000000  2
   7057   7055   7056   7068     1  0.0000000  0.6508444  3
   7057   7059   7063   7064     1  180.0000771  0.0000000  2
   7057   7059   7063   7065     1  180.0000771  0.0000000  2
   7077   7079   7081   7085     1  0.0000000  0.6508444  3
   7079   7081   7085   7086     1  0.0000000  0.6508444  3
   7079   7081   7085   7087     1  0.0000000  0.6508444  3
   7081   7085   7086   7098     1  0.0000000  0.6508444  3
   7081   7085   7087   7089     1  0.0000000  0.6508444  3
   7085   7086   7098   7101     1  0.0000000  0.6508444  3
   7085   7087   7089   7093     1  0.0000000  0.6508444  3
   7086   7098   7101   7102     1  180.0000771  0.0000000  2
   7086   7098   7101   7103     1  180.0000771  0.0000000  2
   7086   7085   7087   7089     1  0.0000000  0.6508444  3
   7087   7089   7093   7094     1  180.0000771  0.0000000  2
   7087   7089   7093   7095     1  180.0000771  0.0000000  2
   7087   7085   7086   7098     1  0.0000000  0.6508444  3
      9     52     10     18     4  180.0000771  43.9320000  2
     11     78     12     17     4  180.0000771  43.9320000  2
     13    104     14     20     4  180.0000771  43.9320000  2
     15    130     16     19     4  180.0000771  43.9320000  2
     46    156     47     53     4  180.0000771  43.9320000  2
     48    182     49     54     4  180.0000771  43.9320000  2
     72    208     73     79     4  180.0000771  43.9320000  2
     74    234     75     80     4  180.0000771  43.9320000  2
     98    260     99    105     4  180.0000771  43.9320000  2
    100    286    101    106     4  180.0000771  43.9320000  2
    124    312    125    131     4  180.0000771  43.9320000  2
    126    338    127    132     4  180.0000771  43.9320000  2
    150    364    151    157     4  180.0000771  43.9320000  2
    152    390    153    158     4  180.0000771  43.9320000  2
    176    416    177    183     4  180.0000771  43.9320000  2
    178    442    179    184     4  180.0000771  43.9320000  2
    202    468    203    209     4  180.0000771  43.9320000  2
    204    494    205    210     4  180.0000771  43.9320000  2
    228    520    229    235     4  180.0000771  43.9320000  2
    230    546    231    236     4  180.0000771  43.9320000  2
    254    572    255    261     4  180.0000771  43.9320000  2
    256    598    257    262     4  180.0000771  43.9320000  2
    280    624    281    287     4  180.0000771  43.9320000  2
    282    650    283    288     4  180.0000771  43.9320000  2
    306    676    307    313     4  180.0000771  43.9320000  2
    308    702    309    314     4  180.0000771  43.9320000  2
    332    728    333    339     4  180.0000771  43.9320000  2
    334    754    335    340     4  180.0000771  43.9320000  2
    358    780    359    365     4  180.0000771  43.9320000  2
    360    806    361    366     4  180.0000771  43.9320000  2
    384    832    385    391     4  180.0000771  43.9320000  2
    386    858    387    392     4  180.0000771  43.9320000  2
    410    884    411    417     4  180.0000771  43.9320000  2
    412    910    413    418     4  180.0000771  43.9320000  2
    436    936    437    443     4  180.0000771  43.9320000  2
    438    962    439    444     4  180.0000771  43.9320000  2
    462    988    463    469     4  180.0000771  43.9320000  2
    464   1014    465    470     4  180.0000771  43.9320000  2
    488   1040    489    495     4  180.0000771  43.9320000  2
    490   1066    491    496     4  180.0000771  43.9320000  2
    514   1092    515    521     4  180.0000771  43.9320000  2
    516   1118    517    522     4  180.0000771  43.9320000  2
    540   1144    541    547     4  180.0000771  43.9320000  2
    542   1170    543    548     4  180.0000771  43.9320000  2
    566   1196    567    573     4  180.0000771  43.9320000  2
    568   1222    569    574     4  180.0000771  43.9320000  2
    592   1248    593    599     4  180.0000771  43.9320000  2
    594   1274    595    600     4  180.0000771  43.9320000  2
    618   1300    619    625     4  180.0000771  43.9320000  2
    620   1326    621    626     4  180.0000771  43.9320000  2
    644   1352    645    651     4  180.0000771  43.9320000  2
    646   1378    647    652     4  180.0000771  43.9320000  2
    670   1404    671    677     4  180.0000771  43.9320000  2
    672   1430    673    678     4  180.0000771  43.9320000  2
    696   1456    697    703     4  180.0000771  43.9320000  2
    698   1482    699    704     4  180.0000771  43.9320000  2
    722   1508    723    729     4  180.0000771  43.9320000  2
    724   1534    725    730     4  180.0000771  43.9320000  2
    748   1560    749    755     4  180.0000771  43.9320000  2
    750   1586    751    756     4  180.0000771  43.9320000  2
    774   1612    775    781     4  180.0000771  43.9320000  2
    776   1638    777    782     4  180.0000771  43.9320000  2
    800   1664    801    807     4  180.0000771  43.9320000  2
    802   1690    803    808     4  180.0000771  43.9320000  2
    826   1716    827    833     4  180.0000771  43.9320000  2
    828   1742    829    834     4  180.0000771  43.9320000  2
    852   1768    853    859     4  180.0000771  43.9320000  2
    854   1794    855    860     4  180.0000771  43.9320000  2
    878   1820    879    885     4  180.0000771  43.9320000  2
    880   1846    881    886     4  180.0000771  43.9320000  2
    904   1872    905    911     4  180.0000771  43.9320000  2
    906   1898    907    912     4  180.0000771  43.9320000  2
    930   1924    931    937     4  180.0000771  43.9320000  2
    932   1950    933    938     4  180.0000771  43.9320000  2
    956   1976    957    963     4  180.0000771  43.9320000  2
    958   2002    959    964     4  180.0000771  43.9320000  2
    982   2028    983    989     4  180.0000771  43.9320000  2
    984   2054    985    990     4  180.0000771  43.9320000  2
   1008   2080   1009   1015     4  180.0000771  43.9320000  2
   1010   2106   1011   1016     4  180.0000771  43.9320000  2
   1034   2132   1035   1041     4  180.0000771  43.9320000  2
   1036   2158   1037   1042     4  180.0000771  43.9320000  2
   1060   2184   1061   1067     4  180.0000771  43.9320000  2
   1062   2210   1063   1068     4  180.0000771  43.9320000  2
   1086   2236   1087   1093     4  180.0000771  43.9320000  2
   1088   2262   1089   1094     4  180.0000771  43.9320000  2
   1112   2288   1113   1119     4  180.0000771  43.9320000  2
   1114   2314   1115   1120     4  180.0000771  43.9320000  2
   1138   2340   1139   1145     4  180.0000771  43.9320000  2
   1140   2366   1141   1146     4  180.0000771  43.9320000  2
   1164   2392   1165   1171     4  180.0000771  43.9320000  2
   1166   2418   1167   1172     4  180.0000771  43.9320000  2
   1190   2444   1191   1197     4  180.0000771  43.9320000  2
   1192   2470   1193   1198     4  180.0000771  43.9320000  2
   1216   2496   1217   1223     4  180.0000771  43.9320000  2
   1218   2522   1219   1224     4  180.0000771  43.9320000  2
   1242   2548   1243   1249     4  180.0000771  43.9320000  2
   1244   2574   1245   1250     4  180.0000771  43.9320000  2
   1268   2600   1269   1275     4  180.0000771  43.9320000  2
   1270   2626   1271   1276     4  180.0000771  43.9320000  2
   1294   2652   1295   1301     4  180.0000771  43.9320000  2
   1296   2678   1297   1302     4  180.0000771  43.9320000  2
   1320   2704   1321   1327     4  180.0000771  43.9320000  2
   1322   2730   1323   1328     4  180.0000771  43.9320000  2
   1346   2756   1347   1353     4  180.0000771  43.9320000  2
   1348   2782   1349   1354     4  180.0000771  43.9320000  2
   1372   2808   1373   1379     4  180.0000771  43.9320000  2
   1374   2834   1375   1380     4  180.0000771  43.9320000  2
   1398   2860   1399   1405     4  180.0000771  43.9320000  2
   1400   2886   1401   1406     4  180.0000771  43.9320000  2
   1424   2912   1425   1431     4  180.0000771  43.9320000  2
   1426   2938   1427   1432     4  180.0000771  43.9320000  2
   1450   2964   1451   1457     4  180.0000771  43.9320000  2
   1452   2990   1453   1458     4  180.0000771  43.9320000  2
   1476   3016   1477   1483     4  180.0000771  43.9320000  2
   1478   3042   1479   1484     4  180.0000771  43.9320000  2
   1502   3068   1503   1509     4  180.0000771  43.9320000  2
   1504   3094   1505   1510     4  180.0000771  43.9320000  2
   1528   3120   1529   1535     4  180.0000771  43.9320000  2
   1530   3146   1531   1536     4  180.0000771  43.9320000  2
   1554   3172   1555   1561     4  180.0000771  43.9320000  2
   1556   3198   1557   1562     4  180.0000771  43.9320000  2
   1580   3224   1581   1587     4  180.0000771  43.9320000  2
   1582   3250   1583   1588     4  180.0000771  43.9320000  2
   1606   3267   1607   1613     4  180.0000771  43.9320000  2
   1608   3297   1609   1614     4  180.0000771  43.9320000  2
   1632   3327   1633   1639     4  180.0000771  43.9320000  2
   1634   3357   1635   1640     4  180.0000771  43.9320000  2
   1658   3387   1659   1665     4  180.0000771  43.9320000  2
   1660   3417   1661   1666     4  180.0000771  43.9320000  2
   1684   3447   1685   1691     4  180.0000771  43.9320000  2
   1686   3477   1687   1692     4  180.0000771  43.9320000  2
   1710   3507   1711   1717     4  180.0000771  43.9320000  2
   1712   3537   1713   1718     4  180.0000771  43.9320000  2
   1736   3567   1737   1743     4  180.0000771  43.9320000  2
   1738   3597   1739   1744     4  180.0000771  43.9320000  2
   1762   3627   1763   1769     4  180.0000771  43.9320000  2
   1764   3657   1765   1770     4  180.0000771  43.9320000  2
   1788   3687   1789   1795     4  180.0000771  43.9320000  2
   1790   3717   1791   1796     4  180.0000771  43.9320000  2
   1814   3747   1815   1821     4  180.0000771  43.9320000  2
   1816   3777   1817   1822     4  180.0000771  43.9320000  2
   1840   3807   1841   1847     4  180.0000771  43.9320000  2
   1842   3837   1843   1848     4  180.0000771  43.9320000  2
   1866   3867   1867   1873     4  180.0000771  43.9320000  2
   1868   3897   1869   1874     4  180.0000771  43.9320000  2
   1892   3927   1893   1899     4  180.0000771  43.9320000  2
   1894   3957   1895   1900     4  180.0000771  43.9320000  2
   1918   3987   1919   1925     4  180.0000771  43.9320000  2
   1920   4017   1921   1926     4  180.0000771  43.9320000  2
   1944   4047   1945   1951     4  180.0000771  43.9320000  2
   1946   4077   1947   1952     4  180.0000771  43.9320000  2
   1970   4107   1971   1977     4  180.0000771  43.9320000  2
   1972   4137   1973   1978     4  180.0000771  43.9320000  2
   1996   4167   1997   2003     4  180.0000771  43.9320000  2
   1998   4197   1999   2004     4  180.0000771  43.9320000  2
   2022   4227   2023   2029     4  180.0000771  43.9320000  2
   2024   4257   2025   2030     4  180.0000771  43.9320000  2
   2048   4287   2049   2055     4  180.0000771  43.9320000  2
   2050   4317   2051   2056     4  180.0000771  43.9320000  2
   2074   4347   2075   2081     4  180.0000771  43.9320000  2
   2076   4377   2077   2082     4  180.0000771  43.9320000  2
   2100   4407   2101   2107     4  180.0000771  43.9320000  2
   2102   4437   2103   2108     4  180.0000771  43.9320000  2
   2126   4467   2127   2133     4  180.0000771  43.9320000  2
   2128   4497   2129   2134     4  180.0000771  43.9320000  2
   2152   4527   2153   2159     4  180.0000771  43.9320000  2
   2154   4557   2155   2160     4  180.0000771  43.9320000  2
   2178   4587   2179   2185     4  180.0000771  43.9320000  2
   2180   4617   2181   2186     4  180.0000771  43.9320000  2
   2204   4647   2205   2211     4  180.0000771  43.9320000  2
   2206   4677   2207   2212     4  180.0000771  43.9320000  2
   2230   4707   2231   2237     4  180.0000771  43.9320000  2
   2232   4737   2233   2238     4  180.0000771  43.9320000  2
   2256   4767   2257   2263     4  180.0000771  43.9320000  2
   2258   4797   2259   2264     4  180.0000771  43.9320000  2
   2282   4827   2283   2289     4  180.0000771  43.9320000  2
   2284   4857   2285   2290     4  180.0000771  43.9320000  2
   2308   4887   2309   2315     4  180.0000771  43.9320000  2
   2310   4917   2311   2316     4  180.0000771  43.9320000  2
   2334   4947   2335   2341     4  180.0000771  43.9320000  2
   2336   4977   2337   2342     4  180.0000771  43.9320000  2
   2360   5007   2361   2367     4  180.0000771  43.9320000  2
   2362   5037   2363   2368     4  180.0000771  43.9320000  2
   2386   5067   2387   2393     4  180.0000771  43.9320000  2
   2388   5097   2389   2394     4  180.0000771  43.9320000  2
   2412   5127   2413   2419     4  180.0000771  43.9320000  2
   2414   5157   2415   2420     4  180.0000771  43.9320000  2
   2438   5187   2439   2445     4  180.0000771  43.9320000  2
   2440   5217   2441   2446     4  180.0000771  43.9320000  2
   2464   5247   2465   2471     4  180.0000771  43.9320000  2
   2466   5277   2467   2472     4  180.0000771  43.9320000  2
   2490   5307   2491   2497     4  180.0000771  43.9320000  2
   2492   5337   2493   2498     4  180.0000771  43.9320000  2
   2516   5367   2517   2523     4  180.0000771  43.9320000  2
   2518   5397   2519   2524     4  180.0000771  43.9320000  2
   2542   5427   2543   2549     4  180.0000771  43.9320000  2
   2544   5457   2545   2550     4  180.0000771  43.9320000  2
   2568   5487   2569   2575     4  180.0000771  43.9320000  2
   2570   5517   2571   2576     4  180.0000771  43.9320000  2
   2594   5547   2595   2601     4  180.0000771  43.9320000  2
   2596   5577   2597   2602     4  180.0000771  43.9320000  2
   2620   5607   2621   2627     4  180.0000771  43.9320000  2
   2622   5637   2623   2628     4  180.0000771  43.9320000  2
   2646   5667   2647   2653     4  180.0000771  43.9320000  2
   2648   5697   2649   2654     4  180.0000771  43.9320000  2
   2672   5727   2673   2679     4  180.0000771  43.9320000  2
   2674   5757   2675   2680     4  180.0000771  43.9320000  2
   2698   5787   2699   2705     4  180.0000771  43.9320000  2
   2700   5817   2701   2706     4  180.0000771  43.9320000  2
   2724   5847   2725   2731     4  180.0000771  43.9320000  2
   2726   5877   2727   2732     4  180.0000771  43.9320000  2
   2750   5907   2751   2757     4  180.0000771  43.9320000  2
   2752   5937   2753   2758     4  180.0000771  43.9320000  2
   2776   5967   2777   2783     4  180.0000771  43.9320000  2
   2778   5997   2779   2784     4  180.0000771  43.9320000  2
   2802   6027   2803   2809     4  180.0000771  43.9320000  2
   2804   6057   2805   2810     4  180.0000771  43.9320000  2
   2828   6087   2829   2835     4  180.0000771  43.9320000  2
   2830   6117   2831   2836     4  180.0000771  43.9320000  2
   2854   6147   2855   2861     4  180.0000771  43.9320000  2
   2856   6177   2857   2862     4  180.0000771  43.9320000  2
   2880   6207   2881   2887     4  180.0000771  43.9320000  2
   2882   6237   2883   2888     4  180.0000771  43.9320000  2
   2906   6267   2907   2913     4  180.0000771  43.9320000  2
   2908   6297   2909   2914     4  180.0000771  43.9320000  2
   2932   6327   2933   2939     4  180.0000771  43.9320000  2
   2934   6357   2935   2940     4  180.0000771  43.9320000  2
   2958   6387   2959   2965     4  180.0000771  43.9320000  2
   2960   6417   2961   2966     4  180.0000771  43.9320000  2
   2984   6447   2985   2991     4  180.0000771  43.9320000  2
   2986   6477   2987   2992     4  180.0000771  43.9320000  2
   3010   6507   3011   3017     4  180.0000771  43.9320000  2
   3012   6537   3013   3018     4  180.0000771  43.9320000  2
   3036   6567   3037   3043     4  180.0000771  43.9320000  2
   3038   6597   3039   3044     4  180.0000771  43.9320000  2
   3062   6627   3063   3069     4  180.0000771  43.9320000  2
   3064   6657   3065   3070     4  180.0000771  43.9320000  2
   3088   6687   3089   3095     4  180.0000771  43.9320000  2
   3090   6717   3091   3096     4  180.0000771  43.9320000  2
   3114   6747   3115   3121     4  180.0000771  43.9320000  2
   3116   6777   3117   3122     4  180.0000771  43.9320000  2
   3140   6807   3141   3147     4  180.0000771  43.9320000  2
   3142   6837   3143   3148     4  180.0000771  43.9320000  2
   3166   6867   3167   3173     4  180.0000771  43.9320000  2
   3168   6897   3169   3174     4  180.0000771  43.9320000  2
   3192   6927   3193   3199     4  180.0000771  43.9320000  2
   3194   6957   3195   3200     4  180.0000771  43.9320000  2
   3218   6987   3219   3225     4  180.0000771  43.9320000  2
   3220   7017   3221   3226     4  180.0000771  43.9320000  2
   3244   7047   3245   3251     4  180.0000771  43.9320000  2
   3246   7077   3247   3252     4  180.0000771  43.9320000  2
   3279   3285   3283   3284     4  180.0000771  4.6024000  2
   3288   3292   3291   3293     4  180.0000771  4.6024000  2
   3309   3315   3313   3314     4  180.0000771  4.6024000  2
   3318   3322   3321   3323     4  180.0000771  4.6024000  2
   3339   3345   3343   3344     4  180.0000771  4.6024000  2
   3348   3352   3351   3353     4  180.0000771  4.6024000  2
   3369   3375   3373   3374     4  180.0000771  4.6024000  2
   3378   3382   3381   3383     4  180.0000771  4.6024000  2
   3399   3405   3403   3404     4  180.0000771  4.6024000  2
   3408   3412   3411   3413     4  180.0000771  4.6024000  2
   3429   3435   3433   3434     4  180.0000771  4.6024000  2
   3438   3442   3441   3443     4  180.0000771  4.6024000  2
   3459   3465   3463   3464     4  180.0000771  4.6024000  2
   3468   3472   3471   3473     4  180.0000771  4.6024000  2
   3489   3495   3493   3494     4  180.0000771  4.6024000  2
   3498   3502   3501   3503     4  180.0000771  4.6024000  2
   3519   3525   3523   3524     4  180.0000771  4.6024000  2
   3528   3532   3531   3533     4  180.0000771  4.6024000  2
   3549   3555   3553   3554     4  180.0000771  4.6024000  2
   3558   3562   3561   3563     4  180.0000771  4.6024000  2
   3579   3585   3583   3584     4  180.0000771  4.6024000  2
   3588   3592   3591   3593     4  180.0000771  4.6024000  2
   3609   3615   3613   3614     4  180.0000771  4.6024000  2
   3618   3622   3621   3623     4  180.0000771  4.6024000  2
   3639   3645   3643   3644     4  180.0000771  4.6024000  2
   3648   3652   3651   3653     4  180.0000771  4.6024000  2
   3669   3675   3673   3674     4  180.0000771  4.6024000  2
   3678   3682   3681   3683     4  180.0000771  4.6024000  2
   3699   3705   3703   3704     4  180.0000771  4.6024000  2
   3708   3712   3711   3713     4  180.0000771  4.6024000  2
   3729   3735   3733   3734     4  180.0000771  4.6024000  2
   3738   3742   3741   3743     4  180.0000771  4.6024000  2
   3759   3765   3763   3764     4  180.0000771  4.6024000  2
   3768   3772   3771   3773     4  180.0000771  4.6024000  2
   3789   3795   3793   3794     4  180.0000771  4.6024000  2
   3798   3802   3801   3803     4  180.0000771  4.6024000  2
   3819   3825   3823   3824     4  180.0000771  4.6024000  2
   3828   3832   3831   3833     4  180.0000771  4.6024000  2
   3849   3855   3853   3854     4  180.0000771  4.6024000  2
   3858   3862   3861   3863     4  180.0000771  4.6024000  2
   3879   3885   3883   3884     4  180.0000771  4.6024000  2
   3888   3892   3891   3893     4  180.0000771  4.6024000  2
   3909   3915   3913   3914     4  180.0000771  4.6024000  2
   3918   3922   3921   3923     4  180.0000771  4.6024000  2
   3939   3945   3943   3944     4  180.0000771  4.6024000  2
   3948   3952   3951   3953     4  180.0000771  4.6024000  2
   3969   3975   3973   3974     4  180.0000771  4.6024000  2
   3978   3982   3981   3983     4  180.0000771  4.6024000  2
   3999   4005   4003   4004     4  180.0000771  4.6024000  2
   4008   4012   4011   4013     4  180.0000771  4.6024000  2
   4029   4035   4033   4034     4  180.0000771  4.6024000  2
   4038   4042   4041   4043     4  180.0000771  4.6024000  2
   4059   4065   4063   4064     4  180.0000771  4.6024000  2
   4068   4072   4071   4073     4  180.0000771  4.6024000  2
   4089   4095   4093   4094     4  180.0000771  4.6024000  2
   4098   4102   4101   4103     4  180.0000771  4.6024000  2
   4119   4125   4123   4124     4  180.0000771  4.6024000  2
   4128   4132   4131   4133     4  180.0000771  4.6024000  2
   4149   4155   4153   4154     4  180.0000771  4.6024000  2
   4158   4162   4161   4163     4  180.0000771  4.6024000  2
   4179   4185   4183   4184     4  180.0000771  4.6024000  2
   4188   4192   4191   4193     4  180.0000771  4.6024000  2
   4209   4215   4213   4214     4  180.0000771  4.6024000  2
   4218   4222   4221   4223     4  180.0000771  4.6024000  2
   4239   4245   4243   4244     4  180.0000771  4.6024000  2
   4248   4252   4251   4253     4  180.0000771  4.6024000  2
   4269   4275   4273   4274     4  180.0000771  4.6024000  2
   4278   4282   4281   4283     4  180.0000771  4.6024000  2
   4299   4305   4303   4304     4  180.0000771  4.6024000  2
   4308   4312   4311   4313     4  180.0000771  4.6024000  2
   4329   4335   4333   4334     4  180.0000771  4.6024000  2
   4338   4342   4341   4343     4  180.0000771  4.6024000  2
   4359   4365   4363   4364     4  180.0000771  4.6024000  2
   4368   4372   4371   4373     4  180.0000771  4.6024000  2
   4389   4395   4393   4394     4  180.0000771  4.6024000  2
   4398   4402   4401   4403     4  180.0000771  4.6024000  2
   4419   4425   4423   4424     4  180.0000771  4.6024000  2
   4428   4432   4431   4433     4  180.0000771  4.6024000  2
   4449   4455   4453   4454     4  180.0000771  4.6024000  2
   4458   4462   4461   4463     4  180.0000771  4.6024000  2
   4479   4485   4483   4484     4  180.0000771  4.6024000  2
   4488   4492   4491   4493     4  180.0000771  4.6024000  2
   4509   4515   4513   4514     4  180.0000771  4.6024000  2
   4518   4522   4521   4523     4  180.0000771  4.6024000  2
   4539   4545   4543   4544     4  180.0000771  4.6024000  2
   4548   4552   4551   4553     4  180.0000771  4.6024000  2
   4569   4575   4573   4574     4  180.0000771  4.6024000  2
   4578   4582   4581   4583     4  180.0000771  4.6024000  2
   4599   4605   4603   4604     4  180.0000771  4.6024000  2
   4608   4612   4611   4613     4  180.0000771  4.6024000  2
   4629   4635   4633   4634     4  180.0000771  4.6024000  2
   4638   4642   4641   4643     4  180.0000771  4.6024000  2
   4659   4665   4663   4664     4  180.0000771  4.6024000  2
   4668   4672   4671   4673     4  180.0000771  4.6024000  2
   4689   4695   4693   4694     4  180.0000771  4.6024000  2
   4698   4702   4701   4703     4  180.0000771  4.6024000  2
   4719   4725   4723   4724     4  180.0000771  4.6024000  2
   4728   4732   4731   4733     4  180.0000771  4.6024000  2
   4749   4755   4753   4754     4  180.0000771  4.6024000  2
   4758   4762   4761   4763     4  180.0000771  4.6024000  2
   4779   4785   4783   4784     4  180.0000771  4.6024000  2
   4788   4792   4791   4793     4  180.0000771  4.6024000  2
   4809   4815   4813   4814     4  180.0000771  4.6024000  2
   4818   4822   4821   4823     4  180.0000771  4.6024000  2
   4839   4845   4843   4844     4  180.0000771  4.6024000  2
   4848   4852   4851   4853     4  180.0000771  4.6024000  2
   4869   4875   4873   4874     4  180.0000771  4.6024000  2
   4878   4882   4881   4883     4  180.0000771  4.6024000  2
   4899   4905   4903   4904     4  180.0000771  4.6024000  2
   4908   4912   4911   4913     4  180.0000771  4.6024000  2
   4929   4935   4933   4934     4  180.0000771  4.6024000  2
   4938   4942   4941   4943     4  180.0000771  4.6024000  2
   4959   4965   4963   4964     4  180.0000771  4.6024000  2
   4968   4972   4971   4973     4  180.0000771  4.6024000  2
   4989   4995   4993   4994     4  180.0000771  4.6024000  2
   4998   5002   5001   5003     4  180.0000771  4.6024000  2
   5019   5025   5023   5024     4  180.0000771  4.6024000  2
   5028   5032   5031   5033     4  180.0000771  4.6024000  2
   5049   5055   5053   5054     4  180.0000771  4.6024000  2
   5058   5062   5061   5063     4  180.0000771  4.6024000  2
   5079   5085   5083   5084     4  180.0000771  4.6024000  2
   5088   5092   5091   5093     4  180.0000771  4.6024000  2
   5109   5115   5113   5114     4  180.0000771  4.6024000  2
   5118   5122   5121   5123     4  180.0000771  4.6024000  2
   5139   5145   5143   5144     4  180.0000771  4.6024000  2
   5148   5152   5151   5153     4  180.0000771  4.6024000  2
   5169   5175   5173   5174     4  180.0000771  4.6024000  2
   5178   5182   5181   5183     4  180.0000771  4.6024000  2
   5199   5205   5203   5204     4  180.0000771  4.6024000  2
   5208   5212   5211   5213     4  180.0000771  4.6024000  2
   5229   5235   5233   5234     4  180.0000771  4.6024000  2
   5238   5242   5241   5243     4  180.0000771  4.6024000  2
   5259   5265   5263   5264     4  180.0000771  4.6024000  2
   5268   5272   5271   5273     4  180.0000771  4.6024000  2
   5289   5295   5293   5294     4  180.0000771  4.6024000  2
   5298   5302   5301   5303     4  180.0000771  4.6024000  2
   5319   5325   5323   5324     4  180.0000771  4.6024000  2
   5328   5332   5331   5333     4  180.0000771  4.6024000  2
   5349   5355   5353   5354     4  180.0000771  4.6024000  2
   5358   5362   5361   5363     4  180.0000771  4.6024000  2
   5379   5385   5383   5384     4  180.0000771  4.6024000  2
   5388   5392   5391   5393     4  180.0000771  4.6024000  2
   5409   5415   5413   5414     4  180.0000771  4.6024000  2
   5418   5422   5421   5423     4  180.0000771  4.6024000  2
   5439   5445   5443   5444     4  180.0000771  4.6024000  2
   5448   5452   5451   5453     4  180.0000771  4.6024000  2
   5469   5475   5473   5474     4  180.0000771  4.6024000  2
   5478   5482   5481   5483     4  180.0000771  4.6024000  2
   5499   5505   5503   5504     4  180.0000771  4.6024000  2
   5508   5512   5511   5513     4  180.0000771  4.6024000  2
   5529   5535   5533   5534     4  180.0000771  4.6024000  2
   5538   5542   5541   5543     4  180.0000771  4.6024000  2
   5559   5565   5563   5564     4  180.0000771  4.6024000  2
   5568   5572   5571   5573     4  180.0000771  4.6024000  2
   5589   5595   5593   5594     4  180.0000771  4.6024000  2
   5598   5602   5601   5603     4  180.0000771  4.6024000  2
   5619   5625   5623   5624     4  180.0000771  4.6024000  2
   5628   5632   5631   5633     4  180.0000771  4.6024000  2
   5649   5655   5653   5654     4  180.0000771  4.6024000  2
   5658   5662   5661   5663     4  180.0000771  4.6024000  2
   5679   5685   5683   5684     4  180.0000771  4.6024000  2
   5688   5692   5691   5693     4  180.0000771  4.6024000  2
   5709   5715   5713   5714     4  180.0000771  4.6024000  2
   5718   5722   5721   5723     4  180.0000771  4.6024000  2
   5739   5745   5743   5744     4  180.0000771  4.6024000  2
   5748   5752   5751   5753     4  180.0000771  4.6024000  2
   5769   5775   5773   5774     4  180.0000771  4.6024000  2
   5778   5782   5781   5783     4  180.0000771  4.6024000  2
   5799   5805   5803   5804     4  180.0000771  4.6024000  2
   5808   5812   5811   5813     4  180.0000771  4.6024000  2
   5829   5835   5833   5834     4  180.0000771  4.6024000  2
   5838   5842   5841   5843     4  180.0000771  4.6024000  2
   5859   5865   5863   5864     4  180.0000771  4.6024000  2
   5868   5872   5871   5873     4  180.0000771  4.6024000  2
   5889   5895   5893   5894     4  180.0000771  4.6024000  2
   5898   5902   5901   5903     4  180.0000771  4.6024000  2
   5919   5925   5923   5924     4  180.0000771  4.6024000  2
   5928   5932   5931   5933     4  180.0000771  4.6024000  2
   5949   5955   5953   5954     4  180.0000771  4.6024000  2
   5958   5962   5961   5963     4  180.0000771  4.6024000  2
   5979   5985   5983   5984     4  180.0000771  4.6024000  2
   5988   5992   5991   5993     4  180.0000771  4.6024000  2
   6009   6015   6013   6014     4  180.0000771  4.6024000  2
   6018   6022   6021   6023     4  180.0000771  4.6024000  2
   6039   6045   6043   6044     4  180.0000771  4.6024000  2
   6048   6052   6051   6053     4  180.0000771  4.6024000  2
   6069   6075   6073   6074     4  180.0000771  4.6024000  2
   6078   6082   6081   6083     4  180.0000771  4.6024000  2
   6099   6105   6103   6104     4  180.0000771  4.6024000  2
   6108   6112   6111   6113     4  180.0000771  4.6024000  2
   6129   6135   6133   6134     4  180.0000771  4.6024000  2
   6138   6142   6141   6143     4  180.0000771  4.6024000  2
   6159   6165   6163   6164     4  180.0000771  4.6024000  2
   6168   6172   6171   6173     4  180.0000771  4.6024000  2
   6189   6195   6193   6194     4  180.0000771  4.6024000  2
   6198   6202   6201   6203     4  180.0000771  4.6024000  2
   6219   6225   6223   6224     4  180.0000771  4.6024000  2
   6228   6232   6231   6233     4  180.0000771  4.6024000  2
   6249   6255   6253   6254     4  180.0000771  4.6024000  2
   6258   6262   6261   6263     4  180.0000771  4.6024000  2
   6279   6285   6283   6284     4  180.0000771  4.6024000  2
   6288   6292   6291   6293     4  180.0000771  4.6024000  2
   6309   6315   6313   6314     4  180.0000771  4.6024000  2
   6318   6322   6321   6323     4  180.0000771  4.6024000  2
   6339   6345   6343   6344     4  180.0000771  4.6024000  2
   6348   6352   6351   6353     4  180.0000771  4.6024000  2
   6369   6375   6373   6374     4  180.0000771  4.6024000  2
   6378   6382   6381   6383     4  180.0000771  4.6024000  2
   6399   6405   6403   6404     4  180.0000771  4.6024000  2
   6408   6412   6411   6413     4  180.0000771  4.6024000  2
   6429   6435   6433   6434     4  180.0000771  4.6024000  2
   6438   6442   6441   6443     4  180.0000771  4.6024000  2
   6459   6465   6463   6464     4  180.0000771  4.6024000  2
   6468   6472   6471   6473     4  180.0000771  4.6024000  2
   6489   6495   6493   6494     4  180.0000771  4.6024000  2
   6498   6502   6501   6503     4  180.0000771  4.6024000  2
   6519   6525   6523   6524     4  180.0000771  4.6024000  2
   6528   6532   6531   6533     4  180.0000771  4.6024000  2
   6549   6555   6553   6554     4  180.0000771  4.6024000  2
   6558   6562   6561   6563     4  180.0000771  4.6024000  2
   6579   6585   6583   6584     4  180.0000771  4.6024000  2
   6588   6592   6591   6593     4  180.0000771  4.6024000  2
   6609   6615   6613   6614     4  180.0000771  4.6024000  2
   6618   6622   6621   6623     4  180.0000771  4.6024000  2
   6639   6645   6643   6644     4  180.0000771  4.6024000  2
   6648   6652   6651   6653     4  180.0000771  4.6024000  2
   6669   6675   6673   6674     4  180.0000771  4.6024000  2
   6678   6682   6681   6683     4  180.0000771  4.6024000  2
   6699   6705   6703   6704     4  180.0000771  4.6024000  2
   6708   6712   6711   6713     4  180.0000771  4.6024000  2
   6729   6735   6733   6734     4  180.0000771  4.6024000  2
   6738   6742   6741   6743     4  180.0000771  4.6024000  2
   6759   6765   6763   6764     4  180.0000771  4.6024000  2
   6768   6772   6771   6773     4  180.0000771  4.6024000  2
   6789   6795   6793   6794     4  180.0000771  4.6024000  2
   6798   6802   6801   6803     4  180.0000771  4.6024000  2
   6819   6825   6823   6824     4  180.0000771  4.6024000  2
   6828   6832   6831   6833     4  180.0000771  4.6024000  2
   6849   6855   6853   6854     4  180.0000771  4.6024000  2
   6858   6862   6861   6863     4  180.0000771  4.6024000  2
   6879   6885   6883   6884     4  180.0000771  4.6024000  2
   6888   6892   6891   6893     4  180.0000771  4.6024000  2
   6909   6915   6913   6914     4  180.0000771  4.6024000  2
   6918   6922   6921   6923     4  180.0000771  4.6024000  2
   6939   6945   6943   6944     4  180.0000771  4.6024000  2
   6948   6952   6951   6953     4  180.0000771  4.6024000  2
   6969   6975   6973   6974     4  180.0000771  4.6024000  2
   6978   6982   6981   6983     4  180.0000771  4.6024000  2
   6999   7005   7003   7004     4  180.0000771  4.6024000  2
   7008   7012   7011   7013     4  180.0000771  4.6024000  2
   7029   7035   7033   7034     4  180.0000771  4.6024000  2
   7038   7042   7041   7043     4  180.0000771  4.6024000  2
   7059   7065   7063   7064     4  180.0000771  4.6024000  2
   7068   7072   7071   7073     4  180.0000771  4.6024000  2
   7089   7095   7093   7094     4  180.0000771  4.6024000  2
   7098   7102   7101   7103     4  180.0000771  4.6024000  2
      1      2      3     23     1  0.0000000  0.6508444  3
      1      2      3     24     1  0.0000000  0.6508444  3
      1      7     13     37     1  0.0000000  0.6508444  3
      1      7     13     38     1  0.0000000  0.6508444  3
      1      8     15     39     1  0.0000000  0.6508444  3
      1      8     15     40     1  0.0000000  0.6508444  3
      2      1      7     29     1  0.0000000  0.6508444  3
      2      1      7     30     1  0.0000000  0.6508444  3
      2      1      8     31     1  0.0000000  0.6508444  3
      2      1      8     32     1  0.0000000  0.6508444  3
      2      3      4     42     1  0.0000000  0.6508444  3
     41      1      2      3     1  0.0000000  0.6508444  3
      3      4      5     25     1  0.0000000  0.6508444  3
      3      4      5     26     1  0.0000000  0.6508444  3
      3      4      6     27     1  0.0000000  0.6508444  3
      3      4      6     28     1  0.0000000  0.6508444  3
      4      3      2     21     1  0.0000000  0.6508444  3
      4      3      2     22     1  0.0000000  0.6508444  3
      4      5     11     35     1  0.0000000  0.6508444  3
      4      5     11     36     1  0.0000000  0.6508444  3
      4      6      9     33     1  0.0000000  0.6508444  3
      4      6      9     34     1  0.0000000  0.6508444  3
      5      4      3     23     1  0.0000000  0.6508444  3
      5      4      3     24     1  0.0000000  0.6508444  3
      5      4      6     27     1  0.0000000  0.6508444  3
      5      4      6     28     1  0.0000000  0.6508444  3
      6      4      3     23     1  0.0000000  0.6508444  3
      6      4      3     24     1  0.0000000  0.6508444  3
      6      4      5     25     1  0.0000000  0.6508444  3
      6      4      5     26     1  0.0000000  0.6508444  3
      7      1      2     21     1  0.0000000  0.6508444  3
      7      1      2     22     1  0.0000000  0.6508444  3
      7      1      8     31     1  0.0000000  0.6508444  3
      7      1      8     32     1  0.0000000  0.6508444  3
      8      1      2     21     1  0.0000000  0.6508444  3
      8      1      2     22     1  0.0000000  0.6508444  3
      8      1      7     29     1  0.0000000  0.6508444  3
      8      1      7     30     1  0.0000000  0.6508444  3
      9      6      4     42     1  0.0000000  0.6508444  3
      9     10     52     67     1  180.0000771  10.4600000  2
     10      9      6     27     1  0.0000000  0.6508444  3
     10      9      6     28     1  0.0000000  0.6508444  3
     10     52     51     65     1  0.0000000  0.0000000  2
     10     52     51     66     1  0.0000000  0.0000000  2
     11      5      4     42     1  0.0000000  0.6508444  3
     11     12     78     93     1  180.0000771  10.4600000  2
     12     11      5     25     1  0.0000000  0.6508444  3
     12     11      5     26     1  0.0000000  0.6508444  3
     12     78     77     91     1  0.0000000  0.0000000  2
     12     78     77     92     1  0.0000000  0.0000000  2
     41      1      7     13     1  0.0000000  0.6508444  3
     13     14    104    119     1  180.0000771  10.4600000  2
     14     13      7     29     1  0.0000000  0.6508444  3
     14     13      7     30     1  0.0000000  0.6508444  3
     14    104    103    117     1  0.0000000  0.0000000  2
     14    104    103    118     1  0.0000000  0.0000000  2
     41      1      8     15     1  0.0000000  0.6508444  3
     15     16    130    145     1  180.0000771  10.4600000  2
     16     15      8     31     1  0.0000000  0.6508444  3
     16     15      8     32     1  0.0000000  0.6508444  3
     16    130    129    143     1  0.0000000  0.0000000  2
     16    130    129    144     1  0.0000000  0.0000000  2
     17     12     11     35     1  0.0000000  3.3472000  1
     17     12     11     35     1  0.0000000  0.0000000  2
     17     12     11     35     1  180.0000771  0.3347200  3
     17     12     11     36     1  0.0000000  3.3472000  1
     17     12     11     36     1  0.0000000  0.0000000  2
     17     12     11     36     1  180.0000771  0.3347200  3
     17     12     78     93     1  0.0000000  8.3680000  1
     17     12     78     93     1  180.0000771  10.4600000  2
     18     10      9     33     1  0.0000000  3.3472000  1
     18     10      9     33     1  0.0000000  0.0000000  2
     18     10      9     33     1  180.0000771  0.3347200  3
     18     10      9     34     1  0.0000000  3.3472000  1
     18     10      9     34     1  0.0000000  0.0000000  2
     18     10      9     34     1  180.0000771  0.3347200  3
     18     10     52     67     1  0.0000000  8.3680000  1
     18     10     52     67     1  180.0000771  10.4600000  2
     19     16     15     39     1  0.0000000  3.3472000  1
     19     16     15     39     1  0.0000000  0.0000000  2
     19     16     15     39     1  180.0000771  0.3347200  3
     19     16     15     40     1  0.0000000  3.3472000  1
     19     16     15     40     1  0.0000000  0.0000000  2
     19     16     15     40     1  180.0000771  0.3347200  3
     19     16    130    145     1  0.0000000  8.3680000  1
     19     16    130    145     1  180.0000771  10.4600000  2
     20     14     13     37     1  0.0000000  3.3472000  1
     20     14     13     37     1  0.0000000  0.0000000  2
     20     14     13     37     1  180.0000771  0.3347200  3
     20     14     13     38     1  0.0000000  3.3472000  1
     20     14     13     38     1  0.0000000  0.0000000  2
     20     14     13     38     1  180.0000771  0.3347200  3
     20     14    104    119     1  0.0000000  8.3680000  1
     20     14    104    119     1  180.0000771  10.4600000  2
     41      1      2     21     1  0.0000000  0.6508444  3
     21      2      3     23     1  0.0000000  0.6508444  3
     21      2      3     24     1  0.0000000  0.6508444  3
     41      1      2     22     1  0.0000000  0.6508444  3
     22      2      3     23     1  0.0000000  0.6508444  3
     22      2      3     24     1  0.0000000  0.6508444  3
     23      3      4     42     1  0.0000000  0.6508444  3
     24      3      4     42     1  0.0000000  0.6508444  3
     25      5      4     42     1  0.0000000  0.6508444  3
     25      5     11     35     1  0.0000000  0.6508444  3
     25      5     11     36     1  0.0000000  0.6508444  3
     26      5      4     42     1  0.0000000  0.6508444  3
     26      5     11     35     1  0.0000000  0.6508444  3
     26      5     11     36     1  0.0000000  0.6508444  3
     27      6      4     42     1  0.0000000  0.6508444  3
     27      6      9     33     1  0.0000000  0.6508444  3
     27      6      9     34     1  0.0000000  0.6508444  3
     28      6      4     42     1  0.0000000  0.6508444  3
     28      6      9     33     1  0.0000000  0.6508444  3
     28      6      9     34     1  0.0000000  0.6508444  3
     41      1      7     29     1  0.0000000  0.6508444  3
     29      7     13     37     1  0.0000000  0.6508444  3
     29      7     13     38     1  0.0000000  0.6508444  3
     41      1      7     30     1  0.0000000  0.6508444  3
     30      7     13     37     1  0.0000000  0.6508444  3
     30      7     13     38     1  0.0000000  0.6508444  3
     41      1      8     31     1  0.0000000  0.6508444  3
     31      8     15     39     1  0.0000000  0.6508444  3
     31      8     15     40     1  0.0000000  0.6508444  3
     41      1      8     32     1  0.0000000  0.6508444  3
     32      8     15     39     1  0.0000000  0.6508444  3
     32      8     15     40     1  0.0000000  0.6508444  3
     33      9     10     52     1  180.0000771  0.0000000  2
     34      9     10     52     1  180.0000771  0.0000000  2
     35     11     12     78     1  180.0000771  0.0000000  2
     36     11     12     78     1  180.0000771  0.0000000  2
     37     13     14    104     1  180.0000771  0.0000000  2
     38     13     14    104     1  180.0000771  0.0000000  2
     39     15     16    130     1  180.0000771  0.0000000  2
     40     15     16    130     1  180.0000771  0.0000000  2
     43     44     46     59     1  0.0000000  0.6508444  3
     43     44     46     60     1  0.0000000  0.6508444  3
     43     45     48     61     1  0.0000000  0.6508444  3
     43     45     48     62     1  0.0000000  0.6508444  3
     43     50     51     65     1  0.0000000  0.6508444  3
     43     50     51     66     1  0.0000000  0.6508444  3
     44     43     45     57     1  0.0000000  0.6508444  3
     44     43     45     58     1  0.0000000  0.6508444  3
     44     43     50     63     1  0.0000000  0.6508444  3
     44     43     50     64     1  0.0000000  0.6508444  3
     45     43     44     55     1  0.0000000  0.6508444  3
     45     43     44     56     1  0.0000000  0.6508444  3
     45     43     50     63     1  0.0000000  0.6508444  3
     45     43     50     64     1  0.0000000  0.6508444  3
     46     44     43     68     1  0.0000000  0.6508444  3
     46     47    156    171     1  180.0000771  10.4600000  2
     47     46     44     55     1  0.0000000  0.6508444  3
     47     46     44     56     1  0.0000000  0.6508444  3
     47    156    155    169     1  0.0000000  0.0000000  2
     47    156    155    170     1  0.0000000  0.0000000  2
     48     45     43     68     1  0.0000000  0.6508444  3
     48     49    182    197     1  180.0000771  10.4600000  2
     49     48     45     57     1  0.0000000  0.6508444  3
     49     48     45     58     1  0.0000000  0.6508444  3
     49    182    181    195     1  0.0000000  0.0000000  2
     49    182    181    196     1  0.0000000  0.0000000  2
     50     43     44     55     1  0.0000000  0.6508444  3
     50     43     44     56     1  0.0000000  0.6508444  3
     50     43     45     57     1  0.0000000  0.6508444  3
     50     43     45     58     1  0.0000000  0.6508444  3
     50     51     52     67     1  0.0000000  0.0000000  2
     51     50     43     68     1  0.0000000  0.6508444  3
     52     51     50     63     1  0.0000000  0.6508444  3
     52     51     50     64     1  0.0000000  0.6508444  3
     53     47     46     59     1  0.0000000  3.3472000  1
     53     47     46     59     1  0.0000000  0.0000000  2
     53     47     46     59     1  180.0000771  0.3347200  3
     53     47     46     60     1  0.0000000  3.3472000  1
     53     47     46     60     1  0.0000000  0.0000000  2
     53     47     46     60     1  180.0000771  0.3347200  3
     53     47    156    171     1  0.0000000  8.3680000  1
     53     47    156    171     1  180.0000771  10.4600000  2
     54     49     48     61     1  0.0000000  3.3472000  1
     54     49     48     61     1  0.0000000  0.0000000  2
     54     49     48     61     1  180.0000771  0.3347200  3
     54     49     48     62     1  0.0000000  3.3472000  1
     54     49     48     62     1  0.0000000  0.0000000  2
     54     49     48     62     1  180.0000771  0.3347200  3
     54     49    182    197     1  0.0000000  8.3680000  1
     54     49    182    197     1  180.0000771  10.4600000  2
     55     44     43     68     1  0.0000000  0.6508444  3
     55     44     46     59     1  0.0000000  0.6508444  3
     55     44     46     60     1  0.0000000  0.6508444  3
     56     44     43     68     1  0.0000000  0.6508444  3
     56     44     46     59     1  0.0000000  0.6508444  3
     56     44     46     60     1  0.0000000  0.6508444  3
     57     45     43     68     1  0.0000000  0.6508444  3
     57     45     48     61     1  0.0000000  0.6508444  3
     57     45     48     62     1  0.0000000  0.6508444  3
     58     45     43     68     1  0.0000000  0.6508444  3
     58     45     48     61     1  0.0000000  0.6508444  3
     58     45     48     62     1  0.0000000  0.6508444  3
     59     46     47    156     1  180.0000771  0.0000000  2
     60     46     47    156     1  180.0000771  0.0000000  2
     61     48     49    182     1  180.0000771  0.0000000  2
     62     48     49    182     1  180.0000771  0.0000000  2
     63     50     43     68     1  0.0000000  0.6508444  3
     63     50     51     65     1  0.0000000  0.6508444  3
     63     50     51     66     1  0.0000000  0.6508444  3
     64     50     43     68     1  0.0000000  0.6508444  3
     64     50     51     65     1  0.0000000  0.6508444  3
     64     50     51     66     1  0.0000000  0.6508444  3
     65     51     52     67     1  0.0000000  0.0000000  2
     66     51     52     67     1  0.0000000  0.0000000  2
     69     70     72     85     1  0.0000000  0.6508444  3
     69     70     72     86     1  0.0000000  0.6508444  3
     69     71     74     87     1  0.0000000  0.6508444  3
     69     71     74     88     1  0.0000000  0.6508444  3
     69     76     77     91     1  0.0000000  0.6508444  3
     69     76     77     92     1  0.0000000  0.6508444  3
     70     69     71     83     1  0.0000000  0.6508444  3
     70     69     71     84     1  0.0000000  0.6508444  3
     70     69     76     89     1  0.0000000  0.6508444  3
     70     69     76     90     1  0.0000000  0.6508444  3
     71     69     70     81     1  0.0000000  0.6508444  3
     71     69     70     82     1  0.0000000  0.6508444  3
     71     69     76     89     1  0.0000000  0.6508444  3
     71     69     76     90     1  0.0000000  0.6508444  3
     72     70     69     94     1  0.0000000  0.6508444  3
     72     73    208    223     1  180.0000771  10.4600000  2
     73     72     70     81     1  0.0000000  0.6508444  3
     73     72     70     82     1  0.0000000  0.6508444  3
     73    208    207    221     1  0.0000000  0.0000000  2
     73    208    207    222     1  0.0000000  0.0000000  2
     74     71     69     94     1  0.0000000  0.6508444  3
     74     75    234    249     1  180.0000771  10.4600000  2
     75     74     71     83     1  0.0000000  0.6508444  3
     75     74     71     84     1  0.0000000  0.6508444  3
     75    234    233    247     1  0.0000000  0.0000000  2
     75    234    233    248     1  0.0000000  0.0000000  2
     76     69     70     81     1  0.0000000  0.6508444  3
     76     69     70     82     1  0.0000000  0.6508444  3
     76     69     71     83     1  0.0000000  0.6508444  3
     76     69     71     84     1  0.0000000  0.6508444  3
     76     77     78     93     1  0.0000000  0.0000000  2
     77     76     69     94     1  0.0000000  0.6508444  3
     78     77     76     89     1  0.0000000  0.6508444  3
     78     77     76     90     1  0.0000000  0.6508444  3
     79     73     72     85     1  0.0000000  3.3472000  1
     79     73     72     85     1  0.0000000  0.0000000  2
     79     73     72     85     1  180.0000771  0.3347200  3
     79     73     72     86     1  0.0000000  3.3472000  1
     79     73     72     86     1  0.0000000  0.0000000  2
     79     73     72     86     1  180.0000771  0.3347200  3
     79     73    208    223     1  0.0000000  8.3680000  1
     79     73    208    223     1  180.0000771  10.4600000  2
     80     75     74     87     1  0.0000000  3.3472000  1
     80     75     74     87     1  0.0000000  0.0000000  2
     80     75     74     87     1  180.0000771  0.3347200  3
     80     75     74     88     1  0.0000000  3.3472000  1
     80     75     74     88     1  0.0000000  0.0000000  2
     80     75     74     88     1  180.0000771  0.3347200  3
     80     75    234    249     1  0.0000000  8.3680000  1
     80     75    234    249     1  180.0000771  10.4600000  2
     81     70     69     94     1  0.0000000  0.6508444  3
     81     70     72     85     1  0.0000000  0.6508444  3
     81     70     72     86     1  0.0000000  0.6508444  3
     82     70     69     94     1  0.0000000  0.6508444  3
     82     70     72     85     1  0.0000000  0.6508444  3
     82     70     72     86     1  0.0000000  0.6508444  3
     83     71     69     94     1  0.0000000  0.6508444  3
     83     71     74     87     1  0.0000000  0.6508444  3
     83     71     74     88     1  0.0000000  0.6508444  3
     84     71     69     94     1  0.0000000  0.6508444  3
     84     71     74     87     1  0.0000000  0.6508444  3
     84     71     74     88     1  0.0000000  0.6508444  3
     85     72     73    208     1  180.0000771  0.0000000  2
     86     72     73    208     1  180.0000771  0.0000000  2
     87     74     75    234     1  180.0000771  0.0000000  2
     88     74     75    234     1  180.0000771  0.0000000  2
     89     76     69     94     1  0.0000000  0.6508444  3
     89     76     77     91     1  0.0000000  0.6508444  3
     89     76     77     92     1  0.0000000  0.6508444  3
     90     76     69     94     1  0.0000000  0.6508444  3
     90     76     77     91     1  0.0000000  0.6508444  3
     90     76     77     92     1  0.0000000  0.6508444  3
     91     77     78     93     1  0.0000000  0.0000000  2
     92     77     78     93     1  0.0000000  0.0000000  2
     95     96     98    111     1  0.0000000  0.6508444  3
     95     96     98    112     1  0.0000000  0.6508444  3
     95     97    100    113     1  0.0000000  0.6508444  3
     95     97    100    114     1  0.0000000  0.6508444  3
     95    102    103    117     1  0.0000000  0.6508444  3
     95    102    103    118     1  0.0000000  0.6508444  3
     96     95     97    109     1  0.0000000  0.6508444  3
     96     95     97    110     1  0.0000000  0.6508444  3
     96     95    102    115     1  0.0000000  0.6508444  3
     96     95    102    116     1  0.0000000  0.6508444  3
     97     95     96    107     1  0.0000000  0.6508444  3
     97     95     96    108     1  0.0000000  0.6508444  3
     97     95    102    115     1  0.0000000  0.6508444  3
     97     95    102    116     1  0.0000000  0.6508444  3
     98     96     95    120     1  0.0000000  0.6508444  3
     98     99    260    275     1  180.0000771  10.4600000  2
     99     98     96    107     1  0.0000000  0.6508444  3
     99     98     96    108     1  0.0000000  0.6508444  3
     99    260    259    273     1  0.0000000  0.0000000  2
     99    260    259    274     1  0.0000000  0.0000000  2
    100     97     95    120     1  0.0000000  0.6508444  3
    100    101    286    301     1  180.0000771  10.4600000  2
    101    100     97    109     1  0.0000000  0.6508444  3
    101    100     97    110     1  0.0000000  0.6508444  3
    101    286    285    299     1  0.0000000  0.0000000  2
    101    286    285    300     1  0.0000000  0.0000000  2
    102     95     96    107     1  0.0000000  0.6508444  3
    102     95     96    108     1  0.0000000  0.6508444  3
    102     95     97    109     1  0.0000000  0.6508444  3
    102     95     97    110     1  0.0000000  0.6508444  3
    102    103    104    119     1  0.0000000  0.0000000  2
    103    102     95    120     1  0.0000000  0.6508444  3
    104    103    102    115     1  0.0000000  0.6508444  3
    104    103    102    116     1  0.0000000  0.6508444  3
    105     99     98    111     1  0.0000000  3.3472000  1
    105     99     98    111     1  0.0000000  0.0000000  2
    105     99     98    111     1  180.0000771  0.3347200  3
    105     99     98    112     1  0.0000000  3.3472000  1
    105     99     98    112     1  0.0000000  0.0000000  2
    105     99     98    112     1  180.0000771  0.3347200  3
    105     99    260    275     1  0.0000000  8.3680000  1
    105     99    260    275     1  180.0000771  10.4600000  2
    106    101    100    113     1  0.0000000  3.3472000  1
    106    101    100    113     1  0.0000000  0.0000000  2
    106    101    100    113     1  180.0000771  0.3347200  3
    106    101    100    114     1  0.0000000  3.3472000  1
    106    101    100    114     1  0.0000000  0.0000000  2
    106    101    100    114     1  180.0000771  0.3347200  3
    106    101    286    301     1  0.0000000  8.3680000  1
    106    101    286    301     1  180.0000771  10.4600000  2
    107     96     95    120     1  0.0000000  0.6508444  3
    107     96     98    111     1  0.0000000  0.6508444  3
    107     96     98    112     1  0.0000000  0.6508444  3
    108     96     95    120     1  0.0000000  0.6508444  3
    108     96     98    111     1  0.0000000  0.6508444  3
    108     96     98    112     1  0.0000000  0.6508444  3
    109     97     95    120     1  0.0000000  0.6508444  3
    109     97    100    113     1  0.0000000  0.6508444  3
    109     97    100    114     1  0.0000000  0.6508444  3
    110     97     95    120     1  0.0000000  0.6508444  3
    110     97    100    113     1  0.0000000  0.6508444  3
    110     97    100    114     1  0.0000000  0.6508444  3
    111     98     99    260     1  180.0000771  0.0000000  2
    112     98     99    260     1  180.0000771  0.0000000  2
    113    100    101    286     1  180.0000771  0.0000000  2
    114    100    101    286     1  180.0000771  0.0000000  2
    115    102     95    120     1  0.0000000  0.6508444  3
    115    102    103    117     1  0.0000000  0.6508444  3
    115    102    103    118     1  0.0000000  0.6508444  3
    116    102     95    120     1  0.0000000  0.6508444  3
    116    102    103    117     1  0.0000000  0.6508444  3
    116    102    103    118     1  0.0000000  0.6508444  3
    117    103    104    119     1  0.0000000  0.0000000  2
    118    103    104    119     1  0.0000000  0.0000000  2
    121    122    124    137     1  0.0000000  0.6508444  3
    121    122    124    138     1  0.0000000  0.6508444  3
    121    123    126    139     1  0.0000000  0.6508444  3
    121    123    126    140     1  0.0000000  0.6508444  3
    121    128    129    143     1  0.0000000  0.6508444  3
    121    128    129    144     1  0.0000000  0.6508444  3
    122    121    123    135     1  0.0000000  0.6508444  3
    122    121    123    136     1  0.0000000  0.6508444  3
    122    121    128    141     1  0.0000000  0.6508444  3
    122    121    128    142     1  0.0000000  0.6508444  3
    123    121    122    133     1  0.0000000  0.6508444  3
    123    121    122    134     1  0.0000000  0.6508444  3
    123    121    128    141     1  0.0000000  0.6508444  3
    123    121    128    142     1  0.0000000  0.6508444  3
    124    122    121    146     1  0.0000000  0.6508444  3
    124    125    312    327     1  180.0000771  10.4600000  2
    125    124    122    133     1  0.0000000  0.6508444  3
    125    124    122    134     1  0.0000000  0.6508444  3
    125    312    311    325     1  0.0000000  0.0000000  2
    125    312    311    326     1  0.0000000  0.0000000  2
    126    123    121    146     1  0.0000000  0.6508444  3
    126    127    338    353     1  180.0000771  10.4600000  2
    127    126    123    135     1  0.0000000  0.6508444  3
    127    126    123    136     1  0.0000000  0.6508444  3
    127    338    337    351     1  0.0000000  0.0000000  2
    127    338    337    352     1  0.0000000  0.0000000  2
    128    121    122    133     1  0.0000000  0.6508444  3
    128    121    122    134     1  0.0000000  0.6508444  3
    128    121    123    135     1  0.0000000  0.6508444  3
    128    121    123    136     1  0.0000000  0.6508444  3
    128    129    130    145     1  0.0000000  0.0000000  2
    129    128    121    146     1  0.0000000  0.6508444  3
    130    129    128    141     1  0.0000000  0.6508444  3
    130    129    128    142     1  0.0000000  0.6508444  3
    131    125    124    137     1  0.0000000  3.3472000  1
    131    125    124    137     1  0.0000000  0.0000000  2
    131    125    124    137     1  180.0000771  0.3347200  3
    131    125    124    138     1  0.0000000  3.3472000  1
    131    125    124    138     1  0.0000000  0.0000000  2
    131    125    124    138     1  180.0000771  0.3347200  3
    131    125    312    327     1  0.0000000  8.3680000  1
    131    125    312    327     1  180.0000771  10.4600000  2
    132    127    126    139     1  0.0000000  3.3472000  1
    132    127    126    139     1  0.0000000  0.0000000  2
    132    127    126    139     1  180.0000771  0.3347200  3
    132    127    126    140     1  0.0000000  3.3472000  1
    132    127    126    140     1  0.0000000  0.0000000  2
    132    127    126    140     1  180.0000771  0.3347200  3
    132    127    338    353     1  0.0000000  8.3680000  1
    132    127    338    353     1  180.0000771  10.4600000  2
    133    122    121    146     1  0.0000000  0.6508444  3
    133    122    124    137     1  0.0000000  0.6508444  3
    133    122    124    138     1  0.0000000  0.6508444  3
    134    122    121    146     1  0.0000000  0.6508444  3
    134    122    124    137     1  0.0000000  0.6508444  3
    134    122    124    138     1  0.0000000  0.6508444  3
    135    123    121    146     1  0.0000000  0.6508444  3
    135    123    126    139     1  0.0000000  0.6508444  3
    135    123    126    140     1  0.0000000  0.6508444  3
    136    123    121    146     1  0.0000000  0.6508444  3
    136    123    126    139     1  0.0000000  0.6508444  3
    136    123    126    140     1  0.0000000  0.6508444  3
    137    124    125    312     1  180.0000771  0.0000000  2
    138    124    125    312     1  180.0000771  0.0000000  2
    139    126    127    338     1  180.0000771  0.0000000  2
    140    126    127    338     1  180.0000771  0.0000000  2
    141    128    121    146     1  0.0000000  0.6508444  3
    141    128    129    143     1  0.0000000  0.6508444  3
    141    128    129    144     1  0.0000000  0.6508444  3
    142    128    121    146     1  0.0000000  0.6508444  3
    142    128    129    143     1  0.0000000  0.6508444  3
    142    128    129    144     1  0.0000000  0.6508444  3
    143    129    130    145     1  0.0000000  0.0000000  2
    144    129    130    145     1  0.0000000  0.0000000  2
    147    148    150    163     1  0.0000000  0.6508444  3
    147    148    150    164     1  0.0000000  0.6508444  3
    147    149    152    165     1  0.0000000  0.6508444  3
    147    149    152    166     1  0.0000000  0.6508444  3
    147    154    155    169     1  0.0000000  0.6508444  3
    147    154    155    170     1  0.0000000  0.6508444  3
    148    147    149    161     1  0.0000000  0.6508444  3
    148    147    149    162     1  0.0000000  0.6508444  3
    148    147    154    167     1  0.0000000  0.6508444  3
    148    147    154    168     1  0.0000000  0.6508444  3
    149    147    148    159     1  0.0000000  0.6508444  3
    149    147    148    160     1  0.0000000  0.6508444  3
    149    147    154    167     1  0.0000000  0.6508444  3
    149    147    154    168     1  0.0000000  0.6508444  3
    150    148    147    172     1  0.0000000  0.6508444  3
    150    151    364    379     1  180.0000771  10.4600000  2
    151    150    148    159     1  0.0000000  0.6508444  3
    151    150    148    160     1  0.0000000  0.6508444  3
    151    364    363    377     1  0.0000000  0.0000000  2
    151    364    363    378     1  0.0000000  0.0000000  2
    152    149    147    172     1  0.0000000  0.6508444  3
    152    153    390    405     1  180.0000771  10.4600000  2
    153    152    149    161     1  0.0000000  0.6508444  3
    153    152    149    162     1  0.0000000  0.6508444  3
    153    390    389    403     1  0.0000000  0.0000000  2
    153    390    389    404     1  0.0000000  0.0000000  2
    154    147    148    159     1  0.0000000  0.6508444  3
    154    147    148    160     1  0.0000000  0.6508444  3
    154    147    149    161     1  0.0000000  0.6508444  3
    154    147    149    162     1  0.0000000  0.6508444  3
    154    155    156    171     1  0.0000000  0.0000000  2
    155    154    147    172     1  0.0000000  0.6508444  3
    156    155    154    167     1  0.0000000  0.6508444  3
    156    155    154    168     1  0.0000000  0.6508444  3
    157    151    150    163     1  0.0000000  3.3472000  1
    157    151    150    163     1  0.0000000  0.0000000  2
    157    151    150    163     1  180.0000771  0.3347200  3
    157    151    150    164     1  0.0000000  3.3472000  1
    157    151    150    164     1  0.0000000  0.0000000  2
    157    151    150    164     1  180.0000771  0.3347200  3
    157    151    364    379     1  0.0000000  8.3680000  1
    157    151    364    379     1  180.0000771  10.4600000  2
    158    153    152    165     1  0.0000000  3.3472000  1
    158    153    152    165     1  0.0000000  0.0000000  2
    158    153    152    165     1  180.0000771  0.3347200  3
    158    153    152    166     1  0.0000000  3.3472000  1
    158    153    152    166     1  0.0000000  0.0000000  2
    158    153    152    166     1  180.0000771  0.3347200  3
    158    153    390    405     1  0.0000000  8.3680000  1
    158    153    390    405     1  180.0000771  10.4600000  2
    159    148    147    172     1  0.0000000  0.6508444  3
    159    148    150    163     1  0.0000000  0.6508444  3
    159    148    150    164     1  0.0000000  0.6508444  3
    160    148    147    172     1  0.0000000  0.6508444  3
    160    148    150    163     1  0.0000000  0.6508444  3
    160    148    150    164     1  0.0000000  0.6508444  3
    161    149    147    172     1  0.0000000  0.6508444  3
    161    149    152    165     1  0.0000000  0.6508444  3
    161    149    152    166     1  0.0000000  0.6508444  3
    162    149    147    172     1  0.0000000  0.6508444  3
    162    149    152    165     1  0.0000000  0.6508444  3
    162    149    152    166     1  0.0000000  0.6508444  3
    163    150    151    364     1  180.0000771  0.0000000  2
    164    150    151    364     1  180.0000771  0.0000000  2
    165    152    153    390     1  180.0000771  0.0000000  2
    166    152    153    390     1  180.0000771  0.0000000  2
    167    154    147    172     1  0.0000000  0.6508444  3
    167    154    155    169     1  0.0000000  0.6508444  3
    167    154    155    170     1  0.0000000  0.6508444  3
    168    154    147    172     1  0.0000000  0.6508444  3
    168    154    155    169     1  0.0000000  0.6508444  3
    168    154    155    170     1  0.0000000  0.6508444  3
    169    155    156    171     1  0.0000000  0.0000000  2
    170    155    156    171     1  0.0000000  0.0000000  2
    173    174    176    189     1  0.0000000  0.6508444  3
    173    174    176    190     1  0.0000000  0.6508444  3
    173    175    178    191     1  0.0000000  0.6508444  3
    173    175    178    192     1  0.0000000  0.6508444  3
    173    180    181    195     1  0.0000000  0.6508444  3
    173    180    181    196     1  0.0000000  0.6508444  3
    174    173    175    187     1  0.0000000  0.6508444  3
    174    173    175    188     1  0.0000000  0.6508444  3
    174    173    180    193     1  0.0000000  0.6508444  3
    174    173    180    194     1  0.0000000  0.6508444  3
    175    173    174    185     1  0.0000000  0.6508444  3
    175    173    174    186     1  0.0000000  0.6508444  3
    175    173    180    193     1  0.0000000  0.6508444  3
    175    173    180    194     1  0.0000000  0.6508444  3
    176    174    173    198     1  0.0000000  0.6508444  3
    176    177    416    431     1  180.0000771  10.4600000  2
    177    176    174    185     1  0.0000000  0.6508444  3
    177    176    174    186     1  0.0000000  0.6508444  3
    177    416    415    429     1  0.0000000  0.0000000  2
    177    416    415    430     1  0.0000000  0.0000000  2
    178    175    173    198     1  0.0000000  0.6508444  3
    178    179    442    457     1  180.0000771  10.4600000  2
    179    178    175    187     1  0.0000000  0.6508444  3
    179    178    175    188     1  0.0000000  0.6508444  3
    179    442    441    455     1  0.0000000  0.0000000  2
    179    442    441    456     1  0.0000000  0.0000000  2
    180    173    174    185     1  0.0000000  0.6508444  3
    180    173    174    186     1  0.0000000  0.6508444  3
    180    173    175    187     1  0.0000000  0.6508444  3
    180    173    175    188     1  0.0000000  0.6508444  3
    180    181    182    197     1  0.0000000  0.0000000  2
    181    180    173    198     1  0.0000000  0.6508444  3
    182    181    180    193     1  0.0000000  0.6508444  3
    182    181    180    194     1  0.0000000  0.6508444  3
    183    177    176    189     1  0.0000000  3.3472000  1
    183    177    176    189     1  0.0000000  0.0000000  2
    183    177    176    189     1  180.0000771  0.3347200  3
    183    177    176    190     1  0.0000000  3.3472000  1
    183    177    176    190     1  0.0000000  0.0000000  2
    183    177    176    190     1  180.0000771  0.3347200  3
    183    177    416    431     1  0.0000000  8.3680000  1
    183    177    416    431     1  180.0000771  10.4600000  2
    184    179    178    191     1  0.0000000  3.3472000  1
    184    179    178    191     1  0.0000000  0.0000000  2
    184    179    178    191     1  180.0000771  0.3347200  3
    184    179    178    192     1  0.0000000  3.3472000  1
    184    179    178    192     1  0.0000000  0.0000000  2
    184    179    178    192     1  180.0000771  0.3347200  3
    184    179    442    457     1  0.0000000  8.3680000  1
    184    179    442    457     1  180.0000771  10.4600000  2
    185    174    173    198     1  0.0000000  0.6508444  3
    185    174    176    189     1  0.0000000  0.6508444  3
    185    174    176    190     1  0.0000000  0.6508444  3
    186    174    173    198     1  0.0000000  0.6508444  3
    186    174    176    189     1  0.0000000  0.6508444  3
    186    174    176    190     1  0.0000000  0.6508444  3
    187    175    173    198     1  0.0000000  0.6508444  3
    187    175    178    191     1  0.0000000  0.6508444  3
    187    175    178    192     1  0.0000000  0.6508444  3
    188    175    173    198     1  0.0000000  0.6508444  3
    188    175    178    191     1  0.0000000  0.6508444  3
    188    175    178    192     1  0.0000000  0.6508444  3
    189    176    177    416     1  180.0000771  0.0000000  2
    190    176    177    416     1  180.0000771  0.0000000  2
    191    178    179    442     1  180.0000771  0.0000000  2
    192    178    179    442     1  180.0000771  0.0000000  2
    193    180    173    198     1  0.0000000  0.6508444  3
    193    180    181    195     1  0.0000000  0.6508444  3
    193    180    181    196     1  0.0000000  0.6508444  3
    194    180    173    198     1  0.0000000  0.6508444  3
    194    180    181    195     1  0.0000000  0.6508444  3
    194    180    181    196     1  0.0000000  0.6508444  3
    195    181    182    197     1  0.0000000  0.0000000  2
    196    181    182    197     1  0.0000000  0.0000000  2
    199    200    202    215     1  0.0000000  0.6508444  3
    199    200    202    216     1  0.0000000  0.6508444  3
    199    201    204    217     1  0.0000000  0.6508444  3
    199    201    204    218     1  0.0000000  0.6508444  3
    199    206    207    221     1  0.0000000  0.6508444  3
    199    206    207    222     1  0.0000000  0.6508444  3
    200    199    201    213     1  0.0000000  0.6508444  3
    200    199    201    214     1  0.0000000  0.6508444  3
    200    199    206    219     1  0.0000000  0.6508444  3
    200    199    206    220     1  0.0000000  0.6508444  3
    201    199    200    211     1  0.0000000  0.6508444  3
    201    199    200    212     1  0.0000000  0.6508444  3
    201    199    206    219     1  0.0000000  0.6508444  3
    201    199    206    220     1  0.0000000  0.6508444  3
    202    200    199    224     1  0.0000000  0.6508444  3
    202    203    468    483     1  180.0000771  10.4600000  2
    203    202    200    211     1  0.0000000  0.6508444  3
    203    202    200    212     1  0.0000000  0.6508444  3
    203    468    467    481     1  0.0000000  0.0000000  2
    203    468    467    482     1  0.0000000  0.0000000  2
    204    201    199    224     1  0.0000000  0.6508444  3
    204    205    494    509     1  180.0000771  10.4600000  2
    205    204    201    213     1  0.0000000  0.6508444  3
    205    204    201    214     1  0.0000000  0.6508444  3
    205    494    493    507     1  0.0000000  0.0000000  2
    205    494    493    508     1  0.0000000  0.0000000  2
    206    199    200    211     1  0.0000000  0.6508444  3
    206    199    200    212     1  0.0000000  0.6508444  3
    206    199    201    213     1  0.0000000  0.6508444  3
    206    199    201    214     1  0.0000000  0.6508444  3
    206    207    208    223     1  0.0000000  0.0000000  2
    207    206    199    224     1  0.0000000  0.6508444  3
    208    207    206    219     1  0.0000000  0.6508444  3
    208    207    206    220     1  0.0000000  0.6508444  3
    209    203    202    215     1  0.0000000  3.3472000  1
    209    203    202    215     1  0.0000000  0.0000000  2
    209    203    202    215     1  180.0000771  0.3347200  3
    209    203    202    216     1  0.0000000  3.3472000  1
    209    203    202    216     1  0.0000000  0.0000000  2
    209    203    202    216     1  180.0000771  0.3347200  3
    209    203    468    483     1  0.0000000  8.3680000  1
    209    203    468    483     1  180.0000771  10.4600000  2
    210    205    204    217     1  0.0000000  3.3472000  1
    210    205    204    217     1  0.0000000  0.0000000  2
    210    205    204    217     1  180.0000771  0.3347200  3
    210    205    204    218     1  0.0000000  3.3472000  1
    210    205    204    218     1  0.0000000  0.0000000  2
    210    205    204    218     1  180.0000771  0.3347200  3
    210    205    494    509     1  0.0000000  8.3680000  1
    210    205    494    509     1  180.0000771  10.4600000  2
    211    200    199    224     1  0.0000000  0.6508444  3
    211    200    202    215     1  0.0000000  0.6508444  3
    211    200    202    216     1  0.0000000  0.6508444  3
    212    200    199    224     1  0.0000000  0.6508444  3
    212    200    202    215     1  0.0000000  0.6508444  3
    212    200    202    216     1  0.0000000  0.6508444  3
    213    201    199    224     1  0.0000000  0.6508444  3
    213    201    204    217     1  0.0000000  0.6508444  3
    213    201    204    218     1  0.0000000  0.6508444  3
    214    201    199    224     1  0.0000000  0.6508444  3
    214    201    204    217     1  0.0000000  0.6508444  3
    214    201    204    218     1  0.0000000  0.6508444  3
    215    202    203    468     1  180.0000771  0.0000000  2
    216    202    203    468     1  180.0000771  0.0000000  2
    217    204    205    494     1  180.0000771  0.0000000  2
    218    204    205    494     1  180.0000771  0.0000000  2
    219    206    199    224     1  0.0000000  0.6508444  3
    219    206    207    221     1  0.0000000  0.6508444  3
    219    206    207    222     1  0.0000000  0.6508444  3
    220    206    199    224     1  0.0000000  0.6508444  3
    220    206    207    221     1  0.0000000  0.6508444  3
    220    206    207    222     1  0.0000000  0.6508444  3
    221    207    208    223     1  0.0000000  0.0000000  2
    222    207    208    223     1  0.0000000  0.0000000  2
    225    226    228    241     1  0.0000000  0.6508444  3
    225    226    228    242     1  0.0000000  0.6508444  3
    225    227    230    243     1  0.0000000  0.6508444  3
    225    227    230    244     1  0.0000000  0.6508444  3
    225    232    233    247     1  0.0000000  0.6508444  3
    225    232    233    248     1  0.0000000  0.6508444  3
    226    225    227    239     1  0.0000000  0.6508444  3
    226    225    227    240     1  0.0000000  0.6508444  3
    226    225    232    245     1  0.0000000  0.6508444  3
    226    225    232    246     1  0.0000000  0.6508444  3
    227    225    226    237     1  0.0000000  0.6508444  3
    227    225    226    238     1  0.0000000  0.6508444  3
    227    225    232    245     1  0.0000000  0.6508444  3
    227    225    232    246     1  0.0000000  0.6508444  3
    228    226    225    250     1  0.0000000  0.6508444  3
    228    229    520    535     1  180.0000771  10.4600000  2
    229    228    226    237     1  0.0000000  0.6508444  3
    229    228    226    238     1  0.0000000  0.6508444  3
    229    520    519    533     1  0.0000000  0.0000000  2
    229    520    519    534     1  0.0000000  0.0000000  2
    230    227    225    250     1  0.0000000  0.6508444  3
    230    231    546    561     1  180.0000771  10.4600000  2
    231    230    227    239     1  0.0000000  0.6508444  3
    231    230    227    240     1  0.0000000  0.6508444  3
    231    546    545    559     1  0.0000000  0.0000000  2
    231    546    545    560     1  0.0000000  0.0000000  2
    232    225    226    237     1  0.0000000  0.6508444  3
    232    225    226    238     1  0.0000000  0.6508444  3
    232    225    227    239     1  0.0000000  0.6508444  3
    232    225    227    240     1  0.0000000  0.6508444  3
    232    233    234    249     1  0.0000000  0.0000000  2
    233    232    225    250     1  0.0000000  0.6508444  3
    234    233    232    245     1  0.0000000  0.6508444  3
    234    233    232    246     1  0.0000000  0.6508444  3
    235    229    228    241     1  0.0000000  3.3472000  1
    235    229    228    241     1  0.0000000  0.0000000  2
    235    229    228    241     1  180.0000771  0.3347200  3
    235    229    228    242     1  0.0000000  3.3472000  1
    235    229    228    242     1  0.0000000  0.0000000  2
    235    229    228    242     1  180.0000771  0.3347200  3
    235    229    520    535     1  0.0000000  8.3680000  1
    235    229    520    535     1  180.0000771  10.4600000  2
    236    231    230    243     1  0.0000000  3.3472000  1
    236    231    230    243     1  0.0000000  0.0000000  2
    236    231    230    243     1  180.0000771  0.3347200  3
    236    231    230    244     1  0.0000000  3.3472000  1
    236    231    230    244     1  0.0000000  0.0000000  2
    236    231    230    244     1  180.0000771  0.3347200  3
    236    231    546    561     1  0.0000000  8.3680000  1
    236    231    546    561     1  180.0000771  10.4600000  2
    237    226    225    250     1  0.0000000  0.6508444  3
    237    226    228    241     1  0.0000000  0.6508444  3
    237    226    228    242     1  0.0000000  0.6508444  3
    238    226    225    250     1  0.0000000  0.6508444  3
    238    226    228    241     1  0.0000000  0.6508444  3
    238    226    228    242     1  0.0000000  0.6508444  3
    239    227    225    250     1  0.0000000  0.6508444  3
    239    227    230    243     1  0.0000000  0.6508444  3
    239    227    230    244     1  0.0000000  0.6508444  3
    240    227    225    250     1  0.0000000  0.6508444  3
    240    227    230    243     1  0.0000000  0.6508444  3
    240    227    230    244     1  0.0000000  0.6508444  3
    241    228    229    520     1  180.0000771  0.0000000  2
    242    228    229    520     1  180.0000771  0.0000000  2
    243    230    231    546     1  180.0000771  0.0000000  2
    244    230    231    546     1  180.0000771  0.0000000  2
    245    232    225    250     1  0.0000000  0.6508444  3
    245    232    233    247     1  0.0000000  0.6508444  3
    245    232    233    248     1  0.0000000  0.6508444  3
    246    232    225    250     1  0.0000000  0.6508444  3
    246    232    233    247     1  0.0000000  0.6508444  3
    246    232    233    248     1  0.0000000  0.6508444  3
    247    233    234    249     1  0.0000000  0.0000000  2
    248    233    234    249     1  0.0000000  0.0000000  2
    251    252    254    267     1  0.0000000  0.6508444  3
    251    252    254    268     1  0.0000000  0.6508444  3
    251    253    256    269     1  0.0000000  0.6508444  3
    251    253    256    270     1  0.0000000  0.6508444  3
    251    258    259    273     1  0.0000000  0.6508444  3
    251    258    259    274     1  0.0000000  0.6508444  3
    252    251    253    265     1  0.0000000  0.6508444  3
    252    251    253    266     1  0.0000000  0.6508444  3
    252    251    258    271     1  0.0000000  0.6508444  3
    252    251    258    272     1  0.0000000  0.6508444  3
    253    251    252    263     1  0.0000000  0.6508444  3
    253    251    252    264     1  0.0000000  0.6508444  3
    253    251    258    271     1  0.0000000  0.6508444  3
    253    251    258    272     1  0.0000000  0.6508444  3
    254    252    251    276     1  0.0000000  0.6508444  3
    254    255    572    587     1  180.0000771  10.4600000  2
    255    254    252    263     1  0.0000000  0.6508444  3
    255    254    252    264     1  0.0000000  0.6508444  3
    255    572    571    585     1  0.0000000  0.0000000  2
    255    572    571    586     1  0.0000000  0.0000000  2
    256    253    251    276     1  0.0000000  0.6508444  3
    256    257    598    613     1  180.0000771  10.4600000  2
    257    256    253    265     1  0.0000000  0.6508444  3
    257    256    253    266     1  0.0000000  0.6508444  3
    257    598    597    611     1  0.0000000  0.0000000  2
    257    598    597    612     1  0.0000000  0.0000000  2
    258    251    252    263     1  0.0000000  0.6508444  3
    258    251    252    264     1  0.0000000  0.6508444  3
    258    251    253    265     1  0.0000000  0.6508444  3
    258    251    253    266     1  0.0000000  0.6508444  3
    258    259    260    275     1  0.0000000  0.0000000  2
    259    258    251    276     1  0.0000000  0.6508444  3
    260    259    258    271     1  0.0000000  0.6508444  3
    260    259    258    272     1  0.0000000  0.6508444  3
    261    255    254    267     1  0.0000000  3.3472000  1
    261    255    254    267     1  0.0000000  0.0000000  2
    261    255    254    267     1  180.0000771  0.3347200  3
    261    255    254    268     1  0.0000000  3.3472000  1
    261    255    254    268     1  0.0000000  0.0000000  2
    261    255    254    268     1  180.0000771  0.3347200  3
    261    255    572    587     1  0.0000000  8.3680000  1
    261    255    572    587     1  180.0000771  10.4600000  2
    262    257    256    269     1  0.0000000  3.3472000  1
    262    257    256    269     1  0.0000000  0.0000000  2
    262    257    256    269     1  180.0000771  0.3347200  3
    262    257    256    270     1  0.0000000  3.3472000  1
    262    257    256    270     1  0.0000000  0.0000000  2
    262    257    256    270     1  180.0000771  0.3347200  3
    262    257    598    613     1  0.0000000  8.3680000  1
    262    257    598    613     1  180.0000771  10.4600000  2
    263    252    251    276     1  0.0000000  0.6508444  3
    263    252    254    267     1  0.0000000  0.6508444  3
    263    252    254    268     1  0.0000000  0.6508444  3
    264    252    251    276     1  0.0000000  0.6508444  3
    264    252    254    267     1  0.0000000  0.6508444  3
    264    252    254    268     1  0.0000000  0.6508444  3
    265    253    251    276     1  0.0000000  0.6508444  3
    265    253    256    269     1  0.0000000  0.6508444  3
    265    253    256    270     1  0.0000000  0.6508444  3
    266    253    251    276     1  0.0000000  0.6508444  3
    266    253    256    269     1  0.0000000  0.6508444  3
    266    253    256    270     1  0.0000000  0.6508444  3
    267    254    255    572     1  180.0000771  0.0000000  2
    268    254    255    572     1  180.0000771  0.0000000  2
    269    256    257    598     1  180.0000771  0.0000000  2
    270    256    257    598     1  180.0000771  0.0000000  2
    271    258    251    276     1  0.0000000  0.6508444  3
    271    258    259    273     1  0.0000000  0.6508444  3
    271    258    259    274     1  0.0000000  0.6508444  3
    272    258    251    276     1  0.0000000  0.6508444  3
    272    258    259    273     1  0.0000000  0.6508444  3
    272    258    259    274     1  0.0000000  0.6508444  3
    273    259    260    275     1  0.0000000  0.0000000  2
    274    259    260    275     1  0.0000000  0.0000000  2
    277    278    280    293     1  0.0000000  0.6508444  3
    277    278    280    294     1  0.0000000  0.6508444  3
    277    279    282    295     1  0.0000000  0.6508444  3
    277    279    282    296     1  0.0000000  0.6508444  3
    277    284    285    299     1  0.0000000  0.6508444  3
    277    284    285    300     1  0.0000000  0.6508444  3
    278    277    279    291     1  0.0000000  0.6508444  3
    278    277    279    292     1  0.0000000  0.6508444  3
    278    277    284    297     1  0.0000000  0.6508444  3
    278    277    284    298     1  0.0000000  0.6508444  3
    279    277    278    289     1  0.0000000  0.6508444  3
    279    277    278    290     1  0.0000000  0.6508444  3
    279    277    284    297     1  0.0000000  0.6508444  3
    279    277    284    298     1  0.0000000  0.6508444  3
    280    278    277    302     1  0.0000000  0.6508444  3
    280    281    624    639     1  180.0000771  10.4600000  2
    281    280    278    289     1  0.0000000  0.6508444  3
    281    280    278    290     1  0.0000000  0.6508444  3
    281    624    623    637     1  0.0000000  0.0000000  2
    281    624    623    638     1  0.0000000  0.0000000  2
    282    279    277    302     1  0.0000000  0.6508444  3
    282    283    650    665     1  180.0000771  10.4600000  2
    283    282    279    291     1  0.0000000  0.6508444  3
    283    282    279    292     1  0.0000000  0.6508444  3
    283    650    649    663     1  0.0000000  0.0000000  2
    283    650    649    664     1  0.0000000  0.0000000  2
    284    277    278    289     1  0.0000000  0.6508444  3
    284    277    278    290     1  0.0000000  0.6508444  3
    284    277    279    291     1  0.0000000  0.6508444  3
    284    277    279    292     1  0.0000000  0.6508444  3
    284    285    286    301     1  0.0000000  0.0000000  2
    285    284    277    302     1  0.0000000  0.6508444  3
    286    285    284    297     1  0.0000000  0.6508444  3
    286    285    284    298     1  0.0000000  0.6508444  3
    287    281    280    293     1  0.0000000  3.3472000  1
    287    281    280    293     1  0.0000000  0.0000000  2
    287    281    280    293     1  180.0000771  0.3347200  3
    287    281    280    294     1  0.0000000  3.3472000  1
    287    281    280    294     1  0.0000000  0.0000000  2
    287    281    280    294     1  180.0000771  0.3347200  3
    287    281    624    639     1  0.0000000  8.3680000  1
    287    281    624    639     1  180.0000771  10.4600000  2
    288    283    282    295     1  0.0000000  3.3472000  1
    288    283    282    295     1  0.0000000  0.0000000  2
    288    283    282    295     1  180.0000771  0.3347200  3
    288    283    282    296     1  0.0000000  3.3472000  1
    288    283    282    296     1  0.0000000  0.0000000  2
    288    283    282    296     1  180.0000771  0.3347200  3
    288    283    650    665     1  0.0000000  8.3680000  1
    288    283    650    665     1  180.0000771  10.4600000  2
    289    278    277    302     1  0.0000000  0.6508444  3
    289    278    280    293     1  0.0000000  0.6508444  3
    289    278    280    294     1  0.0000000  0.6508444  3
    290    278    277    302     1  0.0000000  0.6508444  3
    290    278    280    293     1  0.0000000  0.6508444  3
    290    278    280    294     1  0.0000000  0.6508444  3
    291    279    277    302     1  0.0000000  0.6508444  3
    291    279    282    295     1  0.0000000  0.6508444  3
    291    279    282    296     1  0.0000000  0.6508444  3
    292    279    277    302     1  0.0000000  0.6508444  3
    292    279    282    295     1  0.0000000  0.6508444  3
    292    279    282    296     1  0.0000000  0.6508444  3
    293    280    281    624     1  180.0000771  0.0000000  2
    294    280    281    624     1  180.0000771  0.0000000  2
    295    282    283    650     1  180.0000771  0.0000000  2
    296    282    283    650     1  180.0000771  0.0000000  2
    297    284    277    302     1  0.0000000  0.6508444  3
    297    284    285    299     1  0.0000000  0.6508444  3
    297    284    285    300     1  0.0000000  0.6508444  3
    298    284    277    302     1  0.0000000  0.6508444  3
    298    284    285    299     1  0.0000000  0.6508444  3
    298    284    285    300     1  0.0000000  0.6508444  3
    299    285    286    301     1  0.0000000  0.0000000  2
    300    285    286    301     1  0.0000000  0.0000000  2
    303    304    306    319     1  0.0000000  0.6508444  3
    303    304    306    320     1  0.0000000  0.6508444  3
    303    305    308    321     1  0.0000000  0.6508444  3
    303    305    308    322     1  0.0000000  0.6508444  3
    303    310    311    325     1  0.0000000  0.6508444  3
    303    310    311    326     1  0.0000000  0.6508444  3
    304    303    305    317     1  0.0000000  0.6508444  3
    304    303    305    318     1  0.0000000  0.6508444  3
    304    303    310    323     1  0.0000000  0.6508444  3
    304    303    310    324     1  0.0000000  0.6508444  3
    305    303    304    315     1  0.0000000  0.6508444  3
    305    303    304    316     1  0.0000000  0.6508444  3
    305    303    310    323     1  0.0000000  0.6508444  3
    305    303    310    324     1  0.0000000  0.6508444  3
    306    304    303    328     1  0.0000000  0.6508444  3
    306    307    676    691     1  180.0000771  10.4600000  2
    307    306    304    315     1  0.0000000  0.6508444  3
    307    306    304    316     1  0.0000000  0.6508444  3
    307    676    675    689     1  0.0000000  0.0000000  2
    307    676    675    690     1  0.0000000  0.0000000  2
    308    305    303    328     1  0.0000000  0.6508444  3
    308    309    702    717     1  180.0000771  10.4600000  2
    309    308    305    317     1  0.0000000  0.6508444  3
    309    308    305    318     1  0.0000000  0.6508444  3
    309    702    701    715     1  0.0000000  0.0000000  2
    309    702    701    716     1  0.0000000  0.0000000  2
    310    303    304    315     1  0.0000000  0.6508444  3
    310    303    304    316     1  0.0000000  0.6508444  3
    310    303    305    317     1  0.0000000  0.6508444  3
    310    303    305    318     1  0.0000000  0.6508444  3
    310    311    312    327     1  0.0000000  0.0000000  2
    311    310    303    328     1  0.0000000  0.6508444  3
    312    311    310    323     1  0.0000000  0.6508444  3
    312    311    310    324     1  0.0000000  0.6508444  3
    313    307    306    319     1  0.0000000  3.3472000  1
    313    307    306    319     1  0.0000000  0.0000000  2
    313    307    306    319     1  180.0000771  0.3347200  3
    313    307    306    320     1  0.0000000  3.3472000  1
    313    307    306    320     1  0.0000000  0.0000000  2
    313    307    306    320     1  180.0000771  0.3347200  3
    313    307    676    691     1  0.0000000  8.3680000  1
    313    307    676    691     1  180.0000771  10.4600000  2
    314    309    308    321     1  0.0000000  3.3472000  1
    314    309    308    321     1  0.0000000  0.0000000  2
    314    309    308    321     1  180.0000771  0.3347200  3
    314    309    308    322     1  0.0000000  3.3472000  1
    314    309    308    322     1  0.0000000  0.0000000  2
    314    309    308    322     1  180.0000771  0.3347200  3
    314    309    702    717     1  0.0000000  8.3680000  1
    314    309    702    717     1  180.0000771  10.4600000  2
    315    304    303    328     1  0.0000000  0.6508444  3
    315    304    306    319     1  0.0000000  0.6508444  3
    315    304    306    320     1  0.0000000  0.6508444  3
    316    304    303    328     1  0.0000000  0.6508444  3
    316    304    306    319     1  0.0000000  0.6508444  3
    316    304    306    320     1  0.0000000  0.6508444  3
    317    305    303    328     1  0.0000000  0.6508444  3
    317    305    308    321     1  0.0000000  0.6508444  3
    317    305    308    322     1  0.0000000  0.6508444  3
    318    305    303    328     1  0.0000000  0.6508444  3
    318    305    308    321     1  0.0000000  0.6508444  3
    318    305    308    322     1  0.0000000  0.6508444  3
    319    306    307    676     1  180.0000771  0.0000000  2
    320    306    307    676     1  180.0000771  0.0000000  2
    321    308    309    702     1  180.0000771  0.0000000  2
    322    308    309    702     1  180.0000771  0.0000000  2
    323    310    303    328     1  0.0000000  0.6508444  3
    323    310    311    325     1  0.0000000  0.6508444  3
    323    310    311    326     1  0.0000000  0.6508444  3
    324    310    303    328     1  0.0000000  0.6508444  3
    324    310    311    325     1  0.0000000  0.6508444  3
    324    310    311    326     1  0.0000000  0.6508444  3
    325    311    312    327     1  0.0000000  0.0000000  2
    326    311    312    327     1  0.0000000  0.0000000  2
    329    330    332    345     1  0.0000000  0.6508444  3
    329    330    332    346     1  0.0000000  0.6508444  3
    329    331    334    347     1  0.0000000  0.6508444  3
    329    331    334    348     1  0.0000000  0.6508444  3
    329    336    337    351     1  0.0000000  0.6508444  3
    329    336    337    352     1  0.0000000  0.6508444  3
    330    329    331    343     1  0.0000000  0.6508444  3
    330    329    331    344     1  0.0000000  0.6508444  3
    330    329    336    349     1  0.0000000  0.6508444  3
    330    329    336    350     1  0.0000000  0.6508444  3
    331    329    330    341     1  0.0000000  0.6508444  3
    331    329    330    342     1  0.0000000  0.6508444  3
    331    329    336    349     1  0.0000000  0.6508444  3
    331    329    336    350     1  0.0000000  0.6508444  3
    332    330    329    354     1  0.0000000  0.6508444  3
    332    333    728    743     1  180.0000771  10.4600000  2
    333    332    330    341     1  0.0000000  0.6508444  3
    333    332    330    342     1  0.0000000  0.6508444  3
    333    728    727    741     1  0.0000000  0.0000000  2
    333    728    727    742     1  0.0000000  0.0000000  2
    334    331    329    354     1  0.0000000  0.6508444  3
    334    335    754    769     1  180.0000771  10.4600000  2
    335    334    331    343     1  0.0000000  0.6508444  3
    335    334    331    344     1  0.0000000  0.6508444  3
    335    754    753    767     1  0.0000000  0.0000000  2
    335    754    753    768     1  0.0000000  0.0000000  2
    336    329    330    341     1  0.0000000  0.6508444  3
    336    329    330    342     1  0.0000000  0.6508444  3
    336    329    331    343     1  0.0000000  0.6508444  3
    336    329    331    344     1  0.0000000  0.6508444  3
    336    337    338    353     1  0.0000000  0.0000000  2
    337    336    329    354     1  0.0000000  0.6508444  3
    338    337    336    349     1  0.0000000  0.6508444  3
    338    337    336    350     1  0.0000000  0.6508444  3
    339    333    332    345     1  0.0000000  3.3472000  1
    339    333    332    345     1  0.0000000  0.0000000  2
    339    333    332    345     1  180.0000771  0.3347200  3
    339    333    332    346     1  0.0000000  3.3472000  1
    339    333    332    346     1  0.0000000  0.0000000  2
    339    333    332    346     1  180.0000771  0.3347200  3
    339    333    728    743     1  0.0000000  8.3680000  1
    339    333    728    743     1  180.0000771  10.4600000  2
    340    335    334    347     1  0.0000000  3.3472000  1
    340    335    334    347     1  0.0000000  0.0000000  2
    340    335    334    347     1  180.0000771  0.3347200  3
    340    335    334    348     1  0.0000000  3.3472000  1
    340    335    334    348     1  0.0000000  0.0000000  2
    340    335    334    348     1  180.0000771  0.3347200  3
    340    335    754    769     1  0.0000000  8.3680000  1
    340    335    754    769     1  180.0000771  10.4600000  2
    341    330    329    354     1  0.0000000  0.6508444  3
    341    330    332    345     1  0.0000000  0.6508444  3
    341    330    332    346     1  0.0000000  0.6508444  3
    342    330    329    354     1  0.0000000  0.6508444  3
    342    330    332    345     1  0.0000000  0.6508444  3
    342    330    332    346     1  0.0000000  0.6508444  3
    343    331    329    354     1  0.0000000  0.6508444  3
    343    331    334    347     1  0.0000000  0.6508444  3
    343    331    334    348     1  0.0000000  0.6508444  3
    344    331    329    354     1  0.0000000  0.6508444  3
    344    331    334    347     1  0.0000000  0.6508444  3
    344    331    334    348     1  0.0000000  0.6508444  3
    345    332    333    728     1  180.0000771  0.0000000  2
    346    332    333    728     1  180.0000771  0.0000000  2
    347    334    335    754     1  180.0000771  0.0000000  2
    348    334    335    754     1  180.0000771  0.0000000  2
    349    336    329    354     1  0.0000000  0.6508444  3
    349    336    337    351     1  0.0000000  0.6508444  3
    349    336    337    352     1  0.0000000  0.6508444  3
    350    336    329    354     1  0.0000000  0.6508444  3
    350    336    337    351     1  0.0000000  0.6508444  3
    350    336    337    352     1  0.0000000  0.6508444  3
    351    337    338    353     1  0.0000000  0.0000000  2
    352    337    338    353     1  0.0000000  0.0000000  2
    355    356    358    371     1  0.0000000  0.6508444  3
    355    356    358    372     1  0.0000000  0.6508444  3
    355    357    360    373     1  0.0000000  0.6508444  3
    355    357    360    374     1  0.0000000  0.6508444  3
    355    362    363    377     1  0.0000000  0.6508444  3
    355    362    363    378     1  0.0000000  0.6508444  3
    356    355    357    369     1  0.0000000  0.6508444  3
    356    355    357    370     1  0.0000000  0.6508444  3
    356    355    362    375     1  0.0000000  0.6508444  3
    356    355    362    376     1  0.0000000  0.6508444  3
    357    355    356    367     1  0.0000000  0.6508444  3
    357    355    356    368     1  0.0000000  0.6508444  3
    357    355    362    375     1  0.0000000  0.6508444  3
    357    355    362    376     1  0.0000000  0.6508444  3
    358    356    355    380     1  0.0000000  0.6508444  3
    358    359    780    795     1  180.0000771  10.4600000  2
    359    358    356    367     1  0.0000000  0.6508444  3
    359    358    356    368     1  0.0000000  0.6508444  3
    359    780    779    793     1  0.0000000  0.0000000  2
    359    780    779    794     1  0.0000000  0.0000000  2
    360    357    355    380     1  0.0000000  0.6508444  3
    360    361    806    821     1  180.0000771  10.4600000  2
    361    360    357    369     1  0.0000000  0.6508444  3
    361    360    357    370     1  0.0000000  0.6508444  3
    361    806    805    819     1  0.0000000  0.0000000  2
    361    806    805    820     1  0.0000000  0.0000000  2
    362    355    356    367     1  0.0000000  0.6508444  3
    362    355    356    368     1  0.0000000  0.6508444  3
    362    355    357    369     1  0.0000000  0.6508444  3
    362    355    357    370     1  0.0000000  0.6508444  3
    362    363    364    379     1  0.0000000  0.0000000  2
    363    362    355    380     1  0.0000000  0.6508444  3
    364    363    362    375     1  0.0000000  0.6508444  3
    364    363    362    376     1  0.0000000  0.6508444  3
    365    359    358    371     1  0.0000000  3.3472000  1
    365    359    358    371     1  0.0000000  0.0000000  2
    365    359    358    371     1  180.0000771  0.3347200  3
    365    359    358    372     1  0.0000000  3.3472000  1
    365    359    358    372     1  0.0000000  0.0000000  2
    365    359    358    372     1  180.0000771  0.3347200  3
    365    359    780    795     1  0.0000000  8.3680000  1
    365    359    780    795     1  180.0000771  10.4600000  2
    366    361    360    373     1  0.0000000  3.3472000  1
    366    361    360    373     1  0.0000000  0.0000000  2
    366    361    360    373     1  180.0000771  0.3347200  3
    366    361    360    374     1  0.0000000  3.3472000  1
    366    361    360    374     1  0.0000000  0.0000000  2
    366    361    360    374     1  180.0000771  0.3347200  3
    366    361    806    821     1  0.0000000  8.3680000  1
    366    361    806    821     1  180.0000771  10.4600000  2
    367    356    355    380     1  0.0000000  0.6508444  3
    367    356    358    371     1  0.0000000  0.6508444  3
    367    356    358    372     1  0.0000000  0.6508444  3
    368    356    355    380     1  0.0000000  0.6508444  3
    368    356    358    371     1  0.0000000  0.6508444  3
    368    356    358    372     1  0.0000000  0.6508444  3
    369    357    355    380     1  0.0000000  0.6508444  3
    369    357    360    373     1  0.0000000  0.6508444  3
    369    357    360    374     1  0.0000000  0.6508444  3
    370    357    355    380     1  0.0000000  0.6508444  3
    370    357    360    373     1  0.0000000  0.6508444  3
    370    357    360    374     1  0.0000000  0.6508444  3
    371    358    359    780     1  180.0000771  0.0000000  2
    372    358    359    780     1  180.0000771  0.0000000  2
    373    360    361    806     1  180.0000771  0.0000000  2
    374    360    361    806     1  180.0000771  0.0000000  2
    375    362    355    380     1  0.0000000  0.6508444  3
    375    362    363    377     1  0.0000000  0.6508444  3
    375    362    363    378     1  0.0000000  0.6508444  3
    376    362    355    380     1  0.0000000  0.6508444  3
    376    362    363    377     1  0.0000000  0.6508444  3
    376    362    363    378     1  0.0000000  0.6508444  3
    377    363    364    379     1  0.0000000  0.0000000  2
    378    363    364    379     1  0.0000000  0.0000000  2
    381    382    384    397     1  0.0000000  0.6508444  3
    381    382    384    398     1  0.0000000  0.6508444  3
    381    383    386    399     1  0.0000000  0.6508444  3
    381    383    386    400     1  0.0000000  0.6508444  3
    381    388    389    403     1  0.0000000  0.6508444  3
    381    388    389    404     1  0.0000000  0.6508444  3
    382    381    383    395     1  0.0000000  0.6508444  3
    382    381    383    396     1  0.0000000  0.6508444  3
    382    381    388    401     1  0.0000000  0.6508444  3
    382    381    388    402     1  0.0000000  0.6508444  3
    383    381    382    393     1  0.0000000  0.6508444  3
    383    381    382    394     1  0.0000000  0.6508444  3
    383    381    388    401     1  0.0000000  0.6508444  3
    383    381    388    402     1  0.0000000  0.6508444  3
    384    382    381    406     1  0.0000000  0.6508444  3
    384    385    832    847     1  180.0000771  10.4600000  2
    385    384    382    393     1  0.0000000  0.6508444  3
    385    384    382    394     1  0.0000000  0.6508444  3
    385    832    831    845     1  0.0000000  0.0000000  2
    385    832    831    846     1  0.0000000  0.0000000  2
    386    383    381    406     1  0.0000000  0.6508444  3
    386    387    858    873     1  180.0000771  10.4600000  2
    387    386    383    395     1  0.0000000  0.6508444  3
    387    386    383    396     1  0.0000000  0.6508444  3
    387    858    857    871     1  0.0000000  0.0000000  2
    387    858    857    872     1  0.0000000  0.0000000  2
    388    381    382    393     1  0.0000000  0.6508444  3
    388    381    382    394     1  0.0000000  0.6508444  3
    388    381    383    395     1  0.0000000  0.6508444  3
    388    381    383    396     1  0.0000000  0.6508444  3
    388    389    390    405     1  0.0000000  0.0000000  2
    389    388    381    406     1  0.0000000  0.6508444  3
    390    389    388    401     1  0.0000000  0.6508444  3
    390    389    388    402     1  0.0000000  0.6508444  3
    391    385    384    397     1  0.0000000  3.3472000  1
    391    385    384    397     1  0.0000000  0.0000000  2
    391    385    384    397     1  180.0000771  0.3347200  3
    391    385    384    398     1  0.0000000  3.3472000  1
    391    385    384    398     1  0.0000000  0.0000000  2
    391    385    384    398     1  180.0000771  0.3347200  3
    391    385    832    847     1  0.0000000  8.3680000  1
    391    385    832    847     1  180.0000771  10.4600000  2
    392    387    386    399     1  0.0000000  3.3472000  1
    392    387    386    399     1  0.0000000  0.0000000  2
    392    387    386    399     1  180.0000771  0.3347200  3
    392    387    386    400     1  0.0000000  3.3472000  1
    392    387    386    400     1  0.0000000  0.0000000  2
    392    387    386    400     1  180.0000771  0.3347200  3
    392    387    858    873     1  0.0000000  8.3680000  1
    392    387    858    873     1  180.0000771  10.4600000  2
    393    382    381    406     1  0.0000000  0.6508444  3
    393    382    384    397     1  0.0000000  0.6508444  3
    393    382    384    398     1  0.0000000  0.6508444  3
    394    382    381    406     1  0.0000000  0.6508444  3
    394    382    384    397     1  0.0000000  0.6508444  3
    394    382    384    398     1  0.0000000  0.6508444  3
    395    383    381    406     1  0.0000000  0.6508444  3
    395    383    386    399     1  0.0000000  0.6508444  3
    395    383    386    400     1  0.0000000  0.6508444  3
    396    383    381    406     1  0.0000000  0.6508444  3
    396    383    386    399     1  0.0000000  0.6508444  3
    396    383    386    400     1  0.0000000  0.6508444  3
    397    384    385    832     1  180.0000771  0.0000000  2
    398    384    385    832     1  180.0000771  0.0000000  2
    399    386    387    858     1  180.0000771  0.0000000  2
    400    386    387    858     1  180.0000771  0.0000000  2
    401    388    381    406     1  0.0000000  0.6508444  3
    401    388    389    403     1  0.0000000  0.6508444  3
    401    388    389    404     1  0.0000000  0.6508444  3
    402    388    381    406     1  0.0000000  0.6508444  3
    402    388    389    403     1  0.0000000  0.6508444  3
    402    388    389    404     1  0.0000000  0.6508444  3
    403    389    390    405     1  0.0000000  0.0000000  2
    404    389    390    405     1  0.0000000  0.0000000  2
    407    408    410    423     1  0.0000000  0.6508444  3
    407    408    410    424     1  0.0000000  0.6508444  3
    407    409    412    425     1  0.0000000  0.6508444  3
    407    409    412    426     1  0.0000000  0.6508444  3
    407    414    415    429     1  0.0000000  0.6508444  3
    407    414    415    430     1  0.0000000  0.6508444  3
    408    407    409    421     1  0.0000000  0.6508444  3
    408    407    409    422     1  0.0000000  0.6508444  3
    408    407    414    427     1  0.0000000  0.6508444  3
    408    407    414    428     1  0.0000000  0.6508444  3
    409    407    408    419     1  0.0000000  0.6508444  3
    409    407    408    420     1  0.0000000  0.6508444  3
    409    407    414    427     1  0.0000000  0.6508444  3
    409    407    414    428     1  0.0000000  0.6508444  3
    410    408    407    432     1  0.0000000  0.6508444  3
    410    411    884    899     1  180.0000771  10.4600000  2
    411    410    408    419     1  0.0000000  0.6508444  3
    411    410    408    420     1  0.0000000  0.6508444  3
    411    884    883    897     1  0.0000000  0.0000000  2
    411    884    883    898     1  0.0000000  0.0000000  2
    412    409    407    432     1  0.0000000  0.6508444  3
    412    413    910    925     1  180.0000771  10.4600000  2
    413    412    409    421     1  0.0000000  0.6508444  3
    413    412    409    422     1  0.0000000  0.6508444  3
    413    910    909    923     1  0.0000000  0.0000000  2
    413    910    909    924     1  0.0000000  0.0000000  2
    414    407    408    419     1  0.0000000  0.6508444  3
    414    407    408    420     1  0.0000000  0.6508444  3
    414    407    409    421     1  0.0000000  0.6508444  3
    414    407    409    422     1  0.0000000  0.6508444  3
    414    415    416    431     1  0.0000000  0.0000000  2
    415    414    407    432     1  0.0000000  0.6508444  3
    416    415    414    427     1  0.0000000  0.6508444  3
    416    415    414    428     1  0.0000000  0.6508444  3
    417    411    410    423     1  0.0000000  3.3472000  1
    417    411    410    423     1  0.0000000  0.0000000  2
    417    411    410    423     1  180.0000771  0.3347200  3
    417    411    410    424     1  0.0000000  3.3472000  1
    417    411    410    424     1  0.0000000  0.0000000  2
    417    411    410    424     1  180.0000771  0.3347200  3
    417    411    884    899     1  0.0000000  8.3680000  1
    417    411    884    899     1  180.0000771  10.4600000  2
    418    413    412    425     1  0.0000000  3.3472000  1
    418    413    412    425     1  0.0000000  0.0000000  2
    418    413    412    425     1  180.0000771  0.3347200  3
    418    413    412    426     1  0.0000000  3.3472000  1
    418    413    412    426     1  0.0000000  0.0000000  2
    418    413    412    426     1  180.0000771  0.3347200  3
    418    413    910    925     1  0.0000000  8.3680000  1
    418    413    910    925     1  180.0000771  10.4600000  2
    419    408    407    432     1  0.0000000  0.6508444  3
    419    408    410    423     1  0.0000000  0.6508444  3
    419    408    410    424     1  0.0000000  0.6508444  3
    420    408    407    432     1  0.0000000  0.6508444  3
    420    408    410    423     1  0.0000000  0.6508444  3
    420    408    410    424     1  0.0000000  0.6508444  3
    421    409    407    432     1  0.0000000  0.6508444  3
    421    409    412    425     1  0.0000000  0.6508444  3
    421    409    412    426     1  0.0000000  0.6508444  3
    422    409    407    432     1  0.0000000  0.6508444  3
    422    409    412    425     1  0.0000000  0.6508444  3
    422    409    412    426     1  0.0000000  0.6508444  3
    423    410    411    884     1  180.0000771  0.0000000  2
    424    410    411    884     1  180.0000771  0.0000000  2
    425    412    413    910     1  180.0000771  0.0000000  2
    426    412    413    910     1  180.0000771  0.0000000  2
    427    414    407    432     1  0.0000000  0.6508444  3
    427    414    415    429     1  0.0000000  0.6508444  3
    427    414    415    430     1  0.0000000  0.6508444  3
    428    414    407    432     1  0.0000000  0.6508444  3
    428    414    415    429     1  0.0000000  0.6508444  3
    428    414    415    430     1  0.0000000  0.6508444  3
    429    415    416    431     1  0.0000000  0.0000000  2
    430    415    416    431     1  0.0000000  0.0000000  2
    433    434    436    449     1  0.0000000  0.6508444  3
    433    434    436    450     1  0.0000000  0.6508444  3
    433    435    438    451     1  0.0000000  0.6508444  3
    433    435    438    452     1  0.0000000  0.6508444  3
    433    440    441    455     1  0.0000000  0.6508444  3
    433    440    441    456     1  0.0000000  0.6508444  3
    434    433    435    447     1  0.0000000  0.6508444  3
    434    433    435    448     1  0.0000000  0.6508444  3
    434    433    440    453     1  0.0000000  0.6508444  3
    434    433    440    454     1  0.0000000  0.6508444  3
    435    433    434    445     1  0.0000000  0.6508444  3
    435    433    434    446     1  0.0000000  0.6508444  3
    435    433    440    453     1  0.0000000  0.6508444  3
    435    433    440    454     1  0.0000000  0.6508444  3
    436    434    433    458     1  0.0000000  0.6508444  3
    436    437    936    951     1  180.0000771  10.4600000  2
    437    436    434    445     1  0.0000000  0.6508444  3
    437    436    434    446     1  0.0000000  0.6508444  3
    437    936    935    949     1  0.0000000  0.0000000  2
    437    936    935    950     1  0.0000000  0.0000000  2
    438    435    433    458     1  0.0000000  0.6508444  3
    438    439    962    977     1  180.0000771  10.4600000  2
    439    438    435    447     1  0.0000000  0.6508444  3
    439    438    435    448     1  0.0000000  0.6508444  3
    439    962    961    975     1  0.0000000  0.0000000  2
    439    962    961    976     1  0.0000000  0.0000000  2
    440    433    434    445     1  0.0000000  0.6508444  3
    440    433    434    446     1  0.0000000  0.6508444  3
    440    433    435    447     1  0.0000000  0.6508444  3
    440    433    435    448     1  0.0000000  0.6508444  3
    440    441    442    457     1  0.0000000  0.0000000  2
    441    440    433    458     1  0.0000000  0.6508444  3
    442    441    440    453     1  0.0000000  0.6508444  3
    442    441    440    454     1  0.0000000  0.6508444  3
    443    437    436    449     1  0.0000000  3.3472000  1
    443    437    436    449     1  0.0000000  0.0000000  2
    443    437    436    449     1  180.0000771  0.3347200  3
    443    437    436    450     1  0.0000000  3.3472000  1
    443    437    436    450     1  0.0000000  0.0000000  2
    443    437    436    450     1  180.0000771  0.3347200  3
    443    437    936    951     1  0.0000000  8.3680000  1
    443    437    936    951     1  180.0000771  10.4600000  2
    444    439    438    451     1  0.0000000  3.3472000  1
    444    439    438    451     1  0.0000000  0.0000000  2
    444    439    438    451     1  180.0000771  0.3347200  3
    444    439    438    452     1  0.0000000  3.3472000  1
    444    439    438    452     1  0.0000000  0.0000000  2
    444    439    438    452     1  180.0000771  0.3347200  3
    444    439    962    977     1  0.0000000  8.3680000  1
    444    439    962    977     1  180.0000771  10.4600000  2
    445    434    433    458     1  0.0000000  0.6508444  3
    445    434    436    449     1  0.0000000  0.6508444  3
    445    434    436    450     1  0.0000000  0.6508444  3
    446    434    433    458     1  0.0000000  0.6508444  3
    446    434    436    449     1  0.0000000  0.6508444  3
    446    434    436    450     1  0.0000000  0.6508444  3
    447    435    433    458     1  0.0000000  0.6508444  3
    447    435    438    451     1  0.0000000  0.6508444  3
    447    435    438    452     1  0.0000000  0.6508444  3
    448    435    433    458     1  0.0000000  0.6508444  3
    448    435    438    451     1  0.0000000  0.6508444  3
    448    435    438    452     1  0.0000000  0.6508444  3
    449    436    437    936     1  180.0000771  0.0000000  2
    450    436    437    936     1  180.0000771  0.0000000  2
    451    438    439    962     1  180.0000771  0.0000000  2
    452    438    439    962     1  180.0000771  0.0000000  2
    453    440    433    458     1  0.0000000  0.6508444  3
    453    440    441    455     1  0.0000000  0.6508444  3
    453    440    441    456     1  0.0000000  0.6508444  3
    454    440    433    458     1  0.0000000  0.6508444  3
    454    440    441    455     1  0.0000000  0.6508444  3
    454    440    441    456     1  0.0000000  0.6508444  3
    455    441    442    457     1  0.0000000  0.0000000  2
    456    441    442    457     1  0.0000000  0.0000000  2
    459    460    462    475     1  0.0000000  0.6508444  3
    459    460    462    476     1  0.0000000  0.6508444  3
    459    461    464    477     1  0.0000000  0.6508444  3
    459    461    464    478     1  0.0000000  0.6508444  3
    459    466    467    481     1  0.0000000  0.6508444  3
    459    466    467    482     1  0.0000000  0.6508444  3
    460    459    461    473     1  0.0000000  0.6508444  3
    460    459    461    474     1  0.0000000  0.6508444  3
    460    459    466    479     1  0.0000000  0.6508444  3
    460    459    466    480     1  0.0000000  0.6508444  3
    461    459    460    471     1  0.0000000  0.6508444  3
    461    459    460    472     1  0.0000000  0.6508444  3
    461    459    466    479     1  0.0000000  0.6508444  3
    461    459    466    480     1  0.0000000  0.6508444  3
    462    460    459    484     1  0.0000000  0.6508444  3
    462    463    988   1003     1  180.0000771  10.4600000  2
    463    462    460    471     1  0.0000000  0.6508444  3
    463    462    460    472     1  0.0000000  0.6508444  3
    463    988    987   1001     1  0.0000000  0.0000000  2
    463    988    987   1002     1  0.0000000  0.0000000  2
    464    461    459    484     1  0.0000000  0.6508444  3
    464    465   1014   1029     1  180.0000771  10.4600000  2
    465    464    461    473     1  0.0000000  0.6508444  3
    465    464    461    474     1  0.0000000  0.6508444  3
    465   1014   1013   1027     1  0.0000000  0.0000000  2
    465   1014   1013   1028     1  0.0000000  0.0000000  2
    466    459    460    471     1  0.0000000  0.6508444  3
    466    459    460    472     1  0.0000000  0.6508444  3
    466    459    461    473     1  0.0000000  0.6508444  3
    466    459    461    474     1  0.0000000  0.6508444  3
    466    467    468    483     1  0.0000000  0.0000000  2
    467    466    459    484     1  0.0000000  0.6508444  3
    468    467    466    479     1  0.0000000  0.6508444  3
    468    467    466    480     1  0.0000000  0.6508444  3
    469    463    462    475     1  0.0000000  3.3472000  1
    469    463    462    475     1  0.0000000  0.0000000  2
    469    463    462    475     1  180.0000771  0.3347200  3
    469    463    462    476     1  0.0000000  3.3472000  1
    469    463    462    476     1  0.0000000  0.0000000  2
    469    463    462    476     1  180.0000771  0.3347200  3
    469    463    988   1003     1  0.0000000  8.3680000  1
    469    463    988   1003     1  180.0000771  10.4600000  2
    470    465    464    477     1  0.0000000  3.3472000  1
    470    465    464    477     1  0.0000000  0.0000000  2
    470    465    464    477     1  180.0000771  0.3347200  3
    470    465    464    478     1  0.0000000  3.3472000  1
    470    465    464    478     1  0.0000000  0.0000000  2
    470    465    464    478     1  180.0000771  0.3347200  3
    470    465   1014   1029     1  0.0000000  8.3680000  1
    470    465   1014   1029     1  180.0000771  10.4600000  2
    471    460    459    484     1  0.0000000  0.6508444  3
    471    460    462    475     1  0.0000000  0.6508444  3
    471    460    462    476     1  0.0000000  0.6508444  3
    472    460    459    484     1  0.0000000  0.6508444  3
    472    460    462    475     1  0.0000000  0.6508444  3
    472    460    462    476     1  0.0000000  0.6508444  3
    473    461    459    484     1  0.0000000  0.6508444  3
    473    461    464    477     1  0.0000000  0.6508444  3
    473    461    464    478     1  0.0000000  0.6508444  3
    474    461    459    484     1  0.0000000  0.6508444  3
    474    461    464    477     1  0.0000000  0.6508444  3
    474    461    464    478     1  0.0000000  0.6508444  3
    475    462    463    988     1  180.0000771  0.0000000  2
    476    462    463    988     1  180.0000771  0.0000000  2
    477    464    465   1014     1  180.0000771  0.0000000  2
    478    464    465   1014     1  180.0000771  0.0000000  2
    479    466    459    484     1  0.0000000  0.6508444  3
    479    466    467    481     1  0.0000000  0.6508444  3
    479    466    467    482     1  0.0000000  0.6508444  3
    480    466    459    484     1  0.0000000  0.6508444  3
    480    466    467    481     1  0.0000000  0.6508444  3
    480    466    467    482     1  0.0000000  0.6508444  3
    481    467    468    483     1  0.0000000  0.0000000  2
    482    467    468    483     1  0.0000000  0.0000000  2
    485    486    488    501     1  0.0000000  0.6508444  3
    485    486    488    502     1  0.0000000  0.6508444  3
    485    487    490    503     1  0.0000000  0.6508444  3
    485    487    490    504     1  0.0000000  0.6508444  3
    485    492    493    507     1  0.0000000  0.6508444  3
    485    492    493    508     1  0.0000000  0.6508444  3
    486    485    487    499     1  0.0000000  0.6508444  3
    486    485    487    500     1  0.0000000  0.6508444  3
    486    485    492    505     1  0.0000000  0.6508444  3
    486    485    492    506     1  0.0000000  0.6508444  3
    487    485    486    497     1  0.0000000  0.6508444  3
    487    485    486    498     1  0.0000000  0.6508444  3
    487    485    492    505     1  0.0000000  0.6508444  3
    487    485    492    506     1  0.0000000  0.6508444  3
    488    486    485    510     1  0.0000000  0.6508444  3
    488    489   1040   1055     1  180.0000771  10.4600000  2
    489    488    486    497     1  0.0000000  0.6508444  3
    489    488    486    498     1  0.0000000  0.6508444  3
    489   1040   1039   1053     1  0.0000000  0.0000000  2
    489   1040   1039   1054     1  0.0000000  0.0000000  2
    490    487    485    510     1  0.0000000  0.6508444  3
    490    491   1066   1081     1  180.0000771  10.4600000  2
    491    490    487    499     1  0.0000000  0.6508444  3
    491    490    487    500     1  0.0000000  0.6508444  3
    491   1066   1065   1079     1  0.0000000  0.0000000  2
    491   1066   1065   1080     1  0.0000000  0.0000000  2
    492    485    486    497     1  0.0000000  0.6508444  3
    492    485    486    498     1  0.0000000  0.6508444  3
    492    485    487    499     1  0.0000000  0.6508444  3
    492    485    487    500     1  0.0000000  0.6508444  3
    492    493    494    509     1  0.0000000  0.0000000  2
    493    492    485    510     1  0.0000000  0.6508444  3
    494    493    492    505     1  0.0000000  0.6508444  3
    494    493    492    506     1  0.0000000  0.6508444  3
    495    489    488    501     1  0.0000000  3.3472000  1
    495    489    488    501     1  0.0000000  0.0000000  2
    495    489    488    501     1  180.0000771  0.3347200  3
    495    489    488    502     1  0.0000000  3.3472000  1
    495    489    488    502     1  0.0000000  0.0000000  2
    495    489    488    502     1  180.0000771  0.3347200  3
    495    489   1040   1055     1  0.0000000  8.3680000  1
    495    489   1040   1055     1  180.0000771  10.4600000  2
    496    491    490    503     1  0.0000000  3.3472000  1
    496    491    490    503     1  0.0000000  0.0000000  2
    496    491    490    503     1  180.0000771  0.3347200  3
    496    491    490    504     1  0.0000000  3.3472000  1
    496    491    490    504     1  0.0000000  0.0000000  2
    496    491    490    504     1  180.0000771  0.3347200  3
    496    491   1066   1081     1  0.0000000  8.3680000  1
    496    491   1066   1081     1  180.0000771  10.4600000  2
    497    486    485    510     1  0.0000000  0.6508444  3
    497    486    488    501     1  0.0000000  0.6508444  3
    497    486    488    502     1  0.0000000  0.6508444  3
    498    486    485    510     1  0.0000000  0.6508444  3
    498    486    488    501     1  0.0000000  0.6508444  3
    498    486    488    502     1  0.0000000  0.6508444  3
    499    487    485    510     1  0.0000000  0.6508444  3
    499    487    490    503     1  0.0000000  0.6508444  3
    499    487    490    504     1  0.0000000  0.6508444  3
    500    487    485    510     1  0.0000000  0.6508444  3
    500    487    490    503     1  0.0000000  0.6508444  3
    500    487    490    504     1  0.0000000  0.6508444  3
    501    488    489   1040     1  180.0000771  0.0000000  2
    502    488    489   1040     1  180.0000771  0.0000000  2
    503    490    491   1066     1  180.0000771  0.0000000  2
    504    490    491   1066     1  180.0000771  0.0000000  2
    505    492    485    510     1  0.0000000  0.6508444  3
    505    492    493    507     1  0.0000000  0.6508444  3
    505    492    493    508     1  0.0000000  0.6508444  3
    506    492    485    510     1  0.0000000  0.6508444  3
    506    492    493    507     1  0.0000000  0.6508444  3
    506    492    493    508     1  0.0000000  0.6508444  3
    507    493    494    509     1  0.0000000  0.0000000  2
    508    493    494    509     1  0.0000000  0.0000000  2
    511    512    514    527     1  0.0000000  0.6508444  3
    511    512    514    528     1  0.0000000  0.6508444  3
    511    513    516    529     1  0.0000000  0.6508444  3
    511    513    516    530     1  0.0000000  0.6508444  3
    511    518    519    533     1  0.0000000  0.6508444  3
    511    518    519    534     1  0.0000000  0.6508444  3
    512    511    513    525     1  0.0000000  0.6508444  3
    512    511    513    526     1  0.0000000  0.6508444  3
    512    511    518    531     1  0.0000000  0.6508444  3
    512    511    518    532     1  0.0000000  0.6508444  3
    513    511    512    523     1  0.0000000  0.6508444  3
    513    511    512    524     1  0.0000000  0.6508444  3
    513    511    518    531     1  0.0000000  0.6508444  3
    513    511    518    532     1  0.0000000  0.6508444  3
    514    512    511    536     1  0.0000000  0.6508444  3
    514    515   1092   1107     1  180.0000771  10.4600000  2
    515    514    512    523     1  0.0000000  0.6508444  3
    515    514    512    524     1  0.0000000  0.6508444  3
    515   1092   1091   1105     1  0.0000000  0.0000000  2
    515   1092   1091   1106     1  0.0000000  0.0000000  2
    516    513    511    536     1  0.0000000  0.6508444  3
    516    517   1118   1133     1  180.0000771  10.4600000  2
    517    516    513    525     1  0.0000000  0.6508444  3
    517    516    513    526     1  0.0000000  0.6508444  3
    517   1118   1117   1131     1  0.0000000  0.0000000  2
    517   1118   1117   1132     1  0.0000000  0.0000000  2
    518    511    512    523     1  0.0000000  0.6508444  3
    518    511    512    524     1  0.0000000  0.6508444  3
    518    511    513    525     1  0.0000000  0.6508444  3
    518    511    513    526     1  0.0000000  0.6508444  3
    518    519    520    535     1  0.0000000  0.0000000  2
    519    518    511    536     1  0.0000000  0.6508444  3
    520    519    518    531     1  0.0000000  0.6508444  3
    520    519    518    532     1  0.0000000  0.6508444  3
    521    515    514    527     1  0.0000000  3.3472000  1
    521    515    514    527     1  0.0000000  0.0000000  2
    521    515    514    527     1  180.0000771  0.3347200  3
    521    515    514    528     1  0.0000000  3.3472000  1
    521    515    514    528     1  0.0000000  0.0000000  2
    521    515    514    528     1  180.0000771  0.3347200  3
    521    515   1092   1107     1  0.0000000  8.3680000  1
    521    515   1092   1107     1  180.0000771  10.4600000  2
    522    517    516    529     1  0.0000000  3.3472000  1
    522    517    516    529     1  0.0000000  0.0000000  2
    522    517    516    529     1  180.0000771  0.3347200  3
    522    517    516    530     1  0.0000000  3.3472000  1
    522    517    516    530     1  0.0000000  0.0000000  2
    522    517    516    530     1  180.0000771  0.3347200  3
    522    517   1118   1133     1  0.0000000  8.3680000  1
    522    517   1118   1133     1  180.0000771  10.4600000  2
    523    512    511    536     1  0.0000000  0.6508444  3
    523    512    514    527     1  0.0000000  0.6508444  3
    523    512    514    528     1  0.0000000  0.6508444  3
    524    512    511    536     1  0.0000000  0.6508444  3
    524    512    514    527     1  0.0000000  0.6508444  3
    524    512    514    528     1  0.0000000  0.6508444  3
    525    513    511    536     1  0.0000000  0.6508444  3
    525    513    516    529     1  0.0000000  0.6508444  3
    525    513    516    530     1  0.0000000  0.6508444  3
    526    513    511    536     1  0.0000000  0.6508444  3
    526    513    516    529     1  0.0000000  0.6508444  3
    526    513    516    530     1  0.0000000  0.6508444  3
    527    514    515   1092     1  180.0000771  0.0000000  2
    528    514    515   1092     1  180.0000771  0.0000000  2
    529    516    517   1118     1  180.0000771  0.0000000  2
    530    516    517   1118     1  180.0000771  0.0000000  2
    531    518    511    536     1  0.0000000  0.6508444  3
    531    518    519    533     1  0.0000000  0.6508444  3
    531    518    519    534     1  0.0000000  0.6508444  3
    532    518    511    536     1  0.0000000  0.6508444  3
    532    518    519    533     1  0.0000000  0.6508444  3
    532    518    519    534     1  0.0000000  0.6508444  3
    533    519    520    535     1  0.0000000  0.0000000  2
    534    519    520    535     1  0.0000000  0.0000000  2
    537    538    540    553     1  0.0000000  0.6508444  3
    537    538    540    554     1  0.0000000  0.6508444  3
    537    539    542    555     1  0.0000000  0.6508444  3
    537    539    542    556     1  0.0000000  0.6508444  3
    537    544    545    559     1  0.0000000  0.6508444  3
    537    544    545    560     1  0.0000000  0.6508444  3
    538    537    539    551     1  0.0000000  0.6508444  3
    538    537    539    552     1  0.0000000  0.6508444  3
    538    537    544    557     1  0.0000000  0.6508444  3
    538    537    544    558     1  0.0000000  0.6508444  3
    539    537    538    549     1  0.0000000  0.6508444  3
    539    537    538    550     1  0.0000000  0.6508444  3
    539    537    544    557     1  0.0000000  0.6508444  3
    539    537    544    558     1  0.0000000  0.6508444  3
    540    538    537    562     1  0.0000000  0.6508444  3
    540    541   1144   1159     1  180.0000771  10.4600000  2
    541    540    538    549     1  0.0000000  0.6508444  3
    541    540    538    550     1  0.0000000  0.6508444  3
    541   1144   1143   1157     1  0.0000000  0.0000000  2
    541   1144   1143   1158     1  0.0000000  0.0000000  2
    542    539    537    562     1  0.0000000  0.6508444  3
    542    543   1170   1185     1  180.0000771  10.4600000  2
    543    542    539    551     1  0.0000000  0.6508444  3
    543    542    539    552     1  0.0000000  0.6508444  3
    543   1170   1169   1183     1  0.0000000  0.0000000  2
    543   1170   1169   1184     1  0.0000000  0.0000000  2
    544    537    538    549     1  0.0000000  0.6508444  3
    544    537    538    550     1  0.0000000  0.6508444  3
    544    537    539    551     1  0.0000000  0.6508444  3
    544    537    539    552     1  0.0000000  0.6508444  3
    544    545    546    561     1  0.0000000  0.0000000  2
    545    544    537    562     1  0.0000000  0.6508444  3
    546    545    544    557     1  0.0000000  0.6508444  3
    546    545    544    558     1  0.0000000  0.6508444  3
    547    541    540    553     1  0.0000000  3.3472000  1
    547    541    540    553     1  0.0000000  0.0000000  2
    547    541    540    553     1  180.0000771  0.3347200  3
    547    541    540    554     1  0.0000000  3.3472000  1
    547    541    540    554     1  0.0000000  0.0000000  2
    547    541    540    554     1  180.0000771  0.3347200  3
    547    541   1144   1159     1  0.0000000  8.3680000  1
    547    541   1144   1159     1  180.0000771  10.4600000  2
    548    543    542    555     1  0.0000000  3.3472000  1
    548    543    542    555     1  0.0000000  0.0000000  2
    548    543    542    555     1  180.0000771  0.3347200  3
    548    543    542    556     1  0.0000000  3.3472000  1
    548    543    542    556     1  0.0000000  0.0000000  2
    548    543    542    556     1  180.0000771  0.3347200  3
    548    543   1170   1185     1  0.0000000  8.3680000  1
    548    543   1170   1185     1  180.0000771  10.4600000  2
    549    538    537    562     1  0.0000000  0.6508444  3
    549    538    540    553     1  0.0000000  0.6508444  3
    549    538    540    554     1  0.0000000  0.6508444  3
    550    538    537    562     1  0.0000000  0.6508444  3
    550    538    540    553     1  0.0000000  0.6508444  3
    550    538    540    554     1  0.0000000  0.6508444  3
    551    539    537    562     1  0.0000000  0.6508444  3
    551    539    542    555     1  0.0000000  0.6508444  3
    551    539    542    556     1  0.0000000  0.6508444  3
    552    539    537    562     1  0.0000000  0.6508444  3
    552    539    542    555     1  0.0000000  0.6508444  3
    552    539    542    556     1  0.0000000  0.6508444  3
    553    540    541   1144     1  180.0000771  0.0000000  2
    554    540    541   1144     1  180.0000771  0.0000000  2
    555    542    543   1170     1  180.0000771  0.0000000  2
    556    542    543   1170     1  180.0000771  0.0000000  2
    557    544    537    562     1  0.0000000  0.6508444  3
    557    544    545    559     1  0.0000000  0.6508444  3
    557    544    545    560     1  0.0000000  0.6508444  3
    558    544    537    562     1  0.0000000  0.6508444  3
    558    544    545    559     1  0.0000000  0.6508444  3
    558    544    545    560     1  0.0000000  0.6508444  3
    559    545    546    561     1  0.0000000  0.0000000  2
    560    545    546    561     1  0.0000000  0.0000000  2
    563    564    566    579     1  0.0000000  0.6508444  3
    563    564    566    580     1  0.0000000  0.6508444  3
    563    565    568    581     1  0.0000000  0.6508444  3
    563    565    568    582     1  0.0000000  0.6508444  3
    563    570    571    585     1  0.0000000  0.6508444  3
    563    570    571    586     1  0.0000000  0.6508444  3
    564    563    565    577     1  0.0000000  0.6508444  3
    564    563    565    578     1  0.0000000  0.6508444  3
    564    563    570    583     1  0.0000000  0.6508444  3
    564    563    570    584     1  0.0000000  0.6508444  3
    565    563    564    575     1  0.0000000  0.6508444  3
    565    563    564    576     1  0.0000000  0.6508444  3
    565    563    570    583     1  0.0000000  0.6508444  3
    565    563    570    584     1  0.0000000  0.6508444  3
    566    564    563    588     1  0.0000000  0.6508444  3
    566    567   1196   1211     1  180.0000771  10.4600000  2
    567    566    564    575     1  0.0000000  0.6508444  3
    567    566    564    576     1  0.0000000  0.6508444  3
    567   1196   1195   1209     1  0.0000000  0.0000000  2
    567   1196   1195   1210     1  0.0000000  0.0000000  2
    568    565    563    588     1  0.0000000  0.6508444  3
    568    569   1222   1237     1  180.0000771  10.4600000  2
    569    568    565    577     1  0.0000000  0.6508444  3
    569    568    565    578     1  0.0000000  0.6508444  3
    569   1222   1221   1235     1  0.0000000  0.0000000  2
    569   1222   1221   1236     1  0.0000000  0.0000000  2
    570    563    564    575     1  0.0000000  0.6508444  3
    570    563    564    576     1  0.0000000  0.6508444  3
    570    563    565    577     1  0.0000000  0.6508444  3
    570    563    565    578     1  0.0000000  0.6508444  3
    570    571    572    587     1  0.0000000  0.0000000  2
    571    570    563    588     1  0.0000000  0.6508444  3
    572    571    570    583     1  0.0000000  0.6508444  3
    572    571    570    584     1  0.0000000  0.6508444  3
    573    567    566    579     1  0.0000000  3.3472000  1
    573    567    566    579     1  0.0000000  0.0000000  2
    573    567    566    579     1  180.0000771  0.3347200  3
    573    567    566    580     1  0.0000000  3.3472000  1
    573    567    566    580     1  0.0000000  0.0000000  2
    573    567    566    580     1  180.0000771  0.3347200  3
    573    567   1196   1211     1  0.0000000  8.3680000  1
    573    567   1196   1211     1  180.0000771  10.4600000  2
    574    569    568    581     1  0.0000000  3.3472000  1
    574    569    568    581     1  0.0000000  0.0000000  2
    574    569    568    581     1  180.0000771  0.3347200  3
    574    569    568    582     1  0.0000000  3.3472000  1
    574    569    568    582     1  0.0000000  0.0000000  2
    574    569    568    582     1  180.0000771  0.3347200  3
    574    569   1222   1237     1  0.0000000  8.3680000  1
    574    569   1222   1237     1  180.0000771  10.4600000  2
    575    564    563    588     1  0.0000000  0.6508444  3
    575    564    566    579     1  0.0000000  0.6508444  3
    575    564    566    580     1  0.0000000  0.6508444  3
    576    564    563    588     1  0.0000000  0.6508444  3
    576    564    566    579     1  0.0000000  0.6508444  3
    576    564    566    580     1  0.0000000  0.6508444  3
    577    565    563    588     1  0.0000000  0.6508444  3
    577    565    568    581     1  0.0000000  0.6508444  3
    577    565    568    582     1  0.0000000  0.6508444  3
    578    565    563    588     1  0.0000000  0.6508444  3
    578    565    568    581     1  0.0000000  0.6508444  3
    578    565    568    582     1  0.0000000  0.6508444  3
    579    566    567   1196     1  180.0000771  0.0000000  2
    580    566    567   1196     1  180.0000771  0.0000000  2
    581    568    569   1222     1  180.0000771  0.0000000  2
    582    568    569   1222     1  180.0000771  0.0000000  2
    583    570    563    588     1  0.0000000  0.6508444  3
    583    570    571    585     1  0.0000000  0.6508444  3
    583    570    571    586     1  0.0000000  0.6508444  3
    584    570    563    588     1  0.0000000  0.6508444  3
    584    570    571    585     1  0.0000000  0.6508444  3
    584    570    571    586     1  0.0000000  0.6508444  3
    585    571    572    587     1  0.0000000  0.0000000  2
    586    571    572    587     1  0.0000000  0.0000000  2
    589    590    592    605     1  0.0000000  0.6508444  3
    589    590    592    606     1  0.0000000  0.6508444  3
    589    591    594    607     1  0.0000000  0.6508444  3
    589    591    594    608     1  0.0000000  0.6508444  3
    589    596    597    611     1  0.0000000  0.6508444  3
    589    596    597    612     1  0.0000000  0.6508444  3
    590    589    591    603     1  0.0000000  0.6508444  3
    590    589    591    604     1  0.0000000  0.6508444  3
    590    589    596    609     1  0.0000000  0.6508444  3
    590    589    596    610     1  0.0000000  0.6508444  3
    591    589    590    601     1  0.0000000  0.6508444  3
    591    589    590    602     1  0.0000000  0.6508444  3
    591    589    596    609     1  0.0000000  0.6508444  3
    591    589    596    610     1  0.0000000  0.6508444  3
    592    590    589    614     1  0.0000000  0.6508444  3
    592    593   1248   1263     1  180.0000771  10.4600000  2
    593    592    590    601     1  0.0000000  0.6508444  3
    593    592    590    602     1  0.0000000  0.6508444  3
    593   1248   1247   1261     1  0.0000000  0.0000000  2
    593   1248   1247   1262     1  0.0000000  0.0000000  2
    594    591    589    614     1  0.0000000  0.6508444  3
    594    595   1274   1289     1  180.0000771  10.4600000  2
    595    594    591    603     1  0.0000000  0.6508444  3
    595    594    591    604     1  0.0000000  0.6508444  3
    595   1274   1273   1287     1  0.0000000  0.0000000  2
    595   1274   1273   1288     1  0.0000000  0.0000000  2
    596    589    590    601     1  0.0000000  0.6508444  3
    596    589    590    602     1  0.0000000  0.6508444  3
    596    589    591    603     1  0.0000000  0.6508444  3
    596    589    591    604     1  0.0000000  0.6508444  3
    596    597    598    613     1  0.0000000  0.0000000  2
    597    596    589    614     1  0.0000000  0.6508444  3
    598    597    596    609     1  0.0000000  0.6508444  3
    598    597    596    610     1  0.0000000  0.6508444  3
    599    593    592    605     1  0.0000000  3.3472000  1
    599    593    592    605     1  0.0000000  0.0000000  2
    599    593    592    605     1  180.0000771  0.3347200  3
    599    593    592    606     1  0.0000000  3.3472000  1
    599    593    592    606     1  0.0000000  0.0000000  2
    599    593    592    606     1  180.0000771  0.3347200  3
    599    593   1248   1263     1  0.0000000  8.3680000  1
    599    593   1248   1263     1  180.0000771  10.4600000  2
    600    595    594    607     1  0.0000000  3.3472000  1
    600    595    594    607     1  0.0000000  0.0000000  2
    600    595    594    607     1  180.0000771  0.3347200  3
    600    595    594    608     1  0.0000000  3.3472000  1
    600    595    594    608     1  0.0000000  0.0000000  2
    600    595    594    608     1  180.0000771  0.3347200  3
    600    595   1274   1289     1  0.0000000  8.3680000  1
    600    595   1274   1289     1  180.0000771  10.4600000  2
    601    590    589    614     1  0.0000000  0.6508444  3
    601    590    592    605     1  0.0000000  0.6508444  3
    601    590    592    606     1  0.0000000  0.6508444  3
    602    590    589    614     1  0.0000000  0.6508444  3
    602    590    592    605     1  0.0000000  0.6508444  3
    602    590    592    606     1  0.0000000  0.6508444  3
    603    591    589    614     1  0.0000000  0.6508444  3
    603    591    594    607     1  0.0000000  0.6508444  3
    603    591    594    608     1  0.0000000  0.6508444  3
    604    591    589    614     1  0.0000000  0.6508444  3
    604    591    594    607     1  0.0000000  0.6508444  3
    604    591    594    608     1  0.0000000  0.6508444  3
    605    592    593   1248     1  180.0000771  0.0000000  2
    606    592    593   1248     1  180.0000771  0.0000000  2
    607    594    595   1274     1  180.0000771  0.0000000  2
    608    594    595   1274     1  180.0000771  0.0000000  2
    609    596    589    614     1  0.0000000  0.6508444  3
    609    596    597    611     1  0.0000000  0.6508444  3
    609    596    597    612     1  0.0000000  0.6508444  3
    610    596    589    614     1  0.0000000  0.6508444  3
    610    596    597    611     1  0.0000000  0.6508444  3
    610    596    597    612     1  0.0000000  0.6508444  3
    611    597    598    613     1  0.0000000  0.0000000  2
    612    597    598    613     1  0.0000000  0.0000000  2
    615    616    618    631     1  0.0000000  0.6508444  3
    615    616    618    632     1  0.0000000  0.6508444  3
    615    617    620    633     1  0.0000000  0.6508444  3
    615    617    620    634     1  0.0000000  0.6508444  3
    615    622    623    637     1  0.0000000  0.6508444  3
    615    622    623    638     1  0.0000000  0.6508444  3
    616    615    617    629     1  0.0000000  0.6508444  3
    616    615    617    630     1  0.0000000  0.6508444  3
    616    615    622    635     1  0.0000000  0.6508444  3
    616    615    622    636     1  0.0000000  0.6508444  3
    617    615    616    627     1  0.0000000  0.6508444  3
    617    615    616    628     1  0.0000000  0.6508444  3
    617    615    622    635     1  0.0000000  0.6508444  3
    617    615    622    636     1  0.0000000  0.6508444  3
    618    616    615    640     1  0.0000000  0.6508444  3
    618    619   1300   1315     1  180.0000771  10.4600000  2
    619    618    616    627     1  0.0000000  0.6508444  3
    619    618    616    628     1  0.0000000  0.6508444  3
    619   1300   1299   1313     1  0.0000000  0.0000000  2
    619   1300   1299   1314     1  0.0000000  0.0000000  2
    620    617    615    640     1  0.0000000  0.6508444  3
    620    621   1326   1341     1  180.0000771  10.4600000  2
    621    620    617    629     1  0.0000000  0.6508444  3
    621    620    617    630     1  0.0000000  0.6508444  3
    621   1326   1325   1339     1  0.0000000  0.0000000  2
    621   1326   1325   1340     1  0.0000000  0.0000000  2
    622    615    616    627     1  0.0000000  0.6508444  3
    622    615    616    628     1  0.0000000  0.6508444  3
    622    615    617    629     1  0.0000000  0.6508444  3
    622    615    617    630     1  0.0000000  0.6508444  3
    622    623    624    639     1  0.0000000  0.0000000  2
    623    622    615    640     1  0.0000000  0.6508444  3
    624    623    622    635     1  0.0000000  0.6508444  3
    624    623    622    636     1  0.0000000  0.6508444  3
    625    619    618    631     1  0.0000000  3.3472000  1
    625    619    618    631     1  0.0000000  0.0000000  2
    625    619    618    631     1  180.0000771  0.3347200  3
    625    619    618    632     1  0.0000000  3.3472000  1
    625    619    618    632     1  0.0000000  0.0000000  2
    625    619    618    632     1  180.0000771  0.3347200  3
    625    619   1300   1315     1  0.0000000  8.3680000  1
    625    619   1300   1315     1  180.0000771  10.4600000  2
    626    621    620    633     1  0.0000000  3.3472000  1
    626    621    620    633     1  0.0000000  0.0000000  2
    626    621    620    633     1  180.0000771  0.3347200  3
    626    621    620    634     1  0.0000000  3.3472000  1
    626    621    620    634     1  0.0000000  0.0000000  2
    626    621    620    634     1  180.0000771  0.3347200  3
    626    621   1326   1341     1  0.0000000  8.3680000  1
    626    621   1326   1341     1  180.0000771  10.4600000  2
    627    616    615    640     1  0.0000000  0.6508444  3
    627    616    618    631     1  0.0000000  0.6508444  3
    627    616    618    632     1  0.0000000  0.6508444  3
    628    616    615    640     1  0.0000000  0.6508444  3
    628    616    618    631     1  0.0000000  0.6508444  3
    628    616    618    632     1  0.0000000  0.6508444  3
    629    617    615    640     1  0.0000000  0.6508444  3
    629    617    620    633     1  0.0000000  0.6508444  3
    629    617    620    634     1  0.0000000  0.6508444  3
    630    617    615    640     1  0.0000000  0.6508444  3
    630    617    620    633     1  0.0000000  0.6508444  3
    630    617    620    634     1  0.0000000  0.6508444  3
    631    618    619   1300     1  180.0000771  0.0000000  2
    632    618    619   1300     1  180.0000771  0.0000000  2
    633    620    621   1326     1  180.0000771  0.0000000  2
    634    620    621   1326     1  180.0000771  0.0000000  2
    635    622    615    640     1  0.0000000  0.6508444  3
    635    622    623    637     1  0.0000000  0.6508444  3
    635    622    623    638     1  0.0000000  0.6508444  3
    636    622    615    640     1  0.0000000  0.6508444  3
    636    622    623    637     1  0.0000000  0.6508444  3
    636    622    623    638     1  0.0000000  0.6508444  3
    637    623    624    639     1  0.0000000  0.0000000  2
    638    623    624    639     1  0.0000000  0.0000000  2
    641    642    644    657     1  0.0000000  0.6508444  3
    641    642    644    658     1  0.0000000  0.6508444  3
    641    643    646    659     1  0.0000000  0.6508444  3
    641    643    646    660     1  0.0000000  0.6508444  3
    641    648    649    663     1  0.0000000  0.6508444  3
    641    648    649    664     1  0.0000000  0.6508444  3
    642    641    643    655     1  0.0000000  0.6508444  3
    642    641    643    656     1  0.0000000  0.6508444  3
    642    641    648    661     1  0.0000000  0.6508444  3
    642    641    648    662     1  0.0000000  0.6508444  3
    643    641    642    653     1  0.0000000  0.6508444  3
    643    641    642    654     1  0.0000000  0.6508444  3
    643    641    648    661     1  0.0000000  0.6508444  3
    643    641    648    662     1  0.0000000  0.6508444  3
    644    642    641    666     1  0.0000000  0.6508444  3
    644    645   1352   1367     1  180.0000771  10.4600000  2
    645    644    642    653     1  0.0000000  0.6508444  3
    645    644    642    654     1  0.0000000  0.6508444  3
    645   1352   1351   1365     1  0.0000000  0.0000000  2
    645   1352   1351   1366     1  0.0000000  0.0000000  2
    646    643    641    666     1  0.0000000  0.6508444  3
    646    647   1378   1393     1  180.0000771  10.4600000  2
    647    646    643    655     1  0.0000000  0.6508444  3
    647    646    643    656     1  0.0000000  0.6508444  3
    647   1378   1377   1391     1  0.0000000  0.0000000  2
    647   1378   1377   1392     1  0.0000000  0.0000000  2
    648    641    642    653     1  0.0000000  0.6508444  3
    648    641    642    654     1  0.0000000  0.6508444  3
    648    641    643    655     1  0.0000000  0.6508444  3
    648    641    643    656     1  0.0000000  0.6508444  3
    648    649    650    665     1  0.0000000  0.0000000  2
    649    648    641    666     1  0.0000000  0.6508444  3
    650    649    648    661     1  0.0000000  0.6508444  3
    650    649    648    662     1  0.0000000  0.6508444  3
    651    645    644    657     1  0.0000000  3.3472000  1
    651    645    644    657     1  0.0000000  0.0000000  2
    651    645    644    657     1  180.0000771  0.3347200  3
    651    645    644    658     1  0.0000000  3.3472000  1
    651    645    644    658     1  0.0000000  0.0000000  2
    651    645    644    658     1  180.0000771  0.3347200  3
    651    645   1352   1367     1  0.0000000  8.3680000  1
    651    645   1352   1367     1  180.0000771  10.4600000  2
    652    647    646    659     1  0.0000000  3.3472000  1
    652    647    646    659     1  0.0000000  0.0000000  2
    652    647    646    659     1  180.0000771  0.3347200  3
    652    647    646    660     1  0.0000000  3.3472000  1
    652    647    646    660     1  0.0000000  0.0000000  2
    652    647    646    660     1  180.0000771  0.3347200  3
    652    647   1378   1393     1  0.0000000  8.3680000  1
    652    647   1378   1393     1  180.0000771  10.4600000  2
    653    642    641    666     1  0.0000000  0.6508444  3
    653    642    644    657     1  0.0000000  0.6508444  3
    653    642    644    658     1  0.0000000  0.6508444  3
    654    642    641    666     1  0.0000000  0.6508444  3
    654    642    644    657     1  0.0000000  0.6508444  3
    654    642    644    658     1  0.0000000  0.6508444  3
    655    643    641    666     1  0.0000000  0.6508444  3
    655    643    646    659     1  0.0000000  0.6508444  3
    655    643    646    660     1  0.0000000  0.6508444  3
    656    643    641    666     1  0.0000000  0.6508444  3
    656    643    646    659     1  0.0000000  0.6508444  3
    656    643    646    660     1  0.0000000  0.6508444  3
    657    644    645   1352     1  180.0000771  0.0000000  2
    658    644    645   1352     1  180.0000771  0.0000000  2
    659    646    647   1378     1  180.0000771  0.0000000  2
    660    646    647   1378     1  180.0000771  0.0000000  2
    661    648    641    666     1  0.0000000  0.6508444  3
    661    648    649    663     1  0.0000000  0.6508444  3
    661    648    649    664     1  0.0000000  0.6508444  3
    662    648    641    666     1  0.0000000  0.6508444  3
    662    648    649    663     1  0.0000000  0.6508444  3
    662    648    649    664     1  0.0000000  0.6508444  3
    663    649    650    665     1  0.0000000  0.0000000  2
    664    649    650    665     1  0.0000000  0.0000000  2
    667    668    670    683     1  0.0000000  0.6508444  3
    667    668    670    684     1  0.0000000  0.6508444  3
    667    669    672    685     1  0.0000000  0.6508444  3
    667    669    672    686     1  0.0000000  0.6508444  3
    667    674    675    689     1  0.0000000  0.6508444  3
    667    674    675    690     1  0.0000000  0.6508444  3
    668    667    669    681     1  0.0000000  0.6508444  3
    668    667    669    682     1  0.0000000  0.6508444  3
    668    667    674    687     1  0.0000000  0.6508444  3
    668    667    674    688     1  0.0000000  0.6508444  3
    669    667    668    679     1  0.0000000  0.6508444  3
    669    667    668    680     1  0.0000000  0.6508444  3
    669    667    674    687     1  0.0000000  0.6508444  3
    669    667    674    688     1  0.0000000  0.6508444  3
    670    668    667    692     1  0.0000000  0.6508444  3
    670    671   1404   1419     1  180.0000771  10.4600000  2
    671    670    668    679     1  0.0000000  0.6508444  3
    671    670    668    680     1  0.0000000  0.6508444  3
    671   1404   1403   1417     1  0.0000000  0.0000000  2
    671   1404   1403   1418     1  0.0000000  0.0000000  2
    672    669    667    692     1  0.0000000  0.6508444  3
    672    673   1430   1445     1  180.0000771  10.4600000  2
    673    672    669    681     1  0.0000000  0.6508444  3
    673    672    669    682     1  0.0000000  0.6508444  3
    673   1430   1429   1443     1  0.0000000  0.0000000  2
    673   1430   1429   1444     1  0.0000000  0.0000000  2
    674    667    668    679     1  0.0000000  0.6508444  3
    674    667    668    680     1  0.0000000  0.6508444  3
    674    667    669    681     1  0.0000000  0.6508444  3
    674    667    669    682     1  0.0000000  0.6508444  3
    674    675    676    691     1  0.0000000  0.0000000  2
    675    674    667    692     1  0.0000000  0.6508444  3
    676    675    674    687     1  0.0000000  0.6508444  3
    676    675    674    688     1  0.0000000  0.6508444  3
    677    671    670    683     1  0.0000000  3.3472000  1
    677    671    670    683     1  0.0000000  0.0000000  2
    677    671    670    683     1  180.0000771  0.3347200  3
    677    671    670    684     1  0.0000000  3.3472000  1
    677    671    670    684     1  0.0000000  0.0000000  2
    677    671    670    684     1  180.0000771  0.3347200  3
    677    671   1404   1419     1  0.0000000  8.3680000  1
    677    671   1404   1419     1  180.0000771  10.4600000  2
    678    673    672    685     1  0.0000000  3.3472000  1
    678    673    672    685     1  0.0000000  0.0000000  2
    678    673    672    685     1  180.0000771  0.3347200  3
    678    673    672    686     1  0.0000000  3.3472000  1
    678    673    672    686     1  0.0000000  0.0000000  2
    678    673    672    686     1  180.0000771  0.3347200  3
    678    673   1430   1445     1  0.0000000  8.3680000  1
    678    673   1430   1445     1  180.0000771  10.4600000  2
    679    668    667    692     1  0.0000000  0.6508444  3
    679    668    670    683     1  0.0000000  0.6508444  3
    679    668    670    684     1  0.0000000  0.6508444  3
    680    668    667    692     1  0.0000000  0.6508444  3
    680    668    670    683     1  0.0000000  0.6508444  3
    680    668    670    684     1  0.0000000  0.6508444  3
    681    669    667    692     1  0.0000000  0.6508444  3
    681    669    672    685     1  0.0000000  0.6508444  3
    681    669    672    686     1  0.0000000  0.6508444  3
    682    669    667    692     1  0.0000000  0.6508444  3
    682    669    672    685     1  0.0000000  0.6508444  3
    682    669    672    686     1  0.0000000  0.6508444  3
    683    670    671   1404     1  180.0000771  0.0000000  2
    684    670    671   1404     1  180.0000771  0.0000000  2
    685    672    673   1430     1  180.0000771  0.0000000  2
    686    672    673   1430     1  180.0000771  0.0000000  2
    687    674    667    692     1  0.0000000  0.6508444  3
    687    674    675    689     1  0.0000000  0.6508444  3
    687    674    675    690     1  0.0000000  0.6508444  3
    688    674    667    692     1  0.0000000  0.6508444  3
    688    674    675    689     1  0.0000000  0.6508444  3
    688    674    675    690     1  0.0000000  0.6508444  3
    689    675    676    691     1  0.0000000  0.0000000  2
    690    675    676    691     1  0.0000000  0.0000000  2
    693    694    696    709     1  0.0000000  0.6508444  3
    693    694    696    710     1  0.0000000  0.6508444  3
    693    695    698    711     1  0.0000000  0.6508444  3
    693    695    698    712     1  0.0000000  0.6508444  3
    693    700    701    715     1  0.0000000  0.6508444  3
    693    700    701    716     1  0.0000000  0.6508444  3
    694    693    695    707     1  0.0000000  0.6508444  3
    694    693    695    708     1  0.0000000  0.6508444  3
    694    693    700    713     1  0.0000000  0.6508444  3
    694    693    700    714     1  0.0000000  0.6508444  3
    695    693    694    705     1  0.0000000  0.6508444  3
    695    693    694    706     1  0.0000000  0.6508444  3
    695    693    700    713     1  0.0000000  0.6508444  3
    695    693    700    714     1  0.0000000  0.6508444  3
    696    694    693    718     1  0.0000000  0.6508444  3
    696    697   1456   1471     1  180.0000771  10.4600000  2
    697    696    694    705     1  0.0000000  0.6508444  3
    697    696    694    706     1  0.0000000  0.6508444  3
    697   1456   1455   1469     1  0.0000000  0.0000000  2
    697   1456   1455   1470     1  0.0000000  0.0000000  2
    698    695    693    718     1  0.0000000  0.6508444  3
    698    699   1482   1497     1  180.0000771  10.4600000  2
    699    698    695    707     1  0.0000000  0.6508444  3
    699    698    695    708     1  0.0000000  0.6508444  3
    699   1482   1481   1495     1  0.0000000  0.0000000  2
    699   1482   1481   1496     1  0.0000000  0.0000000  2
    700    693    694    705     1  0.0000000  0.6508444  3
    700    693    694    706     1  0.0000000  0.6508444  3
    700    693    695    707     1  0.0000000  0.6508444  3
    700    693    695    708     1  0.0000000  0.6508444  3
    700    701    702    717     1  0.0000000  0.0000000  2
    701    700    693    718     1  0.0000000  0.6508444  3
    702    701    700    713     1  0.0000000  0.6508444  3
    702    701    700    714     1  0.0000000  0.6508444  3
    703    697    696    709     1  0.0000000  3.3472000  1
    703    697    696    709     1  0.0000000  0.0000000  2
    703    697    696    709     1  180.0000771  0.3347200  3
    703    697    696    710     1  0.0000000  3.3472000  1
    703    697    696    710     1  0.0000000  0.0000000  2
    703    697    696    710     1  180.0000771  0.3347200  3
    703    697   1456   1471     1  0.0000000  8.3680000  1
    703    697   1456   1471     1  180.0000771  10.4600000  2
    704    699    698    711     1  0.0000000  3.3472000  1
    704    699    698    711     1  0.0000000  0.0000000  2
    704    699    698    711     1  180.0000771  0.3347200  3
    704    699    698    712     1  0.0000000  3.3472000  1
    704    699    698    712     1  0.0000000  0.0000000  2
    704    699    698    712     1  180.0000771  0.3347200  3
    704    699   1482   1497     1  0.0000000  8.3680000  1
    704    699   1482   1497     1  180.0000771  10.4600000  2
    705    694    693    718     1  0.0000000  0.6508444  3
    705    694    696    709     1  0.0000000  0.6508444  3
    705    694    696    710     1  0.0000000  0.6508444  3
    706    694    693    718     1  0.0000000  0.6508444  3
    706    694    696    709     1  0.0000000  0.6508444  3
    706    694    696    710     1  0.0000000  0.6508444  3
    707    695    693    718     1  0.0000000  0.6508444  3
    707    695    698    711     1  0.0000000  0.6508444  3
    707    695    698    712     1  0.0000000  0.6508444  3
    708    695    693    718     1  0.0000000  0.6508444  3
    708    695    698    711     1  0.0000000  0.6508444  3
    708    695    698    712     1  0.0000000  0.6508444  3
    709    696    697   1456     1  180.0000771  0.0000000  2
    710    696    697   1456     1  180.0000771  0.0000000  2
    711    698    699   1482     1  180.0000771  0.0000000  2
    712    698    699   1482     1  180.0000771  0.0000000  2
    713    700    693    718     1  0.0000000  0.6508444  3
    713    700    701    715     1  0.0000000  0.6508444  3
    713    700    701    716     1  0.0000000  0.6508444  3
    714    700    693    718     1  0.0000000  0.6508444  3
    714    700    701    715     1  0.0000000  0.6508444  3
    714    700    701    716     1  0.0000000  0.6508444  3
    715    701    702    717     1  0.0000000  0.0000000  2
    716    701    702    717     1  0.0000000  0.0000000  2
    719    720    722    735     1  0.0000000  0.6508444  3
    719    720    722    736     1  0.0000000  0.6508444  3
    719    721    724    737     1  0.0000000  0.6508444  3
    719    721    724    738     1  0.0000000  0.6508444  3
    719    726    727    741     1  0.0000000  0.6508444  3
    719    726    727    742     1  0.0000000  0.6508444  3
    720    719    721    733     1  0.0000000  0.6508444  3
    720    719    721    734     1  0.0000000  0.6508444  3
    720    719    726    739     1  0.0000000  0.6508444  3
    720    719    726    740     1  0.0000000  0.6508444  3
    721    719    720    731     1  0.0000000  0.6508444  3
    721    719    720    732     1  0.0000000  0.6508444  3
    721    719    726    739     1  0.0000000  0.6508444  3
    721    719    726    740     1  0.0000000  0.6508444  3
    722    720    719    744     1  0.0000000  0.6508444  3
    722    723   1508   1523     1  180.0000771  10.4600000  2
    723    722    720    731     1  0.0000000  0.6508444  3
    723    722    720    732     1  0.0000000  0.6508444  3
    723   1508   1507   1521     1  0.0000000  0.0000000  2
    723   1508   1507   1522     1  0.0000000  0.0000000  2
    724    721    719    744     1  0.0000000  0.6508444  3
    724    725   1534   1549     1  180.0000771  10.4600000  2
    725    724    721    733     1  0.0000000  0.6508444  3
    725    724    721    734     1  0.0000000  0.6508444  3
    725   1534   1533   1547     1  0.0000000  0.0000000  2
    725   1534   1533   1548     1  0.0000000  0.0000000  2
    726    719    720    731     1  0.0000000  0.6508444  3
    726    719    720    732     1  0.0000000  0.6508444  3
    726    719    721    733     1  0.0000000  0.6508444  3
    726    719    721    734     1  0.0000000  0.6508444  3
    726    727    728    743     1  0.0000000  0.0000000  2
    727    726    719    744     1  0.0000000  0.6508444  3
    728    727    726    739     1  0.0000000  0.6508444  3
    728    727    726    740     1  0.0000000  0.6508444  3
    729    723    722    735     1  0.0000000  3.3472000  1
    729    723    722    735     1  0.0000000  0.0000000  2
    729    723    722    735     1  180.0000771  0.3347200  3
    729    723    722    736     1  0.0000000  3.3472000  1
    729    723    722    736     1  0.0000000  0.0000000  2
    729    723    722    736     1  180.0000771  0.3347200  3
    729    723   1508   1523     1  0.0000000  8.3680000  1
    729    723   1508   1523     1  180.0000771  10.4600000  2
    730    725    724    737     1  0.0000000  3.3472000  1
    730    725    724    737     1  0.0000000  0.0000000  2
    730    725    724    737     1  180.0000771  0.3347200  3
    730    725    724    738     1  0.0000000  3.3472000  1
    730    725    724    738     1  0.0000000  0.0000000  2
    730    725    724    738     1  180.0000771  0.3347200  3
    730    725   1534   1549     1  0.0000000  8.3680000  1
    730    725   1534   1549     1  180.0000771  10.4600000  2
    731    720    719    744     1  0.0000000  0.6508444  3
    731    720    722    735     1  0.0000000  0.6508444  3
    731    720    722    736     1  0.0000000  0.6508444  3
    732    720    719    744     1  0.0000000  0.6508444  3
    732    720    722    735     1  0.0000000  0.6508444  3
    732    720    722    736     1  0.0000000  0.6508444  3
    733    721    719    744     1  0.0000000  0.6508444  3
    733    721    724    737     1  0.0000000  0.6508444  3
    733    721    724    738     1  0.0000000  0.6508444  3
    734    721    719    744     1  0.0000000  0.6508444  3
    734    721    724    737     1  0.0000000  0.6508444  3
    734    721    724    738     1  0.0000000  0.6508444  3
    735    722    723   1508     1  180.0000771  0.0000000  2
    736    722    723   1508     1  180.0000771  0.0000000  2
    737    724    725   1534     1  180.0000771  0.0000000  2
    738    724    725   1534     1  180.0000771  0.0000000  2
    739    726    719    744     1  0.0000000  0.6508444  3
    739    726    727    741     1  0.0000000  0.6508444  3
    739    726    727    742     1  0.0000000  0.6508444  3
    740    726    719    744     1  0.0000000  0.6508444  3
    740    726    727    741     1  0.0000000  0.6508444  3
    740    726    727    742     1  0.0000000  0.6508444  3
    741    727    728    743     1  0.0000000  0.0000000  2
    742    727    728    743     1  0.0000000  0.0000000  2
    745    746    748    761     1  0.0000000  0.6508444  3
    745    746    748    762     1  0.0000000  0.6508444  3
    745    747    750    763     1  0.0000000  0.6508444  3
    745    747    750    764     1  0.0000000  0.6508444  3
    745    752    753    767     1  0.0000000  0.6508444  3
    745    752    753    768     1  0.0000000  0.6508444  3
    746    745    747    759     1  0.0000000  0.6508444  3
    746    745    747    760     1  0.0000000  0.6508444  3
    746    745    752    765     1  0.0000000  0.6508444  3
    746    745    752    766     1  0.0000000  0.6508444  3
    747    745    746    757     1  0.0000000  0.6508444  3
    747    745    746    758     1  0.0000000  0.6508444  3
    747    745    752    765     1  0.0000000  0.6508444  3
    747    745    752    766     1  0.0000000  0.6508444  3
    748    746    745    770     1  0.0000000  0.6508444  3
    748    749   1560   1575     1  180.0000771  10.4600000  2
    749    748    746    757     1  0.0000000  0.6508444  3
    749    748    746    758     1  0.0000000  0.6508444  3
    749   1560   1559   1573     1  0.0000000  0.0000000  2
    749   1560   1559   1574     1  0.0000000  0.0000000  2
    750    747    745    770     1  0.0000000  0.6508444  3
    750    751   1586   1601     1  180.0000771  10.4600000  2
    751    750    747    759     1  0.0000000  0.6508444  3
    751    750    747    760     1  0.0000000  0.6508444  3
    751   1586   1585   1599     1  0.0000000  0.0000000  2
    751   1586   1585   1600     1  0.0000000  0.0000000  2
    752    745    746    757     1  0.0000000  0.6508444  3
    752    745    746    758     1  0.0000000  0.6508444  3
    752    745    747    759     1  0.0000000  0.6508444  3
    752    745    747    760     1  0.0000000  0.6508444  3
    752    753    754    769     1  0.0000000  0.0000000  2
    753    752    745    770     1  0.0000000  0.6508444  3
    754    753    752    765     1  0.0000000  0.6508444  3
    754    753    752    766     1  0.0000000  0.6508444  3
    755    749    748    761     1  0.0000000  3.3472000  1
    755    749    748    761     1  0.0000000  0.0000000  2
    755    749    748    761     1  180.0000771  0.3347200  3
    755    749    748    762     1  0.0000000  3.3472000  1
    755    749    748    762     1  0.0000000  0.0000000  2
    755    749    748    762     1  180.0000771  0.3347200  3
    755    749   1560   1575     1  0.0000000  8.3680000  1
    755    749   1560   1575     1  180.0000771  10.4600000  2
    756    751    750    763     1  0.0000000  3.3472000  1
    756    751    750    763     1  0.0000000  0.0000000  2
    756    751    750    763     1  180.0000771  0.3347200  3
    756    751    750    764     1  0.0000000  3.3472000  1
    756    751    750    764     1  0.0000000  0.0000000  2
    756    751    750    764     1  180.0000771  0.3347200  3
    756    751   1586   1601     1  0.0000000  8.3680000  1
    756    751   1586   1601     1  180.0000771  10.4600000  2
    757    746    745    770     1  0.0000000  0.6508444  3
    757    746    748    761     1  0.0000000  0.6508444  3
    757    746    748    762     1  0.0000000  0.6508444  3
    758    746    745    770     1  0.0000000  0.6508444  3
    758    746    748    761     1  0.0000000  0.6508444  3
    758    746    748    762     1  0.0000000  0.6508444  3
    759    747    745    770     1  0.0000000  0.6508444  3
    759    747    750    763     1  0.0000000  0.6508444  3
    759    747    750    764     1  0.0000000  0.6508444  3
    760    747    745    770     1  0.0000000  0.6508444  3
    760    747    750    763     1  0.0000000  0.6508444  3
    760    747    750    764     1  0.0000000  0.6508444  3
    761    748    749   1560     1  180.0000771  0.0000000  2
    762    748    749   1560     1  180.0000771  0.0000000  2
    763    750    751   1586     1  180.0000771  0.0000000  2
    764    750    751   1586     1  180.0000771  0.0000000  2
    765    752    745    770     1  0.0000000  0.6508444  3
    765    752    753    767     1  0.0000000  0.6508444  3
    765    752    753    768     1  0.0000000  0.6508444  3
    766    752    745    770     1  0.0000000  0.6508444  3
    766    752    753    767     1  0.0000000  0.6508444  3
    766    752    753    768     1  0.0000000  0.6508444  3
    767    753    754    769     1  0.0000000  0.0000000  2
    768    753    754    769     1  0.0000000  0.0000000  2
    771    772    774    787     1  0.0000000  0.6508444  3
    771    772    774    788     1  0.0000000  0.6508444  3
    771    773    776    789     1  0.0000000  0.6508444  3
    771    773    776    790     1  0.0000000  0.6508444  3
    771    778    779    793     1  0.0000000  0.6508444  3
    771    778    779    794     1  0.0000000  0.6508444  3
    772    771    773    785     1  0.0000000  0.6508444  3
    772    771    773    786     1  0.0000000  0.6508444  3
    772    771    778    791     1  0.0000000  0.6508444  3
    772    771    778    792     1  0.0000000  0.6508444  3
    773    771    772    783     1  0.0000000  0.6508444  3
    773    771    772    784     1  0.0000000  0.6508444  3
    773    771    778    791     1  0.0000000  0.6508444  3
    773    771    778    792     1  0.0000000  0.6508444  3
    774    772    771    796     1  0.0000000  0.6508444  3
    774    775   1612   1627     1  180.0000771  10.4600000  2
    775    774    772    783     1  0.0000000  0.6508444  3
    775    774    772    784     1  0.0000000  0.6508444  3
    775   1612   1611   1625     1  0.0000000  0.0000000  2
    775   1612   1611   1626     1  0.0000000  0.0000000  2
    776    773    771    796     1  0.0000000  0.6508444  3
    776    777   1638   1653     1  180.0000771  10.4600000  2
    777    776    773    785     1  0.0000000  0.6508444  3
    777    776    773    786     1  0.0000000  0.6508444  3
    777   1638   1637   1651     1  0.0000000  0.0000000  2
    777   1638   1637   1652     1  0.0000000  0.0000000  2
    778    771    772    783     1  0.0000000  0.6508444  3
    778    771    772    784     1  0.0000000  0.6508444  3
    778    771    773    785     1  0.0000000  0.6508444  3
    778    771    773    786     1  0.0000000  0.6508444  3
    778    779    780    795     1  0.0000000  0.0000000  2
    779    778    771    796     1  0.0000000  0.6508444  3
    780    779    778    791     1  0.0000000  0.6508444  3
    780    779    778    792     1  0.0000000  0.6508444  3
    781    775    774    787     1  0.0000000  3.3472000  1
    781    775    774    787     1  0.0000000  0.0000000  2
    781    775    774    787     1  180.0000771  0.3347200  3
    781    775    774    788     1  0.0000000  3.3472000  1
    781    775    774    788     1  0.0000000  0.0000000  2
    781    775    774    788     1  180.0000771  0.3347200  3
    781    775   1612   1627     1  0.0000000  8.3680000  1
    781    775   1612   1627     1  180.0000771  10.4600000  2
    782    777    776    789     1  0.0000000  3.3472000  1
    782    777    776    789     1  0.0000000  0.0000000  2
    782    777    776    789     1  180.0000771  0.3347200  3
    782    777    776    790     1  0.0000000  3.3472000  1
    782    777    776    790     1  0.0000000  0.0000000  2
    782    777    776    790     1  180.0000771  0.3347200  3
    782    777   1638   1653     1  0.0000000  8.3680000  1
    782    777   1638   1653     1  180.0000771  10.4600000  2
    783    772    771    796     1  0.0000000  0.6508444  3
    783    772    774    787     1  0.0000000  0.6508444  3
    783    772    774    788     1  0.0000000  0.6508444  3
    784    772    771    796     1  0.0000000  0.6508444  3
    784    772    774    787     1  0.0000000  0.6508444  3
    784    772    774    788     1  0.0000000  0.6508444  3
    785    773    771    796     1  0.0000000  0.6508444  3
    785    773    776    789     1  0.0000000  0.6508444  3
    785    773    776    790     1  0.0000000  0.6508444  3
    786    773    771    796     1  0.0000000  0.6508444  3
    786    773    776    789     1  0.0000000  0.6508444  3
    786    773    776    790     1  0.0000000  0.6508444  3
    787    774    775   1612     1  180.0000771  0.0000000  2
    788    774    775   1612     1  180.0000771  0.0000000  2
    789    776    777   1638     1  180.0000771  0.0000000  2
    790    776    777   1638     1  180.0000771  0.0000000  2
    791    778    771    796     1  0.0000000  0.6508444  3
    791    778    779    793     1  0.0000000  0.6508444  3
    791    778    779    794     1  0.0000000  0.6508444  3
    792    778    771    796     1  0.0000000  0.6508444  3
    792    778    779    793     1  0.0000000  0.6508444  3
    792    778    779    794     1  0.0000000  0.6508444  3
    793    779    780    795     1  0.0000000  0.0000000  2
    794    779    780    795     1  0.0000000  0.0000000  2
    797    798    800    813     1  0.0000000  0.6508444  3
    797    798    800    814     1  0.0000000  0.6508444  3
    797    799    802    815     1  0.0000000  0.6508444  3
    797    799    802    816     1  0.0000000  0.6508444  3
    797    804    805    819     1  0.0000000  0.6508444  3
    797    804    805    820     1  0.0000000  0.6508444  3
    798    797    799    811     1  0.0000000  0.6508444  3
    798    797    799    812     1  0.0000000  0.6508444  3
    798    797    804    817     1  0.0000000  0.6508444  3
    798    797    804    818     1  0.0000000  0.6508444  3
    799    797    798    809     1  0.0000000  0.6508444  3
    799    797    798    810     1  0.0000000  0.6508444  3
    799    797    804    817     1  0.0000000  0.6508444  3
    799    797    804    818     1  0.0000000  0.6508444  3
    800    798    797    822     1  0.0000000  0.6508444  3
    800    801   1664   1679     1  180.0000771  10.4600000  2
    801    800    798    809     1  0.0000000  0.6508444  3
    801    800    798    810     1  0.0000000  0.6508444  3
    801   1664   1663   1677     1  0.0000000  0.0000000  2
    801   1664   1663   1678     1  0.0000000  0.0000000  2
    802    799    797    822     1  0.0000000  0.6508444  3
    802    803   1690   1705     1  180.0000771  10.4600000  2
    803    802    799    811     1  0.0000000  0.6508444  3
    803    802    799    812     1  0.0000000  0.6508444  3
    803   1690   1689   1703     1  0.0000000  0.0000000  2
    803   1690   1689   1704     1  0.0000000  0.0000000  2
    804    797    798    809     1  0.0000000  0.6508444  3
    804    797    798    810     1  0.0000000  0.6508444  3
    804    797    799    811     1  0.0000000  0.6508444  3
    804    797    799    812     1  0.0000000  0.6508444  3
    804    805    806    821     1  0.0000000  0.0000000  2
    805    804    797    822     1  0.0000000  0.6508444  3
    806    805    804    817     1  0.0000000  0.6508444  3
    806    805    804    818     1  0.0000000  0.6508444  3
    807    801    800    813     1  0.0000000  3.3472000  1
    807    801    800    813     1  0.0000000  0.0000000  2
    807    801    800    813     1  180.0000771  0.3347200  3
    807    801    800    814     1  0.0000000  3.3472000  1
    807    801    800    814     1  0.0000000  0.0000000  2
    807    801    800    814     1  180.0000771  0.3347200  3
    807    801   1664   1679     1  0.0000000  8.3680000  1
    807    801   1664   1679     1  180.0000771  10.4600000  2
    808    803    802    815     1  0.0000000  3.3472000  1
    808    803    802    815     1  0.0000000  0.0000000  2
    808    803    802    815     1  180.0000771  0.3347200  3
    808    803    802    816     1  0.0000000  3.3472000  1
    808    803    802    816     1  0.0000000  0.0000000  2
    808    803    802    816     1  180.0000771  0.3347200  3
    808    803   1690   1705     1  0.0000000  8.3680000  1
    808    803   1690   1705     1  180.0000771  10.4600000  2
    809    798    797    822     1  0.0000000  0.6508444  3
    809    798    800    813     1  0.0000000  0.6508444  3
    809    798    800    814     1  0.0000000  0.6508444  3
    810    798    797    822     1  0.0000000  0.6508444  3
    810    798    800    813     1  0.0000000  0.6508444  3
    810    798    800    814     1  0.0000000  0.6508444  3
    811    799    797    822     1  0.0000000  0.6508444  3
    811    799    802    815     1  0.0000000  0.6508444  3
    811    799    802    816     1  0.0000000  0.6508444  3
    812    799    797    822     1  0.0000000  0.6508444  3
    812    799    802    815     1  0.0000000  0.6508444  3
    812    799    802    816     1  0.0000000  0.6508444  3
    813    800    801   1664     1  180.0000771  0.0000000  2
    814    800    801   1664     1  180.0000771  0.0000000  2
    815    802    803   1690     1  180.0000771  0.0000000  2
    816    802    803   1690     1  180.0000771  0.0000000  2
    817    804    797    822     1  0.0000000  0.6508444  3
    817    804    805    819     1  0.0000000  0.6508444  3
    817    804    805    820     1  0.0000000  0.6508444  3
    818    804    797    822     1  0.0000000  0.6508444  3
    818    804    805    819     1  0.0000000  0.6508444  3
    818    804    805    820     1  0.0000000  0.6508444  3
    819    805    806    821     1  0.0000000  0.0000000  2
    820    805    806    821     1  0.0000000  0.0000000  2
    823    824    826    839     1  0.0000000  0.6508444  3
    823    824    826    840     1  0.0000000  0.6508444  3
    823    825    828    841     1  0.0000000  0.6508444  3
    823    825    828    842     1  0.0000000  0.6508444  3
    823    830    831    845     1  0.0000000  0.6508444  3
    823    830    831    846     1  0.0000000  0.6508444  3
    824    823    825    837     1  0.0000000  0.6508444  3
    824    823    825    838     1  0.0000000  0.6508444  3
    824    823    830    843     1  0.0000000  0.6508444  3
    824    823    830    844     1  0.0000000  0.6508444  3
    825    823    824    835     1  0.0000000  0.6508444  3
    825    823    824    836     1  0.0000000  0.6508444  3
    825    823    830    843     1  0.0000000  0.6508444  3
    825    823    830    844     1  0.0000000  0.6508444  3
    826    824    823    848     1  0.0000000  0.6508444  3
    826    827   1716   1731     1  180.0000771  10.4600000  2
    827    826    824    835     1  0.0000000  0.6508444  3
    827    826    824    836     1  0.0000000  0.6508444  3
    827   1716   1715   1729     1  0.0000000  0.0000000  2
    827   1716   1715   1730     1  0.0000000  0.0000000  2
    828    825    823    848     1  0.0000000  0.6508444  3
    828    829   1742   1757     1  180.0000771  10.4600000  2
    829    828    825    837     1  0.0000000  0.6508444  3
    829    828    825    838     1  0.0000000  0.6508444  3
    829   1742   1741   1755     1  0.0000000  0.0000000  2
    829   1742   1741   1756     1  0.0000000  0.0000000  2
    830    823    824    835     1  0.0000000  0.6508444  3
    830    823    824    836     1  0.0000000  0.6508444  3
    830    823    825    837     1  0.0000000  0.6508444  3
    830    823    825    838     1  0.0000000  0.6508444  3
    830    831    832    847     1  0.0000000  0.0000000  2
    831    830    823    848     1  0.0000000  0.6508444  3
    832    831    830    843     1  0.0000000  0.6508444  3
    832    831    830    844     1  0.0000000  0.6508444  3
    833    827    826    839     1  0.0000000  3.3472000  1
    833    827    826    839     1  0.0000000  0.0000000  2
    833    827    826    839     1  180.0000771  0.3347200  3
    833    827    826    840     1  0.0000000  3.3472000  1
    833    827    826    840     1  0.0000000  0.0000000  2
    833    827    826    840     1  180.0000771  0.3347200  3
    833    827   1716   1731     1  0.0000000  8.3680000  1
    833    827   1716   1731     1  180.0000771  10.4600000  2
    834    829    828    841     1  0.0000000  3.3472000  1
    834    829    828    841     1  0.0000000  0.0000000  2
    834    829    828    841     1  180.0000771  0.3347200  3
    834    829    828    842     1  0.0000000  3.3472000  1
    834    829    828    842     1  0.0000000  0.0000000  2
    834    829    828    842     1  180.0000771  0.3347200  3
    834    829   1742   1757     1  0.0000000  8.3680000  1
    834    829   1742   1757     1  180.0000771  10.4600000  2
    835    824    823    848     1  0.0000000  0.6508444  3
    835    824    826    839     1  0.0000000  0.6508444  3
    835    824    826    840     1  0.0000000  0.6508444  3
    836    824    823    848     1  0.0000000  0.6508444  3
    836    824    826    839     1  0.0000000  0.6508444  3
    836    824    826    840     1  0.0000000  0.6508444  3
    837    825    823    848     1  0.0000000  0.6508444  3
    837    825    828    841     1  0.0000000  0.6508444  3
    837    825    828    842     1  0.0000000  0.6508444  3
    838    825    823    848     1  0.0000000  0.6508444  3
    838    825    828    841     1  0.0000000  0.6508444  3
    838    825    828    842     1  0.0000000  0.6508444  3
    839    826    827   1716     1  180.0000771  0.0000000  2
    840    826    827   1716     1  180.0000771  0.0000000  2
    841    828    829   1742     1  180.0000771  0.0000000  2
    842    828    829   1742     1  180.0000771  0.0000000  2
    843    830    823    848     1  0.0000000  0.6508444  3
    843    830    831    845     1  0.0000000  0.6508444  3
    843    830    831    846     1  0.0000000  0.6508444  3
    844    830    823    848     1  0.0000000  0.6508444  3
    844    830    831    845     1  0.0000000  0.6508444  3
    844    830    831    846     1  0.0000000  0.6508444  3
    845    831    832    847     1  0.0000000  0.0000000  2
    846    831    832    847     1  0.0000000  0.0000000  2
    849    850    852    865     1  0.0000000  0.6508444  3
    849    850    852    866     1  0.0000000  0.6508444  3
    849    851    854    867     1  0.0000000  0.6508444  3
    849    851    854    868     1  0.0000000  0.6508444  3
    849    856    857    871     1  0.0000000  0.6508444  3
    849    856    857    872     1  0.0000000  0.6508444  3
    850    849    851    863     1  0.0000000  0.6508444  3
    850    849    851    864     1  0.0000000  0.6508444  3
    850    849    856    869     1  0.0000000  0.6508444  3
    850    849    856    870     1  0.0000000  0.6508444  3
    851    849    850    861     1  0.0000000  0.6508444  3
    851    849    850    862     1  0.0000000  0.6508444  3
    851    849    856    869     1  0.0000000  0.6508444  3
    851    849    856    870     1  0.0000000  0.6508444  3
    852    850    849    874     1  0.0000000  0.6508444  3
    852    853   1768   1783     1  180.0000771  10.4600000  2
    853    852    850    861     1  0.0000000  0.6508444  3
    853    852    850    862     1  0.0000000  0.6508444  3
    853   1768   1767   1781     1  0.0000000  0.0000000  2
    853   1768   1767   1782     1  0.0000000  0.0000000  2
    854    851    849    874     1  0.0000000  0.6508444  3
    854    855   1794   1809     1  180.0000771  10.4600000  2
    855    854    851    863     1  0.0000000  0.6508444  3
    855    854    851    864     1  0.0000000  0.6508444  3
    855   1794   1793   1807     1  0.0000000  0.0000000  2
    855   1794   1793   1808     1  0.0000000  0.0000000  2
    856    849    850    861     1  0.0000000  0.6508444  3
    856    849    850    862     1  0.0000000  0.6508444  3
    856    849    851    863     1  0.0000000  0.6508444  3
    856    849    851    864     1  0.0000000  0.6508444  3
    856    857    858    873     1  0.0000000  0.0000000  2
    857    856    849    874     1  0.0000000  0.6508444  3
    858    857    856    869     1  0.0000000  0.6508444  3
    858    857    856    870     1  0.0000000  0.6508444  3
    859    853    852    865     1  0.0000000  3.3472000  1
    859    853    852    865     1  0.0000000  0.0000000  2
    859    853    852    865     1  180.0000771  0.3347200  3
    859    853    852    866     1  0.0000000  3.3472000  1
    859    853    852    866     1  0.0000000  0.0000000  2
    859    853    852    866     1  180.0000771  0.3347200  3
    859    853   1768   1783     1  0.0000000  8.3680000  1
    859    853   1768   1783     1  180.0000771  10.4600000  2
    860    855    854    867     1  0.0000000  3.3472000  1
    860    855    854    867     1  0.0000000  0.0000000  2
    860    855    854    867     1  180.0000771  0.3347200  3
    860    855    854    868     1  0.0000000  3.3472000  1
    860    855    854    868     1  0.0000000  0.0000000  2
    860    855    854    868     1  180.0000771  0.3347200  3
    860    855   1794   1809     1  0.0000000  8.3680000  1
    860    855   1794   1809     1  180.0000771  10.4600000  2
    861    850    849    874     1  0.0000000  0.6508444  3
    861    850    852    865     1  0.0000000  0.6508444  3
    861    850    852    866     1  0.0000000  0.6508444  3
    862    850    849    874     1  0.0000000  0.6508444  3
    862    850    852    865     1  0.0000000  0.6508444  3
    862    850    852    866     1  0.0000000  0.6508444  3
    863    851    849    874     1  0.0000000  0.6508444  3
    863    851    854    867     1  0.0000000  0.6508444  3
    863    851    854    868     1  0.0000000  0.6508444  3
    864    851    849    874     1  0.0000000  0.6508444  3
    864    851    854    867     1  0.0000000  0.6508444  3
    864    851    854    868     1  0.0000000  0.6508444  3
    865    852    853   1768     1  180.0000771  0.0000000  2
    866    852    853   1768     1  180.0000771  0.0000000  2
    867    854    855   1794     1  180.0000771  0.0000000  2
    868    854    855   1794     1  180.0000771  0.0000000  2
    869    856    849    874     1  0.0000000  0.6508444  3
    869    856    857    871     1  0.0000000  0.6508444  3
    869    856    857    872     1  0.0000000  0.6508444  3
    870    856    849    874     1  0.0000000  0.6508444  3
    870    856    857    871     1  0.0000000  0.6508444  3
    870    856    857    872     1  0.0000000  0.6508444  3
    871    857    858    873     1  0.0000000  0.0000000  2
    872    857    858    873     1  0.0000000  0.0000000  2
    875    876    878    891     1  0.0000000  0.6508444  3
    875    876    878    892     1  0.0000000  0.6508444  3
    875    877    880    893     1  0.0000000  0.6508444  3
    875    877    880    894     1  0.0000000  0.6508444  3
    875    882    883    897     1  0.0000000  0.6508444  3
    875    882    883    898     1  0.0000000  0.6508444  3
    876    875    877    889     1  0.0000000  0.6508444  3
    876    875    877    890     1  0.0000000  0.6508444  3
    876    875    882    895     1  0.0000000  0.6508444  3
    876    875    882    896     1  0.0000000  0.6508444  3
    877    875    876    887     1  0.0000000  0.6508444  3
    877    875    876    888     1  0.0000000  0.6508444  3
    877    875    882    895     1  0.0000000  0.6508444  3
    877    875    882    896     1  0.0000000  0.6508444  3
    878    876    875    900     1  0.0000000  0.6508444  3
    878    879   1820   1835     1  180.0000771  10.4600000  2
    879    878    876    887     1  0.0000000  0.6508444  3
    879    878    876    888     1  0.0000000  0.6508444  3
    879   1820   1819   1833     1  0.0000000  0.0000000  2
    879   1820   1819   1834     1  0.0000000  0.0000000  2
    880    877    875    900     1  0.0000000  0.6508444  3
    880    881   1846   1861     1  180.0000771  10.4600000  2
    881    880    877    889     1  0.0000000  0.6508444  3
    881    880    877    890     1  0.0000000  0.6508444  3
    881   1846   1845   1859     1  0.0000000  0.0000000  2
    881   1846   1845   1860     1  0.0000000  0.0000000  2
    882    875    876    887     1  0.0000000  0.6508444  3
    882    875    876    888     1  0.0000000  0.6508444  3
    882    875    877    889     1  0.0000000  0.6508444  3
    882    875    877    890     1  0.0000000  0.6508444  3
    882    883    884    899     1  0.0000000  0.0000000  2
    883    882    875    900     1  0.0000000  0.6508444  3
    884    883    882    895     1  0.0000000  0.6508444  3
    884    883    882    896     1  0.0000000  0.6508444  3
    885    879    878    891     1  0.0000000  3.3472000  1
    885    879    878    891     1  0.0000000  0.0000000  2
    885    879    878    891     1  180.0000771  0.3347200  3
    885    879    878    892     1  0.0000000  3.3472000  1
    885    879    878    892     1  0.0000000  0.0000000  2
    885    879    878    892     1  180.0000771  0.3347200  3
    885    879   1820   1835     1  0.0000000  8.3680000  1
    885    879   1820   1835     1  180.0000771  10.4600000  2
    886    881    880    893     1  0.0000000  3.3472000  1
    886    881    880    893     1  0.0000000  0.0000000  2
    886    881    880    893     1  180.0000771  0.3347200  3
    886    881    880    894     1  0.0000000  3.3472000  1
    886    881    880    894     1  0.0000000  0.0000000  2
    886    881    880    894     1  180.0000771  0.3347200  3
    886    881   1846   1861     1  0.0000000  8.3680000  1
    886    881   1846   1861     1  180.0000771  10.4600000  2
    887    876    875    900     1  0.0000000  0.6508444  3
    887    876    878    891     1  0.0000000  0.6508444  3
    887    876    878    892     1  0.0000000  0.6508444  3
    888    876    875    900     1  0.0000000  0.6508444  3
    888    876    878    891     1  0.0000000  0.6508444  3
    888    876    878    892     1  0.0000000  0.6508444  3
    889    877    875    900     1  0.0000000  0.6508444  3
    889    877    880    893     1  0.0000000  0.6508444  3
    889    877    880    894     1  0.0000000  0.6508444  3
    890    877    875    900     1  0.0000000  0.6508444  3
    890    877    880    893     1  0.0000000  0.6508444  3
    890    877    880    894     1  0.0000000  0.6508444  3
    891    878    879   1820     1  180.0000771  0.0000000  2
    892    878    879   1820     1  180.0000771  0.0000000  2
    893    880    881   1846     1  180.0000771  0.0000000  2
    894    880    881   1846     1  180.0000771  0.0000000  2
    895    882    875    900     1  0.0000000  0.6508444  3
    895    882    883    897     1  0.0000000  0.6508444  3
    895    882    883    898     1  0.0000000  0.6508444  3
    896    882    875    900     1  0.0000000  0.6508444  3
    896    882    883    897     1  0.0000000  0.6508444  3
    896    882    883    898     1  0.0000000  0.6508444  3
    897    883    884    899     1  0.0000000  0.0000000  2
    898    883    884    899     1  0.0000000  0.0000000  2
    901    902    904    917     1  0.0000000  0.6508444  3
    901    902    904    918     1  0.0000000  0.6508444  3
    901    903    906    919     1  0.0000000  0.6508444  3
    901    903    906    920     1  0.0000000  0.6508444  3
    901    908    909    923     1  0.0000000  0.6508444  3
    901    908    909    924     1  0.0000000  0.6508444  3
    902    901    903    915     1  0.0000000  0.6508444  3
    902    901    903    916     1  0.0000000  0.6508444  3
    902    901    908    921     1  0.0000000  0.6508444  3
    902    901    908    922     1  0.0000000  0.6508444  3
    903    901    902    913     1  0.0000000  0.6508444  3
    903    901    902    914     1  0.0000000  0.6508444  3
    903    901    908    921     1  0.0000000  0.6508444  3
    903    901    908    922     1  0.0000000  0.6508444  3
    904    902    901    926     1  0.0000000  0.6508444  3
    904    905   1872   1887     1  180.0000771  10.4600000  2
    905    904    902    913     1  0.0000000  0.6508444  3
    905    904    902    914     1  0.0000000  0.6508444  3
    905   1872   1871   1885     1  0.0000000  0.0000000  2
    905   1872   1871   1886     1  0.0000000  0.0000000  2
    906    903    901    926     1  0.0000000  0.6508444  3
    906    907   1898   1913     1  180.0000771  10.4600000  2
    907    906    903    915     1  0.0000000  0.6508444  3
    907    906    903    916     1  0.0000000  0.6508444  3
    907   1898   1897   1911     1  0.0000000  0.0000000  2
    907   1898   1897   1912     1  0.0000000  0.0000000  2
    908    901    902    913     1  0.0000000  0.6508444  3
    908    901    902    914     1  0.0000000  0.6508444  3
    908    901    903    915     1  0.0000000  0.6508444  3
    908    901    903    916     1  0.0000000  0.6508444  3
    908    909    910    925     1  0.0000000  0.0000000  2
    909    908    901    926     1  0.0000000  0.6508444  3
    910    909    908    921     1  0.0000000  0.6508444  3
    910    909    908    922     1  0.0000000  0.6508444  3
    911    905    904    917     1  0.0000000  3.3472000  1
    911    905    904    917     1  0.0000000  0.0000000  2
    911    905    904    917     1  180.0000771  0.3347200  3
    911    905    904    918     1  0.0000000  3.3472000  1
    911    905    904    918     1  0.0000000  0.0000000  2
    911    905    904    918     1  180.0000771  0.3347200  3
    911    905   1872   1887     1  0.0000000  8.3680000  1
    911    905   1872   1887     1  180.0000771  10.4600000  2
    912    907    906    919     1  0.0000000  3.3472000  1
    912    907    906    919     1  0.0000000  0.0000000  2
    912    907    906    919     1  180.0000771  0.3347200  3
    912    907    906    920     1  0.0000000  3.3472000  1
    912    907    906    920     1  0.0000000  0.0000000  2
    912    907    906    920     1  180.0000771  0.3347200  3
    912    907   1898   1913     1  0.0000000  8.3680000  1
    912    907   1898   1913     1  180.0000771  10.4600000  2
    913    902    901    926     1  0.0000000  0.6508444  3
    913    902    904    917     1  0.0000000  0.6508444  3
    913    902    904    918     1  0.0000000  0.6508444  3
    914    902    901    926     1  0.0000000  0.6508444  3
    914    902    904    917     1  0.0000000  0.6508444  3
    914    902    904    918     1  0.0000000  0.6508444  3
    915    903    901    926     1  0.0000000  0.6508444  3
    915    903    906    919     1  0.0000000  0.6508444  3
    915    903    906    920     1  0.0000000  0.6508444  3
    916    903    901    926     1  0.0000000  0.6508444  3
    916    903    906    919     1  0.0000000  0.6508444  3
    916    903    906    920     1  0.0000000  0.6508444  3
    917    904    905   1872     1  180.0000771  0.0000000  2
    918    904    905   1872     1  180.0000771  0.0000000  2
    919    906    907   1898     1  180.0000771  0.0000000  2
    920    906    907   1898     1  180.0000771  0.0000000  2
    921    908    901    926     1  0.0000000  0.6508444  3
    921    908    909    923     1  0.0000000  0.6508444  3
    921    908    909    924     1  0.0000000  0.6508444  3
    922    908    901    926     1  0.0000000  0.6508444  3
    922    908    909    923     1  0.0000000  0.6508444  3
    922    908    909    924     1  0.0000000  0.6508444  3
    923    909    910    925     1  0.0000000  0.0000000  2
    924    909    910    925     1  0.0000000  0.0000000  2
    927    928    930    943     1  0.0000000  0.6508444  3
    927    928    930    944     1  0.0000000  0.6508444  3
    927    929    932    945     1  0.0000000  0.6508444  3
    927    929    932    946     1  0.0000000  0.6508444  3
    927    934    935    949     1  0.0000000  0.6508444  3
    927    934    935    950     1  0.0000000  0.6508444  3
    928    927    929    941     1  0.0000000  0.6508444  3
    928    927    929    942     1  0.0000000  0.6508444  3
    928    927    934    947     1  0.0000000  0.6508444  3
    928    927    934    948     1  0.0000000  0.6508444  3
    929    927    928    939     1  0.0000000  0.6508444  3
    929    927    928    940     1  0.0000000  0.6508444  3
    929    927    934    947     1  0.0000000  0.6508444  3
    929    927    934    948     1  0.0000000  0.6508444  3
    930    928    927    952     1  0.0000000  0.6508444  3
    930    931   1924   1939     1  180.0000771  10.4600000  2
    931    930    928    939     1  0.0000000  0.6508444  3
    931    930    928    940     1  0.0000000  0.6508444  3
    931   1924   1923   1937     1  0.0000000  0.0000000  2
    931   1924   1923   1938     1  0.0000000  0.0000000  2
    932    929    927    952     1  0.0000000  0.6508444  3
    932    933   1950   1965     1  180.0000771  10.4600000  2
    933    932    929    941     1  0.0000000  0.6508444  3
    933    932    929    942     1  0.0000000  0.6508444  3
    933   1950   1949   1963     1  0.0000000  0.0000000  2
    933   1950   1949   1964     1  0.0000000  0.0000000  2
    934    927    928    939     1  0.0000000  0.6508444  3
    934    927    928    940     1  0.0000000  0.6508444  3
    934    927    929    941     1  0.0000000  0.6508444  3
    934    927    929    942     1  0.0000000  0.6508444  3
    934    935    936    951     1  0.0000000  0.0000000  2
    935    934    927    952     1  0.0000000  0.6508444  3
    936    935    934    947     1  0.0000000  0.6508444  3
    936    935    934    948     1  0.0000000  0.6508444  3
    937    931    930    943     1  0.0000000  3.3472000  1
    937    931    930    943     1  0.0000000  0.0000000  2
    937    931    930    943     1  180.0000771  0.3347200  3
    937    931    930    944     1  0.0000000  3.3472000  1
    937    931    930    944     1  0.0000000  0.0000000  2
    937    931    930    944     1  180.0000771  0.3347200  3
    937    931   1924   1939     1  0.0000000  8.3680000  1
    937    931   1924   1939     1  180.0000771  10.4600000  2
    938    933    932    945     1  0.0000000  3.3472000  1
    938    933    932    945     1  0.0000000  0.0000000  2
    938    933    932    945     1  180.0000771  0.3347200  3
    938    933    932    946     1  0.0000000  3.3472000  1
    938    933    932    946     1  0.0000000  0.0000000  2
    938    933    932    946     1  180.0000771  0.3347200  3
    938    933   1950   1965     1  0.0000000  8.3680000  1
    938    933   1950   1965     1  180.0000771  10.4600000  2
    939    928    927    952     1  0.0000000  0.6508444  3
    939    928    930    943     1  0.0000000  0.6508444  3
    939    928    930    944     1  0.0000000  0.6508444  3
    940    928    927    952     1  0.0000000  0.6508444  3
    940    928    930    943     1  0.0000000  0.6508444  3
    940    928    930    944     1  0.0000000  0.6508444  3
    941    929    927    952     1  0.0000000  0.6508444  3
    941    929    932    945     1  0.0000000  0.6508444  3
    941    929    932    946     1  0.0000000  0.6508444  3
    942    929    927    952     1  0.0000000  0.6508444  3
    942    929    932    945     1  0.0000000  0.6508444  3
    942    929    932    946     1  0.0000000  0.6508444  3
    943    930    931   1924     1  180.0000771  0.0000000  2
    944    930    931   1924     1  180.0000771  0.0000000  2
    945    932    933   1950     1  180.0000771  0.0000000  2
    946    932    933   1950     1  180.0000771  0.0000000  2
    947    934    927    952     1  0.0000000  0.6508444  3
    947    934    935    949     1  0.0000000  0.6508444  3
    947    934    935    950     1  0.0000000  0.6508444  3
    948    934    927    952     1  0.0000000  0.6508444  3
    948    934    935    949     1  0.0000000  0.6508444  3
    948    934    935    950     1  0.0000000  0.6508444  3
    949    935    936    951     1  0.0000000  0.0000000  2
    950    935    936    951     1  0.0000000  0.0000000  2
    953    954    956    969     1  0.0000000  0.6508444  3
    953    954    956    970     1  0.0000000  0.6508444  3
    953    955    958    971     1  0.0000000  0.6508444  3
    953    955    958    972     1  0.0000000  0.6508444  3
    953    960    961    975     1  0.0000000  0.6508444  3
    953    960    961    976     1  0.0000000  0.6508444  3
    954    953    955    967     1  0.0000000  0.6508444  3
    954    953    955    968     1  0.0000000  0.6508444  3
    954    953    960    973     1  0.0000000  0.6508444  3
    954    953    960    974     1  0.0000000  0.6508444  3
    955    953    954    965     1  0.0000000  0.6508444  3
    955    953    954    966     1  0.0000000  0.6508444  3
    955    953    960    973     1  0.0000000  0.6508444  3
    955    953    960    974     1  0.0000000  0.6508444  3
    956    954    953    978     1  0.0000000  0.6508444  3
    956    957   1976   1991     1  180.0000771  10.4600000  2
    957    956    954    965     1  0.0000000  0.6508444  3
    957    956    954    966     1  0.0000000  0.6508444  3
    957   1976   1975   1989     1  0.0000000  0.0000000  2
    957   1976   1975   1990     1  0.0000000  0.0000000  2
    958    955    953    978     1  0.0000000  0.6508444  3
    958    959   2002   2017     1  180.0000771  10.4600000  2
    959    958    955    967     1  0.0000000  0.6508444  3
    959    958    955    968     1  0.0000000  0.6508444  3
    959   2002   2001   2015     1  0.0000000  0.0000000  2
    959   2002   2001   2016     1  0.0000000  0.0000000  2
    960    953    954    965     1  0.0000000  0.6508444  3
    960    953    954    966     1  0.0000000  0.6508444  3
    960    953    955    967     1  0.0000000  0.6508444  3
    960    953    955    968     1  0.0000000  0.6508444  3
    960    961    962    977     1  0.0000000  0.0000000  2
    961    960    953    978     1  0.0000000  0.6508444  3
    962    961    960    973     1  0.0000000  0.6508444  3
    962    961    960    974     1  0.0000000  0.6508444  3
    963    957    956    969     1  0.0000000  3.3472000  1
    963    957    956    969     1  0.0000000  0.0000000  2
    963    957    956    969     1  180.0000771  0.3347200  3
    963    957    956    970     1  0.0000000  3.3472000  1
    963    957    956    970     1  0.0000000  0.0000000  2
    963    957    956    970     1  180.0000771  0.3347200  3
    963    957   1976   1991     1  0.0000000  8.3680000  1
    963    957   1976   1991     1  180.0000771  10.4600000  2
    964    959    958    971     1  0.0000000  3.3472000  1
    964    959    958    971     1  0.0000000  0.0000000  2
    964    959    958    971     1  180.0000771  0.3347200  3
    964    959    958    972     1  0.0000000  3.3472000  1
    964    959    958    972     1  0.0000000  0.0000000  2
    964    959    958    972     1  180.0000771  0.3347200  3
    964    959   2002   2017     1  0.0000000  8.3680000  1
    964    959   2002   2017     1  180.0000771  10.4600000  2
    965    954    953    978     1  0.0000000  0.6508444  3
    965    954    956    969     1  0.0000000  0.6508444  3
    965    954    956    970     1  0.0000000  0.6508444  3
    966    954    953    978     1  0.0000000  0.6508444  3
    966    954    956    969     1  0.0000000  0.6508444  3
    966    954    956    970     1  0.0000000  0.6508444  3
    967    955    953    978     1  0.0000000  0.6508444  3
    967    955    958    971     1  0.0000000  0.6508444  3
    967    955    958    972     1  0.0000000  0.6508444  3
    968    955    953    978     1  0.0000000  0.6508444  3
    968    955    958    971     1  0.0000000  0.6508444  3
    968    955    958    972     1  0.0000000  0.6508444  3
    969    956    957   1976     1  180.0000771  0.0000000  2
    970    956    957   1976     1  180.0000771  0.0000000  2
    971    958    959   2002     1  180.0000771  0.0000000  2
    972    958    959   2002     1  180.0000771  0.0000000  2
    973    960    953    978     1  0.0000000  0.6508444  3
    973    960    961    975     1  0.0000000  0.6508444  3
    973    960    961    976     1  0.0000000  0.6508444  3
    974    960    953    978     1  0.0000000  0.6508444  3
    974    960    961    975     1  0.0000000  0.6508444  3
    974    960    961    976     1  0.0000000  0.6508444  3
    975    961    962    977     1  0.0000000  0.0000000  2
    976    961    962    977     1  0.0000000  0.0000000  2
    979    980    982    995     1  0.0000000  0.6508444  3
    979    980    982    996     1  0.0000000  0.6508444  3
    979    981    984    997     1  0.0000000  0.6508444  3
    979    981    984    998     1  0.0000000  0.6508444  3
    979    986    987   1001     1  0.0000000  0.6508444  3
    979    986    987   1002     1  0.0000000  0.6508444  3
    980    979    981    993     1  0.0000000  0.6508444  3
    980    979    981    994     1  0.0000000  0.6508444  3
    980    979    986    999     1  0.0000000  0.6508444  3
    980    979    986   1000     1  0.0000000  0.6508444  3
    981    979    980    991     1  0.0000000  0.6508444  3
    981    979    980    992     1  0.0000000  0.6508444  3
    981    979    986    999     1  0.0000000  0.6508444  3
    981    979    986   1000     1  0.0000000  0.6508444  3
    982    980    979   1004     1  0.0000000  0.6508444  3
    982    983   2028   2043     1  180.0000771  10.4600000  2
    983    982    980    991     1  0.0000000  0.6508444  3
    983    982    980    992     1  0.0000000  0.6508444  3
    983   2028   2027   2041     1  0.0000000  0.0000000  2
    983   2028   2027   2042     1  0.0000000  0.0000000  2
    984    981    979   1004     1  0.0000000  0.6508444  3
    984    985   2054   2069     1  180.0000771  10.4600000  2
    985    984    981    993     1  0.0000000  0.6508444  3
    985    984    981    994     1  0.0000000  0.6508444  3
    985   2054   2053   2067     1  0.0000000  0.0000000  2
    985   2054   2053   2068     1  0.0000000  0.0000000  2
    986    979    980    991     1  0.0000000  0.6508444  3
    986    979    980    992     1  0.0000000  0.6508444  3
    986    979    981    993     1  0.0000000  0.6508444  3
    986    979    981    994     1  0.0000000  0.6508444  3
    986    987    988   1003     1  0.0000000  0.0000000  2
    987    986    979   1004     1  0.0000000  0.6508444  3
    988    987    986    999     1  0.0000000  0.6508444  3
    988    987    986   1000     1  0.0000000  0.6508444  3
    989    983    982    995     1  0.0000000  3.3472000  1
    989    983    982    995     1  0.0000000  0.0000000  2
    989    983    982    995     1  180.0000771  0.3347200  3
    989    983    982    996     1  0.0000000  3.3472000  1
    989    983    982    996     1  0.0000000  0.0000000  2
    989    983    982    996     1  180.0000771  0.3347200  3
    989    983   2028   2043     1  0.0000000  8.3680000  1
    989    983   2028   2043     1  180.0000771  10.4600000  2
    990    985    984    997     1  0.0000000  3.3472000  1
    990    985    984    997     1  0.0000000  0.0000000  2
    990    985    984    997     1  180.0000771  0.3347200  3
    990    985    984    998     1  0.0000000  3.3472000  1
    990    985    984    998     1  0.0000000  0.0000000  2
    990    985    984    998     1  180.0000771  0.3347200  3
    990    985   2054   2069     1  0.0000000  8.3680000  1
    990    985   2054   2069     1  180.0000771  10.4600000  2
    991    980    979   1004     1  0.0000000  0.6508444  3
    991    980    982    995     1  0.0000000  0.6508444  3
    991    980    982    996     1  0.0000000  0.6508444  3
    992    980    979   1004     1  0.0000000  0.6508444  3
    992    980    982    995     1  0.0000000  0.6508444  3
    992    980    982    996     1  0.0000000  0.6508444  3
    993    981    979   1004     1  0.0000000  0.6508444  3
    993    981    984    997     1  0.0000000  0.6508444  3
    993    981    984    998     1  0.0000000  0.6508444  3
    994    981    979   1004     1  0.0000000  0.6508444  3
    994    981    984    997     1  0.0000000  0.6508444  3
    994    981    984    998     1  0.0000000  0.6508444  3
    995    982    983   2028     1  180.0000771  0.0000000  2
    996    982    983   2028     1  180.0000771  0.0000000  2
    997    984    985   2054     1  180.0000771  0.0000000  2
    998    984    985   2054     1  180.0000771  0.0000000  2
    999    986    979   1004     1  0.0000000  0.6508444  3
    999    986    987   1001     1  0.0000000  0.6508444  3
    999    986    987   1002     1  0.0000000  0.6508444  3
   1000    986    979   1004     1  0.0000000  0.6508444  3
   1000    986    987   1001     1  0.0000000  0.6508444  3
   1000    986    987   1002     1  0.0000000  0.6508444  3
   1001    987    988   1003     1  0.0000000  0.0000000  2
   1002    987    988   1003     1  0.0000000  0.0000000  2
   1005   1006   1008   1021     1  0.0000000  0.6508444  3
   1005   1006   1008   1022     1  0.0000000  0.6508444  3
   1005   1007   1010   1023     1  0.0000000  0.6508444  3
   1005   1007   1010   1024     1  0.0000000  0.6508444  3
   1005   1012   1013   1027     1  0.0000000  0.6508444  3
   1005   1012   1013   1028     1  0.0000000  0.6508444  3
   1006   1005   1007   1019     1  0.0000000  0.6508444  3
   1006   1005   1007   1020     1  0.0000000  0.6508444  3
   1006   1005   1012   1025     1  0.0000000  0.6508444  3
   1006   1005   1012   1026     1  0.0000000  0.6508444  3
   1007   1005   1006   1017     1  0.0000000  0.6508444  3
   1007   1005   1006   1018     1  0.0000000  0.6508444  3
   1007   1005   1012   1025     1  0.0000000  0.6508444  3
   1007   1005   1012   1026     1  0.0000000  0.6508444  3
   1008   1006   1005   1030     1  0.0000000  0.6508444  3
   1008   1009   2080   2095     1  180.0000771  10.4600000  2
   1009   1008   1006   1017     1  0.0000000  0.6508444  3
   1009   1008   1006   1018     1  0.0000000  0.6508444  3
   1009   2080   2079   2093     1  0.0000000  0.0000000  2
   1009   2080   2079   2094     1  0.0000000  0.0000000  2
   1010   1007   1005   1030     1  0.0000000  0.6508444  3
   1010   1011   2106   2121     1  180.0000771  10.4600000  2
   1011   1010   1007   1019     1  0.0000000  0.6508444  3
   1011   1010   1007   1020     1  0.0000000  0.6508444  3
   1011   2106   2105   2119     1  0.0000000  0.0000000  2
   1011   2106   2105   2120     1  0.0000000  0.0000000  2
   1012   1005   1006   1017     1  0.0000000  0.6508444  3
   1012   1005   1006   1018     1  0.0000000  0.6508444  3
   1012   1005   1007   1019     1  0.0000000  0.6508444  3
   1012   1005   1007   1020     1  0.0000000  0.6508444  3
   1012   1013   1014   1029     1  0.0000000  0.0000000  2
   1013   1012   1005   1030     1  0.0000000  0.6508444  3
   1014   1013   1012   1025     1  0.0000000  0.6508444  3
   1014   1013   1012   1026     1  0.0000000  0.6508444  3
   1015   1009   1008   1021     1  0.0000000  3.3472000  1
   1015   1009   1008   1021     1  0.0000000  0.0000000  2
   1015   1009   1008   1021     1  180.0000771  0.3347200  3
   1015   1009   1008   1022     1  0.0000000  3.3472000  1
   1015   1009   1008   1022     1  0.0000000  0.0000000  2
   1015   1009   1008   1022     1  180.0000771  0.3347200  3
   1015   1009   2080   2095     1  0.0000000  8.3680000  1
   1015   1009   2080   2095     1  180.0000771  10.4600000  2
   1016   1011   1010   1023     1  0.0000000  3.3472000  1
   1016   1011   1010   1023     1  0.0000000  0.0000000  2
   1016   1011   1010   1023     1  180.0000771  0.3347200  3
   1016   1011   1010   1024     1  0.0000000  3.3472000  1
   1016   1011   1010   1024     1  0.0000000  0.0000000  2
   1016   1011   1010   1024     1  180.0000771  0.3347200  3
   1016   1011   2106   2121     1  0.0000000  8.3680000  1
   1016   1011   2106   2121     1  180.0000771  10.4600000  2
   1017   1006   1005   1030     1  0.0000000  0.6508444  3
   1017   1006   1008   1021     1  0.0000000  0.6508444  3
   1017   1006   1008   1022     1  0.0000000  0.6508444  3
   1018   1006   1005   1030     1  0.0000000  0.6508444  3
   1018   1006   1008   1021     1  0.0000000  0.6508444  3
   1018   1006   1008   1022     1  0.0000000  0.6508444  3
   1019   1007   1005   1030     1  0.0000000  0.6508444  3
   1019   1007   1010   1023     1  0.0000000  0.6508444  3
   1019   1007   1010   1024     1  0.0000000  0.6508444  3
   1020   1007   1005   1030     1  0.0000000  0.6508444  3
   1020   1007   1010   1023     1  0.0000000  0.6508444  3
   1020   1007   1010   1024     1  0.0000000  0.6508444  3
   1021   1008   1009   2080     1  180.0000771  0.0000000  2
   1022   1008   1009   2080     1  180.0000771  0.0000000  2
   1023   1010   1011   2106     1  180.0000771  0.0000000  2
   1024   1010   1011   2106     1  180.0000771  0.0000000  2
   1025   1012   1005   1030     1  0.0000000  0.6508444  3
   1025   1012   1013   1027     1  0.0000000  0.6508444  3
   1025   1012   1013   1028     1  0.0000000  0.6508444  3
   1026   1012   1005   1030     1  0.0000000  0.6508444  3
   1026   1012   1013   1027     1  0.0000000  0.6508444  3
   1026   1012   1013   1028     1  0.0000000  0.6508444  3
   1027   1013   1014   1029     1  0.0000000  0.0000000  2
   1028   1013   1014   1029     1  0.0000000  0.0000000  2
   1031   1032   1034   1047     1  0.0000000  0.6508444  3
   1031   1032   1034   1048     1  0.0000000  0.6508444  3
   1031   1033   1036   1049     1  0.0000000  0.6508444  3
   1031   1033   1036   1050     1  0.0000000  0.6508444  3
   1031   1038   1039   1053     1  0.0000000  0.6508444  3
   1031   1038   1039   1054     1  0.0000000  0.6508444  3
   1032   1031   1033   1045     1  0.0000000  0.6508444  3
   1032   1031   1033   1046     1  0.0000000  0.6508444  3
   1032   1031   1038   1051     1  0.0000000  0.6508444  3
   1032   1031   1038   1052     1  0.0000000  0.6508444  3
   1033   1031   1032   1043     1  0.0000000  0.6508444  3
   1033   1031   1032   1044     1  0.0000000  0.6508444  3
   1033   1031   1038   1051     1  0.0000000  0.6508444  3
   1033   1031   1038   1052     1  0.0000000  0.6508444  3
   1034   1032   1031   1056     1  0.0000000  0.6508444  3
   1034   1035   2132   2147     1  180.0000771  10.4600000  2
   1035   1034   1032   1043     1  0.0000000  0.6508444  3
   1035   1034   1032   1044     1  0.0000000  0.6508444  3
   1035   2132   2131   2145     1  0.0000000  0.0000000  2
   1035   2132   2131   2146     1  0.0000000  0.0000000  2
   1036   1033   1031   1056     1  0.0000000  0.6508444  3
   1036   1037   2158   2173     1  180.0000771  10.4600000  2
   1037   1036   1033   1045     1  0.0000000  0.6508444  3
   1037   1036   1033   1046     1  0.0000000  0.6508444  3
   1037   2158   2157   2171     1  0.0000000  0.0000000  2
   1037   2158   2157   2172     1  0.0000000  0.0000000  2
   1038   1031   1032   1043     1  0.0000000  0.6508444  3
   1038   1031   1032   1044     1  0.0000000  0.6508444  3
   1038   1031   1033   1045     1  0.0000000  0.6508444  3
   1038   1031   1033   1046     1  0.0000000  0.6508444  3
   1038   1039   1040   1055     1  0.0000000  0.0000000  2
   1039   1038   1031   1056     1  0.0000000  0.6508444  3
   1040   1039   1038   1051     1  0.0000000  0.6508444  3
   1040   1039   1038   1052     1  0.0000000  0.6508444  3
   1041   1035   1034   1047     1  0.0000000  3.3472000  1
   1041   1035   1034   1047     1  0.0000000  0.0000000  2
   1041   1035   1034   1047     1  180.0000771  0.3347200  3
   1041   1035   1034   1048     1  0.0000000  3.3472000  1
   1041   1035   1034   1048     1  0.0000000  0.0000000  2
   1041   1035   1034   1048     1  180.0000771  0.3347200  3
   1041   1035   2132   2147     1  0.0000000  8.3680000  1
   1041   1035   2132   2147     1  180.0000771  10.4600000  2
   1042   1037   1036   1049     1  0.0000000  3.3472000  1
   1042   1037   1036   1049     1  0.0000000  0.0000000  2
   1042   1037   1036   1049     1  180.0000771  0.3347200  3
   1042   1037   1036   1050     1  0.0000000  3.3472000  1
   1042   1037   1036   1050     1  0.0000000  0.0000000  2
   1042   1037   1036   1050     1  180.0000771  0.3347200  3
   1042   1037   2158   2173     1  0.0000000  8.3680000  1
   1042   1037   2158   2173     1  180.0000771  10.4600000  2
   1043   1032   1031   1056     1  0.0000000  0.6508444  3
   1043   1032   1034   1047     1  0.0000000  0.6508444  3
   1043   1032   1034   1048     1  0.0000000  0.6508444  3
   1044   1032   1031   1056     1  0.0000000  0.6508444  3
   1044   1032   1034   1047     1  0.0000000  0.6508444  3
   1044   1032   1034   1048     1  0.0000000  0.6508444  3
   1045   1033   1031   1056     1  0.0000000  0.6508444  3
   1045   1033   1036   1049     1  0.0000000  0.6508444  3
   1045   1033   1036   1050     1  0.0000000  0.6508444  3
   1046   1033   1031   1056     1  0.0000000  0.6508444  3
   1046   1033   1036   1049     1  0.0000000  0.6508444  3
   1046   1033   1036   1050     1  0.0000000  0.6508444  3
   1047   1034   1035   2132     1  180.0000771  0.0000000  2
   1048   1034   1035   2132     1  180.0000771  0.0000000  2
   1049   1036   1037   2158     1  180.0000771  0.0000000  2
   1050   1036   1037   2158     1  180.0000771  0.0000000  2
   1051   1038   1031   1056     1  0.0000000  0.6508444  3
   1051   1038   1039   1053     1  0.0000000  0.6508444  3
   1051   1038   1039   1054     1  0.0000000  0.6508444  3
   1052   1038   1031   1056     1  0.0000000  0.6508444  3
   1052   1038   1039   1053     1  0.0000000  0.6508444  3
   1052   1038   1039   1054     1  0.0000000  0.6508444  3
   1053   1039   1040   1055     1  0.0000000  0.0000000  2
   1054   1039   1040   1055     1  0.0000000  0.0000000  2
   1057   1058   1060   1073     1  0.0000000  0.6508444  3
   1057   1058   1060   1074     1  0.0000000  0.6508444  3
   1057   1059   1062   1075     1  0.0000000  0.6508444  3
   1057   1059   1062   1076     1  0.0000000  0.6508444  3
   1057   1064   1065   1079     1  0.0000000  0.6508444  3
   1057   1064   1065   1080     1  0.0000000  0.6508444  3
   1058   1057   1059   1071     1  0.0000000  0.6508444  3
   1058   1057   1059   1072     1  0.0000000  0.6508444  3
   1058   1057   1064   1077     1  0.0000000  0.6508444  3
   1058   1057   1064   1078     1  0.0000000  0.6508444  3
   1059   1057   1058   1069     1  0.0000000  0.6508444  3
   1059   1057   1058   1070     1  0.0000000  0.6508444  3
   1059   1057   1064   1077     1  0.0000000  0.6508444  3
   1059   1057   1064   1078     1  0.0000000  0.6508444  3
   1060   1058   1057   1082     1  0.0000000  0.6508444  3
   1060   1061   2184   2199     1  180.0000771  10.4600000  2
   1061   1060   1058   1069     1  0.0000000  0.6508444  3
   1061   1060   1058   1070     1  0.0000000  0.6508444  3
   1061   2184   2183   2197     1  0.0000000  0.0000000  2
   1061   2184   2183   2198     1  0.0000000  0.0000000  2
   1062   1059   1057   1082     1  0.0000000  0.6508444  3
   1062   1063   2210   2225     1  180.0000771  10.4600000  2
   1063   1062   1059   1071     1  0.0000000  0.6508444  3
   1063   1062   1059   1072     1  0.0000000  0.6508444  3
   1063   2210   2209   2223     1  0.0000000  0.0000000  2
   1063   2210   2209   2224     1  0.0000000  0.0000000  2
   1064   1057   1058   1069     1  0.0000000  0.6508444  3
   1064   1057   1058   1070     1  0.0000000  0.6508444  3
   1064   1057   1059   1071     1  0.0000000  0.6508444  3
   1064   1057   1059   1072     1  0.0000000  0.6508444  3
   1064   1065   1066   1081     1  0.0000000  0.0000000  2
   1065   1064   1057   1082     1  0.0000000  0.6508444  3
   1066   1065   1064   1077     1  0.0000000  0.6508444  3
   1066   1065   1064   1078     1  0.0000000  0.6508444  3
   1067   1061   1060   1073     1  0.0000000  3.3472000  1
   1067   1061   1060   1073     1  0.0000000  0.0000000  2
   1067   1061   1060   1073     1  180.0000771  0.3347200  3
   1067   1061   1060   1074     1  0.0000000  3.3472000  1
   1067   1061   1060   1074     1  0.0000000  0.0000000  2
   1067   1061   1060   1074     1  180.0000771  0.3347200  3
   1067   1061   2184   2199     1  0.0000000  8.3680000  1
   1067   1061   2184   2199     1  180.0000771  10.4600000  2
   1068   1063   1062   1075     1  0.0000000  3.3472000  1
   1068   1063   1062   1075     1  0.0000000  0.0000000  2
   1068   1063   1062   1075     1  180.0000771  0.3347200  3
   1068   1063   1062   1076     1  0.0000000  3.3472000  1
   1068   1063   1062   1076     1  0.0000000  0.0000000  2
   1068   1063   1062   1076     1  180.0000771  0.3347200  3
   1068   1063   2210   2225     1  0.0000000  8.3680000  1
   1068   1063   2210   2225     1  180.0000771  10.4600000  2
   1069   1058   1057   1082     1  0.0000000  0.6508444  3
   1069   1058   1060   1073     1  0.0000000  0.6508444  3
   1069   1058   1060   1074     1  0.0000000  0.6508444  3
   1070   1058   1057   1082     1  0.0000000  0.6508444  3
   1070   1058   1060   1073     1  0.0000000  0.6508444  3
   1070   1058   1060   1074     1  0.0000000  0.6508444  3
   1071   1059   1057   1082     1  0.0000000  0.6508444  3
   1071   1059   1062   1075     1  0.0000000  0.6508444  3
   1071   1059   1062   1076     1  0.0000000  0.6508444  3
   1072   1059   1057   1082     1  0.0000000  0.6508444  3
   1072   1059   1062   1075     1  0.0000000  0.6508444  3
   1072   1059   1062   1076     1  0.0000000  0.6508444  3
   1073   1060   1061   2184     1  180.0000771  0.0000000  2
   1074   1060   1061   2184     1  180.0000771  0.0000000  2
   1075   1062   1063   2210     1  180.0000771  0.0000000  2
   1076   1062   1063   2210     1  180.0000771  0.0000000  2
   1077   1064   1057   1082     1  0.0000000  0.6508444  3
   1077   1064   1065   1079     1  0.0000000  0.6508444  3
   1077   1064   1065   1080     1  0.0000000  0.6508444  3
   1078   1064   1057   1082     1  0.0000000  0.6508444  3
   1078   1064   1065   1079     1  0.0000000  0.6508444  3
   1078   1064   1065   1080     1  0.0000000  0.6508444  3
   1079   1065   1066   1081     1  0.0000000  0.0000000  2
   1080   1065   1066   1081     1  0.0000000  0.0000000  2
   1083   1084   1086   1099     1  0.0000000  0.6508444  3
   1083   1084   1086   1100     1  0.0000000  0.6508444  3
   1083   1085   1088   1101     1  0.0000000  0.6508444  3
   1083   1085   1088   1102     1  0.0000000  0.6508444  3
   1083   1090   1091   1105     1  0.0000000  0.6508444  3
   1083   1090   1091   1106     1  0.0000000  0.6508444  3
   1084   1083   1085   1097     1  0.0000000  0.6508444  3
   1084   1083   1085   1098     1  0.0000000  0.6508444  3
   1084   1083   1090   1103     1  0.0000000  0.6508444  3
   1084   1083   1090   1104     1  0.0000000  0.6508444  3
   1085   1083   1084   1095     1  0.0000000  0.6508444  3
   1085   1083   1084   1096     1  0.0000000  0.6508444  3
   1085   1083   1090   1103     1  0.0000000  0.6508444  3
   1085   1083   1090   1104     1  0.0000000  0.6508444  3
   1086   1084   1083   1108     1  0.0000000  0.6508444  3
   1086   1087   2236   2251     1  180.0000771  10.4600000  2
   1087   1086   1084   1095     1  0.0000000  0.6508444  3
   1087   1086   1084   1096     1  0.0000000  0.6508444  3
   1087   2236   2235   2249     1  0.0000000  0.0000000  2
   1087   2236   2235   2250     1  0.0000000  0.0000000  2
   1088   1085   1083   1108     1  0.0000000  0.6508444  3
   1088   1089   2262   2277     1  180.0000771  10.4600000  2
   1089   1088   1085   1097     1  0.0000000  0.6508444  3
   1089   1088   1085   1098     1  0.0000000  0.6508444  3
   1089   2262   2261   2275     1  0.0000000  0.0000000  2
   1089   2262   2261   2276     1  0.0000000  0.0000000  2
   1090   1083   1084   1095     1  0.0000000  0.6508444  3
   1090   1083   1084   1096     1  0.0000000  0.6508444  3
   1090   1083   1085   1097     1  0.0000000  0.6508444  3
   1090   1083   1085   1098     1  0.0000000  0.6508444  3
   1090   1091   1092   1107     1  0.0000000  0.0000000  2
   1091   1090   1083   1108     1  0.0000000  0.6508444  3
   1092   1091   1090   1103     1  0.0000000  0.6508444  3
   1092   1091   1090   1104     1  0.0000000  0.6508444  3
   1093   1087   1086   1099     1  0.0000000  3.3472000  1
   1093   1087   1086   1099     1  0.0000000  0.0000000  2
   1093   1087   1086   1099     1  180.0000771  0.3347200  3
   1093   1087   1086   1100     1  0.0000000  3.3472000  1
   1093   1087   1086   1100     1  0.0000000  0.0000000  2
   1093   1087   1086   1100     1  180.0000771  0.3347200  3
   1093   1087   2236   2251     1  0.0000000  8.3680000  1
   1093   1087   2236   2251     1  180.0000771  10.4600000  2
   1094   1089   1088   1101     1  0.0000000  3.3472000  1
   1094   1089   1088   1101     1  0.0000000  0.0000000  2
   1094   1089   1088   1101     1  180.0000771  0.3347200  3
   1094   1089   1088   1102     1  0.0000000  3.3472000  1
   1094   1089   1088   1102     1  0.0000000  0.0000000  2
   1094   1089   1088   1102     1  180.0000771  0.3347200  3
   1094   1089   2262   2277     1  0.0000000  8.3680000  1
   1094   1089   2262   2277     1  180.0000771  10.4600000  2
   1095   1084   1083   1108     1  0.0000000  0.6508444  3
   1095   1084   1086   1099     1  0.0000000  0.6508444  3
   1095   1084   1086   1100     1  0.0000000  0.6508444  3
   1096   1084   1083   1108     1  0.0000000  0.6508444  3
   1096   1084   1086   1099     1  0.0000000  0.6508444  3
   1096   1084   1086   1100     1  0.0000000  0.6508444  3
   1097   1085   1083   1108     1  0.0000000  0.6508444  3
   1097   1085   1088   1101     1  0.0000000  0.6508444  3
   1097   1085   1088   1102     1  0.0000000  0.6508444  3
   1098   1085   1083   1108     1  0.0000000  0.6508444  3
   1098   1085   1088   1101     1  0.0000000  0.6508444  3
   1098   1085   1088   1102     1  0.0000000  0.6508444  3
   1099   1086   1087   2236     1  180.0000771  0.0000000  2
   1100   1086   1087   2236     1  180.0000771  0.0000000  2
   1101   1088   1089   2262     1  180.0000771  0.0000000  2
   1102   1088   1089   2262     1  180.0000771  0.0000000  2
   1103   1090   1083   1108     1  0.0000000  0.6508444  3
   1103   1090   1091   1105     1  0.0000000  0.6508444  3
   1103   1090   1091   1106     1  0.0000000  0.6508444  3
   1104   1090   1083   1108     1  0.0000000  0.6508444  3
   1104   1090   1091   1105     1  0.0000000  0.6508444  3
   1104   1090   1091   1106     1  0.0000000  0.6508444  3
   1105   1091   1092   1107     1  0.0000000  0.0000000  2
   1106   1091   1092   1107     1  0.0000000  0.0000000  2
   1109   1110   1112   1125     1  0.0000000  0.6508444  3
   1109   1110   1112   1126     1  0.0000000  0.6508444  3
   1109   1111   1114   1127     1  0.0000000  0.6508444  3
   1109   1111   1114   1128     1  0.0000000  0.6508444  3
   1109   1116   1117   1131     1  0.0000000  0.6508444  3
   1109   1116   1117   1132     1  0.0000000  0.6508444  3
   1110   1109   1111   1123     1  0.0000000  0.6508444  3
   1110   1109   1111   1124     1  0.0000000  0.6508444  3
   1110   1109   1116   1129     1  0.0000000  0.6508444  3
   1110   1109   1116   1130     1  0.0000000  0.6508444  3
   1111   1109   1110   1121     1  0.0000000  0.6508444  3
   1111   1109   1110   1122     1  0.0000000  0.6508444  3
   1111   1109   1116   1129     1  0.0000000  0.6508444  3
   1111   1109   1116   1130     1  0.0000000  0.6508444  3
   1112   1110   1109   1134     1  0.0000000  0.6508444  3
   1112   1113   2288   2303     1  180.0000771  10.4600000  2
   1113   1112   1110   1121     1  0.0000000  0.6508444  3
   1113   1112   1110   1122     1  0.0000000  0.6508444  3
   1113   2288   2287   2301     1  0.0000000  0.0000000  2
   1113   2288   2287   2302     1  0.0000000  0.0000000  2
   1114   1111   1109   1134     1  0.0000000  0.6508444  3
   1114   1115   2314   2329     1  180.0000771  10.4600000  2
   1115   1114   1111   1123     1  0.0000000  0.6508444  3
   1115   1114   1111   1124     1  0.0000000  0.6508444  3
   1115   2314   2313   2327     1  0.0000000  0.0000000  2
   1115   2314   2313   2328     1  0.0000000  0.0000000  2
   1116   1109   1110   1121     1  0.0000000  0.6508444  3
   1116   1109   1110   1122     1  0.0000000  0.6508444  3
   1116   1109   1111   1123     1  0.0000000  0.6508444  3
   1116   1109   1111   1124     1  0.0000000  0.6508444  3
   1116   1117   1118   1133     1  0.0000000  0.0000000  2
   1117   1116   1109   1134     1  0.0000000  0.6508444  3
   1118   1117   1116   1129     1  0.0000000  0.6508444  3
   1118   1117   1116   1130     1  0.0000000  0.6508444  3
   1119   1113   1112   1125     1  0.0000000  3.3472000  1
   1119   1113   1112   1125     1  0.0000000  0.0000000  2
   1119   1113   1112   1125     1  180.0000771  0.3347200  3
   1119   1113   1112   1126     1  0.0000000  3.3472000  1
   1119   1113   1112   1126     1  0.0000000  0.0000000  2
   1119   1113   1112   1126     1  180.0000771  0.3347200  3
   1119   1113   2288   2303     1  0.0000000  8.3680000  1
   1119   1113   2288   2303     1  180.0000771  10.4600000  2
   1120   1115   1114   1127     1  0.0000000  3.3472000  1
   1120   1115   1114   1127     1  0.0000000  0.0000000  2
   1120   1115   1114   1127     1  180.0000771  0.3347200  3
   1120   1115   1114   1128     1  0.0000000  3.3472000  1
   1120   1115   1114   1128     1  0.0000000  0.0000000  2
   1120   1115   1114   1128     1  180.0000771  0.3347200  3
   1120   1115   2314   2329     1  0.0000000  8.3680000  1
   1120   1115   2314   2329     1  180.0000771  10.4600000  2
   1121   1110   1109   1134     1  0.0000000  0.6508444  3
   1121   1110   1112   1125     1  0.0000000  0.6508444  3
   1121   1110   1112   1126     1  0.0000000  0.6508444  3
   1122   1110   1109   1134     1  0.0000000  0.6508444  3
   1122   1110   1112   1125     1  0.0000000  0.6508444  3
   1122   1110   1112   1126     1  0.0000000  0.6508444  3
   1123   1111   1109   1134     1  0.0000000  0.6508444  3
   1123   1111   1114   1127     1  0.0000000  0.6508444  3
   1123   1111   1114   1128     1  0.0000000  0.6508444  3
   1124   1111   1109   1134     1  0.0000000  0.6508444  3
   1124   1111   1114   1127     1  0.0000000  0.6508444  3
   1124   1111   1114   1128     1  0.0000000  0.6508444  3
   1125   1112   1113   2288     1  180.0000771  0.0000000  2
   1126   1112   1113   2288     1  180.0000771  0.0000000  2
   1127   1114   1115   2314     1  180.0000771  0.0000000  2
   1128   1114   1115   2314     1  180.0000771  0.0000000  2
   1129   1116   1109   1134     1  0.0000000  0.6508444  3
   1129   1116   1117   1131     1  0.0000000  0.6508444  3
   1129   1116   1117   1132     1  0.0000000  0.6508444  3
   1130   1116   1109   1134     1  0.0000000  0.6508444  3
   1130   1116   1117   1131     1  0.0000000  0.6508444  3
   1130   1116   1117   1132     1  0.0000000  0.6508444  3
   1131   1117   1118   1133     1  0.0000000  0.0000000  2
   1132   1117   1118   1133     1  0.0000000  0.0000000  2
   1135   1136   1138   1151     1  0.0000000  0.6508444  3
   1135   1136   1138   1152     1  0.0000000  0.6508444  3
   1135   1137   1140   1153     1  0.0000000  0.6508444  3
   1135   1137   1140   1154     1  0.0000000  0.6508444  3
   1135   1142   1143   1157     1  0.0000000  0.6508444  3
   1135   1142   1143   1158     1  0.0000000  0.6508444  3
   1136   1135   1137   1149     1  0.0000000  0.6508444  3
   1136   1135   1137   1150     1  0.0000000  0.6508444  3
   1136   1135   1142   1155     1  0.0000000  0.6508444  3
   1136   1135   1142   1156     1  0.0000000  0.6508444  3
   1137   1135   1136   1147     1  0.0000000  0.6508444  3
   1137   1135   1136   1148     1  0.0000000  0.6508444  3
   1137   1135   1142   1155     1  0.0000000  0.6508444  3
   1137   1135   1142   1156     1  0.0000000  0.6508444  3
   1138   1136   1135   1160     1  0.0000000  0.6508444  3
   1138   1139   2340   2355     1  180.0000771  10.4600000  2
   1139   1138   1136   1147     1  0.0000000  0.6508444  3
   1139   1138   1136   1148     1  0.0000000  0.6508444  3
   1139   2340   2339   2353     1  0.0000000  0.0000000  2
   1139   2340   2339   2354     1  0.0000000  0.0000000  2
   1140   1137   1135   1160     1  0.0000000  0.6508444  3
   1140   1141   2366   2381     1  180.0000771  10.4600000  2
   1141   1140   1137   1149     1  0.0000000  0.6508444  3
   1141   1140   1137   1150     1  0.0000000  0.6508444  3
   1141   2366   2365   2379     1  0.0000000  0.0000000  2
   1141   2366   2365   2380     1  0.0000000  0.0000000  2
   1142   1135   1136   1147     1  0.0000000  0.6508444  3
   1142   1135   1136   1148     1  0.0000000  0.6508444  3
   1142   1135   1137   1149     1  0.0000000  0.6508444  3
   1142   1135   1137   1150     1  0.0000000  0.6508444  3
   1142   1143   1144   1159     1  0.0000000  0.0000000  2
   1143   1142   1135   1160     1  0.0000000  0.6508444  3
   1144   1143   1142   1155     1  0.0000000  0.6508444  3
   1144   1143   1142   1156     1  0.0000000  0.6508444  3
   1145   1139   1138   1151     1  0.0000000  3.3472000  1
   1145   1139   1138   1151     1  0.0000000  0.0000000  2
   1145   1139   1138   1151     1  180.0000771  0.3347200  3
   1145   1139   1138   1152     1  0.0000000  3.3472000  1
   1145   1139   1138   1152     1  0.0000000  0.0000000  2
   1145   1139   1138   1152     1  180.0000771  0.3347200  3
   1145   1139   2340   2355     1  0.0000000  8.3680000  1
   1145   1139   2340   2355     1  180.0000771  10.4600000  2
   1146   1141   1140   1153     1  0.0000000  3.3472000  1
   1146   1141   1140   1153     1  0.0000000  0.0000000  2
   1146   1141   1140   1153     1  180.0000771  0.3347200  3
   1146   1141   1140   1154     1  0.0000000  3.3472000  1
   1146   1141   1140   1154     1  0.0000000  0.0000000  2
   1146   1141   1140   1154     1  180.0000771  0.3347200  3
   1146   1141   2366   2381     1  0.0000000  8.3680000  1
   1146   1141   2366   2381     1  180.0000771  10.4600000  2
   1147   1136   1135   1160     1  0.0000000  0.6508444  3
   1147   1136   1138   1151     1  0.0000000  0.6508444  3
   1147   1136   1138   1152     1  0.0000000  0.6508444  3
   1148   1136   1135   1160     1  0.0000000  0.6508444  3
   1148   1136   1138   1151     1  0.0000000  0.6508444  3
   1148   1136   1138   1152     1  0.0000000  0.6508444  3
   1149   1137   1135   1160     1  0.0000000  0.6508444  3
   1149   1137   1140   1153     1  0.0000000  0.6508444  3
   1149   1137   1140   1154     1  0.0000000  0.6508444  3
   1150   1137   1135   1160     1  0.0000000  0.6508444  3
   1150   1137   1140   1153     1  0.0000000  0.6508444  3
   1150   1137   1140   1154     1  0.0000000  0.6508444  3
   1151   1138   1139   2340     1  180.0000771  0.0000000  2
   1152   1138   1139   2340     1  180.0000771  0.0000000  2
   1153   1140   1141   2366     1  180.0000771  0.0000000  2
   1154   1140   1141   2366     1  180.0000771  0.0000000  2
   1155   1142   1135   1160     1  0.0000000  0.6508444  3
   1155   1142   1143   1157     1  0.0000000  0.6508444  3
   1155   1142   1143   1158     1  0.0000000  0.6508444  3
   1156   1142   1135   1160     1  0.0000000  0.6508444  3
   1156   1142   1143   1157     1  0.0000000  0.6508444  3
   1156   1142   1143   1158     1  0.0000000  0.6508444  3
   1157   1143   1144   1159     1  0.0000000  0.0000000  2
   1158   1143   1144   1159     1  0.0000000  0.0000000  2
   1161   1162   1164   1177     1  0.0000000  0.6508444  3
   1161   1162   1164   1178     1  0.0000000  0.6508444  3
   1161   1163   1166   1179     1  0.0000000  0.6508444  3
   1161   1163   1166   1180     1  0.0000000  0.6508444  3
   1161   1168   1169   1183     1  0.0000000  0.6508444  3
   1161   1168   1169   1184     1  0.0000000  0.6508444  3
   1162   1161   1163   1175     1  0.0000000  0.6508444  3
   1162   1161   1163   1176     1  0.0000000  0.6508444  3
   1162   1161   1168   1181     1  0.0000000  0.6508444  3
   1162   1161   1168   1182     1  0.0000000  0.6508444  3
   1163   1161   1162   1173     1  0.0000000  0.6508444  3
   1163   1161   1162   1174     1  0.0000000  0.6508444  3
   1163   1161   1168   1181     1  0.0000000  0.6508444  3
   1163   1161   1168   1182     1  0.0000000  0.6508444  3
   1164   1162   1161   1186     1  0.0000000  0.6508444  3
   1164   1165   2392   2407     1  180.0000771  10.4600000  2
   1165   1164   1162   1173     1  0.0000000  0.6508444  3
   1165   1164   1162   1174     1  0.0000000  0.6508444  3
   1165   2392   2391   2405     1  0.0000000  0.0000000  2
   1165   2392   2391   2406     1  0.0000000  0.0000000  2
   1166   1163   1161   1186     1  0.0000000  0.6508444  3
   1166   1167   2418   2433     1  180.0000771  10.4600000  2
   1167   1166   1163   1175     1  0.0000000  0.6508444  3
   1167   1166   1163   1176     1  0.0000000  0.6508444  3
   1167   2418   2417   2431     1  0.0000000  0.0000000  2
   1167   2418   2417   2432     1  0.0000000  0.0000000  2
   1168   1161   1162   1173     1  0.0000000  0.6508444  3
   1168   1161   1162   1174     1  0.0000000  0.6508444  3
   1168   1161   1163   1175     1  0.0000000  0.6508444  3
   1168   1161   1163   1176     1  0.0000000  0.6508444  3
   1168   1169   1170   1185     1  0.0000000  0.0000000  2
   1169   1168   1161   1186     1  0.0000000  0.6508444  3
   1170   1169   1168   1181     1  0.0000000  0.6508444  3
   1170   1169   1168   1182     1  0.0000000  0.6508444  3
   1171   1165   1164   1177     1  0.0000000  3.3472000  1
   1171   1165   1164   1177     1  0.0000000  0.0000000  2
   1171   1165   1164   1177     1  180.0000771  0.3347200  3
   1171   1165   1164   1178     1  0.0000000  3.3472000  1
   1171   1165   1164   1178     1  0.0000000  0.0000000  2
   1171   1165   1164   1178     1  180.0000771  0.3347200  3
   1171   1165   2392   2407     1  0.0000000  8.3680000  1
   1171   1165   2392   2407     1  180.0000771  10.4600000  2
   1172   1167   1166   1179     1  0.0000000  3.3472000  1
   1172   1167   1166   1179     1  0.0000000  0.0000000  2
   1172   1167   1166   1179     1  180.0000771  0.3347200  3
   1172   1167   1166   1180     1  0.0000000  3.3472000  1
   1172   1167   1166   1180     1  0.0000000  0.0000000  2
   1172   1167   1166   1180     1  180.0000771  0.3347200  3
   1172   1167   2418   2433     1  0.0000000  8.3680000  1
   1172   1167   2418   2433     1  180.0000771  10.4600000  2
   1173   1162   1161   1186     1  0.0000000  0.6508444  3
   1173   1162   1164   1177     1  0.0000000  0.6508444  3
   1173   1162   1164   1178     1  0.0000000  0.6508444  3
   1174   1162   1161   1186     1  0.0000000  0.6508444  3
   1174   1162   1164   1177     1  0.0000000  0.6508444  3
   1174   1162   1164   1178     1  0.0000000  0.6508444  3
   1175   1163   1161   1186     1  0.0000000  0.6508444  3
   1175   1163   1166   1179     1  0.0000000  0.6508444  3
   1175   1163   1166   1180     1  0.0000000  0.6508444  3
   1176   1163   1161   1186     1  0.0000000  0.6508444  3
   1176   1163   1166   1179     1  0.0000000  0.6508444  3
   1176   1163   1166   1180     1  0.0000000  0.6508444  3
   1177   1164   1165   2392     1  180.0000771  0.0000000  2
   1178   1164   1165   2392     1  180.0000771  0.0000000  2
   1179   1166   1167   2418     1  180.0000771  0.0000000  2
   1180   1166   1167   2418     1  180.0000771  0.0000000  2
   1181   1168   1161   1186     1  0.0000000  0.6508444  3
   1181   1168   1169   1183     1  0.0000000  0.6508444  3
   1181   1168   1169   1184     1  0.0000000  0.6508444  3
   1182   1168   1161   1186     1  0.0000000  0.6508444  3
   1182   1168   1169   1183     1  0.0000000  0.6508444  3
   1182   1168   1169   1184     1  0.0000000  0.6508444  3
   1183   1169   1170   1185     1  0.0000000  0.0000000  2
   1184   1169   1170   1185     1  0.0000000  0.0000000  2
   1187   1188   1190   1203     1  0.0000000  0.6508444  3
   1187   1188   1190   1204     1  0.0000000  0.6508444  3
   1187   1189   1192   1205     1  0.0000000  0.6508444  3
   1187   1189   1192   1206     1  0.0000000  0.6508444  3
   1187   1194   1195   1209     1  0.0000000  0.6508444  3
   1187   1194   1195   1210     1  0.0000000  0.6508444  3
   1188   1187   1189   1201     1  0.0000000  0.6508444  3
   1188   1187   1189   1202     1  0.0000000  0.6508444  3
   1188   1187   1194   1207     1  0.0000000  0.6508444  3
   1188   1187   1194   1208     1  0.0000000  0.6508444  3
   1189   1187   1188   1199     1  0.0000000  0.6508444  3
   1189   1187   1188   1200     1  0.0000000  0.6508444  3
   1189   1187   1194   1207     1  0.0000000  0.6508444  3
   1189   1187   1194   1208     1  0.0000000  0.6508444  3
   1190   1188   1187   1212     1  0.0000000  0.6508444  3
   1190   1191   2444   2459     1  180.0000771  10.4600000  2
   1191   1190   1188   1199     1  0.0000000  0.6508444  3
   1191   1190   1188   1200     1  0.0000000  0.6508444  3
   1191   2444   2443   2457     1  0.0000000  0.0000000  2
   1191   2444   2443   2458     1  0.0000000  0.0000000  2
   1192   1189   1187   1212     1  0.0000000  0.6508444  3
   1192   1193   2470   2485     1  180.0000771  10.4600000  2
   1193   1192   1189   1201     1  0.0000000  0.6508444  3
   1193   1192   1189   1202     1  0.0000000  0.6508444  3
   1193   2470   2469   2483     1  0.0000000  0.0000000  2
   1193   2470   2469   2484     1  0.0000000  0.0000000  2
   1194   1187   1188   1199     1  0.0000000  0.6508444  3
   1194   1187   1188   1200     1  0.0000000  0.6508444  3
   1194   1187   1189   1201     1  0.0000000  0.6508444  3
   1194   1187   1189   1202     1  0.0000000  0.6508444  3
   1194   1195   1196   1211     1  0.0000000  0.0000000  2
   1195   1194   1187   1212     1  0.0000000  0.6508444  3
   1196   1195   1194   1207     1  0.0000000  0.6508444  3
   1196   1195   1194   1208     1  0.0000000  0.6508444  3
   1197   1191   1190   1203     1  0.0000000  3.3472000  1
   1197   1191   1190   1203     1  0.0000000  0.0000000  2
   1197   1191   1190   1203     1  180.0000771  0.3347200  3
   1197   1191   1190   1204     1  0.0000000  3.3472000  1
   1197   1191   1190   1204     1  0.0000000  0.0000000  2
   1197   1191   1190   1204     1  180.0000771  0.3347200  3
   1197   1191   2444   2459     1  0.0000000  8.3680000  1
   1197   1191   2444   2459     1  180.0000771  10.4600000  2
   1198   1193   1192   1205     1  0.0000000  3.3472000  1
   1198   1193   1192   1205     1  0.0000000  0.0000000  2
   1198   1193   1192   1205     1  180.0000771  0.3347200  3
   1198   1193   1192   1206     1  0.0000000  3.3472000  1
   1198   1193   1192   1206     1  0.0000000  0.0000000  2
   1198   1193   1192   1206     1  180.0000771  0.3347200  3
   1198   1193   2470   2485     1  0.0000000  8.3680000  1
   1198   1193   2470   2485     1  180.0000771  10.4600000  2
   1199   1188   1187   1212     1  0.0000000  0.6508444  3
   1199   1188   1190   1203     1  0.0000000  0.6508444  3
   1199   1188   1190   1204     1  0.0000000  0.6508444  3
   1200   1188   1187   1212     1  0.0000000  0.6508444  3
   1200   1188   1190   1203     1  0.0000000  0.6508444  3
   1200   1188   1190   1204     1  0.0000000  0.6508444  3
   1201   1189   1187   1212     1  0.0000000  0.6508444  3
   1201   1189   1192   1205     1  0.0000000  0.6508444  3
   1201   1189   1192   1206     1  0.0000000  0.6508444  3
   1202   1189   1187   1212     1  0.0000000  0.6508444  3
   1202   1189   1192   1205     1  0.0000000  0.6508444  3
   1202   1189   1192   1206     1  0.0000000  0.6508444  3
   1203   1190   1191   2444     1  180.0000771  0.0000000  2
   1204   1190   1191   2444     1  180.0000771  0.0000000  2
   1205   1192   1193   2470     1  180.0000771  0.0000000  2
   1206   1192   1193   2470     1  180.0000771  0.0000000  2
   1207   1194   1187   1212     1  0.0000000  0.6508444  3
   1207   1194   1195   1209     1  0.0000000  0.6508444  3
   1207   1194   1195   1210     1  0.0000000  0.6508444  3
   1208   1194   1187   1212     1  0.0000000  0.6508444  3
   1208   1194   1195   1209     1  0.0000000  0.6508444  3
   1208   1194   1195   1210     1  0.0000000  0.6508444  3
   1209   1195   1196   1211     1  0.0000000  0.0000000  2
   1210   1195   1196   1211     1  0.0000000  0.0000000  2
   1213   1214   1216   1229     1  0.0000000  0.6508444  3
   1213   1214   1216   1230     1  0.0000000  0.6508444  3
   1213   1215   1218   1231     1  0.0000000  0.6508444  3
   1213   1215   1218   1232     1  0.0000000  0.6508444  3
   1213   1220   1221   1235     1  0.0000000  0.6508444  3
   1213   1220   1221   1236     1  0.0000000  0.6508444  3
   1214   1213   1215   1227     1  0.0000000  0.6508444  3
   1214   1213   1215   1228     1  0.0000000  0.6508444  3
   1214   1213   1220   1233     1  0.0000000  0.6508444  3
   1214   1213   1220   1234     1  0.0000000  0.6508444  3
   1215   1213   1214   1225     1  0.0000000  0.6508444  3
   1215   1213   1214   1226     1  0.0000000  0.6508444  3
   1215   1213   1220   1233     1  0.0000000  0.6508444  3
   1215   1213   1220   1234     1  0.0000000  0.6508444  3
   1216   1214   1213   1238     1  0.0000000  0.6508444  3
   1216   1217   2496   2511     1  180.0000771  10.4600000  2
   1217   1216   1214   1225     1  0.0000000  0.6508444  3
   1217   1216   1214   1226     1  0.0000000  0.6508444  3
   1217   2496   2495   2509     1  0.0000000  0.0000000  2
   1217   2496   2495   2510     1  0.0000000  0.0000000  2
   1218   1215   1213   1238     1  0.0000000  0.6508444  3
   1218   1219   2522   2537     1  180.0000771  10.4600000  2
   1219   1218   1215   1227     1  0.0000000  0.6508444  3
   1219   1218   1215   1228     1  0.0000000  0.6508444  3
   1219   2522   2521   2535     1  0.0000000  0.0000000  2
   1219   2522   2521   2536     1  0.0000000  0.0000000  2
   1220   1213   1214   1225     1  0.0000000  0.6508444  3
   1220   1213   1214   1226     1  0.0000000  0.6508444  3
   1220   1213   1215   1227     1  0.0000000  0.6508444  3
   1220   1213   1215   1228     1  0.0000000  0.6508444  3
   1220   1221   1222   1237     1  0.0000000  0.0000000  2
   1221   1220   1213   1238     1  0.0000000  0.6508444  3
   1222   1221   1220   1233     1  0.0000000  0.6508444  3
   1222   1221   1220   1234     1  0.0000000  0.6508444  3
   1223   1217   1216   1229     1  0.0000000  3.3472000  1
   1223   1217   1216   1229     1  0.0000000  0.0000000  2
   1223   1217   1216   1229     1  180.0000771  0.3347200  3
   1223   1217   1216   1230     1  0.0000000  3.3472000  1
   1223   1217   1216   1230     1  0.0000000  0.0000000  2
   1223   1217   1216   1230     1  180.0000771  0.3347200  3
   1223   1217   2496   2511     1  0.0000000  8.3680000  1
   1223   1217   2496   2511     1  180.0000771  10.4600000  2
   1224   1219   1218   1231     1  0.0000000  3.3472000  1
   1224   1219   1218   1231     1  0.0000000  0.0000000  2
   1224   1219   1218   1231     1  180.0000771  0.3347200  3
   1224   1219   1218   1232     1  0.0000000  3.3472000  1
   1224   1219   1218   1232     1  0.0000000  0.0000000  2
   1224   1219   1218   1232     1  180.0000771  0.3347200  3
   1224   1219   2522   2537     1  0.0000000  8.3680000  1
   1224   1219   2522   2537     1  180.0000771  10.4600000  2
   1225   1214   1213   1238     1  0.0000000  0.6508444  3
   1225   1214   1216   1229     1  0.0000000  0.6508444  3
   1225   1214   1216   1230     1  0.0000000  0.6508444  3
   1226   1214   1213   1238     1  0.0000000  0.6508444  3
   1226   1214   1216   1229     1  0.0000000  0.6508444  3
   1226   1214   1216   1230     1  0.0000000  0.6508444  3
   1227   1215   1213   1238     1  0.0000000  0.6508444  3
   1227   1215   1218   1231     1  0.0000000  0.6508444  3
   1227   1215   1218   1232     1  0.0000000  0.6508444  3
   1228   1215   1213   1238     1  0.0000000  0.6508444  3
   1228   1215   1218   1231     1  0.0000000  0.6508444  3
   1228   1215   1218   1232     1  0.0000000  0.6508444  3
   1229   1216   1217   2496     1  180.0000771  0.0000000  2
   1230   1216   1217   2496     1  180.0000771  0.0000000  2
   1231   1218   1219   2522     1  180.0000771  0.0000000  2
   1232   1218   1219   2522     1  180.0000771  0.0000000  2
   1233   1220   1213   1238     1  0.0000000  0.6508444  3
   1233   1220   1221   1235     1  0.0000000  0.6508444  3
   1233   1220   1221   1236     1  0.0000000  0.6508444  3
   1234   1220   1213   1238     1  0.0000000  0.6508444  3
   1234   1220   1221   1235     1  0.0000000  0.6508444  3
   1234   1220   1221   1236     1  0.0000000  0.6508444  3
   1235   1221   1222   1237     1  0.0000000  0.0000000  2
   1236   1221   1222   1237     1  0.0000000  0.0000000  2
   1239   1240   1242   1255     1  0.0000000  0.6508444  3
   1239   1240   1242   1256     1  0.0000000  0.6508444  3
   1239   1241   1244   1257     1  0.0000000  0.6508444  3
   1239   1241   1244   1258     1  0.0000000  0.6508444  3
   1239   1246   1247   1261     1  0.0000000  0.6508444  3
   1239   1246   1247   1262     1  0.0000000  0.6508444  3
   1240   1239   1241   1253     1  0.0000000  0.6508444  3
   1240   1239   1241   1254     1  0.0000000  0.6508444  3
   1240   1239   1246   1259     1  0.0000000  0.6508444  3
   1240   1239   1246   1260     1  0.0000000  0.6508444  3
   1241   1239   1240   1251     1  0.0000000  0.6508444  3
   1241   1239   1240   1252     1  0.0000000  0.6508444  3
   1241   1239   1246   1259     1  0.0000000  0.6508444  3
   1241   1239   1246   1260     1  0.0000000  0.6508444  3
   1242   1240   1239   1264     1  0.0000000  0.6508444  3
   1242   1243   2548   2563     1  180.0000771  10.4600000  2
   1243   1242   1240   1251     1  0.0000000  0.6508444  3
   1243   1242   1240   1252     1  0.0000000  0.6508444  3
   1243   2548   2547   2561     1  0.0000000  0.0000000  2
   1243   2548   2547   2562     1  0.0000000  0.0000000  2
   1244   1241   1239   1264     1  0.0000000  0.6508444  3
   1244   1245   2574   2589     1  180.0000771  10.4600000  2
   1245   1244   1241   1253     1  0.0000000  0.6508444  3
   1245   1244   1241   1254     1  0.0000000  0.6508444  3
   1245   2574   2573   2587     1  0.0000000  0.0000000  2
   1245   2574   2573   2588     1  0.0000000  0.0000000  2
   1246   1239   1240   1251     1  0.0000000  0.6508444  3
   1246   1239   1240   1252     1  0.0000000  0.6508444  3
   1246   1239   1241   1253     1  0.0000000  0.6508444  3
   1246   1239   1241   1254     1  0.0000000  0.6508444  3
   1246   1247   1248   1263     1  0.0000000  0.0000000  2
   1247   1246   1239   1264     1  0.0000000  0.6508444  3
   1248   1247   1246   1259     1  0.0000000  0.6508444  3
   1248   1247   1246   1260     1  0.0000000  0.6508444  3
   1249   1243   1242   1255     1  0.0000000  3.3472000  1
   1249   1243   1242   1255     1  0.0000000  0.0000000  2
   1249   1243   1242   1255     1  180.0000771  0.3347200  3
   1249   1243   1242   1256     1  0.0000000  3.3472000  1
   1249   1243   1242   1256     1  0.0000000  0.0000000  2
   1249   1243   1242   1256     1  180.0000771  0.3347200  3
   1249   1243   2548   2563     1  0.0000000  8.3680000  1
   1249   1243   2548   2563     1  180.0000771  10.4600000  2
   1250   1245   1244   1257     1  0.0000000  3.3472000  1
   1250   1245   1244   1257     1  0.0000000  0.0000000  2
   1250   1245   1244   1257     1  180.0000771  0.3347200  3
   1250   1245   1244   1258     1  0.0000000  3.3472000  1
   1250   1245   1244   1258     1  0.0000000  0.0000000  2
   1250   1245   1244   1258     1  180.0000771  0.3347200  3
   1250   1245   2574   2589     1  0.0000000  8.3680000  1
   1250   1245   2574   2589     1  180.0000771  10.4600000  2
   1251   1240   1239   1264     1  0.0000000  0.6508444  3
   1251   1240   1242   1255     1  0.0000000  0.6508444  3
   1251   1240   1242   1256     1  0.0000000  0.6508444  3
   1252   1240   1239   1264     1  0.0000000  0.6508444  3
   1252   1240   1242   1255     1  0.0000000  0.6508444  3
   1252   1240   1242   1256     1  0.0000000  0.6508444  3
   1253   1241   1239   1264     1  0.0000000  0.6508444  3
   1253   1241   1244   1257     1  0.0000000  0.6508444  3
   1253   1241   1244   1258     1  0.0000000  0.6508444  3
   1254   1241   1239   1264     1  0.0000000  0.6508444  3
   1254   1241   1244   1257     1  0.0000000  0.6508444  3
   1254   1241   1244   1258     1  0.0000000  0.6508444  3
   1255   1242   1243   2548     1  180.0000771  0.0000000  2
   1256   1242   1243   2548     1  180.0000771  0.0000000  2
   1257   1244   1245   2574     1  180.0000771  0.0000000  2
   1258   1244   1245   2574     1  180.0000771  0.0000000  2
   1259   1246   1239   1264     1  0.0000000  0.6508444  3
   1259   1246   1247   1261     1  0.0000000  0.6508444  3
   1259   1246   1247   1262     1  0.0000000  0.6508444  3
   1260   1246   1239   1264     1  0.0000000  0.6508444  3
   1260   1246   1247   1261     1  0.0000000  0.6508444  3
   1260   1246   1247   1262     1  0.0000000  0.6508444  3
   1261   1247   1248   1263     1  0.0000000  0.0000000  2
   1262   1247   1248   1263     1  0.0000000  0.0000000  2
   1265   1266   1268   1281     1  0.0000000  0.6508444  3
   1265   1266   1268   1282     1  0.0000000  0.6508444  3
   1265   1267   1270   1283     1  0.0000000  0.6508444  3
   1265   1267   1270   1284     1  0.0000000  0.6508444  3
   1265   1272   1273   1287     1  0.0000000  0.6508444  3
   1265   1272   1273   1288     1  0.0000000  0.6508444  3
   1266   1265   1267   1279     1  0.0000000  0.6508444  3
   1266   1265   1267   1280     1  0.0000000  0.6508444  3
   1266   1265   1272   1285     1  0.0000000  0.6508444  3
   1266   1265   1272   1286     1  0.0000000  0.6508444  3
   1267   1265   1266   1277     1  0.0000000  0.6508444  3
   1267   1265   1266   1278     1  0.0000000  0.6508444  3
   1267   1265   1272   1285     1  0.0000000  0.6508444  3
   1267   1265   1272   1286     1  0.0000000  0.6508444  3
   1268   1266   1265   1290     1  0.0000000  0.6508444  3
   1268   1269   2600   2615     1  180.0000771  10.4600000  2
   1269   1268   1266   1277     1  0.0000000  0.6508444  3
   1269   1268   1266   1278     1  0.0000000  0.6508444  3
   1269   2600   2599   2613     1  0.0000000  0.0000000  2
   1269   2600   2599   2614     1  0.0000000  0.0000000  2
   1270   1267   1265   1290     1  0.0000000  0.6508444  3
   1270   1271   2626   2641     1  180.0000771  10.4600000  2
   1271   1270   1267   1279     1  0.0000000  0.6508444  3
   1271   1270   1267   1280     1  0.0000000  0.6508444  3
   1271   2626   2625   2639     1  0.0000000  0.0000000  2
   1271   2626   2625   2640     1  0.0000000  0.0000000  2
   1272   1265   1266   1277     1  0.0000000  0.6508444  3
   1272   1265   1266   1278     1  0.0000000  0.6508444  3
   1272   1265   1267   1279     1  0.0000000  0.6508444  3
   1272   1265   1267   1280     1  0.0000000  0.6508444  3
   1272   1273   1274   1289     1  0.0000000  0.0000000  2
   1273   1272   1265   1290     1  0.0000000  0.6508444  3
   1274   1273   1272   1285     1  0.0000000  0.6508444  3
   1274   1273   1272   1286     1  0.0000000  0.6508444  3
   1275   1269   1268   1281     1  0.0000000  3.3472000  1
   1275   1269   1268   1281     1  0.0000000  0.0000000  2
   1275   1269   1268   1281     1  180.0000771  0.3347200  3
   1275   1269   1268   1282     1  0.0000000  3.3472000  1
   1275   1269   1268   1282     1  0.0000000  0.0000000  2
   1275   1269   1268   1282     1  180.0000771  0.3347200  3
   1275   1269   2600   2615     1  0.0000000  8.3680000  1
   1275   1269   2600   2615     1  180.0000771  10.4600000  2
   1276   1271   1270   1283     1  0.0000000  3.3472000  1
   1276   1271   1270   1283     1  0.0000000  0.0000000  2
   1276   1271   1270   1283     1  180.0000771  0.3347200  3
   1276   1271   1270   1284     1  0.0000000  3.3472000  1
   1276   1271   1270   1284     1  0.0000000  0.0000000  2
   1276   1271   1270   1284     1  180.0000771  0.3347200  3
   1276   1271   2626   2641     1  0.0000000  8.3680000  1
   1276   1271   2626   2641     1  180.0000771  10.4600000  2
   1277   1266   1265   1290     1  0.0000000  0.6508444  3
   1277   1266   1268   1281     1  0.0000000  0.6508444  3
   1277   1266   1268   1282     1  0.0000000  0.6508444  3
   1278   1266   1265   1290     1  0.0000000  0.6508444  3
   1278   1266   1268   1281     1  0.0000000  0.6508444  3
   1278   1266   1268   1282     1  0.0000000  0.6508444  3
   1279   1267   1265   1290     1  0.0000000  0.6508444  3
   1279   1267   1270   1283     1  0.0000000  0.6508444  3
   1279   1267   1270   1284     1  0.0000000  0.6508444  3
   1280   1267   1265   1290     1  0.0000000  0.6508444  3
   1280   1267   1270   1283     1  0.0000000  0.6508444  3
   1280   1267   1270   1284     1  0.0000000  0.6508444  3
   1281   1268   1269   2600     1  180.0000771  0.0000000  2
   1282   1268   1269   2600     1  180.0000771  0.0000000  2
   1283   1270   1271   2626     1  180.0000771  0.0000000  2
   1284   1270   1271   2626     1  180.0000771  0.0000000  2
   1285   1272   1265   1290     1  0.0000000  0.6508444  3
   1285   1272   1273   1287     1  0.0000000  0.6508444  3
   1285   1272   1273   1288     1  0.0000000  0.6508444  3
   1286   1272   1265   1290     1  0.0000000  0.6508444  3
   1286   1272   1273   1287     1  0.0000000  0.6508444  3
   1286   1272   1273   1288     1  0.0000000  0.6508444  3
   1287   1273   1274   1289     1  0.0000000  0.0000000  2
   1288   1273   1274   1289     1  0.0000000  0.0000000  2
   1291   1292   1294   1307     1  0.0000000  0.6508444  3
   1291   1292   1294   1308     1  0.0000000  0.6508444  3
   1291   1293   1296   1309     1  0.0000000  0.6508444  3
   1291   1293   1296   1310     1  0.0000000  0.6508444  3
   1291   1298   1299   1313     1  0.0000000  0.6508444  3
   1291   1298   1299   1314     1  0.0000000  0.6508444  3
   1292   1291   1293   1305     1  0.0000000  0.6508444  3
   1292   1291   1293   1306     1  0.0000000  0.6508444  3
   1292   1291   1298   1311     1  0.0000000  0.6508444  3
   1292   1291   1298   1312     1  0.0000000  0.6508444  3
   1293   1291   1292   1303     1  0.0000000  0.6508444  3
   1293   1291   1292   1304     1  0.0000000  0.6508444  3
   1293   1291   1298   1311     1  0.0000000  0.6508444  3
   1293   1291   1298   1312     1  0.0000000  0.6508444  3
   1294   1292   1291   1316     1  0.0000000  0.6508444  3
   1294   1295   2652   2667     1  180.0000771  10.4600000  2
   1295   1294   1292   1303     1  0.0000000  0.6508444  3
   1295   1294   1292   1304     1  0.0000000  0.6508444  3
   1295   2652   2651   2665     1  0.0000000  0.0000000  2
   1295   2652   2651   2666     1  0.0000000  0.0000000  2
   1296   1293   1291   1316     1  0.0000000  0.6508444  3
   1296   1297   2678   2693     1  180.0000771  10.4600000  2
   1297   1296   1293   1305     1  0.0000000  0.6508444  3
   1297   1296   1293   1306     1  0.0000000  0.6508444  3
   1297   2678   2677   2691     1  0.0000000  0.0000000  2
   1297   2678   2677   2692     1  0.0000000  0.0000000  2
   1298   1291   1292   1303     1  0.0000000  0.6508444  3
   1298   1291   1292   1304     1  0.0000000  0.6508444  3
   1298   1291   1293   1305     1  0.0000000  0.6508444  3
   1298   1291   1293   1306     1  0.0000000  0.6508444  3
   1298   1299   1300   1315     1  0.0000000  0.0000000  2
   1299   1298   1291   1316     1  0.0000000  0.6508444  3
   1300   1299   1298   1311     1  0.0000000  0.6508444  3
   1300   1299   1298   1312     1  0.0000000  0.6508444  3
   1301   1295   1294   1307     1  0.0000000  3.3472000  1
   1301   1295   1294   1307     1  0.0000000  0.0000000  2
   1301   1295   1294   1307     1  180.0000771  0.3347200  3
   1301   1295   1294   1308     1  0.0000000  3.3472000  1
   1301   1295   1294   1308     1  0.0000000  0.0000000  2
   1301   1295   1294   1308     1  180.0000771  0.3347200  3
   1301   1295   2652   2667     1  0.0000000  8.3680000  1
   1301   1295   2652   2667     1  180.0000771  10.4600000  2
   1302   1297   1296   1309     1  0.0000000  3.3472000  1
   1302   1297   1296   1309     1  0.0000000  0.0000000  2
   1302   1297   1296   1309     1  180.0000771  0.3347200  3
   1302   1297   1296   1310     1  0.0000000  3.3472000  1
   1302   1297   1296   1310     1  0.0000000  0.0000000  2
   1302   1297   1296   1310     1  180.0000771  0.3347200  3
   1302   1297   2678   2693     1  0.0000000  8.3680000  1
   1302   1297   2678   2693     1  180.0000771  10.4600000  2
   1303   1292   1291   1316     1  0.0000000  0.6508444  3
   1303   1292   1294   1307     1  0.0000000  0.6508444  3
   1303   1292   1294   1308     1  0.0000000  0.6508444  3
   1304   1292   1291   1316     1  0.0000000  0.6508444  3
   1304   1292   1294   1307     1  0.0000000  0.6508444  3
   1304   1292   1294   1308     1  0.0000000  0.6508444  3
   1305   1293   1291   1316     1  0.0000000  0.6508444  3
   1305   1293   1296   1309     1  0.0000000  0.6508444  3
   1305   1293   1296   1310     1  0.0000000  0.6508444  3
   1306   1293   1291   1316     1  0.0000000  0.6508444  3
   1306   1293   1296   1309     1  0.0000000  0.6508444  3
   1306   1293   1296   1310     1  0.0000000  0.6508444  3
   1307   1294   1295   2652     1  180.0000771  0.0000000  2
   1308   1294   1295   2652     1  180.0000771  0.0000000  2
   1309   1296   1297   2678     1  180.0000771  0.0000000  2
   1310   1296   1297   2678     1  180.0000771  0.0000000  2
   1311   1298   1291   1316     1  0.0000000  0.6508444  3
   1311   1298   1299   1313     1  0.0000000  0.6508444  3
   1311   1298   1299   1314     1  0.0000000  0.6508444  3
   1312   1298   1291   1316     1  0.0000000  0.6508444  3
   1312   1298   1299   1313     1  0.0000000  0.6508444  3
   1312   1298   1299   1314     1  0.0000000  0.6508444  3
   1313   1299   1300   1315     1  0.0000000  0.0000000  2
   1314   1299   1300   1315     1  0.0000000  0.0000000  2
   1317   1318   1320   1333     1  0.0000000  0.6508444  3
   1317   1318   1320   1334     1  0.0000000  0.6508444  3
   1317   1319   1322   1335     1  0.0000000  0.6508444  3
   1317   1319   1322   1336     1  0.0000000  0.6508444  3
   1317   1324   1325   1339     1  0.0000000  0.6508444  3
   1317   1324   1325   1340     1  0.0000000  0.6508444  3
   1318   1317   1319   1331     1  0.0000000  0.6508444  3
   1318   1317   1319   1332     1  0.0000000  0.6508444  3
   1318   1317   1324   1337     1  0.0000000  0.6508444  3
   1318   1317   1324   1338     1  0.0000000  0.6508444  3
   1319   1317   1318   1329     1  0.0000000  0.6508444  3
   1319   1317   1318   1330     1  0.0000000  0.6508444  3
   1319   1317   1324   1337     1  0.0000000  0.6508444  3
   1319   1317   1324   1338     1  0.0000000  0.6508444  3
   1320   1318   1317   1342     1  0.0000000  0.6508444  3
   1320   1321   2704   2719     1  180.0000771  10.4600000  2
   1321   1320   1318   1329     1  0.0000000  0.6508444  3
   1321   1320   1318   1330     1  0.0000000  0.6508444  3
   1321   2704   2703   2717     1  0.0000000  0.0000000  2
   1321   2704   2703   2718     1  0.0000000  0.0000000  2
   1322   1319   1317   1342     1  0.0000000  0.6508444  3
   1322   1323   2730   2745     1  180.0000771  10.4600000  2
   1323   1322   1319   1331     1  0.0000000  0.6508444  3
   1323   1322   1319   1332     1  0.0000000  0.6508444  3
   1323   2730   2729   2743     1  0.0000000  0.0000000  2
   1323   2730   2729   2744     1  0.0000000  0.0000000  2
   1324   1317   1318   1329     1  0.0000000  0.6508444  3
   1324   1317   1318   1330     1  0.0000000  0.6508444  3
   1324   1317   1319   1331     1  0.0000000  0.6508444  3
   1324   1317   1319   1332     1  0.0000000  0.6508444  3
   1324   1325   1326   1341     1  0.0000000  0.0000000  2
   1325   1324   1317   1342     1  0.0000000  0.6508444  3
   1326   1325   1324   1337     1  0.0000000  0.6508444  3
   1326   1325   1324   1338     1  0.0000000  0.6508444  3
   1327   1321   1320   1333     1  0.0000000  3.3472000  1
   1327   1321   1320   1333     1  0.0000000  0.0000000  2
   1327   1321   1320   1333     1  180.0000771  0.3347200  3
   1327   1321   1320   1334     1  0.0000000  3.3472000  1
   1327   1321   1320   1334     1  0.0000000  0.0000000  2
   1327   1321   1320   1334     1  180.0000771  0.3347200  3
   1327   1321   2704   2719     1  0.0000000  8.3680000  1
   1327   1321   2704   2719     1  180.0000771  10.4600000  2
   1328   1323   1322   1335     1  0.0000000  3.3472000  1
   1328   1323   1322   1335     1  0.0000000  0.0000000  2
   1328   1323   1322   1335     1  180.0000771  0.3347200  3
   1328   1323   1322   1336     1  0.0000000  3.3472000  1
   1328   1323   1322   1336     1  0.0000000  0.0000000  2
   1328   1323   1322   1336     1  180.0000771  0.3347200  3
   1328   1323   2730   2745     1  0.0000000  8.3680000  1
   1328   1323   2730   2745     1  180.0000771  10.4600000  2
   1329   1318   1317   1342     1  0.0000000  0.6508444  3
   1329   1318   1320   1333     1  0.0000000  0.6508444  3
   1329   1318   1320   1334     1  0.0000000  0.6508444  3
   1330   1318   1317   1342     1  0.0000000  0.6508444  3
   1330   1318   1320   1333     1  0.0000000  0.6508444  3
   1330   1318   1320   1334     1  0.0000000  0.6508444  3
   1331   1319   1317   1342     1  0.0000000  0.6508444  3
   1331   1319   1322   1335     1  0.0000000  0.6508444  3
   1331   1319   1322   1336     1  0.0000000  0.6508444  3
   1332   1319   1317   1342     1  0.0000000  0.6508444  3
   1332   1319   1322   1335     1  0.0000000  0.6508444  3
   1332   1319   1322   1336     1  0.0000000  0.6508444  3
   1333   1320   1321   2704     1  180.0000771  0.0000000  2
   1334   1320   1321   2704     1  180.0000771  0.0000000  2
   1335   1322   1323   2730     1  180.0000771  0.0000000  2
   1336   1322   1323   2730     1  180.0000771  0.0000000  2
   1337   1324   1317   1342     1  0.0000000  0.6508444  3
   1337   1324   1325   1339     1  0.0000000  0.6508444  3
   1337   1324   1325   1340     1  0.0000000  0.6508444  3
   1338   1324   1317   1342     1  0.0000000  0.6508444  3
   1338   1324   1325   1339     1  0.0000000  0.6508444  3
   1338   1324   1325   1340     1  0.0000000  0.6508444  3
   1339   1325   1326   1341     1  0.0000000  0.0000000  2
   1340   1325   1326   1341     1  0.0000000  0.0000000  2
   1343   1344   1346   1359     1  0.0000000  0.6508444  3
   1343   1344   1346   1360     1  0.0000000  0.6508444  3
   1343   1345   1348   1361     1  0.0000000  0.6508444  3
   1343   1345   1348   1362     1  0.0000000  0.6508444  3
   1343   1350   1351   1365     1  0.0000000  0.6508444  3
   1343   1350   1351   1366     1  0.0000000  0.6508444  3
   1344   1343   1345   1357     1  0.0000000  0.6508444  3
   1344   1343   1345   1358     1  0.0000000  0.6508444  3
   1344   1343   1350   1363     1  0.0000000  0.6508444  3
   1344   1343   1350   1364     1  0.0000000  0.6508444  3
   1345   1343   1344   1355     1  0.0000000  0.6508444  3
   1345   1343   1344   1356     1  0.0000000  0.6508444  3
   1345   1343   1350   1363     1  0.0000000  0.6508444  3
   1345   1343   1350   1364     1  0.0000000  0.6508444  3
   1346   1344   1343   1368     1  0.0000000  0.6508444  3
   1346   1347   2756   2771     1  180.0000771  10.4600000  2
   1347   1346   1344   1355     1  0.0000000  0.6508444  3
   1347   1346   1344   1356     1  0.0000000  0.6508444  3
   1347   2756   2755   2769     1  0.0000000  0.0000000  2
   1347   2756   2755   2770     1  0.0000000  0.0000000  2
   1348   1345   1343   1368     1  0.0000000  0.6508444  3
   1348   1349   2782   2797     1  180.0000771  10.4600000  2
   1349   1348   1345   1357     1  0.0000000  0.6508444  3
   1349   1348   1345   1358     1  0.0000000  0.6508444  3
   1349   2782   2781   2795     1  0.0000000  0.0000000  2
   1349   2782   2781   2796     1  0.0000000  0.0000000  2
   1350   1343   1344   1355     1  0.0000000  0.6508444  3
   1350   1343   1344   1356     1  0.0000000  0.6508444  3
   1350   1343   1345   1357     1  0.0000000  0.6508444  3
   1350   1343   1345   1358     1  0.0000000  0.6508444  3
   1350   1351   1352   1367     1  0.0000000  0.0000000  2
   1351   1350   1343   1368     1  0.0000000  0.6508444  3
   1352   1351   1350   1363     1  0.0000000  0.6508444  3
   1352   1351   1350   1364     1  0.0000000  0.6508444  3
   1353   1347   1346   1359     1  0.0000000  3.3472000  1
   1353   1347   1346   1359     1  0.0000000  0.0000000  2
   1353   1347   1346   1359     1  180.0000771  0.3347200  3
   1353   1347   1346   1360     1  0.0000000  3.3472000  1
   1353   1347   1346   1360     1  0.0000000  0.0000000  2
   1353   1347   1346   1360     1  180.0000771  0.3347200  3
   1353   1347   2756   2771     1  0.0000000  8.3680000  1
   1353   1347   2756   2771     1  180.0000771  10.4600000  2
   1354   1349   1348   1361     1  0.0000000  3.3472000  1
   1354   1349   1348   1361     1  0.0000000  0.0000000  2
   1354   1349   1348   1361     1  180.0000771  0.3347200  3
   1354   1349   1348   1362     1  0.0000000  3.3472000  1
   1354   1349   1348   1362     1  0.0000000  0.0000000  2
   1354   1349   1348   1362     1  180.0000771  0.3347200  3
   1354   1349   2782   2797     1  0.0000000  8.3680000  1
   1354   1349   2782   2797     1  180.0000771  10.4600000  2
   1355   1344   1343   1368     1  0.0000000  0.6508444  3
   1355   1344   1346   1359     1  0.0000000  0.6508444  3
   1355   1344   1346   1360     1  0.0000000  0.6508444  3
   1356   1344   1343   1368     1  0.0000000  0.6508444  3
   1356   1344   1346   1359     1  0.0000000  0.6508444  3
   1356   1344   1346   1360     1  0.0000000  0.6508444  3
   1357   1345   1343   1368     1  0.0000000  0.6508444  3
   1357   1345   1348   1361     1  0.0000000  0.6508444  3
   1357   1345   1348   1362     1  0.0000000  0.6508444  3
   1358   1345   1343   1368     1  0.0000000  0.6508444  3
   1358   1345   1348   1361     1  0.0000000  0.6508444  3
   1358   1345   1348   1362     1  0.0000000  0.6508444  3
   1359   1346   1347   2756     1  180.0000771  0.0000000  2
   1360   1346   1347   2756     1  180.0000771  0.0000000  2
   1361   1348   1349   2782     1  180.0000771  0.0000000  2
   1362   1348   1349   2782     1  180.0000771  0.0000000  2
   1363   1350   1343   1368     1  0.0000000  0.6508444  3
   1363   1350   1351   1365     1  0.0000000  0.6508444  3
   1363   1350   1351   1366     1  0.0000000  0.6508444  3
   1364   1350   1343   1368     1  0.0000000  0.6508444  3
   1364   1350   1351   1365     1  0.0000000  0.6508444  3
   1364   1350   1351   1366     1  0.0000000  0.6508444  3
   1365   1351   1352   1367     1  0.0000000  0.0000000  2
   1366   1351   1352   1367     1  0.0000000  0.0000000  2
   1369   1370   1372   1385     1  0.0000000  0.6508444  3
   1369   1370   1372   1386     1  0.0000000  0.6508444  3
   1369   1371   1374   1387     1  0.0000000  0.6508444  3
   1369   1371   1374   1388     1  0.0000000  0.6508444  3
   1369   1376   1377   1391     1  0.0000000  0.6508444  3
   1369   1376   1377   1392     1  0.0000000  0.6508444  3
   1370   1369   1371   1383     1  0.0000000  0.6508444  3
   1370   1369   1371   1384     1  0.0000000  0.6508444  3
   1370   1369   1376   1389     1  0.0000000  0.6508444  3
   1370   1369   1376   1390     1  0.0000000  0.6508444  3
   1371   1369   1370   1381     1  0.0000000  0.6508444  3
   1371   1369   1370   1382     1  0.0000000  0.6508444  3
   1371   1369   1376   1389     1  0.0000000  0.6508444  3
   1371   1369   1376   1390     1  0.0000000  0.6508444  3
   1372   1370   1369   1394     1  0.0000000  0.6508444  3
   1372   1373   2808   2823     1  180.0000771  10.4600000  2
   1373   1372   1370   1381     1  0.0000000  0.6508444  3
   1373   1372   1370   1382     1  0.0000000  0.6508444  3
   1373   2808   2807   2821     1  0.0000000  0.0000000  2
   1373   2808   2807   2822     1  0.0000000  0.0000000  2
   1374   1371   1369   1394     1  0.0000000  0.6508444  3
   1374   1375   2834   2849     1  180.0000771  10.4600000  2
   1375   1374   1371   1383     1  0.0000000  0.6508444  3
   1375   1374   1371   1384     1  0.0000000  0.6508444  3
   1375   2834   2833   2847     1  0.0000000  0.0000000  2
   1375   2834   2833   2848     1  0.0000000  0.0000000  2
   1376   1369   1370   1381     1  0.0000000  0.6508444  3
   1376   1369   1370   1382     1  0.0000000  0.6508444  3
   1376   1369   1371   1383     1  0.0000000  0.6508444  3
   1376   1369   1371   1384     1  0.0000000  0.6508444  3
   1376   1377   1378   1393     1  0.0000000  0.0000000  2
   1377   1376   1369   1394     1  0.0000000  0.6508444  3
   1378   1377   1376   1389     1  0.0000000  0.6508444  3
   1378   1377   1376   1390     1  0.0000000  0.6508444  3
   1379   1373   1372   1385     1  0.0000000  3.3472000  1
   1379   1373   1372   1385     1  0.0000000  0.0000000  2
   1379   1373   1372   1385     1  180.0000771  0.3347200  3
   1379   1373   1372   1386     1  0.0000000  3.3472000  1
   1379   1373   1372   1386     1  0.0000000  0.0000000  2
   1379   1373   1372   1386     1  180.0000771  0.3347200  3
   1379   1373   2808   2823     1  0.0000000  8.3680000  1
   1379   1373   2808   2823     1  180.0000771  10.4600000  2
   1380   1375   1374   1387     1  0.0000000  3.3472000  1
   1380   1375   1374   1387     1  0.0000000  0.0000000  2
   1380   1375   1374   1387     1  180.0000771  0.3347200  3
   1380   1375   1374   1388     1  0.0000000  3.3472000  1
   1380   1375   1374   1388     1  0.0000000  0.0000000  2
   1380   1375   1374   1388     1  180.0000771  0.3347200  3
   1380   1375   2834   2849     1  0.0000000  8.3680000  1
   1380   1375   2834   2849     1  180.0000771  10.4600000  2
   1381   1370   1369   1394     1  0.0000000  0.6508444  3
   1381   1370   1372   1385     1  0.0000000  0.6508444  3
   1381   1370   1372   1386     1  0.0000000  0.6508444  3
   1382   1370   1369   1394     1  0.0000000  0.6508444  3
   1382   1370   1372   1385     1  0.0000000  0.6508444  3
   1382   1370   1372   1386     1  0.0000000  0.6508444  3
   1383   1371   1369   1394     1  0.0000000  0.6508444  3
   1383   1371   1374   1387     1  0.0000000  0.6508444  3
   1383   1371   1374   1388     1  0.0000000  0.6508444  3
   1384   1371   1369   1394     1  0.0000000  0.6508444  3
   1384   1371   1374   1387     1  0.0000000  0.6508444  3
   1384   1371   1374   1388     1  0.0000000  0.6508444  3
   1385   1372   1373   2808     1  180.0000771  0.0000000  2
   1386   1372   1373   2808     1  180.0000771  0.0000000  2
   1387   1374   1375   2834     1  180.0000771  0.0000000  2
   1388   1374   1375   2834     1  180.0000771  0.0000000  2
   1389   1376   1369   1394     1  0.0000000  0.6508444  3
   1389   1376   1377   1391     1  0.0000000  0.6508444  3
   1389   1376   1377   1392     1  0.0000000  0.6508444  3
   1390   1376   1369   1394     1  0.0000000  0.6508444  3
   1390   1376   1377   1391     1  0.0000000  0.6508444  3
   1390   1376   1377   1392     1  0.0000000  0.6508444  3
   1391   1377   1378   1393     1  0.0000000  0.0000000  2
   1392   1377   1378   1393     1  0.0000000  0.0000000  2
   1395   1396   1398   1411     1  0.0000000  0.6508444  3
   1395   1396   1398   1412     1  0.0000000  0.6508444  3
   1395   1397   1400   1413     1  0.0000000  0.6508444  3
   1395   1397   1400   1414     1  0.0000000  0.6508444  3
   1395   1402   1403   1417     1  0.0000000  0.6508444  3
   1395   1402   1403   1418     1  0.0000000  0.6508444  3
   1396   1395   1397   1409     1  0.0000000  0.6508444  3
   1396   1395   1397   1410     1  0.0000000  0.6508444  3
   1396   1395   1402   1415     1  0.0000000  0.6508444  3
   1396   1395   1402   1416     1  0.0000000  0.6508444  3
   1397   1395   1396   1407     1  0.0000000  0.6508444  3
   1397   1395   1396   1408     1  0.0000000  0.6508444  3
   1397   1395   1402   1415     1  0.0000000  0.6508444  3
   1397   1395   1402   1416     1  0.0000000  0.6508444  3
   1398   1396   1395   1420     1  0.0000000  0.6508444  3
   1398   1399   2860   2875     1  180.0000771  10.4600000  2
   1399   1398   1396   1407     1  0.0000000  0.6508444  3
   1399   1398   1396   1408     1  0.0000000  0.6508444  3
   1399   2860   2859   2873     1  0.0000000  0.0000000  2
   1399   2860   2859   2874     1  0.0000000  0.0000000  2
   1400   1397   1395   1420     1  0.0000000  0.6508444  3
   1400   1401   2886   2901     1  180.0000771  10.4600000  2
   1401   1400   1397   1409     1  0.0000000  0.6508444  3
   1401   1400   1397   1410     1  0.0000000  0.6508444  3
   1401   2886   2885   2899     1  0.0000000  0.0000000  2
   1401   2886   2885   2900     1  0.0000000  0.0000000  2
   1402   1395   1396   1407     1  0.0000000  0.6508444  3
   1402   1395   1396   1408     1  0.0000000  0.6508444  3
   1402   1395   1397   1409     1  0.0000000  0.6508444  3
   1402   1395   1397   1410     1  0.0000000  0.6508444  3
   1402   1403   1404   1419     1  0.0000000  0.0000000  2
   1403   1402   1395   1420     1  0.0000000  0.6508444  3
   1404   1403   1402   1415     1  0.0000000  0.6508444  3
   1404   1403   1402   1416     1  0.0000000  0.6508444  3
   1405   1399   1398   1411     1  0.0000000  3.3472000  1
   1405   1399   1398   1411     1  0.0000000  0.0000000  2
   1405   1399   1398   1411     1  180.0000771  0.3347200  3
   1405   1399   1398   1412     1  0.0000000  3.3472000  1
   1405   1399   1398   1412     1  0.0000000  0.0000000  2
   1405   1399   1398   1412     1  180.0000771  0.3347200  3
   1405   1399   2860   2875     1  0.0000000  8.3680000  1
   1405   1399   2860   2875     1  180.0000771  10.4600000  2
   1406   1401   1400   1413     1  0.0000000  3.3472000  1
   1406   1401   1400   1413     1  0.0000000  0.0000000  2
   1406   1401   1400   1413     1  180.0000771  0.3347200  3
   1406   1401   1400   1414     1  0.0000000  3.3472000  1
   1406   1401   1400   1414     1  0.0000000  0.0000000  2
   1406   1401   1400   1414     1  180.0000771  0.3347200  3
   1406   1401   2886   2901     1  0.0000000  8.3680000  1
   1406   1401   2886   2901     1  180.0000771  10.4600000  2
   1407   1396   1395   1420     1  0.0000000  0.6508444  3
   1407   1396   1398   1411     1  0.0000000  0.6508444  3
   1407   1396   1398   1412     1  0.0000000  0.6508444  3
   1408   1396   1395   1420     1  0.0000000  0.6508444  3
   1408   1396   1398   1411     1  0.0000000  0.6508444  3
   1408   1396   1398   1412     1  0.0000000  0.6508444  3
   1409   1397   1395   1420     1  0.0000000  0.6508444  3
   1409   1397   1400   1413     1  0.0000000  0.6508444  3
   1409   1397   1400   1414     1  0.0000000  0.6508444  3
   1410   1397   1395   1420     1  0.0000000  0.6508444  3
   1410   1397   1400   1413     1  0.0000000  0.6508444  3
   1410   1397   1400   1414     1  0.0000000  0.6508444  3
   1411   1398   1399   2860     1  180.0000771  0.0000000  2
   1412   1398   1399   2860     1  180.0000771  0.0000000  2
   1413   1400   1401   2886     1  180.0000771  0.0000000  2
   1414   1400   1401   2886     1  180.0000771  0.0000000  2
   1415   1402   1395   1420     1  0.0000000  0.6508444  3
   1415   1402   1403   1417     1  0.0000000  0.6508444  3
   1415   1402   1403   1418     1  0.0000000  0.6508444  3
   1416   1402   1395   1420     1  0.0000000  0.6508444  3
   1416   1402   1403   1417     1  0.0000000  0.6508444  3
   1416   1402   1403   1418     1  0.0000000  0.6508444  3
   1417   1403   1404   1419     1  0.0000000  0.0000000  2
   1418   1403   1404   1419     1  0.0000000  0.0000000  2
   1421   1422   1424   1437     1  0.0000000  0.6508444  3
   1421   1422   1424   1438     1  0.0000000  0.6508444  3
   1421   1423   1426   1439     1  0.0000000  0.6508444  3
   1421   1423   1426   1440     1  0.0000000  0.6508444  3
   1421   1428   1429   1443     1  0.0000000  0.6508444  3
   1421   1428   1429   1444     1  0.0000000  0.6508444  3
   1422   1421   1423   1435     1  0.0000000  0.6508444  3
   1422   1421   1423   1436     1  0.0000000  0.6508444  3
   1422   1421   1428   1441     1  0.0000000  0.6508444  3
   1422   1421   1428   1442     1  0.0000000  0.6508444  3
   1423   1421   1422   1433     1  0.0000000  0.6508444  3
   1423   1421   1422   1434     1  0.0000000  0.6508444  3
   1423   1421   1428   1441     1  0.0000000  0.6508444  3
   1423   1421   1428   1442     1  0.0000000  0.6508444  3
   1424   1422   1421   1446     1  0.0000000  0.6508444  3
   1424   1425   2912   2927     1  180.0000771  10.4600000  2
   1425   1424   1422   1433     1  0.0000000  0.6508444  3
   1425   1424   1422   1434     1  0.0000000  0.6508444  3
   1425   2912   2911   2925     1  0.0000000  0.0000000  2
   1425   2912   2911   2926     1  0.0000000  0.0000000  2
   1426   1423   1421   1446     1  0.0000000  0.6508444  3
   1426   1427   2938   2953     1  180.0000771  10.4600000  2
   1427   1426   1423   1435     1  0.0000000  0.6508444  3
   1427   1426   1423   1436     1  0.0000000  0.6508444  3
   1427   2938   2937   2951     1  0.0000000  0.0000000  2
   1427   2938   2937   2952     1  0.0000000  0.0000000  2
   1428   1421   1422   1433     1  0.0000000  0.6508444  3
   1428   1421   1422   1434     1  0.0000000  0.6508444  3
   1428   1421   1423   1435     1  0.0000000  0.6508444  3
   1428   1421   1423   1436     1  0.0000000  0.6508444  3
   1428   1429   1430   1445     1  0.0000000  0.0000000  2
   1429   1428   1421   1446     1  0.0000000  0.6508444  3
   1430   1429   1428   1441     1  0.0000000  0.6508444  3
   1430   1429   1428   1442     1  0.0000000  0.6508444  3
   1431   1425   1424   1437     1  0.0000000  3.3472000  1
   1431   1425   1424   1437     1  0.0000000  0.0000000  2
   1431   1425   1424   1437     1  180.0000771  0.3347200  3
   1431   1425   1424   1438     1  0.0000000  3.3472000  1
   1431   1425   1424   1438     1  0.0000000  0.0000000  2
   1431   1425   1424   1438     1  180.0000771  0.3347200  3
   1431   1425   2912   2927     1  0.0000000  8.3680000  1
   1431   1425   2912   2927     1  180.0000771  10.4600000  2
   1432   1427   1426   1439     1  0.0000000  3.3472000  1
   1432   1427   1426   1439     1  0.0000000  0.0000000  2
   1432   1427   1426   1439     1  180.0000771  0.3347200  3
   1432   1427   1426   1440     1  0.0000000  3.3472000  1
   1432   1427   1426   1440     1  0.0000000  0.0000000  2
   1432   1427   1426   1440     1  180.0000771  0.3347200  3
   1432   1427   2938   2953     1  0.0000000  8.3680000  1
   1432   1427   2938   2953     1  180.0000771  10.4600000  2
   1433   1422   1421   1446     1  0.0000000  0.6508444  3
   1433   1422   1424   1437     1  0.0000000  0.6508444  3
   1433   1422   1424   1438     1  0.0000000  0.6508444  3
   1434   1422   1421   1446     1  0.0000000  0.6508444  3
   1434   1422   1424   1437     1  0.0000000  0.6508444  3
   1434   1422   1424   1438     1  0.0000000  0.6508444  3
   1435   1423   1421   1446     1  0.0000000  0.6508444  3
   1435   1423   1426   1439     1  0.0000000  0.6508444  3
   1435   1423   1426   1440     1  0.0000000  0.6508444  3
   1436   1423   1421   1446     1  0.0000000  0.6508444  3
   1436   1423   1426   1439     1  0.0000000  0.6508444  3
   1436   1423   1426   1440     1  0.0000000  0.6508444  3
   1437   1424   1425   2912     1  180.0000771  0.0000000  2
   1438   1424   1425   2912     1  180.0000771  0.0000000  2
   1439   1426   1427   2938     1  180.0000771  0.0000000  2
   1440   1426   1427   2938     1  180.0000771  0.0000000  2
   1441   1428   1421   1446     1  0.0000000  0.6508444  3
   1441   1428   1429   1443     1  0.0000000  0.6508444  3
   1441   1428   1429   1444     1  0.0000000  0.6508444  3
   1442   1428   1421   1446     1  0.0000000  0.6508444  3
   1442   1428   1429   1443     1  0.0000000  0.6508444  3
   1442   1428   1429   1444     1  0.0000000  0.6508444  3
   1443   1429   1430   1445     1  0.0000000  0.0000000  2
   1444   1429   1430   1445     1  0.0000000  0.0000000  2
   1447   1448   1450   1463     1  0.0000000  0.6508444  3
   1447   1448   1450   1464     1  0.0000000  0.6508444  3
   1447   1449   1452   1465     1  0.0000000  0.6508444  3
   1447   1449   1452   1466     1  0.0000000  0.6508444  3
   1447   1454   1455   1469     1  0.0000000  0.6508444  3
   1447   1454   1455   1470     1  0.0000000  0.6508444  3
   1448   1447   1449   1461     1  0.0000000  0.6508444  3
   1448   1447   1449   1462     1  0.0000000  0.6508444  3
   1448   1447   1454   1467     1  0.0000000  0.6508444  3
   1448   1447   1454   1468     1  0.0000000  0.6508444  3
   1449   1447   1448   1459     1  0.0000000  0.6508444  3
   1449   1447   1448   1460     1  0.0000000  0.6508444  3
   1449   1447   1454   1467     1  0.0000000  0.6508444  3
   1449   1447   1454   1468     1  0.0000000  0.6508444  3
   1450   1448   1447   1472     1  0.0000000  0.6508444  3
   1450   1451   2964   2979     1  180.0000771  10.4600000  2
   1451   1450   1448   1459     1  0.0000000  0.6508444  3
   1451   1450   1448   1460     1  0.0000000  0.6508444  3
   1451   2964   2963   2977     1  0.0000000  0.0000000  2
   1451   2964   2963   2978     1  0.0000000  0.0000000  2
   1452   1449   1447   1472     1  0.0000000  0.6508444  3
   1452   1453   2990   3005     1  180.0000771  10.4600000  2
   1453   1452   1449   1461     1  0.0000000  0.6508444  3
   1453   1452   1449   1462     1  0.0000000  0.6508444  3
   1453   2990   2989   3003     1  0.0000000  0.0000000  2
   1453   2990   2989   3004     1  0.0000000  0.0000000  2
   1454   1447   1448   1459     1  0.0000000  0.6508444  3
   1454   1447   1448   1460     1  0.0000000  0.6508444  3
   1454   1447   1449   1461     1  0.0000000  0.6508444  3
   1454   1447   1449   1462     1  0.0000000  0.6508444  3
   1454   1455   1456   1471     1  0.0000000  0.0000000  2
   1455   1454   1447   1472     1  0.0000000  0.6508444  3
   1456   1455   1454   1467     1  0.0000000  0.6508444  3
   1456   1455   1454   1468     1  0.0000000  0.6508444  3
   1457   1451   1450   1463     1  0.0000000  3.3472000  1
   1457   1451   1450   1463     1  0.0000000  0.0000000  2
   1457   1451   1450   1463     1  180.0000771  0.3347200  3
   1457   1451   1450   1464     1  0.0000000  3.3472000  1
   1457   1451   1450   1464     1  0.0000000  0.0000000  2
   1457   1451   1450   1464     1  180.0000771  0.3347200  3
   1457   1451   2964   2979     1  0.0000000  8.3680000  1
   1457   1451   2964   2979     1  180.0000771  10.4600000  2
   1458   1453   1452   1465     1  0.0000000  3.3472000  1
   1458   1453   1452   1465     1  0.0000000  0.0000000  2
   1458   1453   1452   1465     1  180.0000771  0.3347200  3
   1458   1453   1452   1466     1  0.0000000  3.3472000  1
   1458   1453   1452   1466     1  0.0000000  0.0000000  2
   1458   1453   1452   1466     1  180.0000771  0.3347200  3
   1458   1453   2990   3005     1  0.0000000  8.3680000  1
   1458   1453   2990   3005     1  180.0000771  10.4600000  2
   1459   1448   1447   1472     1  0.0000000  0.6508444  3
   1459   1448   1450   1463     1  0.0000000  0.6508444  3
   1459   1448   1450   1464     1  0.0000000  0.6508444  3
   1460   1448   1447   1472     1  0.0000000  0.6508444  3
   1460   1448   1450   1463     1  0.0000000  0.6508444  3
   1460   1448   1450   1464     1  0.0000000  0.6508444  3
   1461   1449   1447   1472     1  0.0000000  0.6508444  3
   1461   1449   1452   1465     1  0.0000000  0.6508444  3
   1461   1449   1452   1466     1  0.0000000  0.6508444  3
   1462   1449   1447   1472     1  0.0000000  0.6508444  3
   1462   1449   1452   1465     1  0.0000000  0.6508444  3
   1462   1449   1452   1466     1  0.0000000  0.6508444  3
   1463   1450   1451   2964     1  180.0000771  0.0000000  2
   1464   1450   1451   2964     1  180.0000771  0.0000000  2
   1465   1452   1453   2990     1  180.0000771  0.0000000  2
   1466   1452   1453   2990     1  180.0000771  0.0000000  2
   1467   1454   1447   1472     1  0.0000000  0.6508444  3
   1467   1454   1455   1469     1  0.0000000  0.6508444  3
   1467   1454   1455   1470     1  0.0000000  0.6508444  3
   1468   1454   1447   1472     1  0.0000000  0.6508444  3
   1468   1454   1455   1469     1  0.0000000  0.6508444  3
   1468   1454   1455   1470     1  0.0000000  0.6508444  3
   1469   1455   1456   1471     1  0.0000000  0.0000000  2
   1470   1455   1456   1471     1  0.0000000  0.0000000  2
   1473   1474   1476   1489     1  0.0000000  0.6508444  3
   1473   1474   1476   1490     1  0.0000000  0.6508444  3
   1473   1475   1478   1491     1  0.0000000  0.6508444  3
   1473   1475   1478   1492     1  0.0000000  0.6508444  3
   1473   1480   1481   1495     1  0.0000000  0.6508444  3
   1473   1480   1481   1496     1  0.0000000  0.6508444  3
   1474   1473   1475   1487     1  0.0000000  0.6508444  3
   1474   1473   1475   1488     1  0.0000000  0.6508444  3
   1474   1473   1480   1493     1  0.0000000  0.6508444  3
   1474   1473   1480   1494     1  0.0000000  0.6508444  3
   1475   1473   1474   1485     1  0.0000000  0.6508444  3
   1475   1473   1474   1486     1  0.0000000  0.6508444  3
   1475   1473   1480   1493     1  0.0000000  0.6508444  3
   1475   1473   1480   1494     1  0.0000000  0.6508444  3
   1476   1474   1473   1498     1  0.0000000  0.6508444  3
   1476   1477   3016   3031     1  180.0000771  10.4600000  2
   1477   1476   1474   1485     1  0.0000000  0.6508444  3
   1477   1476   1474   1486     1  0.0000000  0.6508444  3
   1477   3016   3015   3029     1  0.0000000  0.0000000  2
   1477   3016   3015   3030     1  0.0000000  0.0000000  2
   1478   1475   1473   1498     1  0.0000000  0.6508444  3
   1478   1479   3042   3057     1  180.0000771  10.4600000  2
   1479   1478   1475   1487     1  0.0000000  0.6508444  3
   1479   1478   1475   1488     1  0.0000000  0.6508444  3
   1479   3042   3041   3055     1  0.0000000  0.0000000  2
   1479   3042   3041   3056     1  0.0000000  0.0000000  2
   1480   1473   1474   1485     1  0.0000000  0.6508444  3
   1480   1473   1474   1486     1  0.0000000  0.6508444  3
   1480   1473   1475   1487     1  0.0000000  0.6508444  3
   1480   1473   1475   1488     1  0.0000000  0.6508444  3
   1480   1481   1482   1497     1  0.0000000  0.0000000  2
   1481   1480   1473   1498     1  0.0000000  0.6508444  3
   1482   1481   1480   1493     1  0.0000000  0.6508444  3
   1482   1481   1480   1494     1  0.0000000  0.6508444  3
   1483   1477   1476   1489     1  0.0000000  3.3472000  1
   1483   1477   1476   1489     1  0.0000000  0.0000000  2
   1483   1477   1476   1489     1  180.0000771  0.3347200  3
   1483   1477   1476   1490     1  0.0000000  3.3472000  1
   1483   1477   1476   1490     1  0.0000000  0.0000000  2
   1483   1477   1476   1490     1  180.0000771  0.3347200  3
   1483   1477   3016   3031     1  0.0000000  8.3680000  1
   1483   1477   3016   3031     1  180.0000771  10.4600000  2
   1484   1479   1478   1491     1  0.0000000  3.3472000  1
   1484   1479   1478   1491     1  0.0000000  0.0000000  2
   1484   1479   1478   1491     1  180.0000771  0.3347200  3
   1484   1479   1478   1492     1  0.0000000  3.3472000  1
   1484   1479   1478   1492     1  0.0000000  0.0000000  2
   1484   1479   1478   1492     1  180.0000771  0.3347200  3
   1484   1479   3042   3057     1  0.0000000  8.3680000  1
   1484   1479   3042   3057     1  180.0000771  10.4600000  2
   1485   1474   1473   1498     1  0.0000000  0.6508444  3
   1485   1474   1476   1489     1  0.0000000  0.6508444  3
   1485   1474   1476   1490     1  0.0000000  0.6508444  3
   1486   1474   1473   1498     1  0.0000000  0.6508444  3
   1486   1474   1476   1489     1  0.0000000  0.6508444  3
   1486   1474   1476   1490     1  0.0000000  0.6508444  3
   1487   1475   1473   1498     1  0.0000000  0.6508444  3
   1487   1475   1478   1491     1  0.0000000  0.6508444  3
   1487   1475   1478   1492     1  0.0000000  0.6508444  3
   1488   1475   1473   1498     1  0.0000000  0.6508444  3
   1488   1475   1478   1491     1  0.0000000  0.6508444  3
   1488   1475   1478   1492     1  0.0000000  0.6508444  3
   1489   1476   1477   3016     1  180.0000771  0.0000000  2
   1490   1476   1477   3016     1  180.0000771  0.0000000  2
   1491   1478   1479   3042     1  180.0000771  0.0000000  2
   1492   1478   1479   3042     1  180.0000771  0.0000000  2
   1493   1480   1473   1498     1  0.0000000  0.6508444  3
   1493   1480   1481   1495     1  0.0000000  0.6508444  3
   1493   1480   1481   1496     1  0.0000000  0.6508444  3
   1494   1480   1473   1498     1  0.0000000  0.6508444  3
   1494   1480   1481   1495     1  0.0000000  0.6508444  3
   1494   1480   1481   1496     1  0.0000000  0.6508444  3
   1495   1481   1482   1497     1  0.0000000  0.0000000  2
   1496   1481   1482   1497     1  0.0000000  0.0000000  2
   1499   1500   1502   1515     1  0.0000000  0.6508444  3
   1499   1500   1502   1516     1  0.0000000  0.6508444  3
   1499   1501   1504   1517     1  0.0000000  0.6508444  3
   1499   1501   1504   1518     1  0.0000000  0.6508444  3
   1499   1506   1507   1521     1  0.0000000  0.6508444  3
   1499   1506   1507   1522     1  0.0000000  0.6508444  3
   1500   1499   1501   1513     1  0.0000000  0.6508444  3
   1500   1499   1501   1514     1  0.0000000  0.6508444  3
   1500   1499   1506   1519     1  0.0000000  0.6508444  3
   1500   1499   1506   1520     1  0.0000000  0.6508444  3
   1501   1499   1500   1511     1  0.0000000  0.6508444  3
   1501   1499   1500   1512     1  0.0000000  0.6508444  3
   1501   1499   1506   1519     1  0.0000000  0.6508444  3
   1501   1499   1506   1520     1  0.0000000  0.6508444  3
   1502   1500   1499   1524     1  0.0000000  0.6508444  3
   1502   1503   3068   3083     1  180.0000771  10.4600000  2
   1503   1502   1500   1511     1  0.0000000  0.6508444  3
   1503   1502   1500   1512     1  0.0000000  0.6508444  3
   1503   3068   3067   3081     1  0.0000000  0.0000000  2
   1503   3068   3067   3082     1  0.0000000  0.0000000  2
   1504   1501   1499   1524     1  0.0000000  0.6508444  3
   1504   1505   3094   3109     1  180.0000771  10.4600000  2
   1505   1504   1501   1513     1  0.0000000  0.6508444  3
   1505   1504   1501   1514     1  0.0000000  0.6508444  3
   1505   3094   3093   3107     1  0.0000000  0.0000000  2
   1505   3094   3093   3108     1  0.0000000  0.0000000  2
   1506   1499   1500   1511     1  0.0000000  0.6508444  3
   1506   1499   1500   1512     1  0.0000000  0.6508444  3
   1506   1499   1501   1513     1  0.0000000  0.6508444  3
   1506   1499   1501   1514     1  0.0000000  0.6508444  3
   1506   1507   1508   1523     1  0.0000000  0.0000000  2
   1507   1506   1499   1524     1  0.0000000  0.6508444  3
   1508   1507   1506   1519     1  0.0000000  0.6508444  3
   1508   1507   1506   1520     1  0.0000000  0.6508444  3
   1509   1503   1502   1515     1  0.0000000  3.3472000  1
   1509   1503   1502   1515     1  0.0000000  0.0000000  2
   1509   1503   1502   1515     1  180.0000771  0.3347200  3
   1509   1503   1502   1516     1  0.0000000  3.3472000  1
   1509   1503   1502   1516     1  0.0000000  0.0000000  2
   1509   1503   1502   1516     1  180.0000771  0.3347200  3
   1509   1503   3068   3083     1  0.0000000  8.3680000  1
   1509   1503   3068   3083     1  180.0000771  10.4600000  2
   1510   1505   1504   1517     1  0.0000000  3.3472000  1
   1510   1505   1504   1517     1  0.0000000  0.0000000  2
   1510   1505   1504   1517     1  180.0000771  0.3347200  3
   1510   1505   1504   1518     1  0.0000000  3.3472000  1
   1510   1505   1504   1518     1  0.0000000  0.0000000  2
   1510   1505   1504   1518     1  180.0000771  0.3347200  3
   1510   1505   3094   3109     1  0.0000000  8.3680000  1
   1510   1505   3094   3109     1  180.0000771  10.4600000  2
   1511   1500   1499   1524     1  0.0000000  0.6508444  3
   1511   1500   1502   1515     1  0.0000000  0.6508444  3
   1511   1500   1502   1516     1  0.0000000  0.6508444  3
   1512   1500   1499   1524     1  0.0000000  0.6508444  3
   1512   1500   1502   1515     1  0.0000000  0.6508444  3
   1512   1500   1502   1516     1  0.0000000  0.6508444  3
   1513   1501   1499   1524     1  0.0000000  0.6508444  3
   1513   1501   1504   1517     1  0.0000000  0.6508444  3
   1513   1501   1504   1518     1  0.0000000  0.6508444  3
   1514   1501   1499   1524     1  0.0000000  0.6508444  3
   1514   1501   1504   1517     1  0.0000000  0.6508444  3
   1514   1501   1504   1518     1  0.0000000  0.6508444  3
   1515   1502   1503   3068     1  180.0000771  0.0000000  2
   1516   1502   1503   3068     1  180.0000771  0.0000000  2
   1517   1504   1505   3094     1  180.0000771  0.0000000  2
   1518   1504   1505   3094     1  180.0000771  0.0000000  2
   1519   1506   1499   1524     1  0.0000000  0.6508444  3
   1519   1506   1507   1521     1  0.0000000  0.6508444  3
   1519   1506   1507   1522     1  0.0000000  0.6508444  3
   1520   1506   1499   1524     1  0.0000000  0.6508444  3
   1520   1506   1507   1521     1  0.0000000  0.6508444  3
   1520   1506   1507   1522     1  0.0000000  0.6508444  3
   1521   1507   1508   1523     1  0.0000000  0.0000000  2
   1522   1507   1508   1523     1  0.0000000  0.0000000  2
   1525   1526   1528   1541     1  0.0000000  0.6508444  3
   1525   1526   1528   1542     1  0.0000000  0.6508444  3
   1525   1527   1530   1543     1  0.0000000  0.6508444  3
   1525   1527   1530   1544     1  0.0000000  0.6508444  3
   1525   1532   1533   1547     1  0.0000000  0.6508444  3
   1525   1532   1533   1548     1  0.0000000  0.6508444  3
   1526   1525   1527   1539     1  0.0000000  0.6508444  3
   1526   1525   1527   1540     1  0.0000000  0.6508444  3
   1526   1525   1532   1545     1  0.0000000  0.6508444  3
   1526   1525   1532   1546     1  0.0000000  0.6508444  3
   1527   1525   1526   1537     1  0.0000000  0.6508444  3
   1527   1525   1526   1538     1  0.0000000  0.6508444  3
   1527   1525   1532   1545     1  0.0000000  0.6508444  3
   1527   1525   1532   1546     1  0.0000000  0.6508444  3
   1528   1526   1525   1550     1  0.0000000  0.6508444  3
   1528   1529   3120   3135     1  180.0000771  10.4600000  2
   1529   1528   1526   1537     1  0.0000000  0.6508444  3
   1529   1528   1526   1538     1  0.0000000  0.6508444  3
   1529   3120   3119   3133     1  0.0000000  0.0000000  2
   1529   3120   3119   3134     1  0.0000000  0.0000000  2
   1530   1527   1525   1550     1  0.0000000  0.6508444  3
   1530   1531   3146   3161     1  180.0000771  10.4600000  2
   1531   1530   1527   1539     1  0.0000000  0.6508444  3
   1531   1530   1527   1540     1  0.0000000  0.6508444  3
   1531   3146   3145   3159     1  0.0000000  0.0000000  2
   1531   3146   3145   3160     1  0.0000000  0.0000000  2
   1532   1525   1526   1537     1  0.0000000  0.6508444  3
   1532   1525   1526   1538     1  0.0000000  0.6508444  3
   1532   1525   1527   1539     1  0.0000000  0.6508444  3
   1532   1525   1527   1540     1  0.0000000  0.6508444  3
   1532   1533   1534   1549     1  0.0000000  0.0000000  2
   1533   1532   1525   1550     1  0.0000000  0.6508444  3
   1534   1533   1532   1545     1  0.0000000  0.6508444  3
   1534   1533   1532   1546     1  0.0000000  0.6508444  3
   1535   1529   1528   1541     1  0.0000000  3.3472000  1
   1535   1529   1528   1541     1  0.0000000  0.0000000  2
   1535   1529   1528   1541     1  180.0000771  0.3347200  3
   1535   1529   1528   1542     1  0.0000000  3.3472000  1
   1535   1529   1528   1542     1  0.0000000  0.0000000  2
   1535   1529   1528   1542     1  180.0000771  0.3347200  3
   1535   1529   3120   3135     1  0.0000000  8.3680000  1
   1535   1529   3120   3135     1  180.0000771  10.4600000  2
   1536   1531   1530   1543     1  0.0000000  3.3472000  1
   1536   1531   1530   1543     1  0.0000000  0.0000000  2
   1536   1531   1530   1543     1  180.0000771  0.3347200  3
   1536   1531   1530   1544     1  0.0000000  3.3472000  1
   1536   1531   1530   1544     1  0.0000000  0.0000000  2
   1536   1531   1530   1544     1  180.0000771  0.3347200  3
   1536   1531   3146   3161     1  0.0000000  8.3680000  1
   1536   1531   3146   3161     1  180.0000771  10.4600000  2
   1537   1526   1525   1550     1  0.0000000  0.6508444  3
   1537   1526   1528   1541     1  0.0000000  0.6508444  3
   1537   1526   1528   1542     1  0.0000000  0.6508444  3
   1538   1526   1525   1550     1  0.0000000  0.6508444  3
   1538   1526   1528   1541     1  0.0000000  0.6508444  3
   1538   1526   1528   1542     1  0.0000000  0.6508444  3
   1539   1527   1525   1550     1  0.0000000  0.6508444  3
   1539   1527   1530   1543     1  0.0000000  0.6508444  3
   1539   1527   1530   1544     1  0.0000000  0.6508444  3
   1540   1527   1525   1550     1  0.0000000  0.6508444  3
   1540   1527   1530   1543     1  0.0000000  0.6508444  3
   1540   1527   1530   1544     1  0.0000000  0.6508444  3
   1541   1528   1529   3120     1  180.0000771  0.0000000  2
   1542   1528   1529   3120     1  180.0000771  0.0000000  2
   1543   1530   1531   3146     1  180.0000771  0.0000000  2
   1544   1530   1531   3146     1  180.0000771  0.0000000  2
   1545   1532   1525   1550     1  0.0000000  0.6508444  3
   1545   1532   1533   1547     1  0.0000000  0.6508444  3
   1545   1532   1533   1548     1  0.0000000  0.6508444  3
   1546   1532   1525   1550     1  0.0000000  0.6508444  3
   1546   1532   1533   1547     1  0.0000000  0.6508444  3
   1546   1532   1533   1548     1  0.0000000  0.6508444  3
   1547   1533   1534   1549     1  0.0000000  0.0000000  2
   1548   1533   1534   1549     1  0.0000000  0.0000000  2
   1551   1552   1554   1567     1  0.0000000  0.6508444  3
   1551   1552   1554   1568     1  0.0000000  0.6508444  3
   1551   1553   1556   1569     1  0.0000000  0.6508444  3
   1551   1553   1556   1570     1  0.0000000  0.6508444  3
   1551   1558   1559   1573     1  0.0000000  0.6508444  3
   1551   1558   1559   1574     1  0.0000000  0.6508444  3
   1552   1551   1553   1565     1  0.0000000  0.6508444  3
   1552   1551   1553   1566     1  0.0000000  0.6508444  3
   1552   1551   1558   1571     1  0.0000000  0.6508444  3
   1552   1551   1558   1572     1  0.0000000  0.6508444  3
   1553   1551   1552   1563     1  0.0000000  0.6508444  3
   1553   1551   1552   1564     1  0.0000000  0.6508444  3
   1553   1551   1558   1571     1  0.0000000  0.6508444  3
   1553   1551   1558   1572     1  0.0000000  0.6508444  3
   1554   1552   1551   1576     1  0.0000000  0.6508444  3
   1554   1555   3172   3187     1  180.0000771  10.4600000  2
   1555   1554   1552   1563     1  0.0000000  0.6508444  3
   1555   1554   1552   1564     1  0.0000000  0.6508444  3
   1555   3172   3171   3185     1  0.0000000  0.0000000  2
   1555   3172   3171   3186     1  0.0000000  0.0000000  2
   1556   1553   1551   1576     1  0.0000000  0.6508444  3
   1556   1557   3198   3213     1  180.0000771  10.4600000  2
   1557   1556   1553   1565     1  0.0000000  0.6508444  3
   1557   1556   1553   1566     1  0.0000000  0.6508444  3
   1557   3198   3197   3211     1  0.0000000  0.0000000  2
   1557   3198   3197   3212     1  0.0000000  0.0000000  2
   1558   1551   1552   1563     1  0.0000000  0.6508444  3
   1558   1551   1552   1564     1  0.0000000  0.6508444  3
   1558   1551   1553   1565     1  0.0000000  0.6508444  3
   1558   1551   1553   1566     1  0.0000000  0.6508444  3
   1558   1559   1560   1575     1  0.0000000  0.0000000  2
   1559   1558   1551   1576     1  0.0000000  0.6508444  3
   1560   1559   1558   1571     1  0.0000000  0.6508444  3
   1560   1559   1558   1572     1  0.0000000  0.6508444  3
   1561   1555   1554   1567     1  0.0000000  3.3472000  1
   1561   1555   1554   1567     1  0.0000000  0.0000000  2
   1561   1555   1554   1567     1  180.0000771  0.3347200  3
   1561   1555   1554   1568     1  0.0000000  3.3472000  1
   1561   1555   1554   1568     1  0.0000000  0.0000000  2
   1561   1555   1554   1568     1  180.0000771  0.3347200  3
   1561   1555   3172   3187     1  0.0000000  8.3680000  1
   1561   1555   3172   3187     1  180.0000771  10.4600000  2
   1562   1557   1556   1569     1  0.0000000  3.3472000  1
   1562   1557   1556   1569     1  0.0000000  0.0000000  2
   1562   1557   1556   1569     1  180.0000771  0.3347200  3
   1562   1557   1556   1570     1  0.0000000  3.3472000  1
   1562   1557   1556   1570     1  0.0000000  0.0000000  2
   1562   1557   1556   1570     1  180.0000771  0.3347200  3
   1562   1557   3198   3213     1  0.0000000  8.3680000  1
   1562   1557   3198   3213     1  180.0000771  10.4600000  2
   1563   1552   1551   1576     1  0.0000000  0.6508444  3
   1563   1552   1554   1567     1  0.0000000  0.6508444  3
   1563   1552   1554   1568     1  0.0000000  0.6508444  3
   1564   1552   1551   1576     1  0.0000000  0.6508444  3
   1564   1552   1554   1567     1  0.0000000  0.6508444  3
   1564   1552   1554   1568     1  0.0000000  0.6508444  3
   1565   1553   1551   1576     1  0.0000000  0.6508444  3
   1565   1553   1556   1569     1  0.0000000  0.6508444  3
   1565   1553   1556   1570     1  0.0000000  0.6508444  3
   1566   1553   1551   1576     1  0.0000000  0.6508444  3
   1566   1553   1556   1569     1  0.0000000  0.6508444  3
   1566   1553   1556   1570     1  0.0000000  0.6508444  3
   1567   1554   1555   3172     1  180.0000771  0.0000000  2
   1568   1554   1555   3172     1  180.0000771  0.0000000  2
   1569   1556   1557   3198     1  180.0000771  0.0000000  2
   1570   1556   1557   3198     1  180.0000771  0.0000000  2
   1571   1558   1551   1576     1  0.0000000  0.6508444  3
   1571   1558   1559   1573     1  0.0000000  0.6508444  3
   1571   1558   1559   1574     1  0.0000000  0.6508444  3
   1572   1558   1551   1576     1  0.0000000  0.6508444  3
   1572   1558   1559   1573     1  0.0000000  0.6508444  3
   1572   1558   1559   1574     1  0.0000000  0.6508444  3
   1573   1559   1560   1575     1  0.0000000  0.0000000  2
   1574   1559   1560   1575     1  0.0000000  0.0000000  2
   1577   1578   1580   1593     1  0.0000000  0.6508444  3
   1577   1578   1580   1594     1  0.0000000  0.6508444  3
   1577   1579   1582   1595     1  0.0000000  0.6508444  3
   1577   1579   1582   1596     1  0.0000000  0.6508444  3
   1577   1584   1585   1599     1  0.0000000  0.6508444  3
   1577   1584   1585   1600     1  0.0000000  0.6508444  3
   1578   1577   1579   1591     1  0.0000000  0.6508444  3
   1578   1577   1579   1592     1  0.0000000  0.6508444  3
   1578   1577   1584   1597     1  0.0000000  0.6508444  3
   1578   1577   1584   1598     1  0.0000000  0.6508444  3
   1579   1577   1578   1589     1  0.0000000  0.6508444  3
   1579   1577   1578   1590     1  0.0000000  0.6508444  3
   1579   1577   1584   1597     1  0.0000000  0.6508444  3
   1579   1577   1584   1598     1  0.0000000  0.6508444  3
   1580   1578   1577   1602     1  0.0000000  0.6508444  3
   1580   1581   3224   3239     1  180.0000771  10.4600000  2
   1581   1580   1578   1589     1  0.0000000  0.6508444  3
   1581   1580   1578   1590     1  0.0000000  0.6508444  3
   1581   3224   3223   3237     1  0.0000000  0.0000000  2
   1581   3224   3223   3238     1  0.0000000  0.0000000  2
   1582   1579   1577   1602     1  0.0000000  0.6508444  3
   1582   1583   3250   3265     1  180.0000771  10.4600000  2
   1583   1582   1579   1591     1  0.0000000  0.6508444  3
   1583   1582   1579   1592     1  0.0000000  0.6508444  3
   1583   3250   3249   3263     1  0.0000000  0.0000000  2
   1583   3250   3249   3264     1  0.0000000  0.0000000  2
   1584   1577   1578   1589     1  0.0000000  0.6508444  3
   1584   1577   1578   1590     1  0.0000000  0.6508444  3
   1584   1577   1579   1591     1  0.0000000  0.6508444  3
   1584   1577   1579   1592     1  0.0000000  0.6508444  3
   1584   1585   1586   1601     1  0.0000000  0.0000000  2
   1585   1584   1577   1602     1  0.0000000  0.6508444  3
   1586   1585   1584   1597     1  0.0000000  0.6508444  3
   1586   1585   1584   1598     1  0.0000000  0.6508444  3
   1587   1581   1580   1593     1  0.0000000  3.3472000  1
   1587   1581   1580   1593     1  0.0000000  0.0000000  2
   1587   1581   1580   1593     1  180.0000771  0.3347200  3
   1587   1581   1580   1594     1  0.0000000  3.3472000  1
   1587   1581   1580   1594     1  0.0000000  0.0000000  2
   1587   1581   1580   1594     1  180.0000771  0.3347200  3
   1587   1581   3224   3239     1  0.0000000  8.3680000  1
   1587   1581   3224   3239     1  180.0000771  10.4600000  2
   1588   1583   1582   1595     1  0.0000000  3.3472000  1
   1588   1583   1582   1595     1  0.0000000  0.0000000  2
   1588   1583   1582   1595     1  180.0000771  0.3347200  3
   1588   1583   1582   1596     1  0.0000000  3.3472000  1
   1588   1583   1582   1596     1  0.0000000  0.0000000  2
   1588   1583   1582   1596     1  180.0000771  0.3347200  3
   1588   1583   3250   3265     1  0.0000000  8.3680000  1
   1588   1583   3250   3265     1  180.0000771  10.4600000  2
   1589   1578   1577   1602     1  0.0000000  0.6508444  3
   1589   1578   1580   1593     1  0.0000000  0.6508444  3
   1589   1578   1580   1594     1  0.0000000  0.6508444  3
   1590   1578   1577   1602     1  0.0000000  0.6508444  3
   1590   1578   1580   1593     1  0.0000000  0.6508444  3
   1590   1578   1580   1594     1  0.0000000  0.6508444  3
   1591   1579   1577   1602     1  0.0000000  0.6508444  3
   1591   1579   1582   1595     1  0.0000000  0.6508444  3
   1591   1579   1582   1596     1  0.0000000  0.6508444  3
   1592   1579   1577   1602     1  0.0000000  0.6508444  3
   1592   1579   1582   1595     1  0.0000000  0.6508444  3
   1592   1579   1582   1596     1  0.0000000  0.6508444  3
   1593   1580   1581   3224     1  180.0000771  0.0000000  2
   1594   1580   1581   3224     1  180.0000771  0.0000000  2
   1595   1582   1583   3250     1  180.0000771  0.0000000  2
   1596   1582   1583   3250     1  180.0000771  0.0000000  2
   1597   1584   1577   1602     1  0.0000000  0.6508444  3
   1597   1584   1585   1599     1  0.0000000  0.6508444  3
   1597   1584   1585   1600     1  0.0000000  0.6508444  3
   1598   1584   1577   1602     1  0.0000000  0.6508444  3
   1598   1584   1585   1599     1  0.0000000  0.6508444  3
   1598   1584   1585   1600     1  0.0000000  0.6508444  3
   1599   1585   1586   1601     1  0.0000000  0.0000000  2
   1600   1585   1586   1601     1  0.0000000  0.0000000  2
   1603   1604   1606   1619     1  0.0000000  0.6508444  3
   1603   1604   1606   1620     1  0.0000000  0.6508444  3
   1603   1605   1608   1621     1  0.0000000  0.6508444  3
   1603   1605   1608   1622     1  0.0000000  0.6508444  3
   1603   1610   1611   1625     1  0.0000000  0.6508444  3
   1603   1610   1611   1626     1  0.0000000  0.6508444  3
   1604   1603   1605   1617     1  0.0000000  0.6508444  3
   1604   1603   1605   1618     1  0.0000000  0.6508444  3
   1604   1603   1610   1623     1  0.0000000  0.6508444  3
   1604   1603   1610   1624     1  0.0000000  0.6508444  3
   1605   1603   1604   1615     1  0.0000000  0.6508444  3
   1605   1603   1604   1616     1  0.0000000  0.6508444  3
   1605   1603   1610   1623     1  0.0000000  0.6508444  3
   1605   1603   1610   1624     1  0.0000000  0.6508444  3
   1606   1604   1603   1628     1  0.0000000  0.6508444  3
   1606   1607   3267   3268     1  180.0000771  10.4600000  2
   1607   1606   1604   1615     1  0.0000000  0.6508444  3
   1607   1606   1604   1616     1  0.0000000  0.6508444  3
   1607   3267   3269   3270     1  0.0000000  0.0000000  2
   1607   3267   3269   3272     1  0.0000000  0.0000000  2
   1608   1605   1603   1628     1  0.0000000  0.6508444  3
   1608   1609   3297   3298     1  180.0000771  10.4600000  2
   1609   1608   1605   1617     1  0.0000000  0.6508444  3
   1609   1608   1605   1618     1  0.0000000  0.6508444  3
   1609   3297   3299   3300     1  0.0000000  0.0000000  2
   1609   3297   3299   3302     1  0.0000000  0.0000000  2
   1610   1603   1604   1615     1  0.0000000  0.6508444  3
   1610   1603   1604   1616     1  0.0000000  0.6508444  3
   1610   1603   1605   1617     1  0.0000000  0.6508444  3
   1610   1603   1605   1618     1  0.0000000  0.6508444  3
   1610   1611   1612   1627     1  0.0000000  0.0000000  2
   1611   1610   1603   1628     1  0.0000000  0.6508444  3
   1612   1611   1610   1623     1  0.0000000  0.6508444  3
   1612   1611   1610   1624     1  0.0000000  0.6508444  3
   1613   1607   1606   1619     1  0.0000000  3.3472000  1
   1613   1607   1606   1619     1  0.0000000  0.0000000  2
   1613   1607   1606   1619     1  180.0000771  0.3347200  3
   1613   1607   1606   1620     1  0.0000000  3.3472000  1
   1613   1607   1606   1620     1  0.0000000  0.0000000  2
   1613   1607   1606   1620     1  180.0000771  0.3347200  3
   1613   1607   3267   3268     1  0.0000000  8.3680000  1
   1613   1607   3267   3268     1  180.0000771  10.4600000  2
   1614   1609   1608   1621     1  0.0000000  3.3472000  1
   1614   1609   1608   1621     1  0.0000000  0.0000000  2
   1614   1609   1608   1621     1  180.0000771  0.3347200  3
   1614   1609   1608   1622     1  0.0000000  3.3472000  1
   1614   1609   1608   1622     1  0.0000000  0.0000000  2
   1614   1609   1608   1622     1  180.0000771  0.3347200  3
   1614   1609   3297   3298     1  0.0000000  8.3680000  1
   1614   1609   3297   3298     1  180.0000771  10.4600000  2
   1615   1604   1603   1628     1  0.0000000  0.6508444  3
   1615   1604   1606   1619     1  0.0000000  0.6508444  3
   1615   1604   1606   1620     1  0.0000000  0.6508444  3
   1616   1604   1603   1628     1  0.0000000  0.6508444  3
   1616   1604   1606   1619     1  0.0000000  0.6508444  3
   1616   1604   1606   1620     1  0.0000000  0.6508444  3
   1617   1605   1603   1628     1  0.0000000  0.6508444  3
   1617   1605   1608   1621     1  0.0000000  0.6508444  3
   1617   1605   1608   1622     1  0.0000000  0.6508444  3
   1618   1605   1603   1628     1  0.0000000  0.6508444  3
   1618   1605   1608   1621     1  0.0000000  0.6508444  3
   1618   1605   1608   1622     1  0.0000000  0.6508444  3
   1619   1606   1607   3267     1  180.0000771  0.0000000  2
   1620   1606   1607   3267     1  180.0000771  0.0000000  2
   1621   1608   1609   3297     1  180.0000771  0.0000000  2
   1622   1608   1609   3297     1  180.0000771  0.0000000  2
   1623   1610   1603   1628     1  0.0000000  0.6508444  3
   1623   1610   1611   1625     1  0.0000000  0.6508444  3
   1623   1610   1611   1626     1  0.0000000  0.6508444  3
   1624   1610   1603   1628     1  0.0000000  0.6508444  3
   1624   1610   1611   1625     1  0.0000000  0.6508444  3
   1624   1610   1611   1626     1  0.0000000  0.6508444  3
   1625   1611   1612   1627     1  0.0000000  0.0000000  2
   1626   1611   1612   1627     1  0.0000000  0.0000000  2
   1629   1630   1632   1645     1  0.0000000  0.6508444  3
   1629   1630   1632   1646     1  0.0000000  0.6508444  3
   1629   1631   1634   1647     1  0.0000000  0.6508444  3
   1629   1631   1634   1648     1  0.0000000  0.6508444  3
   1629   1636   1637   1651     1  0.0000000  0.6508444  3
   1629   1636   1637   1652     1  0.0000000  0.6508444  3
   1630   1629   1631   1643     1  0.0000000  0.6508444  3
   1630   1629   1631   1644     1  0.0000000  0.6508444  3
   1630   1629   1636   1649     1  0.0000000  0.6508444  3
   1630   1629   1636   1650     1  0.0000000  0.6508444  3
   1631   1629   1630   1641     1  0.0000000  0.6508444  3
   1631   1629   1630   1642     1  0.0000000  0.6508444  3
   1631   1629   1636   1649     1  0.0000000  0.6508444  3
   1631   1629   1636   1650     1  0.0000000  0.6508444  3
   1632   1630   1629   1654     1  0.0000000  0.6508444  3
   1632   1633   3327   3328     1  180.0000771  10.4600000  2
   1633   1632   1630   1641     1  0.0000000  0.6508444  3
   1633   1632   1630   1642     1  0.0000000  0.6508444  3
   1633   3327   3329   3330     1  0.0000000  0.0000000  2
   1633   3327   3329   3332     1  0.0000000  0.0000000  2
   1634   1631   1629   1654     1  0.0000000  0.6508444  3
   1634   1635   3357   3358     1  180.0000771  10.4600000  2
   1635   1634   1631   1643     1  0.0000000  0.6508444  3
   1635   1634   1631   1644     1  0.0000000  0.6508444  3
   1635   3357   3359   3360     1  0.0000000  0.0000000  2
   1635   3357   3359   3362     1  0.0000000  0.0000000  2
   1636   1629   1630   1641     1  0.0000000  0.6508444  3
   1636   1629   1630   1642     1  0.0000000  0.6508444  3
   1636   1629   1631   1643     1  0.0000000  0.6508444  3
   1636   1629   1631   1644     1  0.0000000  0.6508444  3
   1636   1637   1638   1653     1  0.0000000  0.0000000  2
   1637   1636   1629   1654     1  0.0000000  0.6508444  3
   1638   1637   1636   1649     1  0.0000000  0.6508444  3
   1638   1637   1636   1650     1  0.0000000  0.6508444  3
   1639   1633   1632   1645     1  0.0000000  3.3472000  1
   1639   1633   1632   1645     1  0.0000000  0.0000000  2
   1639   1633   1632   1645     1  180.0000771  0.3347200  3
   1639   1633   1632   1646     1  0.0000000  3.3472000  1
   1639   1633   1632   1646     1  0.0000000  0.0000000  2
   1639   1633   1632   1646     1  180.0000771  0.3347200  3
   1639   1633   3327   3328     1  0.0000000  8.3680000  1
   1639   1633   3327   3328     1  180.0000771  10.4600000  2
   1640   1635   1634   1647     1  0.0000000  3.3472000  1
   1640   1635   1634   1647     1  0.0000000  0.0000000  2
   1640   1635   1634   1647     1  180.0000771  0.3347200  3
   1640   1635   1634   1648     1  0.0000000  3.3472000  1
   1640   1635   1634   1648     1  0.0000000  0.0000000  2
   1640   1635   1634   1648     1  180.0000771  0.3347200  3
   1640   1635   3357   3358     1  0.0000000  8.3680000  1
   1640   1635   3357   3358     1  180.0000771  10.4600000  2
   1641   1630   1629   1654     1  0.0000000  0.6508444  3
   1641   1630   1632   1645     1  0.0000000  0.6508444  3
   1641   1630   1632   1646     1  0.0000000  0.6508444  3
   1642   1630   1629   1654     1  0.0000000  0.6508444  3
   1642   1630   1632   1645     1  0.0000000  0.6508444  3
   1642   1630   1632   1646     1  0.0000000  0.6508444  3
   1643   1631   1629   1654     1  0.0000000  0.6508444  3
   1643   1631   1634   1647     1  0.0000000  0.6508444  3
   1643   1631   1634   1648     1  0.0000000  0.6508444  3
   1644   1631   1629   1654     1  0.0000000  0.6508444  3
   1644   1631   1634   1647     1  0.0000000  0.6508444  3
   1644   1631   1634   1648     1  0.0000000  0.6508444  3
   1645   1632   1633   3327     1  180.0000771  0.0000000  2
   1646   1632   1633   3327     1  180.0000771  0.0000000  2
   1647   1634   1635   3357     1  180.0000771  0.0000000  2
   1648   1634   1635   3357     1  180.0000771  0.0000000  2
   1649   1636   1629   1654     1  0.0000000  0.6508444  3
   1649   1636   1637   1651     1  0.0000000  0.6508444  3
   1649   1636   1637   1652     1  0.0000000  0.6508444  3
   1650   1636   1629   1654     1  0.0000000  0.6508444  3
   1650   1636   1637   1651     1  0.0000000  0.6508444  3
   1650   1636   1637   1652     1  0.0000000  0.6508444  3
   1651   1637   1638   1653     1  0.0000000  0.0000000  2
   1652   1637   1638   1653     1  0.0000000  0.0000000  2
   1655   1656   1658   1671     1  0.0000000  0.6508444  3
   1655   1656   1658   1672     1  0.0000000  0.6508444  3
   1655   1657   1660   1673     1  0.0000000  0.6508444  3
   1655   1657   1660   1674     1  0.0000000  0.6508444  3
   1655   1662   1663   1677     1  0.0000000  0.6508444  3
   1655   1662   1663   1678     1  0.0000000  0.6508444  3
   1656   1655   1657   1669     1  0.0000000  0.6508444  3
   1656   1655   1657   1670     1  0.0000000  0.6508444  3
   1656   1655   1662   1675     1  0.0000000  0.6508444  3
   1656   1655   1662   1676     1  0.0000000  0.6508444  3
   1657   1655   1656   1667     1  0.0000000  0.6508444  3
   1657   1655   1656   1668     1  0.0000000  0.6508444  3
   1657   1655   1662   1675     1  0.0000000  0.6508444  3
   1657   1655   1662   1676     1  0.0000000  0.6508444  3
   1658   1656   1655   1680     1  0.0000000  0.6508444  3
   1658   1659   3387   3388     1  180.0000771  10.4600000  2
   1659   1658   1656   1667     1  0.0000000  0.6508444  3
   1659   1658   1656   1668     1  0.0000000  0.6508444  3
   1659   3387   3389   3390     1  0.0000000  0.0000000  2
   1659   3387   3389   3392     1  0.0000000  0.0000000  2
   1660   1657   1655   1680     1  0.0000000  0.6508444  3
   1660   1661   3417   3418     1  180.0000771  10.4600000  2
   1661   1660   1657   1669     1  0.0000000  0.6508444  3
   1661   1660   1657   1670     1  0.0000000  0.6508444  3
   1661   3417   3419   3420     1  0.0000000  0.0000000  2
   1661   3417   3419   3422     1  0.0000000  0.0000000  2
   1662   1655   1656   1667     1  0.0000000  0.6508444  3
   1662   1655   1656   1668     1  0.0000000  0.6508444  3
   1662   1655   1657   1669     1  0.0000000  0.6508444  3
   1662   1655   1657   1670     1  0.0000000  0.6508444  3
   1662   1663   1664   1679     1  0.0000000  0.0000000  2
   1663   1662   1655   1680     1  0.0000000  0.6508444  3
   1664   1663   1662   1675     1  0.0000000  0.6508444  3
   1664   1663   1662   1676     1  0.0000000  0.6508444  3
   1665   1659   1658   1671     1  0.0000000  3.3472000  1
   1665   1659   1658   1671     1  0.0000000  0.0000000  2
   1665   1659   1658   1671     1  180.0000771  0.3347200  3
   1665   1659   1658   1672     1  0.0000000  3.3472000  1
   1665   1659   1658   1672     1  0.0000000  0.0000000  2
   1665   1659   1658   1672     1  180.0000771  0.3347200  3
   1665   1659   3387   3388     1  0.0000000  8.3680000  1
   1665   1659   3387   3388     1  180.0000771  10.4600000  2
   1666   1661   1660   1673     1  0.0000000  3.3472000  1
   1666   1661   1660   1673     1  0.0000000  0.0000000  2
   1666   1661   1660   1673     1  180.0000771  0.3347200  3
   1666   1661   1660   1674     1  0.0000000  3.3472000  1
   1666   1661   1660   1674     1  0.0000000  0.0000000  2
   1666   1661   1660   1674     1  180.0000771  0.3347200  3
   1666   1661   3417   3418     1  0.0000000  8.3680000  1
   1666   1661   3417   3418     1  180.0000771  10.4600000  2
   1667   1656   1655   1680     1  0.0000000  0.6508444  3
   1667   1656   1658   1671     1  0.0000000  0.6508444  3
   1667   1656   1658   1672     1  0.0000000  0.6508444  3
   1668   1656   1655   1680     1  0.0000000  0.6508444  3
   1668   1656   1658   1671     1  0.0000000  0.6508444  3
   1668   1656   1658   1672     1  0.0000000  0.6508444  3
   1669   1657   1655   1680     1  0.0000000  0.6508444  3
   1669   1657   1660   1673     1  0.0000000  0.6508444  3
   1669   1657   1660   1674     1  0.0000000  0.6508444  3
   1670   1657   1655   1680     1  0.0000000  0.6508444  3
   1670   1657   1660   1673     1  0.0000000  0.6508444  3
   1670   1657   1660   1674     1  0.0000000  0.6508444  3
   1671   1658   1659   3387     1  180.0000771  0.0000000  2
   1672   1658   1659   3387     1  180.0000771  0.0000000  2
   1673   1660   1661   3417     1  180.0000771  0.0000000  2
   1674   1660   1661   3417     1  180.0000771  0.0000000  2
   1675   1662   1655   1680     1  0.0000000  0.6508444  3
   1675   1662   1663   1677     1  0.0000000  0.6508444  3
   1675   1662   1663   1678     1  0.0000000  0.6508444  3
   1676   1662   1655   1680     1  0.0000000  0.6508444  3
   1676   1662   1663   1677     1  0.0000000  0.6508444  3
   1676   1662   1663   1678     1  0.0000000  0.6508444  3
   1677   1663   1664   1679     1  0.0000000  0.0000000  2
   1678   1663   1664   1679     1  0.0000000  0.0000000  2
   1681   1682   1684   1697     1  0.0000000  0.6508444  3
   1681   1682   1684   1698     1  0.0000000  0.6508444  3
   1681   1683   1686   1699     1  0.0000000  0.6508444  3
   1681   1683   1686   1700     1  0.0000000  0.6508444  3
   1681   1688   1689   1703     1  0.0000000  0.6508444  3
   1681   1688   1689   1704     1  0.0000000  0.6508444  3
   1682   1681   1683   1695     1  0.0000000  0.6508444  3
   1682   1681   1683   1696     1  0.0000000  0.6508444  3
   1682   1681   1688   1701     1  0.0000000  0.6508444  3
   1682   1681   1688   1702     1  0.0000000  0.6508444  3
   1683   1681   1682   1693     1  0.0000000  0.6508444  3
   1683   1681   1682   1694     1  0.0000000  0.6508444  3
   1683   1681   1688   1701     1  0.0000000  0.6508444  3
   1683   1681   1688   1702     1  0.0000000  0.6508444  3
   1684   1682   1681   1706     1  0.0000000  0.6508444  3
   1684   1685   3447   3448     1  180.0000771  10.4600000  2
   1685   1684   1682   1693     1  0.0000000  0.6508444  3
   1685   1684   1682   1694     1  0.0000000  0.6508444  3
   1685   3447   3449   3450     1  0.0000000  0.0000000  2
   1685   3447   3449   3452     1  0.0000000  0.0000000  2
   1686   1683   1681   1706     1  0.0000000  0.6508444  3
   1686   1687   3477   3478     1  180.0000771  10.4600000  2
   1687   1686   1683   1695     1  0.0000000  0.6508444  3
   1687   1686   1683   1696     1  0.0000000  0.6508444  3
   1687   3477   3479   3480     1  0.0000000  0.0000000  2
   1687   3477   3479   3482     1  0.0000000  0.0000000  2
   1688   1681   1682   1693     1  0.0000000  0.6508444  3
   1688   1681   1682   1694     1  0.0000000  0.6508444  3
   1688   1681   1683   1695     1  0.0000000  0.6508444  3
   1688   1681   1683   1696     1  0.0000000  0.6508444  3
   1688   1689   1690   1705     1  0.0000000  0.0000000  2
   1689   1688   1681   1706     1  0.0000000  0.6508444  3
   1690   1689   1688   1701     1  0.0000000  0.6508444  3
   1690   1689   1688   1702     1  0.0000000  0.6508444  3
   1691   1685   1684   1697     1  0.0000000  3.3472000  1
   1691   1685   1684   1697     1  0.0000000  0.0000000  2
   1691   1685   1684   1697     1  180.0000771  0.3347200  3
   1691   1685   1684   1698     1  0.0000000  3.3472000  1
   1691   1685   1684   1698     1  0.0000000  0.0000000  2
   1691   1685   1684   1698     1  180.0000771  0.3347200  3
   1691   1685   3447   3448     1  0.0000000  8.3680000  1
   1691   1685   3447   3448     1  180.0000771  10.4600000  2
   1692   1687   1686   1699     1  0.0000000  3.3472000  1
   1692   1687   1686   1699     1  0.0000000  0.0000000  2
   1692   1687   1686   1699     1  180.0000771  0.3347200  3
   1692   1687   1686   1700     1  0.0000000  3.3472000  1
   1692   1687   1686   1700     1  0.0000000  0.0000000  2
   1692   1687   1686   1700     1  180.0000771  0.3347200  3
   1692   1687   3477   3478     1  0.0000000  8.3680000  1
   1692   1687   3477   3478     1  180.0000771  10.4600000  2
   1693   1682   1681   1706     1  0.0000000  0.6508444  3
   1693   1682   1684   1697     1  0.0000000  0.6508444  3
   1693   1682   1684   1698     1  0.0000000  0.6508444  3
   1694   1682   1681   1706     1  0.0000000  0.6508444  3
   1694   1682   1684   1697     1  0.0000000  0.6508444  3
   1694   1682   1684   1698     1  0.0000000  0.6508444  3
   1695   1683   1681   1706     1  0.0000000  0.6508444  3
   1695   1683   1686   1699     1  0.0000000  0.6508444  3
   1695   1683   1686   1700     1  0.0000000  0.6508444  3
   1696   1683   1681   1706     1  0.0000000  0.6508444  3
   1696   1683   1686   1699     1  0.0000000  0.6508444  3
   1696   1683   1686   1700     1  0.0000000  0.6508444  3
   1697   1684   1685   3447     1  180.0000771  0.0000000  2
   1698   1684   1685   3447     1  180.0000771  0.0000000  2
   1699   1686   1687   3477     1  180.0000771  0.0000000  2
   1700   1686   1687   3477     1  180.0000771  0.0000000  2
   1701   1688   1681   1706     1  0.0000000  0.6508444  3
   1701   1688   1689   1703     1  0.0000000  0.6508444  3
   1701   1688   1689   1704     1  0.0000000  0.6508444  3
   1702   1688   1681   1706     1  0.0000000  0.6508444  3
   1702   1688   1689   1703     1  0.0000000  0.6508444  3
   1702   1688   1689   1704     1  0.0000000  0.6508444  3
   1703   1689   1690   1705     1  0.0000000  0.0000000  2
   1704   1689   1690   1705     1  0.0000000  0.0000000  2
   1707   1708   1710   1723     1  0.0000000  0.6508444  3
   1707   1708   1710   1724     1  0.0000000  0.6508444  3
   1707   1709   1712   1725     1  0.0000000  0.6508444  3
   1707   1709   1712   1726     1  0.0000000  0.6508444  3
   1707   1714   1715   1729     1  0.0000000  0.6508444  3
   1707   1714   1715   1730     1  0.0000000  0.6508444  3
   1708   1707   1709   1721     1  0.0000000  0.6508444  3
   1708   1707   1709   1722     1  0.0000000  0.6508444  3
   1708   1707   1714   1727     1  0.0000000  0.6508444  3
   1708   1707   1714   1728     1  0.0000000  0.6508444  3
   1709   1707   1708   1719     1  0.0000000  0.6508444  3
   1709   1707   1708   1720     1  0.0000000  0.6508444  3
   1709   1707   1714   1727     1  0.0000000  0.6508444  3
   1709   1707   1714   1728     1  0.0000000  0.6508444  3
   1710   1708   1707   1732     1  0.0000000  0.6508444  3
   1710   1711   3507   3508     1  180.0000771  10.4600000  2
   1711   1710   1708   1719     1  0.0000000  0.6508444  3
   1711   1710   1708   1720     1  0.0000000  0.6508444  3
   1711   3507   3509   3510     1  0.0000000  0.0000000  2
   1711   3507   3509   3512     1  0.0000000  0.0000000  2
   1712   1709   1707   1732     1  0.0000000  0.6508444  3
   1712   1713   3537   3538     1  180.0000771  10.4600000  2
   1713   1712   1709   1721     1  0.0000000  0.6508444  3
   1713   1712   1709   1722     1  0.0000000  0.6508444  3
   1713   3537   3539   3540     1  0.0000000  0.0000000  2
   1713   3537   3539   3542     1  0.0000000  0.0000000  2
   1714   1707   1708   1719     1  0.0000000  0.6508444  3
   1714   1707   1708   1720     1  0.0000000  0.6508444  3
   1714   1707   1709   1721     1  0.0000000  0.6508444  3
   1714   1707   1709   1722     1  0.0000000  0.6508444  3
   1714   1715   1716   1731     1  0.0000000  0.0000000  2
   1715   1714   1707   1732     1  0.0000000  0.6508444  3
   1716   1715   1714   1727     1  0.0000000  0.6508444  3
   1716   1715   1714   1728     1  0.0000000  0.6508444  3
   1717   1711   1710   1723     1  0.0000000  3.3472000  1
   1717   1711   1710   1723     1  0.0000000  0.0000000  2
   1717   1711   1710   1723     1  180.0000771  0.3347200  3
   1717   1711   1710   1724     1  0.0000000  3.3472000  1
   1717   1711   1710   1724     1  0.0000000  0.0000000  2
   1717   1711   1710   1724     1  180.0000771  0.3347200  3
   1717   1711   3507   3508     1  0.0000000  8.3680000  1
   1717   1711   3507   3508     1  180.0000771  10.4600000  2
   1718   1713   1712   1725     1  0.0000000  3.3472000  1
   1718   1713   1712   1725     1  0.0000000  0.0000000  2
   1718   1713   1712   1725     1  180.0000771  0.3347200  3
   1718   1713   1712   1726     1  0.0000000  3.3472000  1
   1718   1713   1712   1726     1  0.0000000  0.0000000  2
   1718   1713   1712   1726     1  180.0000771  0.3347200  3
   1718   1713   3537   3538     1  0.0000000  8.3680000  1
   1718   1713   3537   3538     1  180.0000771  10.4600000  2
   1719   1708   1707   1732     1  0.0000000  0.6508444  3
   1719   1708   1710   1723     1  0.0000000  0.6508444  3
   1719   1708   1710   1724     1  0.0000000  0.6508444  3
   1720   1708   1707   1732     1  0.0000000  0.6508444  3
   1720   1708   1710   1723     1  0.0000000  0.6508444  3
   1720   1708   1710   1724     1  0.0000000  0.6508444  3
   1721   1709   1707   1732     1  0.0000000  0.6508444  3
   1721   1709   1712   1725     1  0.0000000  0.6508444  3
   1721   1709   1712   1726     1  0.0000000  0.6508444  3
   1722   1709   1707   1732     1  0.0000000  0.6508444  3
   1722   1709   1712   1725     1  0.0000000  0.6508444  3
   1722   1709   1712   1726     1  0.0000000  0.6508444  3
   1723   1710   1711   3507     1  180.0000771  0.0000000  2
   1724   1710   1711   3507     1  180.0000771  0.0000000  2
   1725   1712   1713   3537     1  180.0000771  0.0000000  2
   1726   1712   1713   3537     1  180.0000771  0.0000000  2
   1727   1714   1707   1732     1  0.0000000  0.6508444  3
   1727   1714   1715   1729     1  0.0000000  0.6508444  3
   1727   1714   1715   1730     1  0.0000000  0.6508444  3
   1728   1714   1707   1732     1  0.0000000  0.6508444  3
   1728   1714   1715   1729     1  0.0000000  0.6508444  3
   1728   1714   1715   1730     1  0.0000000  0.6508444  3
   1729   1715   1716   1731     1  0.0000000  0.0000000  2
   1730   1715   1716   1731     1  0.0000000  0.0000000  2
   1733   1734   1736   1749     1  0.0000000  0.6508444  3
   1733   1734   1736   1750     1  0.0000000  0.6508444  3
   1733   1735   1738   1751     1  0.0000000  0.6508444  3
   1733   1735   1738   1752     1  0.0000000  0.6508444  3
   1733   1740   1741   1755     1  0.0000000  0.6508444  3
   1733   1740   1741   1756     1  0.0000000  0.6508444  3
   1734   1733   1735   1747     1  0.0000000  0.6508444  3
   1734   1733   1735   1748     1  0.0000000  0.6508444  3
   1734   1733   1740   1753     1  0.0000000  0.6508444  3
   1734   1733   1740   1754     1  0.0000000  0.6508444  3
   1735   1733   1734   1745     1  0.0000000  0.6508444  3
   1735   1733   1734   1746     1  0.0000000  0.6508444  3
   1735   1733   1740   1753     1  0.0000000  0.6508444  3
   1735   1733   1740   1754     1  0.0000000  0.6508444  3
   1736   1734   1733   1758     1  0.0000000  0.6508444  3
   1736   1737   3567   3568     1  180.0000771  10.4600000  2
   1737   1736   1734   1745     1  0.0000000  0.6508444  3
   1737   1736   1734   1746     1  0.0000000  0.6508444  3
   1737   3567   3569   3570     1  0.0000000  0.0000000  2
   1737   3567   3569   3572     1  0.0000000  0.0000000  2
   1738   1735   1733   1758     1  0.0000000  0.6508444  3
   1738   1739   3597   3598     1  180.0000771  10.4600000  2
   1739   1738   1735   1747     1  0.0000000  0.6508444  3
   1739   1738   1735   1748     1  0.0000000  0.6508444  3
   1739   3597   3599   3600     1  0.0000000  0.0000000  2
   1739   3597   3599   3602     1  0.0000000  0.0000000  2
   1740   1733   1734   1745     1  0.0000000  0.6508444  3
   1740   1733   1734   1746     1  0.0000000  0.6508444  3
   1740   1733   1735   1747     1  0.0000000  0.6508444  3
   1740   1733   1735   1748     1  0.0000000  0.6508444  3
   1740   1741   1742   1757     1  0.0000000  0.0000000  2
   1741   1740   1733   1758     1  0.0000000  0.6508444  3
   1742   1741   1740   1753     1  0.0000000  0.6508444  3
   1742   1741   1740   1754     1  0.0000000  0.6508444  3
   1743   1737   1736   1749     1  0.0000000  3.3472000  1
   1743   1737   1736   1749     1  0.0000000  0.0000000  2
   1743   1737   1736   1749     1  180.0000771  0.3347200  3
   1743   1737   1736   1750     1  0.0000000  3.3472000  1
   1743   1737   1736   1750     1  0.0000000  0.0000000  2
   1743   1737   1736   1750     1  180.0000771  0.3347200  3
   1743   1737   3567   3568     1  0.0000000  8.3680000  1
   1743   1737   3567   3568     1  180.0000771  10.4600000  2
   1744   1739   1738   1751     1  0.0000000  3.3472000  1
   1744   1739   1738   1751     1  0.0000000  0.0000000  2
   1744   1739   1738   1751     1  180.0000771  0.3347200  3
   1744   1739   1738   1752     1  0.0000000  3.3472000  1
   1744   1739   1738   1752     1  0.0000000  0.0000000  2
   1744   1739   1738   1752     1  180.0000771  0.3347200  3
   1744   1739   3597   3598     1  0.0000000  8.3680000  1
   1744   1739   3597   3598     1  180.0000771  10.4600000  2
   1745   1734   1733   1758     1  0.0000000  0.6508444  3
   1745   1734   1736   1749     1  0.0000000  0.6508444  3
   1745   1734   1736   1750     1  0.0000000  0.6508444  3
   1746   1734   1733   1758     1  0.0000000  0.6508444  3
   1746   1734   1736   1749     1  0.0000000  0.6508444  3
   1746   1734   1736   1750     1  0.0000000  0.6508444  3
   1747   1735   1733   1758     1  0.0000000  0.6508444  3
   1747   1735   1738   1751     1  0.0000000  0.6508444  3
   1747   1735   1738   1752     1  0.0000000  0.6508444  3
   1748   1735   1733   1758     1  0.0000000  0.6508444  3
   1748   1735   1738   1751     1  0.0000000  0.6508444  3
   1748   1735   1738   1752     1  0.0000000  0.6508444  3
   1749   1736   1737   3567     1  180.0000771  0.0000000  2
   1750   1736   1737   3567     1  180.0000771  0.0000000  2
   1751   1738   1739   3597     1  180.0000771  0.0000000  2
   1752   1738   1739   3597     1  180.0000771  0.0000000  2
   1753   1740   1733   1758     1  0.0000000  0.6508444  3
   1753   1740   1741   1755     1  0.0000000  0.6508444  3
   1753   1740   1741   1756     1  0.0000000  0.6508444  3
   1754   1740   1733   1758     1  0.0000000  0.6508444  3
   1754   1740   1741   1755     1  0.0000000  0.6508444  3
   1754   1740   1741   1756     1  0.0000000  0.6508444  3
   1755   1741   1742   1757     1  0.0000000  0.0000000  2
   1756   1741   1742   1757     1  0.0000000  0.0000000  2
   1759   1760   1762   1775     1  0.0000000  0.6508444  3
   1759   1760   1762   1776     1  0.0000000  0.6508444  3
   1759   1761   1764   1777     1  0.0000000  0.6508444  3
   1759   1761   1764   1778     1  0.0000000  0.6508444  3
   1759   1766   1767   1781     1  0.0000000  0.6508444  3
   1759   1766   1767   1782     1  0.0000000  0.6508444  3
   1760   1759   1761   1773     1  0.0000000  0.6508444  3
   1760   1759   1761   1774     1  0.0000000  0.6508444  3
   1760   1759   1766   1779     1  0.0000000  0.6508444  3
   1760   1759   1766   1780     1  0.0000000  0.6508444  3
   1761   1759   1760   1771     1  0.0000000  0.6508444  3
   1761   1759   1760   1772     1  0.0000000  0.6508444  3
   1761   1759   1766   1779     1  0.0000000  0.6508444  3
   1761   1759   1766   1780     1  0.0000000  0.6508444  3
   1762   1760   1759   1784     1  0.0000000  0.6508444  3
   1762   1763   3627   3628     1  180.0000771  10.4600000  2
   1763   1762   1760   1771     1  0.0000000  0.6508444  3
   1763   1762   1760   1772     1  0.0000000  0.6508444  3
   1763   3627   3629   3630     1  0.0000000  0.0000000  2
   1763   3627   3629   3632     1  0.0000000  0.0000000  2
   1764   1761   1759   1784     1  0.0000000  0.6508444  3
   1764   1765   3657   3658     1  180.0000771  10.4600000  2
   1765   1764   1761   1773     1  0.0000000  0.6508444  3
   1765   1764   1761   1774     1  0.0000000  0.6508444  3
   1765   3657   3659   3660     1  0.0000000  0.0000000  2
   1765   3657   3659   3662     1  0.0000000  0.0000000  2
   1766   1759   1760   1771     1  0.0000000  0.6508444  3
   1766   1759   1760   1772     1  0.0000000  0.6508444  3
   1766   1759   1761   1773     1  0.0000000  0.6508444  3
   1766   1759   1761   1774     1  0.0000000  0.6508444  3
   1766   1767   1768   1783     1  0.0000000  0.0000000  2
   1767   1766   1759   1784     1  0.0000000  0.6508444  3
   1768   1767   1766   1779     1  0.0000000  0.6508444  3
   1768   1767   1766   1780     1  0.0000000  0.6508444  3
   1769   1763   1762   1775     1  0.0000000  3.3472000  1
   1769   1763   1762   1775     1  0.0000000  0.0000000  2
   1769   1763   1762   1775     1  180.0000771  0.3347200  3
   1769   1763   1762   1776     1  0.0000000  3.3472000  1
   1769   1763   1762   1776     1  0.0000000  0.0000000  2
   1769   1763   1762   1776     1  180.0000771  0.3347200  3
   1769   1763   3627   3628     1  0.0000000  8.3680000  1
   1769   1763   3627   3628     1  180.0000771  10.4600000  2
   1770   1765   1764   1777     1  0.0000000  3.3472000  1
   1770   1765   1764   1777     1  0.0000000  0.0000000  2
   1770   1765   1764   1777     1  180.0000771  0.3347200  3
   1770   1765   1764   1778     1  0.0000000  3.3472000  1
   1770   1765   1764   1778     1  0.0000000  0.0000000  2
   1770   1765   1764   1778     1  180.0000771  0.3347200  3
   1770   1765   3657   3658     1  0.0000000  8.3680000  1
   1770   1765   3657   3658     1  180.0000771  10.4600000  2
   1771   1760   1759   1784     1  0.0000000  0.6508444  3
   1771   1760   1762   1775     1  0.0000000  0.6508444  3
   1771   1760   1762   1776     1  0.0000000  0.6508444  3
   1772   1760   1759   1784     1  0.0000000  0.6508444  3
   1772   1760   1762   1775     1  0.0000000  0.6508444  3
   1772   1760   1762   1776     1  0.0000000  0.6508444  3
   1773   1761   1759   1784     1  0.0000000  0.6508444  3
   1773   1761   1764   1777     1  0.0000000  0.6508444  3
   1773   1761   1764   1778     1  0.0000000  0.6508444  3
   1774   1761   1759   1784     1  0.0000000  0.6508444  3
   1774   1761   1764   1777     1  0.0000000  0.6508444  3
   1774   1761   1764   1778     1  0.0000000  0.6508444  3
   1775   1762   1763   3627     1  180.0000771  0.0000000  2
   1776   1762   1763   3627     1  180.0000771  0.0000000  2
   1777   1764   1765   3657     1  180.0000771  0.0000000  2
   1778   1764   1765   3657     1  180.0000771  0.0000000  2
   1779   1766   1759   1784     1  0.0000000  0.6508444  3
   1779   1766   1767   1781     1  0.0000000  0.6508444  3
   1779   1766   1767   1782     1  0.0000000  0.6508444  3
   1780   1766   1759   1784     1  0.0000000  0.6508444  3
   1780   1766   1767   1781     1  0.0000000  0.6508444  3
   1780   1766   1767   1782     1  0.0000000  0.6508444  3
   1781   1767   1768   1783     1  0.0000000  0.0000000  2
   1782   1767   1768   1783     1  0.0000000  0.0000000  2
   1785   1786   1788   1801     1  0.0000000  0.6508444  3
   1785   1786   1788   1802     1  0.0000000  0.6508444  3
   1785   1787   1790   1803     1  0.0000000  0.6508444  3
   1785   1787   1790   1804     1  0.0000000  0.6508444  3
   1785   1792   1793   1807     1  0.0000000  0.6508444  3
   1785   1792   1793   1808     1  0.0000000  0.6508444  3
   1786   1785   1787   1799     1  0.0000000  0.6508444  3
   1786   1785   1787   1800     1  0.0000000  0.6508444  3
   1786   1785   1792   1805     1  0.0000000  0.6508444  3
   1786   1785   1792   1806     1  0.0000000  0.6508444  3
   1787   1785   1786   1797     1  0.0000000  0.6508444  3
   1787   1785   1786   1798     1  0.0000000  0.6508444  3
   1787   1785   1792   1805     1  0.0000000  0.6508444  3
   1787   1785   1792   1806     1  0.0000000  0.6508444  3
   1788   1786   1785   1810     1  0.0000000  0.6508444  3
   1788   1789   3687   3688     1  180.0000771  10.4600000  2
   1789   1788   1786   1797     1  0.0000000  0.6508444  3
   1789   1788   1786   1798     1  0.0000000  0.6508444  3
   1789   3687   3689   3690     1  0.0000000  0.0000000  2
   1789   3687   3689   3692     1  0.0000000  0.0000000  2
   1790   1787   1785   1810     1  0.0000000  0.6508444  3
   1790   1791   3717   3718     1  180.0000771  10.4600000  2
   1791   1790   1787   1799     1  0.0000000  0.6508444  3
   1791   1790   1787   1800     1  0.0000000  0.6508444  3
   1791   3717   3719   3720     1  0.0000000  0.0000000  2
   1791   3717   3719   3722     1  0.0000000  0.0000000  2
   1792   1785   1786   1797     1  0.0000000  0.6508444  3
   1792   1785   1786   1798     1  0.0000000  0.6508444  3
   1792   1785   1787   1799     1  0.0000000  0.6508444  3
   1792   1785   1787   1800     1  0.0000000  0.6508444  3
   1792   1793   1794   1809     1  0.0000000  0.0000000  2
   1793   1792   1785   1810     1  0.0000000  0.6508444  3
   1794   1793   1792   1805     1  0.0000000  0.6508444  3
   1794   1793   1792   1806     1  0.0000000  0.6508444  3
   1795   1789   1788   1801     1  0.0000000  3.3472000  1
   1795   1789   1788   1801     1  0.0000000  0.0000000  2
   1795   1789   1788   1801     1  180.0000771  0.3347200  3
   1795   1789   1788   1802     1  0.0000000  3.3472000  1
   1795   1789   1788   1802     1  0.0000000  0.0000000  2
   1795   1789   1788   1802     1  180.0000771  0.3347200  3
   1795   1789   3687   3688     1  0.0000000  8.3680000  1
   1795   1789   3687   3688     1  180.0000771  10.4600000  2
   1796   1791   1790   1803     1  0.0000000  3.3472000  1
   1796   1791   1790   1803     1  0.0000000  0.0000000  2
   1796   1791   1790   1803     1  180.0000771  0.3347200  3
   1796   1791   1790   1804     1  0.0000000  3.3472000  1
   1796   1791   1790   1804     1  0.0000000  0.0000000  2
   1796   1791   1790   1804     1  180.0000771  0.3347200  3
   1796   1791   3717   3718     1  0.0000000  8.3680000  1
   1796   1791   3717   3718     1  180.0000771  10.4600000  2
   1797   1786   1785   1810     1  0.0000000  0.6508444  3
   1797   1786   1788   1801     1  0.0000000  0.6508444  3
   1797   1786   1788   1802     1  0.0000000  0.6508444  3
   1798   1786   1785   1810     1  0.0000000  0.6508444  3
   1798   1786   1788   1801     1  0.0000000  0.6508444  3
   1798   1786   1788   1802     1  0.0000000  0.6508444  3
   1799   1787   1785   1810     1  0.0000000  0.6508444  3
   1799   1787   1790   1803     1  0.0000000  0.6508444  3
   1799   1787   1790   1804     1  0.0000000  0.6508444  3
   1800   1787   1785   1810     1  0.0000000  0.6508444  3
   1800   1787   1790   1803     1  0.0000000  0.6508444  3
   1800   1787   1790   1804     1  0.0000000  0.6508444  3
   1801   1788   1789   3687     1  180.0000771  0.0000000  2
   1802   1788   1789   3687     1  180.0000771  0.0000000  2
   1803   1790   1791   3717     1  180.0000771  0.0000000  2
   1804   1790   1791   3717     1  180.0000771  0.0000000  2
   1805   1792   1785   1810     1  0.0000000  0.6508444  3
   1805   1792   1793   1807     1  0.0000000  0.6508444  3
   1805   1792   1793   1808     1  0.0000000  0.6508444  3
   1806   1792   1785   1810     1  0.0000000  0.6508444  3
   1806   1792   1793   1807     1  0.0000000  0.6508444  3
   1806   1792   1793   1808     1  0.0000000  0.6508444  3
   1807   1793   1794   1809     1  0.0000000  0.0000000  2
   1808   1793   1794   1809     1  0.0000000  0.0000000  2
   1811   1812   1814   1827     1  0.0000000  0.6508444  3
   1811   1812   1814   1828     1  0.0000000  0.6508444  3
   1811   1813   1816   1829     1  0.0000000  0.6508444  3
   1811   1813   1816   1830     1  0.0000000  0.6508444  3
   1811   1818   1819   1833     1  0.0000000  0.6508444  3
   1811   1818   1819   1834     1  0.0000000  0.6508444  3
   1812   1811   1813   1825     1  0.0000000  0.6508444  3
   1812   1811   1813   1826     1  0.0000000  0.6508444  3
   1812   1811   1818   1831     1  0.0000000  0.6508444  3
   1812   1811   1818   1832     1  0.0000000  0.6508444  3
   1813   1811   1812   1823     1  0.0000000  0.6508444  3
   1813   1811   1812   1824     1  0.0000000  0.6508444  3
   1813   1811   1818   1831     1  0.0000000  0.6508444  3
   1813   1811   1818   1832     1  0.0000000  0.6508444  3
   1814   1812   1811   1836     1  0.0000000  0.6508444  3
   1814   1815   3747   3748     1  180.0000771  10.4600000  2
   1815   1814   1812   1823     1  0.0000000  0.6508444  3
   1815   1814   1812   1824     1  0.0000000  0.6508444  3
   1815   3747   3749   3750     1  0.0000000  0.0000000  2
   1815   3747   3749   3752     1  0.0000000  0.0000000  2
   1816   1813   1811   1836     1  0.0000000  0.6508444  3
   1816   1817   3777   3778     1  180.0000771  10.4600000  2
   1817   1816   1813   1825     1  0.0000000  0.6508444  3
   1817   1816   1813   1826     1  0.0000000  0.6508444  3
   1817   3777   3779   3780     1  0.0000000  0.0000000  2
   1817   3777   3779   3782     1  0.0000000  0.0000000  2
   1818   1811   1812   1823     1  0.0000000  0.6508444  3
   1818   1811   1812   1824     1  0.0000000  0.6508444  3
   1818   1811   1813   1825     1  0.0000000  0.6508444  3
   1818   1811   1813   1826     1  0.0000000  0.6508444  3
   1818   1819   1820   1835     1  0.0000000  0.0000000  2
   1819   1818   1811   1836     1  0.0000000  0.6508444  3
   1820   1819   1818   1831     1  0.0000000  0.6508444  3
   1820   1819   1818   1832     1  0.0000000  0.6508444  3
   1821   1815   1814   1827     1  0.0000000  3.3472000  1
   1821   1815   1814   1827     1  0.0000000  0.0000000  2
   1821   1815   1814   1827     1  180.0000771  0.3347200  3
   1821   1815   1814   1828     1  0.0000000  3.3472000  1
   1821   1815   1814   1828     1  0.0000000  0.0000000  2
   1821   1815   1814   1828     1  180.0000771  0.3347200  3
   1821   1815   3747   3748     1  0.0000000  8.3680000  1
   1821   1815   3747   3748     1  180.0000771  10.4600000  2
   1822   1817   1816   1829     1  0.0000000  3.3472000  1
   1822   1817   1816   1829     1  0.0000000  0.0000000  2
   1822   1817   1816   1829     1  180.0000771  0.3347200  3
   1822   1817   1816   1830     1  0.0000000  3.3472000  1
   1822   1817   1816   1830     1  0.0000000  0.0000000  2
   1822   1817   1816   1830     1  180.0000771  0.3347200  3
   1822   1817   3777   3778     1  0.0000000  8.3680000  1
   1822   1817   3777   3778     1  180.0000771  10.4600000  2
   1823   1812   1811   1836     1  0.0000000  0.6508444  3
   1823   1812   1814   1827     1  0.0000000  0.6508444  3
   1823   1812   1814   1828     1  0.0000000  0.6508444  3
   1824   1812   1811   1836     1  0.0000000  0.6508444  3
   1824   1812   1814   1827     1  0.0000000  0.6508444  3
   1824   1812   1814   1828     1  0.0000000  0.6508444  3
   1825   1813   1811   1836     1  0.0000000  0.6508444  3
   1825   1813   1816   1829     1  0.0000000  0.6508444  3
   1825   1813   1816   1830     1  0.0000000  0.6508444  3
   1826   1813   1811   1836     1  0.0000000  0.6508444  3
   1826   1813   1816   1829     1  0.0000000  0.6508444  3
   1826   1813   1816   1830     1  0.0000000  0.6508444  3
   1827   1814   1815   3747     1  180.0000771  0.0000000  2
   1828   1814   1815   3747     1  180.0000771  0.0000000  2
   1829   1816   1817   3777     1  180.0000771  0.0000000  2
   1830   1816   1817   3777     1  180.0000771  0.0000000  2
   1831   1818   1811   1836     1  0.0000000  0.6508444  3
   1831   1818   1819   1833     1  0.0000000  0.6508444  3
   1831   1818   1819   1834     1  0.0000000  0.6508444  3
   1832   1818   1811   1836     1  0.0000000  0.6508444  3
   1832   1818   1819   1833     1  0.0000000  0.6508444  3
   1832   1818   1819   1834     1  0.0000000  0.6508444  3
   1833   1819   1820   1835     1  0.0000000  0.0000000  2
   1834   1819   1820   1835     1  0.0000000  0.0000000  2
   1837   1838   1840   1853     1  0.0000000  0.6508444  3
   1837   1838   1840   1854     1  0.0000000  0.6508444  3
   1837   1839   1842   1855     1  0.0000000  0.6508444  3
   1837   1839   1842   1856     1  0.0000000  0.6508444  3
   1837   1844   1845   1859     1  0.0000000  0.6508444  3
   1837   1844   1845   1860     1  0.0000000  0.6508444  3
   1838   1837   1839   1851     1  0.0000000  0.6508444  3
   1838   1837   1839   1852     1  0.0000000  0.6508444  3
   1838   1837   1844   1857     1  0.0000000  0.6508444  3
   1838   1837   1844   1858     1  0.0000000  0.6508444  3
   1839   1837   1838   1849     1  0.0000000  0.6508444  3
   1839   1837   1838   1850     1  0.0000000  0.6508444  3
   1839   1837   1844   1857     1  0.0000000  0.6508444  3
   1839   1837   1844   1858     1  0.0000000  0.6508444  3
   1840   1838   1837   1862     1  0.0000000  0.6508444  3
   1840   1841   3807   3808     1  180.0000771  10.4600000  2
   1841   1840   1838   1849     1  0.0000000  0.6508444  3
   1841   1840   1838   1850     1  0.0000000  0.6508444  3
   1841   3807   3809   3810     1  0.0000000  0.0000000  2
   1841   3807   3809   3812     1  0.0000000  0.0000000  2
   1842   1839   1837   1862     1  0.0000000  0.6508444  3
   1842   1843   3837   3838     1  180.0000771  10.4600000  2
   1843   1842   1839   1851     1  0.0000000  0.6508444  3
   1843   1842   1839   1852     1  0.0000000  0.6508444  3
   1843   3837   3839   3840     1  0.0000000  0.0000000  2
   1843   3837   3839   3842     1  0.0000000  0.0000000  2
   1844   1837   1838   1849     1  0.0000000  0.6508444  3
   1844   1837   1838   1850     1  0.0000000  0.6508444  3
   1844   1837   1839   1851     1  0.0000000  0.6508444  3
   1844   1837   1839   1852     1  0.0000000  0.6508444  3
   1844   1845   1846   1861     1  0.0000000  0.0000000  2
   1845   1844   1837   1862     1  0.0000000  0.6508444  3
   1846   1845   1844   1857     1  0.0000000  0.6508444  3
   1846   1845   1844   1858     1  0.0000000  0.6508444  3
   1847   1841   1840   1853     1  0.0000000  3.3472000  1
   1847   1841   1840   1853     1  0.0000000  0.0000000  2
   1847   1841   1840   1853     1  180.0000771  0.3347200  3
   1847   1841   1840   1854     1  0.0000000  3.3472000  1
   1847   1841   1840   1854     1  0.0000000  0.0000000  2
   1847   1841   1840   1854     1  180.0000771  0.3347200  3
   1847   1841   3807   3808     1  0.0000000  8.3680000  1
   1847   1841   3807   3808     1  180.0000771  10.4600000  2
   1848   1843   1842   1855     1  0.0000000  3.3472000  1
   1848   1843   1842   1855     1  0.0000000  0.0000000  2
   1848   1843   1842   1855     1  180.0000771  0.3347200  3
   1848   1843   1842   1856     1  0.0000000  3.3472000  1
   1848   1843   1842   1856     1  0.0000000  0.0000000  2
   1848   1843   1842   1856     1  180.0000771  0.3347200  3
   1848   1843   3837   3838     1  0.0000000  8.3680000  1
   1848   1843   3837   3838     1  180.0000771  10.4600000  2
   1849   1838   1837   1862     1  0.0000000  0.6508444  3
   1849   1838   1840   1853     1  0.0000000  0.6508444  3
   1849   1838   1840   1854     1  0.0000000  0.6508444  3
   1850   1838   1837   1862     1  0.0000000  0.6508444  3
   1850   1838   1840   1853     1  0.0000000  0.6508444  3
   1850   1838   1840   1854     1  0.0000000  0.6508444  3
   1851   1839   1837   1862     1  0.0000000  0.6508444  3
   1851   1839   1842   1855     1  0.0000000  0.6508444  3
   1851   1839   1842   1856     1  0.0000000  0.6508444  3
   1852   1839   1837   1862     1  0.0000000  0.6508444  3
   1852   1839   1842   1855     1  0.0000000  0.6508444  3
   1852   1839   1842   1856     1  0.0000000  0.6508444  3
   1853   1840   1841   3807     1  180.0000771  0.0000000  2
   1854   1840   1841   3807     1  180.0000771  0.0000000  2
   1855   1842   1843   3837     1  180.0000771  0.0000000  2
   1856   1842   1843   3837     1  180.0000771  0.0000000  2
   1857   1844   1837   1862     1  0.0000000  0.6508444  3
   1857   1844   1845   1859     1  0.0000000  0.6508444  3
   1857   1844   1845   1860     1  0.0000000  0.6508444  3
   1858   1844   1837   1862     1  0.0000000  0.6508444  3
   1858   1844   1845   1859     1  0.0000000  0.6508444  3
   1858   1844   1845   1860     1  0.0000000  0.6508444  3
   1859   1845   1846   1861     1  0.0000000  0.0000000  2
   1860   1845   1846   1861     1  0.0000000  0.0000000  2
   1863   1864   1866   1879     1  0.0000000  0.6508444  3
   1863   1864   1866   1880     1  0.0000000  0.6508444  3
   1863   1865   1868   1881     1  0.0000000  0.6508444  3
   1863   1865   1868   1882     1  0.0000000  0.6508444  3
   1863   1870   1871   1885     1  0.0000000  0.6508444  3
   1863   1870   1871   1886     1  0.0000000  0.6508444  3
   1864   1863   1865   1877     1  0.0000000  0.6508444  3
   1864   1863   1865   1878     1  0.0000000  0.6508444  3
   1864   1863   1870   1883     1  0.0000000  0.6508444  3
   1864   1863   1870   1884     1  0.0000000  0.6508444  3
   1865   1863   1864   1875     1  0.0000000  0.6508444  3
   1865   1863   1864   1876     1  0.0000000  0.6508444  3
   1865   1863   1870   1883     1  0.0000000  0.6508444  3
   1865   1863   1870   1884     1  0.0000000  0.6508444  3
   1866   1864   1863   1888     1  0.0000000  0.6508444  3
   1866   1867   3867   3868     1  180.0000771  10.4600000  2
   1867   1866   1864   1875     1  0.0000000  0.6508444  3
   1867   1866   1864   1876     1  0.0000000  0.6508444  3
   1867   3867   3869   3870     1  0.0000000  0.0000000  2
   1867   3867   3869   3872     1  0.0000000  0.0000000  2
   1868   1865   1863   1888     1  0.0000000  0.6508444  3
   1868   1869   3897   3898     1  180.0000771  10.4600000  2
   1869   1868   1865   1877     1  0.0000000  0.6508444  3
   1869   1868   1865   1878     1  0.0000000  0.6508444  3
   1869   3897   3899   3900     1  0.0000000  0.0000000  2
   1869   3897   3899   3902     1  0.0000000  0.0000000  2
   1870   1863   1864   1875     1  0.0000000  0.6508444  3
   1870   1863   1864   1876     1  0.0000000  0.6508444  3
   1870   1863   1865   1877     1  0.0000000  0.6508444  3
   1870   1863   1865   1878     1  0.0000000  0.6508444  3
   1870   1871   1872   1887     1  0.0000000  0.0000000  2
   1871   1870   1863   1888     1  0.0000000  0.6508444  3
   1872   1871   1870   1883     1  0.0000000  0.6508444  3
   1872   1871   1870   1884     1  0.0000000  0.6508444  3
   1873   1867   1866   1879     1  0.0000000  3.3472000  1
   1873   1867   1866   1879     1  0.0000000  0.0000000  2
   1873   1867   1866   1879     1  180.0000771  0.3347200  3
   1873   1867   1866   1880     1  0.0000000  3.3472000  1
   1873   1867   1866   1880     1  0.0000000  0.0000000  2
   1873   1867   1866   1880     1  180.0000771  0.3347200  3
   1873   1867   3867   3868     1  0.0000000  8.3680000  1
   1873   1867   3867   3868     1  180.0000771  10.4600000  2
   1874   1869   1868   1881     1  0.0000000  3.3472000  1
   1874   1869   1868   1881     1  0.0000000  0.0000000  2
   1874   1869   1868   1881     1  180.0000771  0.3347200  3
   1874   1869   1868   1882     1  0.0000000  3.3472000  1
   1874   1869   1868   1882     1  0.0000000  0.0000000  2
   1874   1869   1868   1882     1  180.0000771  0.3347200  3
   1874   1869   3897   3898     1  0.0000000  8.3680000  1
   1874   1869   3897   3898     1  180.0000771  10.4600000  2
   1875   1864   1863   1888     1  0.0000000  0.6508444  3
   1875   1864   1866   1879     1  0.0000000  0.6508444  3
   1875   1864   1866   1880     1  0.0000000  0.6508444  3
   1876   1864   1863   1888     1  0.0000000  0.6508444  3
   1876   1864   1866   1879     1  0.0000000  0.6508444  3
   1876   1864   1866   1880     1  0.0000000  0.6508444  3
   1877   1865   1863   1888     1  0.0000000  0.6508444  3
   1877   1865   1868   1881     1  0.0000000  0.6508444  3
   1877   1865   1868   1882     1  0.0000000  0.6508444  3
   1878   1865   1863   1888     1  0.0000000  0.6508444  3
   1878   1865   1868   1881     1  0.0000000  0.6508444  3
   1878   1865   1868   1882     1  0.0000000  0.6508444  3
   1879   1866   1867   3867     1  180.0000771  0.0000000  2
   1880   1866   1867   3867     1  180.0000771  0.0000000  2
   1881   1868   1869   3897     1  180.0000771  0.0000000  2
   1882   1868   1869   3897     1  180.0000771  0.0000000  2
   1883   1870   1863   1888     1  0.0000000  0.6508444  3
   1883   1870   1871   1885     1  0.0000000  0.6508444  3
   1883   1870   1871   1886     1  0.0000000  0.6508444  3
   1884   1870   1863   1888     1  0.0000000  0.6508444  3
   1884   1870   1871   1885     1  0.0000000  0.6508444  3
   1884   1870   1871   1886     1  0.0000000  0.6508444  3
   1885   1871   1872   1887     1  0.0000000  0.0000000  2
   1886   1871   1872   1887     1  0.0000000  0.0000000  2
   1889   1890   1892   1905     1  0.0000000  0.6508444  3
   1889   1890   1892   1906     1  0.0000000  0.6508444  3
   1889   1891   1894   1907     1  0.0000000  0.6508444  3
   1889   1891   1894   1908     1  0.0000000  0.6508444  3
   1889   1896   1897   1911     1  0.0000000  0.6508444  3
   1889   1896   1897   1912     1  0.0000000  0.6508444  3
   1890   1889   1891   1903     1  0.0000000  0.6508444  3
   1890   1889   1891   1904     1  0.0000000  0.6508444  3
   1890   1889   1896   1909     1  0.0000000  0.6508444  3
   1890   1889   1896   1910     1  0.0000000  0.6508444  3
   1891   1889   1890   1901     1  0.0000000  0.6508444  3
   1891   1889   1890   1902     1  0.0000000  0.6508444  3
   1891   1889   1896   1909     1  0.0000000  0.6508444  3
   1891   1889   1896   1910     1  0.0000000  0.6508444  3
   1892   1890   1889   1914     1  0.0000000  0.6508444  3
   1892   1893   3927   3928     1  180.0000771  10.4600000  2
   1893   1892   1890   1901     1  0.0000000  0.6508444  3
   1893   1892   1890   1902     1  0.0000000  0.6508444  3
   1893   3927   3929   3930     1  0.0000000  0.0000000  2
   1893   3927   3929   3932     1  0.0000000  0.0000000  2
   1894   1891   1889   1914     1  0.0000000  0.6508444  3
   1894   1895   3957   3958     1  180.0000771  10.4600000  2
   1895   1894   1891   1903     1  0.0000000  0.6508444  3
   1895   1894   1891   1904     1  0.0000000  0.6508444  3
   1895   3957   3959   3960     1  0.0000000  0.0000000  2
   1895   3957   3959   3962     1  0.0000000  0.0000000  2
   1896   1889   1890   1901     1  0.0000000  0.6508444  3
   1896   1889   1890   1902     1  0.0000000  0.6508444  3
   1896   1889   1891   1903     1  0.0000000  0.6508444  3
   1896   1889   1891   1904     1  0.0000000  0.6508444  3
   1896   1897   1898   1913     1  0.0000000  0.0000000  2
   1897   1896   1889   1914     1  0.0000000  0.6508444  3
   1898   1897   1896   1909     1  0.0000000  0.6508444  3
   1898   1897   1896   1910     1  0.0000000  0.6508444  3
   1899   1893   1892   1905     1  0.0000000  3.3472000  1
   1899   1893   1892   1905     1  0.0000000  0.0000000  2
   1899   1893   1892   1905     1  180.0000771  0.3347200  3
   1899   1893   1892   1906     1  0.0000000  3.3472000  1
   1899   1893   1892   1906     1  0.0000000  0.0000000  2
   1899   1893   1892   1906     1  180.0000771  0.3347200  3
   1899   1893   3927   3928     1  0.0000000  8.3680000  1
   1899   1893   3927   3928     1  180.0000771  10.4600000  2
   1900   1895   1894   1907     1  0.0000000  3.3472000  1
   1900   1895   1894   1907     1  0.0000000  0.0000000  2
   1900   1895   1894   1907     1  180.0000771  0.3347200  3
   1900   1895   1894   1908     1  0.0000000  3.3472000  1
   1900   1895   1894   1908     1  0.0000000  0.0000000  2
   1900   1895   1894   1908     1  180.0000771  0.3347200  3
   1900   1895   3957   3958     1  0.0000000  8.3680000  1
   1900   1895   3957   3958     1  180.0000771  10.4600000  2
   1901   1890   1889   1914     1  0.0000000  0.6508444  3
   1901   1890   1892   1905     1  0.0000000  0.6508444  3
   1901   1890   1892   1906     1  0.0000000  0.6508444  3
   1902   1890   1889   1914     1  0.0000000  0.6508444  3
   1902   1890   1892   1905     1  0.0000000  0.6508444  3
   1902   1890   1892   1906     1  0.0000000  0.6508444  3
   1903   1891   1889   1914     1  0.0000000  0.6508444  3
   1903   1891   1894   1907     1  0.0000000  0.6508444  3
   1903   1891   1894   1908     1  0.0000000  0.6508444  3
   1904   1891   1889   1914     1  0.0000000  0.6508444  3
   1904   1891   1894   1907     1  0.0000000  0.6508444  3
   1904   1891   1894   1908     1  0.0000000  0.6508444  3
   1905   1892   1893   3927     1  180.0000771  0.0000000  2
   1906   1892   1893   3927     1  180.0000771  0.0000000  2
   1907   1894   1895   3957     1  180.0000771  0.0000000  2
   1908   1894   1895   3957     1  180.0000771  0.0000000  2
   1909   1896   1889   1914     1  0.0000000  0.6508444  3
   1909   1896   1897   1911     1  0.0000000  0.6508444  3
   1909   1896   1897   1912     1  0.0000000  0.6508444  3
   1910   1896   1889   1914     1  0.0000000  0.6508444  3
   1910   1896   1897   1911     1  0.0000000  0.6508444  3
   1910   1896   1897   1912     1  0.0000000  0.6508444  3
   1911   1897   1898   1913     1  0.0000000  0.0000000  2
   1912   1897   1898   1913     1  0.0000000  0.0000000  2
   1915   1916   1918   1931     1  0.0000000  0.6508444  3
   1915   1916   1918   1932     1  0.0000000  0.6508444  3
   1915   1917   1920   1933     1  0.0000000  0.6508444  3
   1915   1917   1920   1934     1  0.0000000  0.6508444  3
   1915   1922   1923   1937     1  0.0000000  0.6508444  3
   1915   1922   1923   1938     1  0.0000000  0.6508444  3
   1916   1915   1917   1929     1  0.0000000  0.6508444  3
   1916   1915   1917   1930     1  0.0000000  0.6508444  3
   1916   1915   1922   1935     1  0.0000000  0.6508444  3
   1916   1915   1922   1936     1  0.0000000  0.6508444  3
   1917   1915   1916   1927     1  0.0000000  0.6508444  3
   1917   1915   1916   1928     1  0.0000000  0.6508444  3
   1917   1915   1922   1935     1  0.0000000  0.6508444  3
   1917   1915   1922   1936     1  0.0000000  0.6508444  3
   1918   1916   1915   1940     1  0.0000000  0.6508444  3
   1918   1919   3987   3988     1  180.0000771  10.4600000  2
   1919   1918   1916   1927     1  0.0000000  0.6508444  3
   1919   1918   1916   1928     1  0.0000000  0.6508444  3
   1919   3987   3989   3990     1  0.0000000  0.0000000  2
   1919   3987   3989   3992     1  0.0000000  0.0000000  2
   1920   1917   1915   1940     1  0.0000000  0.6508444  3
   1920   1921   4017   4018     1  180.0000771  10.4600000  2
   1921   1920   1917   1929     1  0.0000000  0.6508444  3
   1921   1920   1917   1930     1  0.0000000  0.6508444  3
   1921   4017   4019   4020     1  0.0000000  0.0000000  2
   1921   4017   4019   4022     1  0.0000000  0.0000000  2
   1922   1915   1916   1927     1  0.0000000  0.6508444  3
   1922   1915   1916   1928     1  0.0000000  0.6508444  3
   1922   1915   1917   1929     1  0.0000000  0.6508444  3
   1922   1915   1917   1930     1  0.0000000  0.6508444  3
   1922   1923   1924   1939     1  0.0000000  0.0000000  2
   1923   1922   1915   1940     1  0.0000000  0.6508444  3
   1924   1923   1922   1935     1  0.0000000  0.6508444  3
   1924   1923   1922   1936     1  0.0000000  0.6508444  3
   1925   1919   1918   1931     1  0.0000000  3.3472000  1
   1925   1919   1918   1931     1  0.0000000  0.0000000  2
   1925   1919   1918   1931     1  180.0000771  0.3347200  3
   1925   1919   1918   1932     1  0.0000000  3.3472000  1
   1925   1919   1918   1932     1  0.0000000  0.0000000  2
   1925   1919   1918   1932     1  180.0000771  0.3347200  3
   1925   1919   3987   3988     1  0.0000000  8.3680000  1
   1925   1919   3987   3988     1  180.0000771  10.4600000  2
   1926   1921   1920   1933     1  0.0000000  3.3472000  1
   1926   1921   1920   1933     1  0.0000000  0.0000000  2
   1926   1921   1920   1933     1  180.0000771  0.3347200  3
   1926   1921   1920   1934     1  0.0000000  3.3472000  1
   1926   1921   1920   1934     1  0.0000000  0.0000000  2
   1926   1921   1920   1934     1  180.0000771  0.3347200  3
   1926   1921   4017   4018     1  0.0000000  8.3680000  1
   1926   1921   4017   4018     1  180.0000771  10.4600000  2
   1927   1916   1915   1940     1  0.0000000  0.6508444  3
   1927   1916   1918   1931     1  0.0000000  0.6508444  3
   1927   1916   1918   1932     1  0.0000000  0.6508444  3
   1928   1916   1915   1940     1  0.0000000  0.6508444  3
   1928   1916   1918   1931     1  0.0000000  0.6508444  3
   1928   1916   1918   1932     1  0.0000000  0.6508444  3
   1929   1917   1915   1940     1  0.0000000  0.6508444  3
   1929   1917   1920   1933     1  0.0000000  0.6508444  3
   1929   1917   1920   1934     1  0.0000000  0.6508444  3
   1930   1917   1915   1940     1  0.0000000  0.6508444  3
   1930   1917   1920   1933     1  0.0000000  0.6508444  3
   1930   1917   1920   1934     1  0.0000000  0.6508444  3
   1931   1918   1919   3987     1  180.0000771  0.0000000  2
   1932   1918   1919   3987     1  180.0000771  0.0000000  2
   1933   1920   1921   4017     1  180.0000771  0.0000000  2
   1934   1920   1921   4017     1  180.0000771  0.0000000  2
   1935   1922   1915   1940     1  0.0000000  0.6508444  3
   1935   1922   1923   1937     1  0.0000000  0.6508444  3
   1935   1922   1923   1938     1  0.0000000  0.6508444  3
   1936   1922   1915   1940     1  0.0000000  0.6508444  3
   1936   1922   1923   1937     1  0.0000000  0.6508444  3
   1936   1922   1923   1938     1  0.0000000  0.6508444  3
   1937   1923   1924   1939     1  0.0000000  0.0000000  2
   1938   1923   1924   1939     1  0.0000000  0.0000000  2
   1941   1942   1944   1957     1  0.0000000  0.6508444  3
   1941   1942   1944   1958     1  0.0000000  0.6508444  3
   1941   1943   1946   1959     1  0.0000000  0.6508444  3
   1941   1943   1946   1960     1  0.0000000  0.6508444  3
   1941   1948   1949   1963     1  0.0000000  0.6508444  3
   1941   1948   1949   1964     1  0.0000000  0.6508444  3
   1942   1941   1943   1955     1  0.0000000  0.6508444  3
   1942   1941   1943   1956     1  0.0000000  0.6508444  3
   1942   1941   1948   1961     1  0.0000000  0.6508444  3
   1942   1941   1948   1962     1  0.0000000  0.6508444  3
   1943   1941   1942   1953     1  0.0000000  0.6508444  3
   1943   1941   1942   1954     1  0.0000000  0.6508444  3
   1943   1941   1948   1961     1  0.0000000  0.6508444  3
   1943   1941   1948   1962     1  0.0000000  0.6508444  3
   1944   1942   1941   1966     1  0.0000000  0.6508444  3
   1944   1945   4047   4048     1  180.0000771  10.4600000  2
   1945   1944   1942   1953     1  0.0000000  0.6508444  3
   1945   1944   1942   1954     1  0.0000000  0.6508444  3
   1945   4047   4049   4050     1  0.0000000  0.0000000  2
   1945   4047   4049   4052     1  0.0000000  0.0000000  2
   1946   1943   1941   1966     1  0.0000000  0.6508444  3
   1946   1947   4077   4078     1  180.0000771  10.4600000  2
   1947   1946   1943   1955     1  0.0000000  0.6508444  3
   1947   1946   1943   1956     1  0.0000000  0.6508444  3
   1947   4077   4079   4080     1  0.0000000  0.0000000  2
   1947   4077   4079   4082     1  0.0000000  0.0000000  2
   1948   1941   1942   1953     1  0.0000000  0.6508444  3
   1948   1941   1942   1954     1  0.0000000  0.6508444  3
   1948   1941   1943   1955     1  0.0000000  0.6508444  3
   1948   1941   1943   1956     1  0.0000000  0.6508444  3
   1948   1949   1950   1965     1  0.0000000  0.0000000  2
   1949   1948   1941   1966     1  0.0000000  0.6508444  3
   1950   1949   1948   1961     1  0.0000000  0.6508444  3
   1950   1949   1948   1962     1  0.0000000  0.6508444  3
   1951   1945   1944   1957     1  0.0000000  3.3472000  1
   1951   1945   1944   1957     1  0.0000000  0.0000000  2
   1951   1945   1944   1957     1  180.0000771  0.3347200  3
   1951   1945   1944   1958     1  0.0000000  3.3472000  1
   1951   1945   1944   1958     1  0.0000000  0.0000000  2
   1951   1945   1944   1958     1  180.0000771  0.3347200  3
   1951   1945   4047   4048     1  0.0000000  8.3680000  1
   1951   1945   4047   4048     1  180.0000771  10.4600000  2
   1952   1947   1946   1959     1  0.0000000  3.3472000  1
   1952   1947   1946   1959     1  0.0000000  0.0000000  2
   1952   1947   1946   1959     1  180.0000771  0.3347200  3
   1952   1947   1946   1960     1  0.0000000  3.3472000  1
   1952   1947   1946   1960     1  0.0000000  0.0000000  2
   1952   1947   1946   1960     1  180.0000771  0.3347200  3
   1952   1947   4077   4078     1  0.0000000  8.3680000  1
   1952   1947   4077   4078     1  180.0000771  10.4600000  2
   1953   1942   1941   1966     1  0.0000000  0.6508444  3
   1953   1942   1944   1957     1  0.0000000  0.6508444  3
   1953   1942   1944   1958     1  0.0000000  0.6508444  3
   1954   1942   1941   1966     1  0.0000000  0.6508444  3
   1954   1942   1944   1957     1  0.0000000  0.6508444  3
   1954   1942   1944   1958     1  0.0000000  0.6508444  3
   1955   1943   1941   1966     1  0.0000000  0.6508444  3
   1955   1943   1946   1959     1  0.0000000  0.6508444  3
   1955   1943   1946   1960     1  0.0000000  0.6508444  3
   1956   1943   1941   1966     1  0.0000000  0.6508444  3
   1956   1943   1946   1959     1  0.0000000  0.6508444  3
   1956   1943   1946   1960     1  0.0000000  0.6508444  3
   1957   1944   1945   4047     1  180.0000771  0.0000000  2
   1958   1944   1945   4047     1  180.0000771  0.0000000  2
   1959   1946   1947   4077     1  180.0000771  0.0000000  2
   1960   1946   1947   4077     1  180.0000771  0.0000000  2
   1961   1948   1941   1966     1  0.0000000  0.6508444  3
   1961   1948   1949   1963     1  0.0000000  0.6508444  3
   1961   1948   1949   1964     1  0.0000000  0.6508444  3
   1962   1948   1941   1966     1  0.0000000  0.6508444  3
   1962   1948   1949   1963     1  0.0000000  0.6508444  3
   1962   1948   1949   1964     1  0.0000000  0.6508444  3
   1963   1949   1950   1965     1  0.0000000  0.0000000  2
   1964   1949   1950   1965     1  0.0000000  0.0000000  2
   1967   1968   1970   1983     1  0.0000000  0.6508444  3
   1967   1968   1970   1984     1  0.0000000  0.6508444  3
   1967   1969   1972   1985     1  0.0000000  0.6508444  3
   1967   1969   1972   1986     1  0.0000000  0.6508444  3
   1967   1974   1975   1989     1  0.0000000  0.6508444  3
   1967   1974   1975   1990     1  0.0000000  0.6508444  3
   1968   1967   1969   1981     1  0.0000000  0.6508444  3
   1968   1967   1969   1982     1  0.0000000  0.6508444  3
   1968   1967   1974   1987     1  0.0000000  0.6508444  3
   1968   1967   1974   1988     1  0.0000000  0.6508444  3
   1969   1967   1968   1979     1  0.0000000  0.6508444  3
   1969   1967   1968   1980     1  0.0000000  0.6508444  3
   1969   1967   1974   1987     1  0.0000000  0.6508444  3
   1969   1967   1974   1988     1  0.0000000  0.6508444  3
   1970   1968   1967   1992     1  0.0000000  0.6508444  3
   1970   1971   4107   4108     1  180.0000771  10.4600000  2
   1971   1970   1968   1979     1  0.0000000  0.6508444  3
   1971   1970   1968   1980     1  0.0000000  0.6508444  3
   1971   4107   4109   4110     1  0.0000000  0.0000000  2
   1971   4107   4109   4112     1  0.0000000  0.0000000  2
   1972   1969   1967   1992     1  0.0000000  0.6508444  3
   1972   1973   4137   4138     1  180.0000771  10.4600000  2
   1973   1972   1969   1981     1  0.0000000  0.6508444  3
   1973   1972   1969   1982     1  0.0000000  0.6508444  3
   1973   4137   4139   4140     1  0.0000000  0.0000000  2
   1973   4137   4139   4142     1  0.0000000  0.0000000  2
   1974   1967   1968   1979     1  0.0000000  0.6508444  3
   1974   1967   1968   1980     1  0.0000000  0.6508444  3
   1974   1967   1969   1981     1  0.0000000  0.6508444  3
   1974   1967   1969   1982     1  0.0000000  0.6508444  3
   1974   1975   1976   1991     1  0.0000000  0.0000000  2
   1975   1974   1967   1992     1  0.0000000  0.6508444  3
   1976   1975   1974   1987     1  0.0000000  0.6508444  3
   1976   1975   1974   1988     1  0.0000000  0.6508444  3
   1977   1971   1970   1983     1  0.0000000  3.3472000  1
   1977   1971   1970   1983     1  0.0000000  0.0000000  2
   1977   1971   1970   1983     1  180.0000771  0.3347200  3
   1977   1971   1970   1984     1  0.0000000  3.3472000  1
   1977   1971   1970   1984     1  0.0000000  0.0000000  2
   1977   1971   1970   1984     1  180.0000771  0.3347200  3
   1977   1971   4107   4108     1  0.0000000  8.3680000  1
   1977   1971   4107   4108     1  180.0000771  10.4600000  2
   1978   1973   1972   1985     1  0.0000000  3.3472000  1
   1978   1973   1972   1985     1  0.0000000  0.0000000  2
   1978   1973   1972   1985     1  180.0000771  0.3347200  3
   1978   1973   1972   1986     1  0.0000000  3.3472000  1
   1978   1973   1972   1986     1  0.0000000  0.0000000  2
   1978   1973   1972   1986     1  180.0000771  0.3347200  3
   1978   1973   4137   4138     1  0.0000000  8.3680000  1
   1978   1973   4137   4138     1  180.0000771  10.4600000  2
   1979   1968   1967   1992     1  0.0000000  0.6508444  3
   1979   1968   1970   1983     1  0.0000000  0.6508444  3
   1979   1968   1970   1984     1  0.0000000  0.6508444  3
   1980   1968   1967   1992     1  0.0000000  0.6508444  3
   1980   1968   1970   1983     1  0.0000000  0.6508444  3
   1980   1968   1970   1984     1  0.0000000  0.6508444  3
   1981   1969   1967   1992     1  0.0000000  0.6508444  3
   1981   1969   1972   1985     1  0.0000000  0.6508444  3
   1981   1969   1972   1986     1  0.0000000  0.6508444  3
   1982   1969   1967   1992     1  0.0000000  0.6508444  3
   1982   1969   1972   1985     1  0.0000000  0.6508444  3
   1982   1969   1972   1986     1  0.0000000  0.6508444  3
   1983   1970   1971   4107     1  180.0000771  0.0000000  2
   1984   1970   1971   4107     1  180.0000771  0.0000000  2
   1985   1972   1973   4137     1  180.0000771  0.0000000  2
   1986   1972   1973   4137     1  180.0000771  0.0000000  2
   1987   1974   1967   1992     1  0.0000000  0.6508444  3
   1987   1974   1975   1989     1  0.0000000  0.6508444  3
   1987   1974   1975   1990     1  0.0000000  0.6508444  3
   1988   1974   1967   1992     1  0.0000000  0.6508444  3
   1988   1974   1975   1989     1  0.0000000  0.6508444  3
   1988   1974   1975   1990     1  0.0000000  0.6508444  3
   1989   1975   1976   1991     1  0.0000000  0.0000000  2
   1990   1975   1976   1991     1  0.0000000  0.0000000  2
   1993   1994   1996   2009     1  0.0000000  0.6508444  3
   1993   1994   1996   2010     1  0.0000000  0.6508444  3
   1993   1995   1998   2011     1  0.0000000  0.6508444  3
   1993   1995   1998   2012     1  0.0000000  0.6508444  3
   1993   2000   2001   2015     1  0.0000000  0.6508444  3
   1993   2000   2001   2016     1  0.0000000  0.6508444  3
   1994   1993   1995   2007     1  0.0000000  0.6508444  3
   1994   1993   1995   2008     1  0.0000000  0.6508444  3
   1994   1993   2000   2013     1  0.0000000  0.6508444  3
   1994   1993   2000   2014     1  0.0000000  0.6508444  3
   1995   1993   1994   2005     1  0.0000000  0.6508444  3
   1995   1993   1994   2006     1  0.0000000  0.6508444  3
   1995   1993   2000   2013     1  0.0000000  0.6508444  3
   1995   1993   2000   2014     1  0.0000000  0.6508444  3
   1996   1994   1993   2018     1  0.0000000  0.6508444  3
   1996   1997   4167   4168     1  180.0000771  10.4600000  2
   1997   1996   1994   2005     1  0.0000000  0.6508444  3
   1997   1996   1994   2006     1  0.0000000  0.6508444  3
   1997   4167   4169   4170     1  0.0000000  0.0000000  2
   1997   4167   4169   4172     1  0.0000000  0.0000000  2
   1998   1995   1993   2018     1  0.0000000  0.6508444  3
   1998   1999   4197   4198     1  180.0000771  10.4600000  2
   1999   1998   1995   2007     1  0.0000000  0.6508444  3
   1999   1998   1995   2008     1  0.0000000  0.6508444  3
   1999   4197   4199   4200     1  0.0000000  0.0000000  2
   1999   4197   4199   4202     1  0.0000000  0.0000000  2
   2000   1993   1994   2005     1  0.0000000  0.6508444  3
   2000   1993   1994   2006     1  0.0000000  0.6508444  3
   2000   1993   1995   2007     1  0.0000000  0.6508444  3
   2000   1993   1995   2008     1  0.0000000  0.6508444  3
   2000   2001   2002   2017     1  0.0000000  0.0000000  2
   2001   2000   1993   2018     1  0.0000000  0.6508444  3
   2002   2001   2000   2013     1  0.0000000  0.6508444  3
   2002   2001   2000   2014     1  0.0000000  0.6508444  3
   2003   1997   1996   2009     1  0.0000000  3.3472000  1
   2003   1997   1996   2009     1  0.0000000  0.0000000  2
   2003   1997   1996   2009     1  180.0000771  0.3347200  3
   2003   1997   1996   2010     1  0.0000000  3.3472000  1
   2003   1997   1996   2010     1  0.0000000  0.0000000  2
   2003   1997   1996   2010     1  180.0000771  0.3347200  3
   2003   1997   4167   4168     1  0.0000000  8.3680000  1
   2003   1997   4167   4168     1  180.0000771  10.4600000  2
   2004   1999   1998   2011     1  0.0000000  3.3472000  1
   2004   1999   1998   2011     1  0.0000000  0.0000000  2
   2004   1999   1998   2011     1  180.0000771  0.3347200  3
   2004   1999   1998   2012     1  0.0000000  3.3472000  1
   2004   1999   1998   2012     1  0.0000000  0.0000000  2
   2004   1999   1998   2012     1  180.0000771  0.3347200  3
   2004   1999   4197   4198     1  0.0000000  8.3680000  1
   2004   1999   4197   4198     1  180.0000771  10.4600000  2
   2005   1994   1993   2018     1  0.0000000  0.6508444  3
   2005   1994   1996   2009     1  0.0000000  0.6508444  3
   2005   1994   1996   2010     1  0.0000000  0.6508444  3
   2006   1994   1993   2018     1  0.0000000  0.6508444  3
   2006   1994   1996   2009     1  0.0000000  0.6508444  3
   2006   1994   1996   2010     1  0.0000000  0.6508444  3
   2007   1995   1993   2018     1  0.0000000  0.6508444  3
   2007   1995   1998   2011     1  0.0000000  0.6508444  3
   2007   1995   1998   2012     1  0.0000000  0.6508444  3
   2008   1995   1993   2018     1  0.0000000  0.6508444  3
   2008   1995   1998   2011     1  0.0000000  0.6508444  3
   2008   1995   1998   2012     1  0.0000000  0.6508444  3
   2009   1996   1997   4167     1  180.0000771  0.0000000  2
   2010   1996   1997   4167     1  180.0000771  0.0000000  2
   2011   1998   1999   4197     1  180.0000771  0.0000000  2
   2012   1998   1999   4197     1  180.0000771  0.0000000  2
   2013   2000   1993   2018     1  0.0000000  0.6508444  3
   2013   2000   2001   2015     1  0.0000000  0.6508444  3
   2013   2000   2001   2016     1  0.0000000  0.6508444  3
   2014   2000   1993   2018     1  0.0000000  0.6508444  3
   2014   2000   2001   2015     1  0.0000000  0.6508444  3
   2014   2000   2001   2016     1  0.0000000  0.6508444  3
   2015   2001   2002   2017     1  0.0000000  0.0000000  2
   2016   2001   2002   2017     1  0.0000000  0.0000000  2
   2019   2020   2022   2035     1  0.0000000  0.6508444  3
   2019   2020   2022   2036     1  0.0000000  0.6508444  3
   2019   2021   2024   2037     1  0.0000000  0.6508444  3
   2019   2021   2024   2038     1  0.0000000  0.6508444  3
   2019   2026   2027   2041     1  0.0000000  0.6508444  3
   2019   2026   2027   2042     1  0.0000000  0.6508444  3
   2020   2019   2021   2033     1  0.0000000  0.6508444  3
   2020   2019   2021   2034     1  0.0000000  0.6508444  3
   2020   2019   2026   2039     1  0.0000000  0.6508444  3
   2020   2019   2026   2040     1  0.0000000  0.6508444  3
   2021   2019   2020   2031     1  0.0000000  0.6508444  3
   2021   2019   2020   2032     1  0.0000000  0.6508444  3
   2021   2019   2026   2039     1  0.0000000  0.6508444  3
   2021   2019   2026   2040     1  0.0000000  0.6508444  3
   2022   2020   2019   2044     1  0.0000000  0.6508444  3
   2022   2023   4227   4228     1  180.0000771  10.4600000  2
   2023   2022   2020   2031     1  0.0000000  0.6508444  3
   2023   2022   2020   2032     1  0.0000000  0.6508444  3
   2023   4227   4229   4230     1  0.0000000  0.0000000  2
   2023   4227   4229   4232     1  0.0000000  0.0000000  2
   2024   2021   2019   2044     1  0.0000000  0.6508444  3
   2024   2025   4257   4258     1  180.0000771  10.4600000  2
   2025   2024   2021   2033     1  0.0000000  0.6508444  3
   2025   2024   2021   2034     1  0.0000000  0.6508444  3
   2025   4257   4259   4260     1  0.0000000  0.0000000  2
   2025   4257   4259   4262     1  0.0000000  0.0000000  2
   2026   2019   2020   2031     1  0.0000000  0.6508444  3
   2026   2019   2020   2032     1  0.0000000  0.6508444  3
   2026   2019   2021   2033     1  0.0000000  0.6508444  3
   2026   2019   2021   2034     1  0.0000000  0.6508444  3
   2026   2027   2028   2043     1  0.0000000  0.0000000  2
   2027   2026   2019   2044     1  0.0000000  0.6508444  3
   2028   2027   2026   2039     1  0.0000000  0.6508444  3
   2028   2027   2026   2040     1  0.0000000  0.6508444  3
   2029   2023   2022   2035     1  0.0000000  3.3472000  1
   2029   2023   2022   2035     1  0.0000000  0.0000000  2
   2029   2023   2022   2035     1  180.0000771  0.3347200  3
   2029   2023   2022   2036     1  0.0000000  3.3472000  1
   2029   2023   2022   2036     1  0.0000000  0.0000000  2
   2029   2023   2022   2036     1  180.0000771  0.3347200  3
   2029   2023   4227   4228     1  0.0000000  8.3680000  1
   2029   2023   4227   4228     1  180.0000771  10.4600000  2
   2030   2025   2024   2037     1  0.0000000  3.3472000  1
   2030   2025   2024   2037     1  0.0000000  0.0000000  2
   2030   2025   2024   2037     1  180.0000771  0.3347200  3
   2030   2025   2024   2038     1  0.0000000  3.3472000  1
   2030   2025   2024   2038     1  0.0000000  0.0000000  2
   2030   2025   2024   2038     1  180.0000771  0.3347200  3
   2030   2025   4257   4258     1  0.0000000  8.3680000  1
   2030   2025   4257   4258     1  180.0000771  10.4600000  2
   2031   2020   2019   2044     1  0.0000000  0.6508444  3
   2031   2020   2022   2035     1  0.0000000  0.6508444  3
   2031   2020   2022   2036     1  0.0000000  0.6508444  3
   2032   2020   2019   2044     1  0.0000000  0.6508444  3
   2032   2020   2022   2035     1  0.0000000  0.6508444  3
   2032   2020   2022   2036     1  0.0000000  0.6508444  3
   2033   2021   2019   2044     1  0.0000000  0.6508444  3
   2033   2021   2024   2037     1  0.0000000  0.6508444  3
   2033   2021   2024   2038     1  0.0000000  0.6508444  3
   2034   2021   2019   2044     1  0.0000000  0.6508444  3
   2034   2021   2024   2037     1  0.0000000  0.6508444  3
   2034   2021   2024   2038     1  0.0000000  0.6508444  3
   2035   2022   2023   4227     1  180.0000771  0.0000000  2
   2036   2022   2023   4227     1  180.0000771  0.0000000  2
   2037   2024   2025   4257     1  180.0000771  0.0000000  2
   2038   2024   2025   4257     1  180.0000771  0.0000000  2
   2039   2026   2019   2044     1  0.0000000  0.6508444  3
   2039   2026   2027   2041     1  0.0000000  0.6508444  3
   2039   2026   2027   2042     1  0.0000000  0.6508444  3
   2040   2026   2019   2044     1  0.0000000  0.6508444  3
   2040   2026   2027   2041     1  0.0000000  0.6508444  3
   2040   2026   2027   2042     1  0.0000000  0.6508444  3
   2041   2027   2028   2043     1  0.0000000  0.0000000  2
   2042   2027   2028   2043     1  0.0000000  0.0000000  2
   2045   2046   2048   2061     1  0.0000000  0.6508444  3
   2045   2046   2048   2062     1  0.0000000  0.6508444  3
   2045   2047   2050   2063     1  0.0000000  0.6508444  3
   2045   2047   2050   2064     1  0.0000000  0.6508444  3
   2045   2052   2053   2067     1  0.0000000  0.6508444  3
   2045   2052   2053   2068     1  0.0000000  0.6508444  3
   2046   2045   2047   2059     1  0.0000000  0.6508444  3
   2046   2045   2047   2060     1  0.0000000  0.6508444  3
   2046   2045   2052   2065     1  0.0000000  0.6508444  3
   2046   2045   2052   2066     1  0.0000000  0.6508444  3
   2047   2045   2046   2057     1  0.0000000  0.6508444  3
   2047   2045   2046   2058     1  0.0000000  0.6508444  3
   2047   2045   2052   2065     1  0.0000000  0.6508444  3
   2047   2045   2052   2066     1  0.0000000  0.6508444  3
   2048   2046   2045   2070     1  0.0000000  0.6508444  3
   2048   2049   4287   4288     1  180.0000771  10.4600000  2
   2049   2048   2046   2057     1  0.0000000  0.6508444  3
   2049   2048   2046   2058     1  0.0000000  0.6508444  3
   2049   4287   4289   4290     1  0.0000000  0.0000000  2
   2049   4287   4289   4292     1  0.0000000  0.0000000  2
   2050   2047   2045   2070     1  0.0000000  0.6508444  3
   2050   2051   4317   4318     1  180.0000771  10.4600000  2
   2051   2050   2047   2059     1  0.0000000  0.6508444  3
   2051   2050   2047   2060     1  0.0000000  0.6508444  3
   2051   4317   4319   4320     1  0.0000000  0.0000000  2
   2051   4317   4319   4322     1  0.0000000  0.0000000  2
   2052   2045   2046   2057     1  0.0000000  0.6508444  3
   2052   2045   2046   2058     1  0.0000000  0.6508444  3
   2052   2045   2047   2059     1  0.0000000  0.6508444  3
   2052   2045   2047   2060     1  0.0000000  0.6508444  3
   2052   2053   2054   2069     1  0.0000000  0.0000000  2
   2053   2052   2045   2070     1  0.0000000  0.6508444  3
   2054   2053   2052   2065     1  0.0000000  0.6508444  3
   2054   2053   2052   2066     1  0.0000000  0.6508444  3
   2055   2049   2048   2061     1  0.0000000  3.3472000  1
   2055   2049   2048   2061     1  0.0000000  0.0000000  2
   2055   2049   2048   2061     1  180.0000771  0.3347200  3
   2055   2049   2048   2062     1  0.0000000  3.3472000  1
   2055   2049   2048   2062     1  0.0000000  0.0000000  2
   2055   2049   2048   2062     1  180.0000771  0.3347200  3
   2055   2049   4287   4288     1  0.0000000  8.3680000  1
   2055   2049   4287   4288     1  180.0000771  10.4600000  2
   2056   2051   2050   2063     1  0.0000000  3.3472000  1
   2056   2051   2050   2063     1  0.0000000  0.0000000  2
   2056   2051   2050   2063     1  180.0000771  0.3347200  3
   2056   2051   2050   2064     1  0.0000000  3.3472000  1
   2056   2051   2050   2064     1  0.0000000  0.0000000  2
   2056   2051   2050   2064     1  180.0000771  0.3347200  3
   2056   2051   4317   4318     1  0.0000000  8.3680000  1
   2056   2051   4317   4318     1  180.0000771  10.4600000  2
   2057   2046   2045   2070     1  0.0000000  0.6508444  3
   2057   2046   2048   2061     1  0.0000000  0.6508444  3
   2057   2046   2048   2062     1  0.0000000  0.6508444  3
   2058   2046   2045   2070     1  0.0000000  0.6508444  3
   2058   2046   2048   2061     1  0.0000000  0.6508444  3
   2058   2046   2048   2062     1  0.0000000  0.6508444  3
   2059   2047   2045   2070     1  0.0000000  0.6508444  3
   2059   2047   2050   2063     1  0.0000000  0.6508444  3
   2059   2047   2050   2064     1  0.0000000  0.6508444  3
   2060   2047   2045   2070     1  0.0000000  0.6508444  3
   2060   2047   2050   2063     1  0.0000000  0.6508444  3
   2060   2047   2050   2064     1  0.0000000  0.6508444  3
   2061   2048   2049   4287     1  180.0000771  0.0000000  2
   2062   2048   2049   4287     1  180.0000771  0.0000000  2
   2063   2050   2051   4317     1  180.0000771  0.0000000  2
   2064   2050   2051   4317     1  180.0000771  0.0000000  2
   2065   2052   2045   2070     1  0.0000000  0.6508444  3
   2065   2052   2053   2067     1  0.0000000  0.6508444  3
   2065   2052   2053   2068     1  0.0000000  0.6508444  3
   2066   2052   2045   2070     1  0.0000000  0.6508444  3
   2066   2052   2053   2067     1  0.0000000  0.6508444  3
   2066   2052   2053   2068     1  0.0000000  0.6508444  3
   2067   2053   2054   2069     1  0.0000000  0.0000000  2
   2068   2053   2054   2069     1  0.0000000  0.0000000  2
   2071   2072   2074   2087     1  0.0000000  0.6508444  3
   2071   2072   2074   2088     1  0.0000000  0.6508444  3
   2071   2073   2076   2089     1  0.0000000  0.6508444  3
   2071   2073   2076   2090     1  0.0000000  0.6508444  3
   2071   2078   2079   2093     1  0.0000000  0.6508444  3
   2071   2078   2079   2094     1  0.0000000  0.6508444  3
   2072   2071   2073   2085     1  0.0000000  0.6508444  3
   2072   2071   2073   2086     1  0.0000000  0.6508444  3
   2072   2071   2078   2091     1  0.0000000  0.6508444  3
   2072   2071   2078   2092     1  0.0000000  0.6508444  3
   2073   2071   2072   2083     1  0.0000000  0.6508444  3
   2073   2071   2072   2084     1  0.0000000  0.6508444  3
   2073   2071   2078   2091     1  0.0000000  0.6508444  3
   2073   2071   2078   2092     1  0.0000000  0.6508444  3
   2074   2072   2071   2096     1  0.0000000  0.6508444  3
   2074   2075   4347   4348     1  180.0000771  10.4600000  2
   2075   2074   2072   2083     1  0.0000000  0.6508444  3
   2075   2074   2072   2084     1  0.0000000  0.6508444  3
   2075   4347   4349   4350     1  0.0000000  0.0000000  2
   2075   4347   4349   4352     1  0.0000000  0.0000000  2
   2076   2073   2071   2096     1  0.0000000  0.6508444  3
   2076   2077   4377   4378     1  180.0000771  10.4600000  2
   2077   2076   2073   2085     1  0.0000000  0.6508444  3
   2077   2076   2073   2086     1  0.0000000  0.6508444  3
   2077   4377   4379   4380     1  0.0000000  0.0000000  2
   2077   4377   4379   4382     1  0.0000000  0.0000000  2
   2078   2071   2072   2083     1  0.0000000  0.6508444  3
   2078   2071   2072   2084     1  0.0000000  0.6508444  3
   2078   2071   2073   2085     1  0.0000000  0.6508444  3
   2078   2071   2073   2086     1  0.0000000  0.6508444  3
   2078   2079   2080   2095     1  0.0000000  0.0000000  2
   2079   2078   2071   2096     1  0.0000000  0.6508444  3
   2080   2079   2078   2091     1  0.0000000  0.6508444  3
   2080   2079   2078   2092     1  0.0000000  0.6508444  3
   2081   2075   2074   2087     1  0.0000000  3.3472000  1
   2081   2075   2074   2087     1  0.0000000  0.0000000  2
   2081   2075   2074   2087     1  180.0000771  0.3347200  3
   2081   2075   2074   2088     1  0.0000000  3.3472000  1
   2081   2075   2074   2088     1  0.0000000  0.0000000  2
   2081   2075   2074   2088     1  180.0000771  0.3347200  3
   2081   2075   4347   4348     1  0.0000000  8.3680000  1
   2081   2075   4347   4348     1  180.0000771  10.4600000  2
   2082   2077   2076   2089     1  0.0000000  3.3472000  1
   2082   2077   2076   2089     1  0.0000000  0.0000000  2
   2082   2077   2076   2089     1  180.0000771  0.3347200  3
   2082   2077   2076   2090     1  0.0000000  3.3472000  1
   2082   2077   2076   2090     1  0.0000000  0.0000000  2
   2082   2077   2076   2090     1  180.0000771  0.3347200  3
   2082   2077   4377   4378     1  0.0000000  8.3680000  1
   2082   2077   4377   4378     1  180.0000771  10.4600000  2
   2083   2072   2071   2096     1  0.0000000  0.6508444  3
   2083   2072   2074   2087     1  0.0000000  0.6508444  3
   2083   2072   2074   2088     1  0.0000000  0.6508444  3
   2084   2072   2071   2096     1  0.0000000  0.6508444  3
   2084   2072   2074   2087     1  0.0000000  0.6508444  3
   2084   2072   2074   2088     1  0.0000000  0.6508444  3
   2085   2073   2071   2096     1  0.0000000  0.6508444  3
   2085   2073   2076   2089     1  0.0000000  0.6508444  3
   2085   2073   2076   2090     1  0.0000000  0.6508444  3
   2086   2073   2071   2096     1  0.0000000  0.6508444  3
   2086   2073   2076   2089     1  0.0000000  0.6508444  3
   2086   2073   2076   2090     1  0.0000000  0.6508444  3
   2087   2074   2075   4347     1  180.0000771  0.0000000  2
   2088   2074   2075   4347     1  180.0000771  0.0000000  2
   2089   2076   2077   4377     1  180.0000771  0.0000000  2
   2090   2076   2077   4377     1  180.0000771  0.0000000  2
   2091   2078   2071   2096     1  0.0000000  0.6508444  3
   2091   2078   2079   2093     1  0.0000000  0.6508444  3
   2091   2078   2079   2094     1  0.0000000  0.6508444  3
   2092   2078   2071   2096     1  0.0000000  0.6508444  3
   2092   2078   2079   2093     1  0.0000000  0.6508444  3
   2092   2078   2079   2094     1  0.0000000  0.6508444  3
   2093   2079   2080   2095     1  0.0000000  0.0000000  2
   2094   2079   2080   2095     1  0.0000000  0.0000000  2
   2097   2098   2100   2113     1  0.0000000  0.6508444  3
   2097   2098   2100   2114     1  0.0000000  0.6508444  3
   2097   2099   2102   2115     1  0.0000000  0.6508444  3
   2097   2099   2102   2116     1  0.0000000  0.6508444  3
   2097   2104   2105   2119     1  0.0000000  0.6508444  3
   2097   2104   2105   2120     1  0.0000000  0.6508444  3
   2098   2097   2099   2111     1  0.0000000  0.6508444  3
   2098   2097   2099   2112     1  0.0000000  0.6508444  3
   2098   2097   2104   2117     1  0.0000000  0.6508444  3
   2098   2097   2104   2118     1  0.0000000  0.6508444  3
   2099   2097   2098   2109     1  0.0000000  0.6508444  3
   2099   2097   2098   2110     1  0.0000000  0.6508444  3
   2099   2097   2104   2117     1  0.0000000  0.6508444  3
   2099   2097   2104   2118     1  0.0000000  0.6508444  3
   2100   2098   2097   2122     1  0.0000000  0.6508444  3
   2100   2101   4407   4408     1  180.0000771  10.4600000  2
   2101   2100   2098   2109     1  0.0000000  0.6508444  3
   2101   2100   2098   2110     1  0.0000000  0.6508444  3
   2101   4407   4409   4410     1  0.0000000  0.0000000  2
   2101   4407   4409   4412     1  0.0000000  0.0000000  2
   2102   2099   2097   2122     1  0.0000000  0.6508444  3
   2102   2103   4437   4438     1  180.0000771  10.4600000  2
   2103   2102   2099   2111     1  0.0000000  0.6508444  3
   2103   2102   2099   2112     1  0.0000000  0.6508444  3
   2103   4437   4439   4440     1  0.0000000  0.0000000  2
   2103   4437   4439   4442     1  0.0000000  0.0000000  2
   2104   2097   2098   2109     1  0.0000000  0.6508444  3
   2104   2097   2098   2110     1  0.0000000  0.6508444  3
   2104   2097   2099   2111     1  0.0000000  0.6508444  3
   2104   2097   2099   2112     1  0.0000000  0.6508444  3
   2104   2105   2106   2121     1  0.0000000  0.0000000  2
   2105   2104   2097   2122     1  0.0000000  0.6508444  3
   2106   2105   2104   2117     1  0.0000000  0.6508444  3
   2106   2105   2104   2118     1  0.0000000  0.6508444  3
   2107   2101   2100   2113     1  0.0000000  3.3472000  1
   2107   2101   2100   2113     1  0.0000000  0.0000000  2
   2107   2101   2100   2113     1  180.0000771  0.3347200  3
   2107   2101   2100   2114     1  0.0000000  3.3472000  1
   2107   2101   2100   2114     1  0.0000000  0.0000000  2
   2107   2101   2100   2114     1  180.0000771  0.3347200  3
   2107   2101   4407   4408     1  0.0000000  8.3680000  1
   2107   2101   4407   4408     1  180.0000771  10.4600000  2
   2108   2103   2102   2115     1  0.0000000  3.3472000  1
   2108   2103   2102   2115     1  0.0000000  0.0000000  2
   2108   2103   2102   2115     1  180.0000771  0.3347200  3
   2108   2103   2102   2116     1  0.0000000  3.3472000  1
   2108   2103   2102   2116     1  0.0000000  0.0000000  2
   2108   2103   2102   2116     1  180.0000771  0.3347200  3
   2108   2103   4437   4438     1  0.0000000  8.3680000  1
   2108   2103   4437   4438     1  180.0000771  10.4600000  2
   2109   2098   2097   2122     1  0.0000000  0.6508444  3
   2109   2098   2100   2113     1  0.0000000  0.6508444  3
   2109   2098   2100   2114     1  0.0000000  0.6508444  3
   2110   2098   2097   2122     1  0.0000000  0.6508444  3
   2110   2098   2100   2113     1  0.0000000  0.6508444  3
   2110   2098   2100   2114     1  0.0000000  0.6508444  3
   2111   2099   2097   2122     1  0.0000000  0.6508444  3
   2111   2099   2102   2115     1  0.0000000  0.6508444  3
   2111   2099   2102   2116     1  0.0000000  0.6508444  3
   2112   2099   2097   2122     1  0.0000000  0.6508444  3
   2112   2099   2102   2115     1  0.0000000  0.6508444  3
   2112   2099   2102   2116     1  0.0000000  0.6508444  3
   2113   2100   2101   4407     1  180.0000771  0.0000000  2
   2114   2100   2101   4407     1  180.0000771  0.0000000  2
   2115   2102   2103   4437     1  180.0000771  0.0000000  2
   2116   2102   2103   4437     1  180.0000771  0.0000000  2
   2117   2104   2097   2122     1  0.0000000  0.6508444  3
   2117   2104   2105   2119     1  0.0000000  0.6508444  3
   2117   2104   2105   2120     1  0.0000000  0.6508444  3
   2118   2104   2097   2122     1  0.0000000  0.6508444  3
   2118   2104   2105   2119     1  0.0000000  0.6508444  3
   2118   2104   2105   2120     1  0.0000000  0.6508444  3
   2119   2105   2106   2121     1  0.0000000  0.0000000  2
   2120   2105   2106   2121     1  0.0000000  0.0000000  2
   2123   2124   2126   2139     1  0.0000000  0.6508444  3
   2123   2124   2126   2140     1  0.0000000  0.6508444  3
   2123   2125   2128   2141     1  0.0000000  0.6508444  3
   2123   2125   2128   2142     1  0.0000000  0.6508444  3
   2123   2130   2131   2145     1  0.0000000  0.6508444  3
   2123   2130   2131   2146     1  0.0000000  0.6508444  3
   2124   2123   2125   2137     1  0.0000000  0.6508444  3
   2124   2123   2125   2138     1  0.0000000  0.6508444  3
   2124   2123   2130   2143     1  0.0000000  0.6508444  3
   2124   2123   2130   2144     1  0.0000000  0.6508444  3
   2125   2123   2124   2135     1  0.0000000  0.6508444  3
   2125   2123   2124   2136     1  0.0000000  0.6508444  3
   2125   2123   2130   2143     1  0.0000000  0.6508444  3
   2125   2123   2130   2144     1  0.0000000  0.6508444  3
   2126   2124   2123   2148     1  0.0000000  0.6508444  3
   2126   2127   4467   4468     1  180.0000771  10.4600000  2
   2127   2126   2124   2135     1  0.0000000  0.6508444  3
   2127   2126   2124   2136     1  0.0000000  0.6508444  3
   2127   4467   4469   4470     1  0.0000000  0.0000000  2
   2127   4467   4469   4472     1  0.0000000  0.0000000  2
   2128   2125   2123   2148     1  0.0000000  0.6508444  3
   2128   2129   4497   4498     1  180.0000771  10.4600000  2
   2129   2128   2125   2137     1  0.0000000  0.6508444  3
   2129   2128   2125   2138     1  0.0000000  0.6508444  3
   2129   4497   4499   4500     1  0.0000000  0.0000000  2
   2129   4497   4499   4502     1  0.0000000  0.0000000  2
   2130   2123   2124   2135     1  0.0000000  0.6508444  3
   2130   2123   2124   2136     1  0.0000000  0.6508444  3
   2130   2123   2125   2137     1  0.0000000  0.6508444  3
   2130   2123   2125   2138     1  0.0000000  0.6508444  3
   2130   2131   2132   2147     1  0.0000000  0.0000000  2
   2131   2130   2123   2148     1  0.0000000  0.6508444  3
   2132   2131   2130   2143     1  0.0000000  0.6508444  3
   2132   2131   2130   2144     1  0.0000000  0.6508444  3
   2133   2127   2126   2139     1  0.0000000  3.3472000  1
   2133   2127   2126   2139     1  0.0000000  0.0000000  2
   2133   2127   2126   2139     1  180.0000771  0.3347200  3
   2133   2127   2126   2140     1  0.0000000  3.3472000  1
   2133   2127   2126   2140     1  0.0000000  0.0000000  2
   2133   2127   2126   2140     1  180.0000771  0.3347200  3
   2133   2127   4467   4468     1  0.0000000  8.3680000  1
   2133   2127   4467   4468     1  180.0000771  10.4600000  2
   2134   2129   2128   2141     1  0.0000000  3.3472000  1
   2134   2129   2128   2141     1  0.0000000  0.0000000  2
   2134   2129   2128   2141     1  180.0000771  0.3347200  3
   2134   2129   2128   2142     1  0.0000000  3.3472000  1
   2134   2129   2128   2142     1  0.0000000  0.0000000  2
   2134   2129   2128   2142     1  180.0000771  0.3347200  3
   2134   2129   4497   4498     1  0.0000000  8.3680000  1
   2134   2129   4497   4498     1  180.0000771  10.4600000  2
   2135   2124   2123   2148     1  0.0000000  0.6508444  3
   2135   2124   2126   2139     1  0.0000000  0.6508444  3
   2135   2124   2126   2140     1  0.0000000  0.6508444  3
   2136   2124   2123   2148     1  0.0000000  0.6508444  3
   2136   2124   2126   2139     1  0.0000000  0.6508444  3
   2136   2124   2126   2140     1  0.0000000  0.6508444  3
   2137   2125   2123   2148     1  0.0000000  0.6508444  3
   2137   2125   2128   2141     1  0.0000000  0.6508444  3
   2137   2125   2128   2142     1  0.0000000  0.6508444  3
   2138   2125   2123   2148     1  0.0000000  0.6508444  3
   2138   2125   2128   2141     1  0.0000000  0.6508444  3
   2138   2125   2128   2142     1  0.0000000  0.6508444  3
   2139   2126   2127   4467     1  180.0000771  0.0000000  2
   2140   2126   2127   4467     1  180.0000771  0.0000000  2
   2141   2128   2129   4497     1  180.0000771  0.0000000  2
   2142   2128   2129   4497     1  180.0000771  0.0000000  2
   2143   2130   2123   2148     1  0.0000000  0.6508444  3
   2143   2130   2131   2145     1  0.0000000  0.6508444  3
   2143   2130   2131   2146     1  0.0000000  0.6508444  3
   2144   2130   2123   2148     1  0.0000000  0.6508444  3
   2144   2130   2131   2145     1  0.0000000  0.6508444  3
   2144   2130   2131   2146     1  0.0000000  0.6508444  3
   2145   2131   2132   2147     1  0.0000000  0.0000000  2
   2146   2131   2132   2147     1  0.0000000  0.0000000  2
   2149   2150   2152   2165     1  0.0000000  0.6508444  3
   2149   2150   2152   2166     1  0.0000000  0.6508444  3
   2149   2151   2154   2167     1  0.0000000  0.6508444  3
   2149   2151   2154   2168     1  0.0000000  0.6508444  3
   2149   2156   2157   2171     1  0.0000000  0.6508444  3
   2149   2156   2157   2172     1  0.0000000  0.6508444  3
   2150   2149   2151   2163     1  0.0000000  0.6508444  3
   2150   2149   2151   2164     1  0.0000000  0.6508444  3
   2150   2149   2156   2169     1  0.0000000  0.6508444  3
   2150   2149   2156   2170     1  0.0000000  0.6508444  3
   2151   2149   2150   2161     1  0.0000000  0.6508444  3
   2151   2149   2150   2162     1  0.0000000  0.6508444  3
   2151   2149   2156   2169     1  0.0000000  0.6508444  3
   2151   2149   2156   2170     1  0.0000000  0.6508444  3
   2152   2150   2149   2174     1  0.0000000  0.6508444  3
   2152   2153   4527   4528     1  180.0000771  10.4600000  2
   2153   2152   2150   2161     1  0.0000000  0.6508444  3
   2153   2152   2150   2162     1  0.0000000  0.6508444  3
   2153   4527   4529   4530     1  0.0000000  0.0000000  2
   2153   4527   4529   4532     1  0.0000000  0.0000000  2
   2154   2151   2149   2174     1  0.0000000  0.6508444  3
   2154   2155   4557   4558     1  180.0000771  10.4600000  2
   2155   2154   2151   2163     1  0.0000000  0.6508444  3
   2155   2154   2151   2164     1  0.0000000  0.6508444  3
   2155   4557   4559   4560     1  0.0000000  0.0000000  2
   2155   4557   4559   4562     1  0.0000000  0.0000000  2
   2156   2149   2150   2161     1  0.0000000  0.6508444  3
   2156   2149   2150   2162     1  0.0000000  0.6508444  3
   2156   2149   2151   2163     1  0.0000000  0.6508444  3
   2156   2149   2151   2164     1  0.0000000  0.6508444  3
   2156   2157   2158   2173     1  0.0000000  0.0000000  2
   2157   2156   2149   2174     1  0.0000000  0.6508444  3
   2158   2157   2156   2169     1  0.0000000  0.6508444  3
   2158   2157   2156   2170     1  0.0000000  0.6508444  3
   2159   2153   2152   2165     1  0.0000000  3.3472000  1
   2159   2153   2152   2165     1  0.0000000  0.0000000  2
   2159   2153   2152   2165     1  180.0000771  0.3347200  3
   2159   2153   2152   2166     1  0.0000000  3.3472000  1
   2159   2153   2152   2166     1  0.0000000  0.0000000  2
   2159   2153   2152   2166     1  180.0000771  0.3347200  3
   2159   2153   4527   4528     1  0.0000000  8.3680000  1
   2159   2153   4527   4528     1  180.0000771  10.4600000  2
   2160   2155   2154   2167     1  0.0000000  3.3472000  1
   2160   2155   2154   2167     1  0.0000000  0.0000000  2
   2160   2155   2154   2167     1  180.0000771  0.3347200  3
   2160   2155   2154   2168     1  0.0000000  3.3472000  1
   2160   2155   2154   2168     1  0.0000000  0.0000000  2
   2160   2155   2154   2168     1  180.0000771  0.3347200  3
   2160   2155   4557   4558     1  0.0000000  8.3680000  1
   2160   2155   4557   4558     1  180.0000771  10.4600000  2
   2161   2150   2149   2174     1  0.0000000  0.6508444  3
   2161   2150   2152   2165     1  0.0000000  0.6508444  3
   2161   2150   2152   2166     1  0.0000000  0.6508444  3
   2162   2150   2149   2174     1  0.0000000  0.6508444  3
   2162   2150   2152   2165     1  0.0000000  0.6508444  3
   2162   2150   2152   2166     1  0.0000000  0.6508444  3
   2163   2151   2149   2174     1  0.0000000  0.6508444  3
   2163   2151   2154   2167     1  0.0000000  0.6508444  3
   2163   2151   2154   2168     1  0.0000000  0.6508444  3
   2164   2151   2149   2174     1  0.0000000  0.6508444  3
   2164   2151   2154   2167     1  0.0000000  0.6508444  3
   2164   2151   2154   2168     1  0.0000000  0.6508444  3
   2165   2152   2153   4527     1  180.0000771  0.0000000  2
   2166   2152   2153   4527     1  180.0000771  0.0000000  2
   2167   2154   2155   4557     1  180.0000771  0.0000000  2
   2168   2154   2155   4557     1  180.0000771  0.0000000  2
   2169   2156   2149   2174     1  0.0000000  0.6508444  3
   2169   2156   2157   2171     1  0.0000000  0.6508444  3
   2169   2156   2157   2172     1  0.0000000  0.6508444  3
   2170   2156   2149   2174     1  0.0000000  0.6508444  3
   2170   2156   2157   2171     1  0.0000000  0.6508444  3
   2170   2156   2157   2172     1  0.0000000  0.6508444  3
   2171   2157   2158   2173     1  0.0000000  0.0000000  2
   2172   2157   2158   2173     1  0.0000000  0.0000000  2
   2175   2176   2178   2191     1  0.0000000  0.6508444  3
   2175   2176   2178   2192     1  0.0000000  0.6508444  3
   2175   2177   2180   2193     1  0.0000000  0.6508444  3
   2175   2177   2180   2194     1  0.0000000  0.6508444  3
   2175   2182   2183   2197     1  0.0000000  0.6508444  3
   2175   2182   2183   2198     1  0.0000000  0.6508444  3
   2176   2175   2177   2189     1  0.0000000  0.6508444  3
   2176   2175   2177   2190     1  0.0000000  0.6508444  3
   2176   2175   2182   2195     1  0.0000000  0.6508444  3
   2176   2175   2182   2196     1  0.0000000  0.6508444  3
   2177   2175   2176   2187     1  0.0000000  0.6508444  3
   2177   2175   2176   2188     1  0.0000000  0.6508444  3
   2177   2175   2182   2195     1  0.0000000  0.6508444  3
   2177   2175   2182   2196     1  0.0000000  0.6508444  3
   2178   2176   2175   2200     1  0.0000000  0.6508444  3
   2178   2179   4587   4588     1  180.0000771  10.4600000  2
   2179   2178   2176   2187     1  0.0000000  0.6508444  3
   2179   2178   2176   2188     1  0.0000000  0.6508444  3
   2179   4587   4589   4590     1  0.0000000  0.0000000  2
   2179   4587   4589   4592     1  0.0000000  0.0000000  2
   2180   2177   2175   2200     1  0.0000000  0.6508444  3
   2180   2181   4617   4618     1  180.0000771  10.4600000  2
   2181   2180   2177   2189     1  0.0000000  0.6508444  3
   2181   2180   2177   2190     1  0.0000000  0.6508444  3
   2181   4617   4619   4620     1  0.0000000  0.0000000  2
   2181   4617   4619   4622     1  0.0000000  0.0000000  2
   2182   2175   2176   2187     1  0.0000000  0.6508444  3
   2182   2175   2176   2188     1  0.0000000  0.6508444  3
   2182   2175   2177   2189     1  0.0000000  0.6508444  3
   2182   2175   2177   2190     1  0.0000000  0.6508444  3
   2182   2183   2184   2199     1  0.0000000  0.0000000  2
   2183   2182   2175   2200     1  0.0000000  0.6508444  3
   2184   2183   2182   2195     1  0.0000000  0.6508444  3
   2184   2183   2182   2196     1  0.0000000  0.6508444  3
   2185   2179   2178   2191     1  0.0000000  3.3472000  1
   2185   2179   2178   2191     1  0.0000000  0.0000000  2
   2185   2179   2178   2191     1  180.0000771  0.3347200  3
   2185   2179   2178   2192     1  0.0000000  3.3472000  1
   2185   2179   2178   2192     1  0.0000000  0.0000000  2
   2185   2179   2178   2192     1  180.0000771  0.3347200  3
   2185   2179   4587   4588     1  0.0000000  8.3680000  1
   2185   2179   4587   4588     1  180.0000771  10.4600000  2
   2186   2181   2180   2193     1  0.0000000  3.3472000  1
   2186   2181   2180   2193     1  0.0000000  0.0000000  2
   2186   2181   2180   2193     1  180.0000771  0.3347200  3
   2186   2181   2180   2194     1  0.0000000  3.3472000  1
   2186   2181   2180   2194     1  0.0000000  0.0000000  2
   2186   2181   2180   2194     1  180.0000771  0.3347200  3
   2186   2181   4617   4618     1  0.0000000  8.3680000  1
   2186   2181   4617   4618     1  180.0000771  10.4600000  2
   2187   2176   2175   2200     1  0.0000000  0.6508444  3
   2187   2176   2178   2191     1  0.0000000  0.6508444  3
   2187   2176   2178   2192     1  0.0000000  0.6508444  3
   2188   2176   2175   2200     1  0.0000000  0.6508444  3
   2188   2176   2178   2191     1  0.0000000  0.6508444  3
   2188   2176   2178   2192     1  0.0000000  0.6508444  3
   2189   2177   2175   2200     1  0.0000000  0.6508444  3
   2189   2177   2180   2193     1  0.0000000  0.6508444  3
   2189   2177   2180   2194     1  0.0000000  0.6508444  3
   2190   2177   2175   2200     1  0.0000000  0.6508444  3
   2190   2177   2180   2193     1  0.0000000  0.6508444  3
   2190   2177   2180   2194     1  0.0000000  0.6508444  3
   2191   2178   2179   4587     1  180.0000771  0.0000000  2
   2192   2178   2179   4587     1  180.0000771  0.0000000  2
   2193   2180   2181   4617     1  180.0000771  0.0000000  2
   2194   2180   2181   4617     1  180.0000771  0.0000000  2
   2195   2182   2175   2200     1  0.0000000  0.6508444  3
   2195   2182   2183   2197     1  0.0000000  0.6508444  3
   2195   2182   2183   2198     1  0.0000000  0.6508444  3
   2196   2182   2175   2200     1  0.0000000  0.6508444  3
   2196   2182   2183   2197     1  0.0000000  0.6508444  3
   2196   2182   2183   2198     1  0.0000000  0.6508444  3
   2197   2183   2184   2199     1  0.0000000  0.0000000  2
   2198   2183   2184   2199     1  0.0000000  0.0000000  2
   2201   2202   2204   2217     1  0.0000000  0.6508444  3
   2201   2202   2204   2218     1  0.0000000  0.6508444  3
   2201   2203   2206   2219     1  0.0000000  0.6508444  3
   2201   2203   2206   2220     1  0.0000000  0.6508444  3
   2201   2208   2209   2223     1  0.0000000  0.6508444  3
   2201   2208   2209   2224     1  0.0000000  0.6508444  3
   2202   2201   2203   2215     1  0.0000000  0.6508444  3
   2202   2201   2203   2216     1  0.0000000  0.6508444  3
   2202   2201   2208   2221     1  0.0000000  0.6508444  3
   2202   2201   2208   2222     1  0.0000000  0.6508444  3
   2203   2201   2202   2213     1  0.0000000  0.6508444  3
   2203   2201   2202   2214     1  0.0000000  0.6508444  3
   2203   2201   2208   2221     1  0.0000000  0.6508444  3
   2203   2201   2208   2222     1  0.0000000  0.6508444  3
   2204   2202   2201   2226     1  0.0000000  0.6508444  3
   2204   2205   4647   4648     1  180.0000771  10.4600000  2
   2205   2204   2202   2213     1  0.0000000  0.6508444  3
   2205   2204   2202   2214     1  0.0000000  0.6508444  3
   2205   4647   4649   4650     1  0.0000000  0.0000000  2
   2205   4647   4649   4652     1  0.0000000  0.0000000  2
   2206   2203   2201   2226     1  0.0000000  0.6508444  3
   2206   2207   4677   4678     1  180.0000771  10.4600000  2
   2207   2206   2203   2215     1  0.0000000  0.6508444  3
   2207   2206   2203   2216     1  0.0000000  0.6508444  3
   2207   4677   4679   4680     1  0.0000000  0.0000000  2
   2207   4677   4679   4682     1  0.0000000  0.0000000  2
   2208   2201   2202   2213     1  0.0000000  0.6508444  3
   2208   2201   2202   2214     1  0.0000000  0.6508444  3
   2208   2201   2203   2215     1  0.0000000  0.6508444  3
   2208   2201   2203   2216     1  0.0000000  0.6508444  3
   2208   2209   2210   2225     1  0.0000000  0.0000000  2
   2209   2208   2201   2226     1  0.0000000  0.6508444  3
   2210   2209   2208   2221     1  0.0000000  0.6508444  3
   2210   2209   2208   2222     1  0.0000000  0.6508444  3
   2211   2205   2204   2217     1  0.0000000  3.3472000  1
   2211   2205   2204   2217     1  0.0000000  0.0000000  2
   2211   2205   2204   2217     1  180.0000771  0.3347200  3
   2211   2205   2204   2218     1  0.0000000  3.3472000  1
   2211   2205   2204   2218     1  0.0000000  0.0000000  2
   2211   2205   2204   2218     1  180.0000771  0.3347200  3
   2211   2205   4647   4648     1  0.0000000  8.3680000  1
   2211   2205   4647   4648     1  180.0000771  10.4600000  2
   2212   2207   2206   2219     1  0.0000000  3.3472000  1
   2212   2207   2206   2219     1  0.0000000  0.0000000  2
   2212   2207   2206   2219     1  180.0000771  0.3347200  3
   2212   2207   2206   2220     1  0.0000000  3.3472000  1
   2212   2207   2206   2220     1  0.0000000  0.0000000  2
   2212   2207   2206   2220     1  180.0000771  0.3347200  3
   2212   2207   4677   4678     1  0.0000000  8.3680000  1
   2212   2207   4677   4678     1  180.0000771  10.4600000  2
   2213   2202   2201   2226     1  0.0000000  0.6508444  3
   2213   2202   2204   2217     1  0.0000000  0.6508444  3
   2213   2202   2204   2218     1  0.0000000  0.6508444  3
   2214   2202   2201   2226     1  0.0000000  0.6508444  3
   2214   2202   2204   2217     1  0.0000000  0.6508444  3
   2214   2202   2204   2218     1  0.0000000  0.6508444  3
   2215   2203   2201   2226     1  0.0000000  0.6508444  3
   2215   2203   2206   2219     1  0.0000000  0.6508444  3
   2215   2203   2206   2220     1  0.0000000  0.6508444  3
   2216   2203   2201   2226     1  0.0000000  0.6508444  3
   2216   2203   2206   2219     1  0.0000000  0.6508444  3
   2216   2203   2206   2220     1  0.0000000  0.6508444  3
   2217   2204   2205   4647     1  180.0000771  0.0000000  2
   2218   2204   2205   4647     1  180.0000771  0.0000000  2
   2219   2206   2207   4677     1  180.0000771  0.0000000  2
   2220   2206   2207   4677     1  180.0000771  0.0000000  2
   2221   2208   2201   2226     1  0.0000000  0.6508444  3
   2221   2208   2209   2223     1  0.0000000  0.6508444  3
   2221   2208   2209   2224     1  0.0000000  0.6508444  3
   2222   2208   2201   2226     1  0.0000000  0.6508444  3
   2222   2208   2209   2223     1  0.0000000  0.6508444  3
   2222   2208   2209   2224     1  0.0000000  0.6508444  3
   2223   2209   2210   2225     1  0.0000000  0.0000000  2
   2224   2209   2210   2225     1  0.0000000  0.0000000  2
   2227   2228   2230   2243     1  0.0000000  0.6508444  3
   2227   2228   2230   2244     1  0.0000000  0.6508444  3
   2227   2229   2232   2245     1  0.0000000  0.6508444  3
   2227   2229   2232   2246     1  0.0000000  0.6508444  3
   2227   2234   2235   2249     1  0.0000000  0.6508444  3
   2227   2234   2235   2250     1  0.0000000  0.6508444  3
   2228   2227   2229   2241     1  0.0000000  0.6508444  3
   2228   2227   2229   2242     1  0.0000000  0.6508444  3
   2228   2227   2234   2247     1  0.0000000  0.6508444  3
   2228   2227   2234   2248     1  0.0000000  0.6508444  3
   2229   2227   2228   2239     1  0.0000000  0.6508444  3
   2229   2227   2228   2240     1  0.0000000  0.6508444  3
   2229   2227   2234   2247     1  0.0000000  0.6508444  3
   2229   2227   2234   2248     1  0.0000000  0.6508444  3
   2230   2228   2227   2252     1  0.0000000  0.6508444  3
   2230   2231   4707   4708     1  180.0000771  10.4600000  2
   2231   2230   2228   2239     1  0.0000000  0.6508444  3
   2231   2230   2228   2240     1  0.0000000  0.6508444  3
   2231   4707   4709   4710     1  0.0000000  0.0000000  2
   2231   4707   4709   4712     1  0.0000000  0.0000000  2
   2232   2229   2227   2252     1  0.0000000  0.6508444  3
   2232   2233   4737   4738     1  180.0000771  10.4600000  2
   2233   2232   2229   2241     1  0.0000000  0.6508444  3
   2233   2232   2229   2242     1  0.0000000  0.6508444  3
   2233   4737   4739   4740     1  0.0000000  0.0000000  2
   2233   4737   4739   4742     1  0.0000000  0.0000000  2
   2234   2227   2228   2239     1  0.0000000  0.6508444  3
   2234   2227   2228   2240     1  0.0000000  0.6508444  3
   2234   2227   2229   2241     1  0.0000000  0.6508444  3
   2234   2227   2229   2242     1  0.0000000  0.6508444  3
   2234   2235   2236   2251     1  0.0000000  0.0000000  2
   2235   2234   2227   2252     1  0.0000000  0.6508444  3
   2236   2235   2234   2247     1  0.0000000  0.6508444  3
   2236   2235   2234   2248     1  0.0000000  0.6508444  3
   2237   2231   2230   2243     1  0.0000000  3.3472000  1
   2237   2231   2230   2243     1  0.0000000  0.0000000  2
   2237   2231   2230   2243     1  180.0000771  0.3347200  3
   2237   2231   2230   2244     1  0.0000000  3.3472000  1
   2237   2231   2230   2244     1  0.0000000  0.0000000  2
   2237   2231   2230   2244     1  180.0000771  0.3347200  3
   2237   2231   4707   4708     1  0.0000000  8.3680000  1
   2237   2231   4707   4708     1  180.0000771  10.4600000  2
   2238   2233   2232   2245     1  0.0000000  3.3472000  1
   2238   2233   2232   2245     1  0.0000000  0.0000000  2
   2238   2233   2232   2245     1  180.0000771  0.3347200  3
   2238   2233   2232   2246     1  0.0000000  3.3472000  1
   2238   2233   2232   2246     1  0.0000000  0.0000000  2
   2238   2233   2232   2246     1  180.0000771  0.3347200  3
   2238   2233   4737   4738     1  0.0000000  8.3680000  1
   2238   2233   4737   4738     1  180.0000771  10.4600000  2
   2239   2228   2227   2252     1  0.0000000  0.6508444  3
   2239   2228   2230   2243     1  0.0000000  0.6508444  3
   2239   2228   2230   2244     1  0.0000000  0.6508444  3
   2240   2228   2227   2252     1  0.0000000  0.6508444  3
   2240   2228   2230   2243     1  0.0000000  0.6508444  3
   2240   2228   2230   2244     1  0.0000000  0.6508444  3
   2241   2229   2227   2252     1  0.0000000  0.6508444  3
   2241   2229   2232   2245     1  0.0000000  0.6508444  3
   2241   2229   2232   2246     1  0.0000000  0.6508444  3
   2242   2229   2227   2252     1  0.0000000  0.6508444  3
   2242   2229   2232   2245     1  0.0000000  0.6508444  3
   2242   2229   2232   2246     1  0.0000000  0.6508444  3
   2243   2230   2231   4707     1  180.0000771  0.0000000  2
   2244   2230   2231   4707     1  180.0000771  0.0000000  2
   2245   2232   2233   4737     1  180.0000771  0.0000000  2
   2246   2232   2233   4737     1  180.0000771  0.0000000  2
   2247   2234   2227   2252     1  0.0000000  0.6508444  3
   2247   2234   2235   2249     1  0.0000000  0.6508444  3
   2247   2234   2235   2250     1  0.0000000  0.6508444  3
   2248   2234   2227   2252     1  0.0000000  0.6508444  3
   2248   2234   2235   2249     1  0.0000000  0.6508444  3
   2248   2234   2235   2250     1  0.0000000  0.6508444  3
   2249   2235   2236   2251     1  0.0000000  0.0000000  2
   2250   2235   2236   2251     1  0.0000000  0.0000000  2
   2253   2254   2256   2269     1  0.0000000  0.6508444  3
   2253   2254   2256   2270     1  0.0000000  0.6508444  3
   2253   2255   2258   2271     1  0.0000000  0.6508444  3
   2253   2255   2258   2272     1  0.0000000  0.6508444  3
   2253   2260   2261   2275     1  0.0000000  0.6508444  3
   2253   2260   2261   2276     1  0.0000000  0.6508444  3
   2254   2253   2255   2267     1  0.0000000  0.6508444  3
   2254   2253   2255   2268     1  0.0000000  0.6508444  3
   2254   2253   2260   2273     1  0.0000000  0.6508444  3
   2254   2253   2260   2274     1  0.0000000  0.6508444  3
   2255   2253   2254   2265     1  0.0000000  0.6508444  3
   2255   2253   2254   2266     1  0.0000000  0.6508444  3
   2255   2253   2260   2273     1  0.0000000  0.6508444  3
   2255   2253   2260   2274     1  0.0000000  0.6508444  3
   2256   2254   2253   2278     1  0.0000000  0.6508444  3
   2256   2257   4767   4768     1  180.0000771  10.4600000  2
   2257   2256   2254   2265     1  0.0000000  0.6508444  3
   2257   2256   2254   2266     1  0.0000000  0.6508444  3
   2257   4767   4769   4770     1  0.0000000  0.0000000  2
   2257   4767   4769   4772     1  0.0000000  0.0000000  2
   2258   2255   2253   2278     1  0.0000000  0.6508444  3
   2258   2259   4797   4798     1  180.0000771  10.4600000  2
   2259   2258   2255   2267     1  0.0000000  0.6508444  3
   2259   2258   2255   2268     1  0.0000000  0.6508444  3
   2259   4797   4799   4800     1  0.0000000  0.0000000  2
   2259   4797   4799   4802     1  0.0000000  0.0000000  2
   2260   2253   2254   2265     1  0.0000000  0.6508444  3
   2260   2253   2254   2266     1  0.0000000  0.6508444  3
   2260   2253   2255   2267     1  0.0000000  0.6508444  3
   2260   2253   2255   2268     1  0.0000000  0.6508444  3
   2260   2261   2262   2277     1  0.0000000  0.0000000  2
   2261   2260   2253   2278     1  0.0000000  0.6508444  3
   2262   2261   2260   2273     1  0.0000000  0.6508444  3
   2262   2261   2260   2274     1  0.0000000  0.6508444  3
   2263   2257   2256   2269     1  0.0000000  3.3472000  1
   2263   2257   2256   2269     1  0.0000000  0.0000000  2
   2263   2257   2256   2269     1  180.0000771  0.3347200  3
   2263   2257   2256   2270     1  0.0000000  3.3472000  1
   2263   2257   2256   2270     1  0.0000000  0.0000000  2
   2263   2257   2256   2270     1  180.0000771  0.3347200  3
   2263   2257   4767   4768     1  0.0000000  8.3680000  1
   2263   2257   4767   4768     1  180.0000771  10.4600000  2
   2264   2259   2258   2271     1  0.0000000  3.3472000  1
   2264   2259   2258   2271     1  0.0000000  0.0000000  2
   2264   2259   2258   2271     1  180.0000771  0.3347200  3
   2264   2259   2258   2272     1  0.0000000  3.3472000  1
   2264   2259   2258   2272     1  0.0000000  0.0000000  2
   2264   2259   2258   2272     1  180.0000771  0.3347200  3
   2264   2259   4797   4798     1  0.0000000  8.3680000  1
   2264   2259   4797   4798     1  180.0000771  10.4600000  2
   2265   2254   2253   2278     1  0.0000000  0.6508444  3
   2265   2254   2256   2269     1  0.0000000  0.6508444  3
   2265   2254   2256   2270     1  0.0000000  0.6508444  3
   2266   2254   2253   2278     1  0.0000000  0.6508444  3
   2266   2254   2256   2269     1  0.0000000  0.6508444  3
   2266   2254   2256   2270     1  0.0000000  0.6508444  3
   2267   2255   2253   2278     1  0.0000000  0.6508444  3
   2267   2255   2258   2271     1  0.0000000  0.6508444  3
   2267   2255   2258   2272     1  0.0000000  0.6508444  3
   2268   2255   2253   2278     1  0.0000000  0.6508444  3
   2268   2255   2258   2271     1  0.0000000  0.6508444  3
   2268   2255   2258   2272     1  0.0000000  0.6508444  3
   2269   2256   2257   4767     1  180.0000771  0.0000000  2
   2270   2256   2257   4767     1  180.0000771  0.0000000  2
   2271   2258   2259   4797     1  180.0000771  0.0000000  2
   2272   2258   2259   4797     1  180.0000771  0.0000000  2
   2273   2260   2253   2278     1  0.0000000  0.6508444  3
   2273   2260   2261   2275     1  0.0000000  0.6508444  3
   2273   2260   2261   2276     1  0.0000000  0.6508444  3
   2274   2260   2253   2278     1  0.0000000  0.6508444  3
   2274   2260   2261   2275     1  0.0000000  0.6508444  3
   2274   2260   2261   2276     1  0.0000000  0.6508444  3
   2275   2261   2262   2277     1  0.0000000  0.0000000  2
   2276   2261   2262   2277     1  0.0000000  0.0000000  2
   2279   2280   2282   2295     1  0.0000000  0.6508444  3
   2279   2280   2282   2296     1  0.0000000  0.6508444  3
   2279   2281   2284   2297     1  0.0000000  0.6508444  3
   2279   2281   2284   2298     1  0.0000000  0.6508444  3
   2279   2286   2287   2301     1  0.0000000  0.6508444  3
   2279   2286   2287   2302     1  0.0000000  0.6508444  3
   2280   2279   2281   2293     1  0.0000000  0.6508444  3
   2280   2279   2281   2294     1  0.0000000  0.6508444  3
   2280   2279   2286   2299     1  0.0000000  0.6508444  3
   2280   2279   2286   2300     1  0.0000000  0.6508444  3
   2281   2279   2280   2291     1  0.0000000  0.6508444  3
   2281   2279   2280   2292     1  0.0000000  0.6508444  3
   2281   2279   2286   2299     1  0.0000000  0.6508444  3
   2281   2279   2286   2300     1  0.0000000  0.6508444  3
   2282   2280   2279   2304     1  0.0000000  0.6508444  3
   2282   2283   4827   4828     1  180.0000771  10.4600000  2
   2283   2282   2280   2291     1  0.0000000  0.6508444  3
   2283   2282   2280   2292     1  0.0000000  0.6508444  3
   2283   4827   4829   4830     1  0.0000000  0.0000000  2
   2283   4827   4829   4832     1  0.0000000  0.0000000  2
   2284   2281   2279   2304     1  0.0000000  0.6508444  3
   2284   2285   4857   4858     1  180.0000771  10.4600000  2
   2285   2284   2281   2293     1  0.0000000  0.6508444  3
   2285   2284   2281   2294     1  0.0000000  0.6508444  3
   2285   4857   4859   4860     1  0.0000000  0.0000000  2
   2285   4857   4859   4862     1  0.0000000  0.0000000  2
   2286   2279   2280   2291     1  0.0000000  0.6508444  3
   2286   2279   2280   2292     1  0.0000000  0.6508444  3
   2286   2279   2281   2293     1  0.0000000  0.6508444  3
   2286   2279   2281   2294     1  0.0000000  0.6508444  3
   2286   2287   2288   2303     1  0.0000000  0.0000000  2
   2287   2286   2279   2304     1  0.0000000  0.6508444  3
   2288   2287   2286   2299     1  0.0000000  0.6508444  3
   2288   2287   2286   2300     1  0.0000000  0.6508444  3
   2289   2283   2282   2295     1  0.0000000  3.3472000  1
   2289   2283   2282   2295     1  0.0000000  0.0000000  2
   2289   2283   2282   2295     1  180.0000771  0.3347200  3
   2289   2283   2282   2296     1  0.0000000  3.3472000  1
   2289   2283   2282   2296     1  0.0000000  0.0000000  2
   2289   2283   2282   2296     1  180.0000771  0.3347200  3
   2289   2283   4827   4828     1  0.0000000  8.3680000  1
   2289   2283   4827   4828     1  180.0000771  10.4600000  2
   2290   2285   2284   2297     1  0.0000000  3.3472000  1
   2290   2285   2284   2297     1  0.0000000  0.0000000  2
   2290   2285   2284   2297     1  180.0000771  0.3347200  3
   2290   2285   2284   2298     1  0.0000000  3.3472000  1
   2290   2285   2284   2298     1  0.0000000  0.0000000  2
   2290   2285   2284   2298     1  180.0000771  0.3347200  3
   2290   2285   4857   4858     1  0.0000000  8.3680000  1
   2290   2285   4857   4858     1  180.0000771  10.4600000  2
   2291   2280   2279   2304     1  0.0000000  0.6508444  3
   2291   2280   2282   2295     1  0.0000000  0.6508444  3
   2291   2280   2282   2296     1  0.0000000  0.6508444  3
   2292   2280   2279   2304     1  0.0000000  0.6508444  3
   2292   2280   2282   2295     1  0.0000000  0.6508444  3
   2292   2280   2282   2296     1  0.0000000  0.6508444  3
   2293   2281   2279   2304     1  0.0000000  0.6508444  3
   2293   2281   2284   2297     1  0.0000000  0.6508444  3
   2293   2281   2284   2298     1  0.0000000  0.6508444  3
   2294   2281   2279   2304     1  0.0000000  0.6508444  3
   2294   2281   2284   2297     1  0.0000000  0.6508444  3
   2294   2281   2284   2298     1  0.0000000  0.6508444  3
   2295   2282   2283   4827     1  180.0000771  0.0000000  2
   2296   2282   2283   4827     1  180.0000771  0.0000000  2
   2297   2284   2285   4857     1  180.0000771  0.0000000  2
   2298   2284   2285   4857     1  180.0000771  0.0000000  2
   2299   2286   2279   2304     1  0.0000000  0.6508444  3
   2299   2286   2287   2301     1  0.0000000  0.6508444  3
   2299   2286   2287   2302     1  0.0000000  0.6508444  3
   2300   2286   2279   2304     1  0.0000000  0.6508444  3
   2300   2286   2287   2301     1  0.0000000  0.6508444  3
   2300   2286   2287   2302     1  0.0000000  0.6508444  3
   2301   2287   2288   2303     1  0.0000000  0.0000000  2
   2302   2287   2288   2303     1  0.0000000  0.0000000  2
   2305   2306   2308   2321     1  0.0000000  0.6508444  3
   2305   2306   2308   2322     1  0.0000000  0.6508444  3
   2305   2307   2310   2323     1  0.0000000  0.6508444  3
   2305   2307   2310   2324     1  0.0000000  0.6508444  3
   2305   2312   2313   2327     1  0.0000000  0.6508444  3
   2305   2312   2313   2328     1  0.0000000  0.6508444  3
   2306   2305   2307   2319     1  0.0000000  0.6508444  3
   2306   2305   2307   2320     1  0.0000000  0.6508444  3
   2306   2305   2312   2325     1  0.0000000  0.6508444  3
   2306   2305   2312   2326     1  0.0000000  0.6508444  3
   2307   2305   2306   2317     1  0.0000000  0.6508444  3
   2307   2305   2306   2318     1  0.0000000  0.6508444  3
   2307   2305   2312   2325     1  0.0000000  0.6508444  3
   2307   2305   2312   2326     1  0.0000000  0.6508444  3
   2308   2306   2305   2330     1  0.0000000  0.6508444  3
   2308   2309   4887   4888     1  180.0000771  10.4600000  2
   2309   2308   2306   2317     1  0.0000000  0.6508444  3
   2309   2308   2306   2318     1  0.0000000  0.6508444  3
   2309   4887   4889   4890     1  0.0000000  0.0000000  2
   2309   4887   4889   4892     1  0.0000000  0.0000000  2
   2310   2307   2305   2330     1  0.0000000  0.6508444  3
   2310   2311   4917   4918     1  180.0000771  10.4600000  2
   2311   2310   2307   2319     1  0.0000000  0.6508444  3
   2311   2310   2307   2320     1  0.0000000  0.6508444  3
   2311   4917   4919   4920     1  0.0000000  0.0000000  2
   2311   4917   4919   4922     1  0.0000000  0.0000000  2
   2312   2305   2306   2317     1  0.0000000  0.6508444  3
   2312   2305   2306   2318     1  0.0000000  0.6508444  3
   2312   2305   2307   2319     1  0.0000000  0.6508444  3
   2312   2305   2307   2320     1  0.0000000  0.6508444  3
   2312   2313   2314   2329     1  0.0000000  0.0000000  2
   2313   2312   2305   2330     1  0.0000000  0.6508444  3
   2314   2313   2312   2325     1  0.0000000  0.6508444  3
   2314   2313   2312   2326     1  0.0000000  0.6508444  3
   2315   2309   2308   2321     1  0.0000000  3.3472000  1
   2315   2309   2308   2321     1  0.0000000  0.0000000  2
   2315   2309   2308   2321     1  180.0000771  0.3347200  3
   2315   2309   2308   2322     1  0.0000000  3.3472000  1
   2315   2309   2308   2322     1  0.0000000  0.0000000  2
   2315   2309   2308   2322     1  180.0000771  0.3347200  3
   2315   2309   4887   4888     1  0.0000000  8.3680000  1
   2315   2309   4887   4888     1  180.0000771  10.4600000  2
   2316   2311   2310   2323     1  0.0000000  3.3472000  1
   2316   2311   2310   2323     1  0.0000000  0.0000000  2
   2316   2311   2310   2323     1  180.0000771  0.3347200  3
   2316   2311   2310   2324     1  0.0000000  3.3472000  1
   2316   2311   2310   2324     1  0.0000000  0.0000000  2
   2316   2311   2310   2324     1  180.0000771  0.3347200  3
   2316   2311   4917   4918     1  0.0000000  8.3680000  1
   2316   2311   4917   4918     1  180.0000771  10.4600000  2
   2317   2306   2305   2330     1  0.0000000  0.6508444  3
   2317   2306   2308   2321     1  0.0000000  0.6508444  3
   2317   2306   2308   2322     1  0.0000000  0.6508444  3
   2318   2306   2305   2330     1  0.0000000  0.6508444  3
   2318   2306   2308   2321     1  0.0000000  0.6508444  3
   2318   2306   2308   2322     1  0.0000000  0.6508444  3
   2319   2307   2305   2330     1  0.0000000  0.6508444  3
   2319   2307   2310   2323     1  0.0000000  0.6508444  3
   2319   2307   2310   2324     1  0.0000000  0.6508444  3
   2320   2307   2305   2330     1  0.0000000  0.6508444  3
   2320   2307   2310   2323     1  0.0000000  0.6508444  3
   2320   2307   2310   2324     1  0.0000000  0.6508444  3
   2321   2308   2309   4887     1  180.0000771  0.0000000  2
   2322   2308   2309   4887     1  180.0000771  0.0000000  2
   2323   2310   2311   4917     1  180.0000771  0.0000000  2
   2324   2310   2311   4917     1  180.0000771  0.0000000  2
   2325   2312   2305   2330     1  0.0000000  0.6508444  3
   2325   2312   2313   2327     1  0.0000000  0.6508444  3
   2325   2312   2313   2328     1  0.0000000  0.6508444  3
   2326   2312   2305   2330     1  0.0000000  0.6508444  3
   2326   2312   2313   2327     1  0.0000000  0.6508444  3
   2326   2312   2313   2328     1  0.0000000  0.6508444  3
   2327   2313   2314   2329     1  0.0000000  0.0000000  2
   2328   2313   2314   2329     1  0.0000000  0.0000000  2
   2331   2332   2334   2347     1  0.0000000  0.6508444  3
   2331   2332   2334   2348     1  0.0000000  0.6508444  3
   2331   2333   2336   2349     1  0.0000000  0.6508444  3
   2331   2333   2336   2350     1  0.0000000  0.6508444  3
   2331   2338   2339   2353     1  0.0000000  0.6508444  3
   2331   2338   2339   2354     1  0.0000000  0.6508444  3
   2332   2331   2333   2345     1  0.0000000  0.6508444  3
   2332   2331   2333   2346     1  0.0000000  0.6508444  3
   2332   2331   2338   2351     1  0.0000000  0.6508444  3
   2332   2331   2338   2352     1  0.0000000  0.6508444  3
   2333   2331   2332   2343     1  0.0000000  0.6508444  3
   2333   2331   2332   2344     1  0.0000000  0.6508444  3
   2333   2331   2338   2351     1  0.0000000  0.6508444  3
   2333   2331   2338   2352     1  0.0000000  0.6508444  3
   2334   2332   2331   2356     1  0.0000000  0.6508444  3
   2334   2335   4947   4948     1  180.0000771  10.4600000  2
   2335   2334   2332   2343     1  0.0000000  0.6508444  3
   2335   2334   2332   2344     1  0.0000000  0.6508444  3
   2335   4947   4949   4950     1  0.0000000  0.0000000  2
   2335   4947   4949   4952     1  0.0000000  0.0000000  2
   2336   2333   2331   2356     1  0.0000000  0.6508444  3
   2336   2337   4977   4978     1  180.0000771  10.4600000  2
   2337   2336   2333   2345     1  0.0000000  0.6508444  3
   2337   2336   2333   2346     1  0.0000000  0.6508444  3
   2337   4977   4979   4980     1  0.0000000  0.0000000  2
   2337   4977   4979   4982     1  0.0000000  0.0000000  2
   2338   2331   2332   2343     1  0.0000000  0.6508444  3
   2338   2331   2332   2344     1  0.0000000  0.6508444  3
   2338   2331   2333   2345     1  0.0000000  0.6508444  3
   2338   2331   2333   2346     1  0.0000000  0.6508444  3
   2338   2339   2340   2355     1  0.0000000  0.0000000  2
   2339   2338   2331   2356     1  0.0000000  0.6508444  3
   2340   2339   2338   2351     1  0.0000000  0.6508444  3
   2340   2339   2338   2352     1  0.0000000  0.6508444  3
   2341   2335   2334   2347     1  0.0000000  3.3472000  1
   2341   2335   2334   2347     1  0.0000000  0.0000000  2
   2341   2335   2334   2347     1  180.0000771  0.3347200  3
   2341   2335   2334   2348     1  0.0000000  3.3472000  1
   2341   2335   2334   2348     1  0.0000000  0.0000000  2
   2341   2335   2334   2348     1  180.0000771  0.3347200  3
   2341   2335   4947   4948     1  0.0000000  8.3680000  1
   2341   2335   4947   4948     1  180.0000771  10.4600000  2
   2342   2337   2336   2349     1  0.0000000  3.3472000  1
   2342   2337   2336   2349     1  0.0000000  0.0000000  2
   2342   2337   2336   2349     1  180.0000771  0.3347200  3
   2342   2337   2336   2350     1  0.0000000  3.3472000  1
   2342   2337   2336   2350     1  0.0000000  0.0000000  2
   2342   2337   2336   2350     1  180.0000771  0.3347200  3
   2342   2337   4977   4978     1  0.0000000  8.3680000  1
   2342   2337   4977   4978     1  180.0000771  10.4600000  2
   2343   2332   2331   2356     1  0.0000000  0.6508444  3
   2343   2332   2334   2347     1  0.0000000  0.6508444  3
   2343   2332   2334   2348     1  0.0000000  0.6508444  3
   2344   2332   2331   2356     1  0.0000000  0.6508444  3
   2344   2332   2334   2347     1  0.0000000  0.6508444  3
   2344   2332   2334   2348     1  0.0000000  0.6508444  3
   2345   2333   2331   2356     1  0.0000000  0.6508444  3
   2345   2333   2336   2349     1  0.0000000  0.6508444  3
   2345   2333   2336   2350     1  0.0000000  0.6508444  3
   2346   2333   2331   2356     1  0.0000000  0.6508444  3
   2346   2333   2336   2349     1  0.0000000  0.6508444  3
   2346   2333   2336   2350     1  0.0000000  0.6508444  3
   2347   2334   2335   4947     1  180.0000771  0.0000000  2
   2348   2334   2335   4947     1  180.0000771  0.0000000  2
   2349   2336   2337   4977     1  180.0000771  0.0000000  2
   2350   2336   2337   4977     1  180.0000771  0.0000000  2
   2351   2338   2331   2356     1  0.0000000  0.6508444  3
   2351   2338   2339   2353     1  0.0000000  0.6508444  3
   2351   2338   2339   2354     1  0.0000000  0.6508444  3
   2352   2338   2331   2356     1  0.0000000  0.6508444  3
   2352   2338   2339   2353     1  0.0000000  0.6508444  3
   2352   2338   2339   2354     1  0.0000000  0.6508444  3
   2353   2339   2340   2355     1  0.0000000  0.0000000  2
   2354   2339   2340   2355     1  0.0000000  0.0000000  2
   2357   2358   2360   2373     1  0.0000000  0.6508444  3
   2357   2358   2360   2374     1  0.0000000  0.6508444  3
   2357   2359   2362   2375     1  0.0000000  0.6508444  3
   2357   2359   2362   2376     1  0.0000000  0.6508444  3
   2357   2364   2365   2379     1  0.0000000  0.6508444  3
   2357   2364   2365   2380     1  0.0000000  0.6508444  3
   2358   2357   2359   2371     1  0.0000000  0.6508444  3
   2358   2357   2359   2372     1  0.0000000  0.6508444  3
   2358   2357   2364   2377     1  0.0000000  0.6508444  3
   2358   2357   2364   2378     1  0.0000000  0.6508444  3
   2359   2357   2358   2369     1  0.0000000  0.6508444  3
   2359   2357   2358   2370     1  0.0000000  0.6508444  3
   2359   2357   2364   2377     1  0.0000000  0.6508444  3
   2359   2357   2364   2378     1  0.0000000  0.6508444  3
   2360   2358   2357   2382     1  0.0000000  0.6508444  3
   2360   2361   5007   5008     1  180.0000771  10.4600000  2
   2361   2360   2358   2369     1  0.0000000  0.6508444  3
   2361   2360   2358   2370     1  0.0000000  0.6508444  3
   2361   5007   5009   5010     1  0.0000000  0.0000000  2
   2361   5007   5009   5012     1  0.0000000  0.0000000  2
   2362   2359   2357   2382     1  0.0000000  0.6508444  3
   2362   2363   5037   5038     1  180.0000771  10.4600000  2
   2363   2362   2359   2371     1  0.0000000  0.6508444  3
   2363   2362   2359   2372     1  0.0000000  0.6508444  3
   2363   5037   5039   5040     1  0.0000000  0.0000000  2
   2363   5037   5039   5042     1  0.0000000  0.0000000  2
   2364   2357   2358   2369     1  0.0000000  0.6508444  3
   2364   2357   2358   2370     1  0.0000000  0.6508444  3
   2364   2357   2359   2371     1  0.0000000  0.6508444  3
   2364   2357   2359   2372     1  0.0000000  0.6508444  3
   2364   2365   2366   2381     1  0.0000000  0.0000000  2
   2365   2364   2357   2382     1  0.0000000  0.6508444  3
   2366   2365   2364   2377     1  0.0000000  0.6508444  3
   2366   2365   2364   2378     1  0.0000000  0.6508444  3
   2367   2361   2360   2373     1  0.0000000  3.3472000  1
   2367   2361   2360   2373     1  0.0000000  0.0000000  2
   2367   2361   2360   2373     1  180.0000771  0.3347200  3
   2367   2361   2360   2374     1  0.0000000  3.3472000  1
   2367   2361   2360   2374     1  0.0000000  0.0000000  2
   2367   2361   2360   2374     1  180.0000771  0.3347200  3
   2367   2361   5007   5008     1  0.0000000  8.3680000  1
   2367   2361   5007   5008     1  180.0000771  10.4600000  2
   2368   2363   2362   2375     1  0.0000000  3.3472000  1
   2368   2363   2362   2375     1  0.0000000  0.0000000  2
   2368   2363   2362   2375     1  180.0000771  0.3347200  3
   2368   2363   2362   2376     1  0.0000000  3.3472000  1
   2368   2363   2362   2376     1  0.0000000  0.0000000  2
   2368   2363   2362   2376     1  180.0000771  0.3347200  3
   2368   2363   5037   5038     1  0.0000000  8.3680000  1
   2368   2363   5037   5038     1  180.0000771  10.4600000  2
   2369   2358   2357   2382     1  0.0000000  0.6508444  3
   2369   2358   2360   2373     1  0.0000000  0.6508444  3
   2369   2358   2360   2374     1  0.0000000  0.6508444  3
   2370   2358   2357   2382     1  0.0000000  0.6508444  3
   2370   2358   2360   2373     1  0.0000000  0.6508444  3
   2370   2358   2360   2374     1  0.0000000  0.6508444  3
   2371   2359   2357   2382     1  0.0000000  0.6508444  3
   2371   2359   2362   2375     1  0.0000000  0.6508444  3
   2371   2359   2362   2376     1  0.0000000  0.6508444  3
   2372   2359   2357   2382     1  0.0000000  0.6508444  3
   2372   2359   2362   2375     1  0.0000000  0.6508444  3
   2372   2359   2362   2376     1  0.0000000  0.6508444  3
   2373   2360   2361   5007     1  180.0000771  0.0000000  2
   2374   2360   2361   5007     1  180.0000771  0.0000000  2
   2375   2362   2363   5037     1  180.0000771  0.0000000  2
   2376   2362   2363   5037     1  180.0000771  0.0000000  2
   2377   2364   2357   2382     1  0.0000000  0.6508444  3
   2377   2364   2365   2379     1  0.0000000  0.6508444  3
   2377   2364   2365   2380     1  0.0000000  0.6508444  3
   2378   2364   2357   2382     1  0.0000000  0.6508444  3
   2378   2364   2365   2379     1  0.0000000  0.6508444  3
   2378   2364   2365   2380     1  0.0000000  0.6508444  3
   2379   2365   2366   2381     1  0.0000000  0.0000000  2
   2380   2365   2366   2381     1  0.0000000  0.0000000  2
   2383   2384   2386   2399     1  0.0000000  0.6508444  3
   2383   2384   2386   2400     1  0.0000000  0.6508444  3
   2383   2385   2388   2401     1  0.0000000  0.6508444  3
   2383   2385   2388   2402     1  0.0000000  0.6508444  3
   2383   2390   2391   2405     1  0.0000000  0.6508444  3
   2383   2390   2391   2406     1  0.0000000  0.6508444  3
   2384   2383   2385   2397     1  0.0000000  0.6508444  3
   2384   2383   2385   2398     1  0.0000000  0.6508444  3
   2384   2383   2390   2403     1  0.0000000  0.6508444  3
   2384   2383   2390   2404     1  0.0000000  0.6508444  3
   2385   2383   2384   2395     1  0.0000000  0.6508444  3
   2385   2383   2384   2396     1  0.0000000  0.6508444  3
   2385   2383   2390   2403     1  0.0000000  0.6508444  3
   2385   2383   2390   2404     1  0.0000000  0.6508444  3
   2386   2384   2383   2408     1  0.0000000  0.6508444  3
   2386   2387   5067   5068     1  180.0000771  10.4600000  2
   2387   2386   2384   2395     1  0.0000000  0.6508444  3
   2387   2386   2384   2396     1  0.0000000  0.6508444  3
   2387   5067   5069   5070     1  0.0000000  0.0000000  2
   2387   5067   5069   5072     1  0.0000000  0.0000000  2
   2388   2385   2383   2408     1  0.0000000  0.6508444  3
   2388   2389   5097   5098     1  180.0000771  10.4600000  2
   2389   2388   2385   2397     1  0.0000000  0.6508444  3
   2389   2388   2385   2398     1  0.0000000  0.6508444  3
   2389   5097   5099   5100     1  0.0000000  0.0000000  2
   2389   5097   5099   5102     1  0.0000000  0.0000000  2
   2390   2383   2384   2395     1  0.0000000  0.6508444  3
   2390   2383   2384   2396     1  0.0000000  0.6508444  3
   2390   2383   2385   2397     1  0.0000000  0.6508444  3
   2390   2383   2385   2398     1  0.0000000  0.6508444  3
   2390   2391   2392   2407     1  0.0000000  0.0000000  2
   2391   2390   2383   2408     1  0.0000000  0.6508444  3
   2392   2391   2390   2403     1  0.0000000  0.6508444  3
   2392   2391   2390   2404     1  0.0000000  0.6508444  3
   2393   2387   2386   2399     1  0.0000000  3.3472000  1
   2393   2387   2386   2399     1  0.0000000  0.0000000  2
   2393   2387   2386   2399     1  180.0000771  0.3347200  3
   2393   2387   2386   2400     1  0.0000000  3.3472000  1
   2393   2387   2386   2400     1  0.0000000  0.0000000  2
   2393   2387   2386   2400     1  180.0000771  0.3347200  3
   2393   2387   5067   5068     1  0.0000000  8.3680000  1
   2393   2387   5067   5068     1  180.0000771  10.4600000  2
   2394   2389   2388   2401     1  0.0000000  3.3472000  1
   2394   2389   2388   2401     1  0.0000000  0.0000000  2
   2394   2389   2388   2401     1  180.0000771  0.3347200  3
   2394   2389   2388   2402     1  0.0000000  3.3472000  1
   2394   2389   2388   2402     1  0.0000000  0.0000000  2
   2394   2389   2388   2402     1  180.0000771  0.3347200  3
   2394   2389   5097   5098     1  0.0000000  8.3680000  1
   2394   2389   5097   5098     1  180.0000771  10.4600000  2
   2395   2384   2383   2408     1  0.0000000  0.6508444  3
   2395   2384   2386   2399     1  0.0000000  0.6508444  3
   2395   2384   2386   2400     1  0.0000000  0.6508444  3
   2396   2384   2383   2408     1  0.0000000  0.6508444  3
   2396   2384   2386   2399     1  0.0000000  0.6508444  3
   2396   2384   2386   2400     1  0.0000000  0.6508444  3
   2397   2385   2383   2408     1  0.0000000  0.6508444  3
   2397   2385   2388   2401     1  0.0000000  0.6508444  3
   2397   2385   2388   2402     1  0.0000000  0.6508444  3
   2398   2385   2383   2408     1  0.0000000  0.6508444  3
   2398   2385   2388   2401     1  0.0000000  0.6508444  3
   2398   2385   2388   2402     1  0.0000000  0.6508444  3
   2399   2386   2387   5067     1  180.0000771  0.0000000  2
   2400   2386   2387   5067     1  180.0000771  0.0000000  2
   2401   2388   2389   5097     1  180.0000771  0.0000000  2
   2402   2388   2389   5097     1  180.0000771  0.0000000  2
   2403   2390   2383   2408     1  0.0000000  0.6508444  3
   2403   2390   2391   2405     1  0.0000000  0.6508444  3
   2403   2390   2391   2406     1  0.0000000  0.6508444  3
   2404   2390   2383   2408     1  0.0000000  0.6508444  3
   2404   2390   2391   2405     1  0.0000000  0.6508444  3
   2404   2390   2391   2406     1  0.0000000  0.6508444  3
   2405   2391   2392   2407     1  0.0000000  0.0000000  2
   2406   2391   2392   2407     1  0.0000000  0.0000000  2
   2409   2410   2412   2425     1  0.0000000  0.6508444  3
   2409   2410   2412   2426     1  0.0000000  0.6508444  3
   2409   2411   2414   2427     1  0.0000000  0.6508444  3
   2409   2411   2414   2428     1  0.0000000  0.6508444  3
   2409   2416   2417   2431     1  0.0000000  0.6508444  3
   2409   2416   2417   2432     1  0.0000000  0.6508444  3
   2410   2409   2411   2423     1  0.0000000  0.6508444  3
   2410   2409   2411   2424     1  0.0000000  0.6508444  3
   2410   2409   2416   2429     1  0.0000000  0.6508444  3
   2410   2409   2416   2430     1  0.0000000  0.6508444  3
   2411   2409   2410   2421     1  0.0000000  0.6508444  3
   2411   2409   2410   2422     1  0.0000000  0.6508444  3
   2411   2409   2416   2429     1  0.0000000  0.6508444  3
   2411   2409   2416   2430     1  0.0000000  0.6508444  3
   2412   2410   2409   2434     1  0.0000000  0.6508444  3
   2412   2413   5127   5128     1  180.0000771  10.4600000  2
   2413   2412   2410   2421     1  0.0000000  0.6508444  3
   2413   2412   2410   2422     1  0.0000000  0.6508444  3
   2413   5127   5129   5130     1  0.0000000  0.0000000  2
   2413   5127   5129   5132     1  0.0000000  0.0000000  2
   2414   2411   2409   2434     1  0.0000000  0.6508444  3
   2414   2415   5157   5158     1  180.0000771  10.4600000  2
   2415   2414   2411   2423     1  0.0000000  0.6508444  3
   2415   2414   2411   2424     1  0.0000000  0.6508444  3
   2415   5157   5159   5160     1  0.0000000  0.0000000  2
   2415   5157   5159   5162     1  0.0000000  0.0000000  2
   2416   2409   2410   2421     1  0.0000000  0.6508444  3
   2416   2409   2410   2422     1  0.0000000  0.6508444  3
   2416   2409   2411   2423     1  0.0000000  0.6508444  3
   2416   2409   2411   2424     1  0.0000000  0.6508444  3
   2416   2417   2418   2433     1  0.0000000  0.0000000  2
   2417   2416   2409   2434     1  0.0000000  0.6508444  3
   2418   2417   2416   2429     1  0.0000000  0.6508444  3
   2418   2417   2416   2430     1  0.0000000  0.6508444  3
   2419   2413   2412   2425     1  0.0000000  3.3472000  1
   2419   2413   2412   2425     1  0.0000000  0.0000000  2
   2419   2413   2412   2425     1  180.0000771  0.3347200  3
   2419   2413   2412   2426     1  0.0000000  3.3472000  1
   2419   2413   2412   2426     1  0.0000000  0.0000000  2
   2419   2413   2412   2426     1  180.0000771  0.3347200  3
   2419   2413   5127   5128     1  0.0000000  8.3680000  1
   2419   2413   5127   5128     1  180.0000771  10.4600000  2
   2420   2415   2414   2427     1  0.0000000  3.3472000  1
   2420   2415   2414   2427     1  0.0000000  0.0000000  2
   2420   2415   2414   2427     1  180.0000771  0.3347200  3
   2420   2415   2414   2428     1  0.0000000  3.3472000  1
   2420   2415   2414   2428     1  0.0000000  0.0000000  2
   2420   2415   2414   2428     1  180.0000771  0.3347200  3
   2420   2415   5157   5158     1  0.0000000  8.3680000  1
   2420   2415   5157   5158     1  180.0000771  10.4600000  2
   2421   2410   2409   2434     1  0.0000000  0.6508444  3
   2421   2410   2412   2425     1  0.0000000  0.6508444  3
   2421   2410   2412   2426     1  0.0000000  0.6508444  3
   2422   2410   2409   2434     1  0.0000000  0.6508444  3
   2422   2410   2412   2425     1  0.0000000  0.6508444  3
   2422   2410   2412   2426     1  0.0000000  0.6508444  3
   2423   2411   2409   2434     1  0.0000000  0.6508444  3
   2423   2411   2414   2427     1  0.0000000  0.6508444  3
   2423   2411   2414   2428     1  0.0000000  0.6508444  3
   2424   2411   2409   2434     1  0.0000000  0.6508444  3
   2424   2411   2414   2427     1  0.0000000  0.6508444  3
   2424   2411   2414   2428     1  0.0000000  0.6508444  3
   2425   2412   2413   5127     1  180.0000771  0.0000000  2
   2426   2412   2413   5127     1  180.0000771  0.0000000  2
   2427   2414   2415   5157     1  180.0000771  0.0000000  2
   2428   2414   2415   5157     1  180.0000771  0.0000000  2
   2429   2416   2409   2434     1  0.0000000  0.6508444  3
   2429   2416   2417   2431     1  0.0000000  0.6508444  3
   2429   2416   2417   2432     1  0.0000000  0.6508444  3
   2430   2416   2409   2434     1  0.0000000  0.6508444  3
   2430   2416   2417   2431     1  0.0000000  0.6508444  3
   2430   2416   2417   2432     1  0.0000000  0.6508444  3
   2431   2417   2418   2433     1  0.0000000  0.0000000  2
   2432   2417   2418   2433     1  0.0000000  0.0000000  2
   2435   2436   2438   2451     1  0.0000000  0.6508444  3
   2435   2436   2438   2452     1  0.0000000  0.6508444  3
   2435   2437   2440   2453     1  0.0000000  0.6508444  3
   2435   2437   2440   2454     1  0.0000000  0.6508444  3
   2435   2442   2443   2457     1  0.0000000  0.6508444  3
   2435   2442   2443   2458     1  0.0000000  0.6508444  3
   2436   2435   2437   2449     1  0.0000000  0.6508444  3
   2436   2435   2437   2450     1  0.0000000  0.6508444  3
   2436   2435   2442   2455     1  0.0000000  0.6508444  3
   2436   2435   2442   2456     1  0.0000000  0.6508444  3
   2437   2435   2436   2447     1  0.0000000  0.6508444  3
   2437   2435   2436   2448     1  0.0000000  0.6508444  3
   2437   2435   2442   2455     1  0.0000000  0.6508444  3
   2437   2435   2442   2456     1  0.0000000  0.6508444  3
   2438   2436   2435   2460     1  0.0000000  0.6508444  3
   2438   2439   5187   5188     1  180.0000771  10.4600000  2
   2439   2438   2436   2447     1  0.0000000  0.6508444  3
   2439   2438   2436   2448     1  0.0000000  0.6508444  3
   2439   5187   5189   5190     1  0.0000000  0.0000000  2
   2439   5187   5189   5192     1  0.0000000  0.0000000  2
   2440   2437   2435   2460     1  0.0000000  0.6508444  3
   2440   2441   5217   5218     1  180.0000771  10.4600000  2
   2441   2440   2437   2449     1  0.0000000  0.6508444  3
   2441   2440   2437   2450     1  0.0000000  0.6508444  3
   2441   5217   5219   5220     1  0.0000000  0.0000000  2
   2441   5217   5219   5222     1  0.0000000  0.0000000  2
   2442   2435   2436   2447     1  0.0000000  0.6508444  3
   2442   2435   2436   2448     1  0.0000000  0.6508444  3
   2442   2435   2437   2449     1  0.0000000  0.6508444  3
   2442   2435   2437   2450     1  0.0000000  0.6508444  3
   2442   2443   2444   2459     1  0.0000000  0.0000000  2
   2443   2442   2435   2460     1  0.0000000  0.6508444  3
   2444   2443   2442   2455     1  0.0000000  0.6508444  3
   2444   2443   2442   2456     1  0.0000000  0.6508444  3
   2445   2439   2438   2451     1  0.0000000  3.3472000  1
   2445   2439   2438   2451     1  0.0000000  0.0000000  2
   2445   2439   2438   2451     1  180.0000771  0.3347200  3
   2445   2439   2438   2452     1  0.0000000  3.3472000  1
   2445   2439   2438   2452     1  0.0000000  0.0000000  2
   2445   2439   2438   2452     1  180.0000771  0.3347200  3
   2445   2439   5187   5188     1  0.0000000  8.3680000  1
   2445   2439   5187   5188     1  180.0000771  10.4600000  2
   2446   2441   2440   2453     1  0.0000000  3.3472000  1
   2446   2441   2440   2453     1  0.0000000  0.0000000  2
   2446   2441   2440   2453     1  180.0000771  0.3347200  3
   2446   2441   2440   2454     1  0.0000000  3.3472000  1
   2446   2441   2440   2454     1  0.0000000  0.0000000  2
   2446   2441   2440   2454     1  180.0000771  0.3347200  3
   2446   2441   5217   5218     1  0.0000000  8.3680000  1
   2446   2441   5217   5218     1  180.0000771  10.4600000  2
   2447   2436   2435   2460     1  0.0000000  0.6508444  3
   2447   2436   2438   2451     1  0.0000000  0.6508444  3
   2447   2436   2438   2452     1  0.0000000  0.6508444  3
   2448   2436   2435   2460     1  0.0000000  0.6508444  3
   2448   2436   2438   2451     1  0.0000000  0.6508444  3
   2448   2436   2438   2452     1  0.0000000  0.6508444  3
   2449   2437   2435   2460     1  0.0000000  0.6508444  3
   2449   2437   2440   2453     1  0.0000000  0.6508444  3
   2449   2437   2440   2454     1  0.0000000  0.6508444  3
   2450   2437   2435   2460     1  0.0000000  0.6508444  3
   2450   2437   2440   2453     1  0.0000000  0.6508444  3
   2450   2437   2440   2454     1  0.0000000  0.6508444  3
   2451   2438   2439   5187     1  180.0000771  0.0000000  2
   2452   2438   2439   5187     1  180.0000771  0.0000000  2
   2453   2440   2441   5217     1  180.0000771  0.0000000  2
   2454   2440   2441   5217     1  180.0000771  0.0000000  2
   2455   2442   2435   2460     1  0.0000000  0.6508444  3
   2455   2442   2443   2457     1  0.0000000  0.6508444  3
   2455   2442   2443   2458     1  0.0000000  0.6508444  3
   2456   2442   2435   2460     1  0.0000000  0.6508444  3
   2456   2442   2443   2457     1  0.0000000  0.6508444  3
   2456   2442   2443   2458     1  0.0000000  0.6508444  3
   2457   2443   2444   2459     1  0.0000000  0.0000000  2
   2458   2443   2444   2459     1  0.0000000  0.0000000  2
   2461   2462   2464   2477     1  0.0000000  0.6508444  3
   2461   2462   2464   2478     1  0.0000000  0.6508444  3
   2461   2463   2466   2479     1  0.0000000  0.6508444  3
   2461   2463   2466   2480     1  0.0000000  0.6508444  3
   2461   2468   2469   2483     1  0.0000000  0.6508444  3
   2461   2468   2469   2484     1  0.0000000  0.6508444  3
   2462   2461   2463   2475     1  0.0000000  0.6508444  3
   2462   2461   2463   2476     1  0.0000000  0.6508444  3
   2462   2461   2468   2481     1  0.0000000  0.6508444  3
   2462   2461   2468   2482     1  0.0000000  0.6508444  3
   2463   2461   2462   2473     1  0.0000000  0.6508444  3
   2463   2461   2462   2474     1  0.0000000  0.6508444  3
   2463   2461   2468   2481     1  0.0000000  0.6508444  3
   2463   2461   2468   2482     1  0.0000000  0.6508444  3
   2464   2462   2461   2486     1  0.0000000  0.6508444  3
   2464   2465   5247   5248     1  180.0000771  10.4600000  2
   2465   2464   2462   2473     1  0.0000000  0.6508444  3
   2465   2464   2462   2474     1  0.0000000  0.6508444  3
   2465   5247   5249   5250     1  0.0000000  0.0000000  2
   2465   5247   5249   5252     1  0.0000000  0.0000000  2
   2466   2463   2461   2486     1  0.0000000  0.6508444  3
   2466   2467   5277   5278     1  180.0000771  10.4600000  2
   2467   2466   2463   2475     1  0.0000000  0.6508444  3
   2467   2466   2463   2476     1  0.0000000  0.6508444  3
   2467   5277   5279   5280     1  0.0000000  0.0000000  2
   2467   5277   5279   5282     1  0.0000000  0.0000000  2
   2468   2461   2462   2473     1  0.0000000  0.6508444  3
   2468   2461   2462   2474     1  0.0000000  0.6508444  3
   2468   2461   2463   2475     1  0.0000000  0.6508444  3
   2468   2461   2463   2476     1  0.0000000  0.6508444  3
   2468   2469   2470   2485     1  0.0000000  0.0000000  2
   2469   2468   2461   2486     1  0.0000000  0.6508444  3
   2470   2469   2468   2481     1  0.0000000  0.6508444  3
   2470   2469   2468   2482     1  0.0000000  0.6508444  3
   2471   2465   2464   2477     1  0.0000000  3.3472000  1
   2471   2465   2464   2477     1  0.0000000  0.0000000  2
   2471   2465   2464   2477     1  180.0000771  0.3347200  3
   2471   2465   2464   2478     1  0.0000000  3.3472000  1
   2471   2465   2464   2478     1  0.0000000  0.0000000  2
   2471   2465   2464   2478     1  180.0000771  0.3347200  3
   2471   2465   5247   5248     1  0.0000000  8.3680000  1
   2471   2465   5247   5248     1  180.0000771  10.4600000  2
   2472   2467   2466   2479     1  0.0000000  3.3472000  1
   2472   2467   2466   2479     1  0.0000000  0.0000000  2
   2472   2467   2466   2479     1  180.0000771  0.3347200  3
   2472   2467   2466   2480     1  0.0000000  3.3472000  1
   2472   2467   2466   2480     1  0.0000000  0.0000000  2
   2472   2467   2466   2480     1  180.0000771  0.3347200  3
   2472   2467   5277   5278     1  0.0000000  8.3680000  1
   2472   2467   5277   5278     1  180.0000771  10.4600000  2
   2473   2462   2461   2486     1  0.0000000  0.6508444  3
   2473   2462   2464   2477     1  0.0000000  0.6508444  3
   2473   2462   2464   2478     1  0.0000000  0.6508444  3
   2474   2462   2461   2486     1  0.0000000  0.6508444  3
   2474   2462   2464   2477     1  0.0000000  0.6508444  3
   2474   2462   2464   2478     1  0.0000000  0.6508444  3
   2475   2463   2461   2486     1  0.0000000  0.6508444  3
   2475   2463   2466   2479     1  0.0000000  0.6508444  3
   2475   2463   2466   2480     1  0.0000000  0.6508444  3
   2476   2463   2461   2486     1  0.0000000  0.6508444  3
   2476   2463   2466   2479     1  0.0000000  0.6508444  3
   2476   2463   2466   2480     1  0.0000000  0.6508444  3
   2477   2464   2465   5247     1  180.0000771  0.0000000  2
   2478   2464   2465   5247     1  180.0000771  0.0000000  2
   2479   2466   2467   5277     1  180.0000771  0.0000000  2
   2480   2466   2467   5277     1  180.0000771  0.0000000  2
   2481   2468   2461   2486     1  0.0000000  0.6508444  3
   2481   2468   2469   2483     1  0.0000000  0.6508444  3
   2481   2468   2469   2484     1  0.0000000  0.6508444  3
   2482   2468   2461   2486     1  0.0000000  0.6508444  3
   2482   2468   2469   2483     1  0.0000000  0.6508444  3
   2482   2468   2469   2484     1  0.0000000  0.6508444  3
   2483   2469   2470   2485     1  0.0000000  0.0000000  2
   2484   2469   2470   2485     1  0.0000000  0.0000000  2
   2487   2488   2490   2503     1  0.0000000  0.6508444  3
   2487   2488   2490   2504     1  0.0000000  0.6508444  3
   2487   2489   2492   2505     1  0.0000000  0.6508444  3
   2487   2489   2492   2506     1  0.0000000  0.6508444  3
   2487   2494   2495   2509     1  0.0000000  0.6508444  3
   2487   2494   2495   2510     1  0.0000000  0.6508444  3
   2488   2487   2489   2501     1  0.0000000  0.6508444  3
   2488   2487   2489   2502     1  0.0000000  0.6508444  3
   2488   2487   2494   2507     1  0.0000000  0.6508444  3
   2488   2487   2494   2508     1  0.0000000  0.6508444  3
   2489   2487   2488   2499     1  0.0000000  0.6508444  3
   2489   2487   2488   2500     1  0.0000000  0.6508444  3
   2489   2487   2494   2507     1  0.0000000  0.6508444  3
   2489   2487   2494   2508     1  0.0000000  0.6508444  3
   2490   2488   2487   2512     1  0.0000000  0.6508444  3
   2490   2491   5307   5308     1  180.0000771  10.4600000  2
   2491   2490   2488   2499     1  0.0000000  0.6508444  3
   2491   2490   2488   2500     1  0.0000000  0.6508444  3
   2491   5307   5309   5310     1  0.0000000  0.0000000  2
   2491   5307   5309   5312     1  0.0000000  0.0000000  2
   2492   2489   2487   2512     1  0.0000000  0.6508444  3
   2492   2493   5337   5338     1  180.0000771  10.4600000  2
   2493   2492   2489   2501     1  0.0000000  0.6508444  3
   2493   2492   2489   2502     1  0.0000000  0.6508444  3
   2493   5337   5339   5340     1  0.0000000  0.0000000  2
   2493   5337   5339   5342     1  0.0000000  0.0000000  2
   2494   2487   2488   2499     1  0.0000000  0.6508444  3
   2494   2487   2488   2500     1  0.0000000  0.6508444  3
   2494   2487   2489   2501     1  0.0000000  0.6508444  3
   2494   2487   2489   2502     1  0.0000000  0.6508444  3
   2494   2495   2496   2511     1  0.0000000  0.0000000  2
   2495   2494   2487   2512     1  0.0000000  0.6508444  3
   2496   2495   2494   2507     1  0.0000000  0.6508444  3
   2496   2495   2494   2508     1  0.0000000  0.6508444  3
   2497   2491   2490   2503     1  0.0000000  3.3472000  1
   2497   2491   2490   2503     1  0.0000000  0.0000000  2
   2497   2491   2490   2503     1  180.0000771  0.3347200  3
   2497   2491   2490   2504     1  0.0000000  3.3472000  1
   2497   2491   2490   2504     1  0.0000000  0.0000000  2
   2497   2491   2490   2504     1  180.0000771  0.3347200  3
   2497   2491   5307   5308     1  0.0000000  8.3680000  1
   2497   2491   5307   5308     1  180.0000771  10.4600000  2
   2498   2493   2492   2505     1  0.0000000  3.3472000  1
   2498   2493   2492   2505     1  0.0000000  0.0000000  2
   2498   2493   2492   2505     1  180.0000771  0.3347200  3
   2498   2493   2492   2506     1  0.0000000  3.3472000  1
   2498   2493   2492   2506     1  0.0000000  0.0000000  2
   2498   2493   2492   2506     1  180.0000771  0.3347200  3
   2498   2493   5337   5338     1  0.0000000  8.3680000  1
   2498   2493   5337   5338     1  180.0000771  10.4600000  2
   2499   2488   2487   2512     1  0.0000000  0.6508444  3
   2499   2488   2490   2503     1  0.0000000  0.6508444  3
   2499   2488   2490   2504     1  0.0000000  0.6508444  3
   2500   2488   2487   2512     1  0.0000000  0.6508444  3
   2500   2488   2490   2503     1  0.0000000  0.6508444  3
   2500   2488   2490   2504     1  0.0000000  0.6508444  3
   2501   2489   2487   2512     1  0.0000000  0.6508444  3
   2501   2489   2492   2505     1  0.0000000  0.6508444  3
   2501   2489   2492   2506     1  0.0000000  0.6508444  3
   2502   2489   2487   2512     1  0.0000000  0.6508444  3
   2502   2489   2492   2505     1  0.0000000  0.6508444  3
   2502   2489   2492   2506     1  0.0000000  0.6508444  3
   2503   2490   2491   5307     1  180.0000771  0.0000000  2
   2504   2490   2491   5307     1  180.0000771  0.0000000  2
   2505   2492   2493   5337     1  180.0000771  0.0000000  2
   2506   2492   2493   5337     1  180.0000771  0.0000000  2
   2507   2494   2487   2512     1  0.0000000  0.6508444  3
   2507   2494   2495   2509     1  0.0000000  0.6508444  3
   2507   2494   2495   2510     1  0.0000000  0.6508444  3
   2508   2494   2487   2512     1  0.0000000  0.6508444  3
   2508   2494   2495   2509     1  0.0000000  0.6508444  3
   2508   2494   2495   2510     1  0.0000000  0.6508444  3
   2509   2495   2496   2511     1  0.0000000  0.0000000  2
   2510   2495   2496   2511     1  0.0000000  0.0000000  2
   2513   2514   2516   2529     1  0.0000000  0.6508444  3
   2513   2514   2516   2530     1  0.0000000  0.6508444  3
   2513   2515   2518   2531     1  0.0000000  0.6508444  3
   2513   2515   2518   2532     1  0.0000000  0.6508444  3
   2513   2520   2521   2535     1  0.0000000  0.6508444  3
   2513   2520   2521   2536     1  0.0000000  0.6508444  3
   2514   2513   2515   2527     1  0.0000000  0.6508444  3
   2514   2513   2515   2528     1  0.0000000  0.6508444  3
   2514   2513   2520   2533     1  0.0000000  0.6508444  3
   2514   2513   2520   2534     1  0.0000000  0.6508444  3
   2515   2513   2514   2525     1  0.0000000  0.6508444  3
   2515   2513   2514   2526     1  0.0000000  0.6508444  3
   2515   2513   2520   2533     1  0.0000000  0.6508444  3
   2515   2513   2520   2534     1  0.0000000  0.6508444  3
   2516   2514   2513   2538     1  0.0000000  0.6508444  3
   2516   2517   5367   5368     1  180.0000771  10.4600000  2
   2517   2516   2514   2525     1  0.0000000  0.6508444  3
   2517   2516   2514   2526     1  0.0000000  0.6508444  3
   2517   5367   5369   5370     1  0.0000000  0.0000000  2
   2517   5367   5369   5372     1  0.0000000  0.0000000  2
   2518   2515   2513   2538     1  0.0000000  0.6508444  3
   2518   2519   5397   5398     1  180.0000771  10.4600000  2
   2519   2518   2515   2527     1  0.0000000  0.6508444  3
   2519   2518   2515   2528     1  0.0000000  0.6508444  3
   2519   5397   5399   5400     1  0.0000000  0.0000000  2
   2519   5397   5399   5402     1  0.0000000  0.0000000  2
   2520   2513   2514   2525     1  0.0000000  0.6508444  3
   2520   2513   2514   2526     1  0.0000000  0.6508444  3
   2520   2513   2515   2527     1  0.0000000  0.6508444  3
   2520   2513   2515   2528     1  0.0000000  0.6508444  3
   2520   2521   2522   2537     1  0.0000000  0.0000000  2
   2521   2520   2513   2538     1  0.0000000  0.6508444  3
   2522   2521   2520   2533     1  0.0000000  0.6508444  3
   2522   2521   2520   2534     1  0.0000000  0.6508444  3
   2523   2517   2516   2529     1  0.0000000  3.3472000  1
   2523   2517   2516   2529     1  0.0000000  0.0000000  2
   2523   2517   2516   2529     1  180.0000771  0.3347200  3
   2523   2517   2516   2530     1  0.0000000  3.3472000  1
   2523   2517   2516   2530     1  0.0000000  0.0000000  2
   2523   2517   2516   2530     1  180.0000771  0.3347200  3
   2523   2517   5367   5368     1  0.0000000  8.3680000  1
   2523   2517   5367   5368     1  180.0000771  10.4600000  2
   2524   2519   2518   2531     1  0.0000000  3.3472000  1
   2524   2519   2518   2531     1  0.0000000  0.0000000  2
   2524   2519   2518   2531     1  180.0000771  0.3347200  3
   2524   2519   2518   2532     1  0.0000000  3.3472000  1
   2524   2519   2518   2532     1  0.0000000  0.0000000  2
   2524   2519   2518   2532     1  180.0000771  0.3347200  3
   2524   2519   5397   5398     1  0.0000000  8.3680000  1
   2524   2519   5397   5398     1  180.0000771  10.4600000  2
   2525   2514   2513   2538     1  0.0000000  0.6508444  3
   2525   2514   2516   2529     1  0.0000000  0.6508444  3
   2525   2514   2516   2530     1  0.0000000  0.6508444  3
   2526   2514   2513   2538     1  0.0000000  0.6508444  3
   2526   2514   2516   2529     1  0.0000000  0.6508444  3
   2526   2514   2516   2530     1  0.0000000  0.6508444  3
   2527   2515   2513   2538     1  0.0000000  0.6508444  3
   2527   2515   2518   2531     1  0.0000000  0.6508444  3
   2527   2515   2518   2532     1  0.0000000  0.6508444  3
   2528   2515   2513   2538     1  0.0000000  0.6508444  3
   2528   2515   2518   2531     1  0.0000000  0.6508444  3
   2528   2515   2518   2532     1  0.0000000  0.6508444  3
   2529   2516   2517   5367     1  180.0000771  0.0000000  2
   2530   2516   2517   5367     1  180.0000771  0.0000000  2
   2531   2518   2519   5397     1  180.0000771  0.0000000  2
   2532   2518   2519   5397     1  180.0000771  0.0000000  2
   2533   2520   2513   2538     1  0.0000000  0.6508444  3
   2533   2520   2521   2535     1  0.0000000  0.6508444  3
   2533   2520   2521   2536     1  0.0000000  0.6508444  3
   2534   2520   2513   2538     1  0.0000000  0.6508444  3
   2534   2520   2521   2535     1  0.0000000  0.6508444  3
   2534   2520   2521   2536     1  0.0000000  0.6508444  3
   2535   2521   2522   2537     1  0.0000000  0.0000000  2
   2536   2521   2522   2537     1  0.0000000  0.0000000  2
   2539   2540   2542   2555     1  0.0000000  0.6508444  3
   2539   2540   2542   2556     1  0.0000000  0.6508444  3
   2539   2541   2544   2557     1  0.0000000  0.6508444  3
   2539   2541   2544   2558     1  0.0000000  0.6508444  3
   2539   2546   2547   2561     1  0.0000000  0.6508444  3
   2539   2546   2547   2562     1  0.0000000  0.6508444  3
   2540   2539   2541   2553     1  0.0000000  0.6508444  3
   2540   2539   2541   2554     1  0.0000000  0.6508444  3
   2540   2539   2546   2559     1  0.0000000  0.6508444  3
   2540   2539   2546   2560     1  0.0000000  0.6508444  3
   2541   2539   2540   2551     1  0.0000000  0.6508444  3
   2541   2539   2540   2552     1  0.0000000  0.6508444  3
   2541   2539   2546   2559     1  0.0000000  0.6508444  3
   2541   2539   2546   2560     1  0.0000000  0.6508444  3
   2542   2540   2539   2564     1  0.0000000  0.6508444  3
   2542   2543   5427   5428     1  180.0000771  10.4600000  2
   2543   2542   2540   2551     1  0.0000000  0.6508444  3
   2543   2542   2540   2552     1  0.0000000  0.6508444  3
   2543   5427   5429   5430     1  0.0000000  0.0000000  2
   2543   5427   5429   5432     1  0.0000000  0.0000000  2
   2544   2541   2539   2564     1  0.0000000  0.6508444  3
   2544   2545   5457   5458     1  180.0000771  10.4600000  2
   2545   2544   2541   2553     1  0.0000000  0.6508444  3
   2545   2544   2541   2554     1  0.0000000  0.6508444  3
   2545   5457   5459   5460     1  0.0000000  0.0000000  2
   2545   5457   5459   5462     1  0.0000000  0.0000000  2
   2546   2539   2540   2551     1  0.0000000  0.6508444  3
   2546   2539   2540   2552     1  0.0000000  0.6508444  3
   2546   2539   2541   2553     1  0.0000000  0.6508444  3
   2546   2539   2541   2554     1  0.0000000  0.6508444  3
   2546   2547   2548   2563     1  0.0000000  0.0000000  2
   2547   2546   2539   2564     1  0.0000000  0.6508444  3
   2548   2547   2546   2559     1  0.0000000  0.6508444  3
   2548   2547   2546   2560     1  0.0000000  0.6508444  3
   2549   2543   2542   2555     1  0.0000000  3.3472000  1
   2549   2543   2542   2555     1  0.0000000  0.0000000  2
   2549   2543   2542   2555     1  180.0000771  0.3347200  3
   2549   2543   2542   2556     1  0.0000000  3.3472000  1
   2549   2543   2542   2556     1  0.0000000  0.0000000  2
   2549   2543   2542   2556     1  180.0000771  0.3347200  3
   2549   2543   5427   5428     1  0.0000000  8.3680000  1
   2549   2543   5427   5428     1  180.0000771  10.4600000  2
   2550   2545   2544   2557     1  0.0000000  3.3472000  1
   2550   2545   2544   2557     1  0.0000000  0.0000000  2
   2550   2545   2544   2557     1  180.0000771  0.3347200  3
   2550   2545   2544   2558     1  0.0000000  3.3472000  1
   2550   2545   2544   2558     1  0.0000000  0.0000000  2
   2550   2545   2544   2558     1  180.0000771  0.3347200  3
   2550   2545   5457   5458     1  0.0000000  8.3680000  1
   2550   2545   5457   5458     1  180.0000771  10.4600000  2
   2551   2540   2539   2564     1  0.0000000  0.6508444  3
   2551   2540   2542   2555     1  0.0000000  0.6508444  3
   2551   2540   2542   2556     1  0.0000000  0.6508444  3
   2552   2540   2539   2564     1  0.0000000  0.6508444  3
   2552   2540   2542   2555     1  0.0000000  0.6508444  3
   2552   2540   2542   2556     1  0.0000000  0.6508444  3
   2553   2541   2539   2564     1  0.0000000  0.6508444  3
   2553   2541   2544   2557     1  0.0000000  0.6508444  3
   2553   2541   2544   2558     1  0.0000000  0.6508444  3
   2554   2541   2539   2564     1  0.0000000  0.6508444  3
   2554   2541   2544   2557     1  0.0000000  0.6508444  3
   2554   2541   2544   2558     1  0.0000000  0.6508444  3
   2555   2542   2543   5427     1  180.0000771  0.0000000  2
   2556   2542   2543   5427     1  180.0000771  0.0000000  2
   2557   2544   2545   5457     1  180.0000771  0.0000000  2
   2558   2544   2545   5457     1  180.0000771  0.0000000  2
   2559   2546   2539   2564     1  0.0000000  0.6508444  3
   2559   2546   2547   2561     1  0.0000000  0.6508444  3
   2559   2546   2547   2562     1  0.0000000  0.6508444  3
   2560   2546   2539   2564     1  0.0000000  0.6508444  3
   2560   2546   2547   2561     1  0.0000000  0.6508444  3
   2560   2546   2547   2562     1  0.0000000  0.6508444  3
   2561   2547   2548   2563     1  0.0000000  0.0000000  2
   2562   2547   2548   2563     1  0.0000000  0.0000000  2
   2565   2566   2568   2581     1  0.0000000  0.6508444  3
   2565   2566   2568   2582     1  0.0000000  0.6508444  3
   2565   2567   2570   2583     1  0.0000000  0.6508444  3
   2565   2567   2570   2584     1  0.0000000  0.6508444  3
   2565   2572   2573   2587     1  0.0000000  0.6508444  3
   2565   2572   2573   2588     1  0.0000000  0.6508444  3
   2566   2565   2567   2579     1  0.0000000  0.6508444  3
   2566   2565   2567   2580     1  0.0000000  0.6508444  3
   2566   2565   2572   2585     1  0.0000000  0.6508444  3
   2566   2565   2572   2586     1  0.0000000  0.6508444  3
   2567   2565   2566   2577     1  0.0000000  0.6508444  3
   2567   2565   2566   2578     1  0.0000000  0.6508444  3
   2567   2565   2572   2585     1  0.0000000  0.6508444  3
   2567   2565   2572   2586     1  0.0000000  0.6508444  3
   2568   2566   2565   2590     1  0.0000000  0.6508444  3
   2568   2569   5487   5488     1  180.0000771  10.4600000  2
   2569   2568   2566   2577     1  0.0000000  0.6508444  3
   2569   2568   2566   2578     1  0.0000000  0.6508444  3
   2569   5487   5489   5490     1  0.0000000  0.0000000  2
   2569   5487   5489   5492     1  0.0000000  0.0000000  2
   2570   2567   2565   2590     1  0.0000000  0.6508444  3
   2570   2571   5517   5518     1  180.0000771  10.4600000  2
   2571   2570   2567   2579     1  0.0000000  0.6508444  3
   2571   2570   2567   2580     1  0.0000000  0.6508444  3
   2571   5517   5519   5520     1  0.0000000  0.0000000  2
   2571   5517   5519   5522     1  0.0000000  0.0000000  2
   2572   2565   2566   2577     1  0.0000000  0.6508444  3
   2572   2565   2566   2578     1  0.0000000  0.6508444  3
   2572   2565   2567   2579     1  0.0000000  0.6508444  3
   2572   2565   2567   2580     1  0.0000000  0.6508444  3
   2572   2573   2574   2589     1  0.0000000  0.0000000  2
   2573   2572   2565   2590     1  0.0000000  0.6508444  3
   2574   2573   2572   2585     1  0.0000000  0.6508444  3
   2574   2573   2572   2586     1  0.0000000  0.6508444  3
   2575   2569   2568   2581     1  0.0000000  3.3472000  1
   2575   2569   2568   2581     1  0.0000000  0.0000000  2
   2575   2569   2568   2581     1  180.0000771  0.3347200  3
   2575   2569   2568   2582     1  0.0000000  3.3472000  1
   2575   2569   2568   2582     1  0.0000000  0.0000000  2
   2575   2569   2568   2582     1  180.0000771  0.3347200  3
   2575   2569   5487   5488     1  0.0000000  8.3680000  1
   2575   2569   5487   5488     1  180.0000771  10.4600000  2
   2576   2571   2570   2583     1  0.0000000  3.3472000  1
   2576   2571   2570   2583     1  0.0000000  0.0000000  2
   2576   2571   2570   2583     1  180.0000771  0.3347200  3
   2576   2571   2570   2584     1  0.0000000  3.3472000  1
   2576   2571   2570   2584     1  0.0000000  0.0000000  2
   2576   2571   2570   2584     1  180.0000771  0.3347200  3
   2576   2571   5517   5518     1  0.0000000  8.3680000  1
   2576   2571   5517   5518     1  180.0000771  10.4600000  2
   2577   2566   2565   2590     1  0.0000000  0.6508444  3
   2577   2566   2568   2581     1  0.0000000  0.6508444  3
   2577   2566   2568   2582     1  0.0000000  0.6508444  3
   2578   2566   2565   2590     1  0.0000000  0.6508444  3
   2578   2566   2568   2581     1  0.0000000  0.6508444  3
   2578   2566   2568   2582     1  0.0000000  0.6508444  3
   2579   2567   2565   2590     1  0.0000000  0.6508444  3
   2579   2567   2570   2583     1  0.0000000  0.6508444  3
   2579   2567   2570   2584     1  0.0000000  0.6508444  3
   2580   2567   2565   2590     1  0.0000000  0.6508444  3
   2580   2567   2570   2583     1  0.0000000  0.6508444  3
   2580   2567   2570   2584     1  0.0000000  0.6508444  3
   2581   2568   2569   5487     1  180.0000771  0.0000000  2
   2582   2568   2569   5487     1  180.0000771  0.0000000  2
   2583   2570   2571   5517     1  180.0000771  0.0000000  2
   2584   2570   2571   5517     1  180.0000771  0.0000000  2
   2585   2572   2565   2590     1  0.0000000  0.6508444  3
   2585   2572   2573   2587     1  0.0000000  0.6508444  3
   2585   2572   2573   2588     1  0.0000000  0.6508444  3
   2586   2572   2565   2590     1  0.0000000  0.6508444  3
   2586   2572   2573   2587     1  0.0000000  0.6508444  3
   2586   2572   2573   2588     1  0.0000000  0.6508444  3
   2587   2573   2574   2589     1  0.0000000  0.0000000  2
   2588   2573   2574   2589     1  0.0000000  0.0000000  2
   2591   2592   2594   2607     1  0.0000000  0.6508444  3
   2591   2592   2594   2608     1  0.0000000  0.6508444  3
   2591   2593   2596   2609     1  0.0000000  0.6508444  3
   2591   2593   2596   2610     1  0.0000000  0.6508444  3
   2591   2598   2599   2613     1  0.0000000  0.6508444  3
   2591   2598   2599   2614     1  0.0000000  0.6508444  3
   2592   2591   2593   2605     1  0.0000000  0.6508444  3
   2592   2591   2593   2606     1  0.0000000  0.6508444  3
   2592   2591   2598   2611     1  0.0000000  0.6508444  3
   2592   2591   2598   2612     1  0.0000000  0.6508444  3
   2593   2591   2592   2603     1  0.0000000  0.6508444  3
   2593   2591   2592   2604     1  0.0000000  0.6508444  3
   2593   2591   2598   2611     1  0.0000000  0.6508444  3
   2593   2591   2598   2612     1  0.0000000  0.6508444  3
   2594   2592   2591   2616     1  0.0000000  0.6508444  3
   2594   2595   5547   5548     1  180.0000771  10.4600000  2
   2595   2594   2592   2603     1  0.0000000  0.6508444  3
   2595   2594   2592   2604     1  0.0000000  0.6508444  3
   2595   5547   5549   5550     1  0.0000000  0.0000000  2
   2595   5547   5549   5552     1  0.0000000  0.0000000  2
   2596   2593   2591   2616     1  0.0000000  0.6508444  3
   2596   2597   5577   5578     1  180.0000771  10.4600000  2
   2597   2596   2593   2605     1  0.0000000  0.6508444  3
   2597   2596   2593   2606     1  0.0000000  0.6508444  3
   2597   5577   5579   5580     1  0.0000000  0.0000000  2
   2597   5577   5579   5582     1  0.0000000  0.0000000  2
   2598   2591   2592   2603     1  0.0000000  0.6508444  3
   2598   2591   2592   2604     1  0.0000000  0.6508444  3
   2598   2591   2593   2605     1  0.0000000  0.6508444  3
   2598   2591   2593   2606     1  0.0000000  0.6508444  3
   2598   2599   2600   2615     1  0.0000000  0.0000000  2
   2599   2598   2591   2616     1  0.0000000  0.6508444  3
   2600   2599   2598   2611     1  0.0000000  0.6508444  3
   2600   2599   2598   2612     1  0.0000000  0.6508444  3
   2601   2595   2594   2607     1  0.0000000  3.3472000  1
   2601   2595   2594   2607     1  0.0000000  0.0000000  2
   2601   2595   2594   2607     1  180.0000771  0.3347200  3
   2601   2595   2594   2608     1  0.0000000  3.3472000  1
   2601   2595   2594   2608     1  0.0000000  0.0000000  2
   2601   2595   2594   2608     1  180.0000771  0.3347200  3
   2601   2595   5547   5548     1  0.0000000  8.3680000  1
   2601   2595   5547   5548     1  180.0000771  10.4600000  2
   2602   2597   2596   2609     1  0.0000000  3.3472000  1
   2602   2597   2596   2609     1  0.0000000  0.0000000  2
   2602   2597   2596   2609     1  180.0000771  0.3347200  3
   2602   2597   2596   2610     1  0.0000000  3.3472000  1
   2602   2597   2596   2610     1  0.0000000  0.0000000  2
   2602   2597   2596   2610     1  180.0000771  0.3347200  3
   2602   2597   5577   5578     1  0.0000000  8.3680000  1
   2602   2597   5577   5578     1  180.0000771  10.4600000  2
   2603   2592   2591   2616     1  0.0000000  0.6508444  3
   2603   2592   2594   2607     1  0.0000000  0.6508444  3
   2603   2592   2594   2608     1  0.0000000  0.6508444  3
   2604   2592   2591   2616     1  0.0000000  0.6508444  3
   2604   2592   2594   2607     1  0.0000000  0.6508444  3
   2604   2592   2594   2608     1  0.0000000  0.6508444  3
   2605   2593   2591   2616     1  0.0000000  0.6508444  3
   2605   2593   2596   2609     1  0.0000000  0.6508444  3
   2605   2593   2596   2610     1  0.0000000  0.6508444  3
   2606   2593   2591   2616     1  0.0000000  0.6508444  3
   2606   2593   2596   2609     1  0.0000000  0.6508444  3
   2606   2593   2596   2610     1  0.0000000  0.6508444  3
   2607   2594   2595   5547     1  180.0000771  0.0000000  2
   2608   2594   2595   5547     1  180.0000771  0.0000000  2
   2609   2596   2597   5577     1  180.0000771  0.0000000  2
   2610   2596   2597   5577     1  180.0000771  0.0000000  2
   2611   2598   2591   2616     1  0.0000000  0.6508444  3
   2611   2598   2599   2613     1  0.0000000  0.6508444  3
   2611   2598   2599   2614     1  0.0000000  0.6508444  3
   2612   2598   2591   2616     1  0.0000000  0.6508444  3
   2612   2598   2599   2613     1  0.0000000  0.6508444  3
   2612   2598   2599   2614     1  0.0000000  0.6508444  3
   2613   2599   2600   2615     1  0.0000000  0.0000000  2
   2614   2599   2600   2615     1  0.0000000  0.0000000  2
   2617   2618   2620   2633     1  0.0000000  0.6508444  3
   2617   2618   2620   2634     1  0.0000000  0.6508444  3
   2617   2619   2622   2635     1  0.0000000  0.6508444  3
   2617   2619   2622   2636     1  0.0000000  0.6508444  3
   2617   2624   2625   2639     1  0.0000000  0.6508444  3
   2617   2624   2625   2640     1  0.0000000  0.6508444  3
   2618   2617   2619   2631     1  0.0000000  0.6508444  3
   2618   2617   2619   2632     1  0.0000000  0.6508444  3
   2618   2617   2624   2637     1  0.0000000  0.6508444  3
   2618   2617   2624   2638     1  0.0000000  0.6508444  3
   2619   2617   2618   2629     1  0.0000000  0.6508444  3
   2619   2617   2618   2630     1  0.0000000  0.6508444  3
   2619   2617   2624   2637     1  0.0000000  0.6508444  3
   2619   2617   2624   2638     1  0.0000000  0.6508444  3
   2620   2618   2617   2642     1  0.0000000  0.6508444  3
   2620   2621   5607   5608     1  180.0000771  10.4600000  2
   2621   2620   2618   2629     1  0.0000000  0.6508444  3
   2621   2620   2618   2630     1  0.0000000  0.6508444  3
   2621   5607   5609   5610     1  0.0000000  0.0000000  2
   2621   5607   5609   5612     1  0.0000000  0.0000000  2
   2622   2619   2617   2642     1  0.0000000  0.6508444  3
   2622   2623   5637   5638     1  180.0000771  10.4600000  2
   2623   2622   2619   2631     1  0.0000000  0.6508444  3
   2623   2622   2619   2632     1  0.0000000  0.6508444  3
   2623   5637   5639   5640     1  0.0000000  0.0000000  2
   2623   5637   5639   5642     1  0.0000000  0.0000000  2
   2624   2617   2618   2629     1  0.0000000  0.6508444  3
   2624   2617   2618   2630     1  0.0000000  0.6508444  3
   2624   2617   2619   2631     1  0.0000000  0.6508444  3
   2624   2617   2619   2632     1  0.0000000  0.6508444  3
   2624   2625   2626   2641     1  0.0000000  0.0000000  2
   2625   2624   2617   2642     1  0.0000000  0.6508444  3
   2626   2625   2624   2637     1  0.0000000  0.6508444  3
   2626   2625   2624   2638     1  0.0000000  0.6508444  3
   2627   2621   2620   2633     1  0.0000000  3.3472000  1
   2627   2621   2620   2633     1  0.0000000  0.0000000  2
   2627   2621   2620   2633     1  180.0000771  0.3347200  3
   2627   2621   2620   2634     1  0.0000000  3.3472000  1
   2627   2621   2620   2634     1  0.0000000  0.0000000  2
   2627   2621   2620   2634     1  180.0000771  0.3347200  3
   2627   2621   5607   5608     1  0.0000000  8.3680000  1
   2627   2621   5607   5608     1  180.0000771  10.4600000  2
   2628   2623   2622   2635     1  0.0000000  3.3472000  1
   2628   2623   2622   2635     1  0.0000000  0.0000000  2
   2628   2623   2622   2635     1  180.0000771  0.3347200  3
   2628   2623   2622   2636     1  0.0000000  3.3472000  1
   2628   2623   2622   2636     1  0.0000000  0.0000000  2
   2628   2623   2622   2636     1  180.0000771  0.3347200  3
   2628   2623   5637   5638     1  0.0000000  8.3680000  1
   2628   2623   5637   5638     1  180.0000771  10.4600000  2
   2629   2618   2617   2642     1  0.0000000  0.6508444  3
   2629   2618   2620   2633     1  0.0000000  0.6508444  3
   2629   2618   2620   2634     1  0.0000000  0.6508444  3
   2630   2618   2617   2642     1  0.0000000  0.6508444  3
   2630   2618   2620   2633     1  0.0000000  0.6508444  3
   2630   2618   2620   2634     1  0.0000000  0.6508444  3
   2631   2619   2617   2642     1  0.0000000  0.6508444  3
   2631   2619   2622   2635     1  0.0000000  0.6508444  3
   2631   2619   2622   2636     1  0.0000000  0.6508444  3
   2632   2619   2617   2642     1  0.0000000  0.6508444  3
   2632   2619   2622   2635     1  0.0000000  0.6508444  3
   2632   2619   2622   2636     1  0.0000000  0.6508444  3
   2633   2620   2621   5607     1  180.0000771  0.0000000  2
   2634   2620   2621   5607     1  180.0000771  0.0000000  2
   2635   2622   2623   5637     1  180.0000771  0.0000000  2
   2636   2622   2623   5637     1  180.0000771  0.0000000  2
   2637   2624   2617   2642     1  0.0000000  0.6508444  3
   2637   2624   2625   2639     1  0.0000000  0.6508444  3
   2637   2624   2625   2640     1  0.0000000  0.6508444  3
   2638   2624   2617   2642     1  0.0000000  0.6508444  3
   2638   2624   2625   2639     1  0.0000000  0.6508444  3
   2638   2624   2625   2640     1  0.0000000  0.6508444  3
   2639   2625   2626   2641     1  0.0000000  0.0000000  2
   2640   2625   2626   2641     1  0.0000000  0.0000000  2
   2643   2644   2646   2659     1  0.0000000  0.6508444  3
   2643   2644   2646   2660     1  0.0000000  0.6508444  3
   2643   2645   2648   2661     1  0.0000000  0.6508444  3
   2643   2645   2648   2662     1  0.0000000  0.6508444  3
   2643   2650   2651   2665     1  0.0000000  0.6508444  3
   2643   2650   2651   2666     1  0.0000000  0.6508444  3
   2644   2643   2645   2657     1  0.0000000  0.6508444  3
   2644   2643   2645   2658     1  0.0000000  0.6508444  3
   2644   2643   2650   2663     1  0.0000000  0.6508444  3
   2644   2643   2650   2664     1  0.0000000  0.6508444  3
   2645   2643   2644   2655     1  0.0000000  0.6508444  3
   2645   2643   2644   2656     1  0.0000000  0.6508444  3
   2645   2643   2650   2663     1  0.0000000  0.6508444  3
   2645   2643   2650   2664     1  0.0000000  0.6508444  3
   2646   2644   2643   2668     1  0.0000000  0.6508444  3
   2646   2647   5667   5668     1  180.0000771  10.4600000  2
   2647   2646   2644   2655     1  0.0000000  0.6508444  3
   2647   2646   2644   2656     1  0.0000000  0.6508444  3
   2647   5667   5669   5670     1  0.0000000  0.0000000  2
   2647   5667   5669   5672     1  0.0000000  0.0000000  2
   2648   2645   2643   2668     1  0.0000000  0.6508444  3
   2648   2649   5697   5698     1  180.0000771  10.4600000  2
   2649   2648   2645   2657     1  0.0000000  0.6508444  3
   2649   2648   2645   2658     1  0.0000000  0.6508444  3
   2649   5697   5699   5700     1  0.0000000  0.0000000  2
   2649   5697   5699   5702     1  0.0000000  0.0000000  2
   2650   2643   2644   2655     1  0.0000000  0.6508444  3
   2650   2643   2644   2656     1  0.0000000  0.6508444  3
   2650   2643   2645   2657     1  0.0000000  0.6508444  3
   2650   2643   2645   2658     1  0.0000000  0.6508444  3
   2650   2651   2652   2667     1  0.0000000  0.0000000  2
   2651   2650   2643   2668     1  0.0000000  0.6508444  3
   2652   2651   2650   2663     1  0.0000000  0.6508444  3
   2652   2651   2650   2664     1  0.0000000  0.6508444  3
   2653   2647   2646   2659     1  0.0000000  3.3472000  1
   2653   2647   2646   2659     1  0.0000000  0.0000000  2
   2653   2647   2646   2659     1  180.0000771  0.3347200  3
   2653   2647   2646   2660     1  0.0000000  3.3472000  1
   2653   2647   2646   2660     1  0.0000000  0.0000000  2
   2653   2647   2646   2660     1  180.0000771  0.3347200  3
   2653   2647   5667   5668     1  0.0000000  8.3680000  1
   2653   2647   5667   5668     1  180.0000771  10.4600000  2
   2654   2649   2648   2661     1  0.0000000  3.3472000  1
   2654   2649   2648   2661     1  0.0000000  0.0000000  2
   2654   2649   2648   2661     1  180.0000771  0.3347200  3
   2654   2649   2648   2662     1  0.0000000  3.3472000  1
   2654   2649   2648   2662     1  0.0000000  0.0000000  2
   2654   2649   2648   2662     1  180.0000771  0.3347200  3
   2654   2649   5697   5698     1  0.0000000  8.3680000  1
   2654   2649   5697   5698     1  180.0000771  10.4600000  2
   2655   2644   2643   2668     1  0.0000000  0.6508444  3
   2655   2644   2646   2659     1  0.0000000  0.6508444  3
   2655   2644   2646   2660     1  0.0000000  0.6508444  3
   2656   2644   2643   2668     1  0.0000000  0.6508444  3
   2656   2644   2646   2659     1  0.0000000  0.6508444  3
   2656   2644   2646   2660     1  0.0000000  0.6508444  3
   2657   2645   2643   2668     1  0.0000000  0.6508444  3
   2657   2645   2648   2661     1  0.0000000  0.6508444  3
   2657   2645   2648   2662     1  0.0000000  0.6508444  3
   2658   2645   2643   2668     1  0.0000000  0.6508444  3
   2658   2645   2648   2661     1  0.0000000  0.6508444  3
   2658   2645   2648   2662     1  0.0000000  0.6508444  3
   2659   2646   2647   5667     1  180.0000771  0.0000000  2
   2660   2646   2647   5667     1  180.0000771  0.0000000  2
   2661   2648   2649   5697     1  180.0000771  0.0000000  2
   2662   2648   2649   5697     1  180.0000771  0.0000000  2
   2663   2650   2643   2668     1  0.0000000  0.6508444  3
   2663   2650   2651   2665     1  0.0000000  0.6508444  3
   2663   2650   2651   2666     1  0.0000000  0.6508444  3
   2664   2650   2643   2668     1  0.0000000  0.6508444  3
   2664   2650   2651   2665     1  0.0000000  0.6508444  3
   2664   2650   2651   2666     1  0.0000000  0.6508444  3
   2665   2651   2652   2667     1  0.0000000  0.0000000  2
   2666   2651   2652   2667     1  0.0000000  0.0000000  2
   2669   2670   2672   2685     1  0.0000000  0.6508444  3
   2669   2670   2672   2686     1  0.0000000  0.6508444  3
   2669   2671   2674   2687     1  0.0000000  0.6508444  3
   2669   2671   2674   2688     1  0.0000000  0.6508444  3
   2669   2676   2677   2691     1  0.0000000  0.6508444  3
   2669   2676   2677   2692     1  0.0000000  0.6508444  3
   2670   2669   2671   2683     1  0.0000000  0.6508444  3
   2670   2669   2671   2684     1  0.0000000  0.6508444  3
   2670   2669   2676   2689     1  0.0000000  0.6508444  3
   2670   2669   2676   2690     1  0.0000000  0.6508444  3
   2671   2669   2670   2681     1  0.0000000  0.6508444  3
   2671   2669   2670   2682     1  0.0000000  0.6508444  3
   2671   2669   2676   2689     1  0.0000000  0.6508444  3
   2671   2669   2676   2690     1  0.0000000  0.6508444  3
   2672   2670   2669   2694     1  0.0000000  0.6508444  3
   2672   2673   5727   5728     1  180.0000771  10.4600000  2
   2673   2672   2670   2681     1  0.0000000  0.6508444  3
   2673   2672   2670   2682     1  0.0000000  0.6508444  3
   2673   5727   5729   5730     1  0.0000000  0.0000000  2
   2673   5727   5729   5732     1  0.0000000  0.0000000  2
   2674   2671   2669   2694     1  0.0000000  0.6508444  3
   2674   2675   5757   5758     1  180.0000771  10.4600000  2
   2675   2674   2671   2683     1  0.0000000  0.6508444  3
   2675   2674   2671   2684     1  0.0000000  0.6508444  3
   2675   5757   5759   5760     1  0.0000000  0.0000000  2
   2675   5757   5759   5762     1  0.0000000  0.0000000  2
   2676   2669   2670   2681     1  0.0000000  0.6508444  3
   2676   2669   2670   2682     1  0.0000000  0.6508444  3
   2676   2669   2671   2683     1  0.0000000  0.6508444  3
   2676   2669   2671   2684     1  0.0000000  0.6508444  3
   2676   2677   2678   2693     1  0.0000000  0.0000000  2
   2677   2676   2669   2694     1  0.0000000  0.6508444  3
   2678   2677   2676   2689     1  0.0000000  0.6508444  3
   2678   2677   2676   2690     1  0.0000000  0.6508444  3
   2679   2673   2672   2685     1  0.0000000  3.3472000  1
   2679   2673   2672   2685     1  0.0000000  0.0000000  2
   2679   2673   2672   2685     1  180.0000771  0.3347200  3
   2679   2673   2672   2686     1  0.0000000  3.3472000  1
   2679   2673   2672   2686     1  0.0000000  0.0000000  2
   2679   2673   2672   2686     1  180.0000771  0.3347200  3
   2679   2673   5727   5728     1  0.0000000  8.3680000  1
   2679   2673   5727   5728     1  180.0000771  10.4600000  2
   2680   2675   2674   2687     1  0.0000000  3.3472000  1
   2680   2675   2674   2687     1  0.0000000  0.0000000  2
   2680   2675   2674   2687     1  180.0000771  0.3347200  3
   2680   2675   2674   2688     1  0.0000000  3.3472000  1
   2680   2675   2674   2688     1  0.0000000  0.0000000  2
   2680   2675   2674   2688     1  180.0000771  0.3347200  3
   2680   2675   5757   5758     1  0.0000000  8.3680000  1
   2680   2675   5757   5758     1  180.0000771  10.4600000  2
   2681   2670   2669   2694     1  0.0000000  0.6508444  3
   2681   2670   2672   2685     1  0.0000000  0.6508444  3
   2681   2670   2672   2686     1  0.0000000  0.6508444  3
   2682   2670   2669   2694     1  0.0000000  0.6508444  3
   2682   2670   2672   2685     1  0.0000000  0.6508444  3
   2682   2670   2672   2686     1  0.0000000  0.6508444  3
   2683   2671   2669   2694     1  0.0000000  0.6508444  3
   2683   2671   2674   2687     1  0.0000000  0.6508444  3
   2683   2671   2674   2688     1  0.0000000  0.6508444  3
   2684   2671   2669   2694     1  0.0000000  0.6508444  3
   2684   2671   2674   2687     1  0.0000000  0.6508444  3
   2684   2671   2674   2688     1  0.0000000  0.6508444  3
   2685   2672   2673   5727     1  180.0000771  0.0000000  2
   2686   2672   2673   5727     1  180.0000771  0.0000000  2
   2687   2674   2675   5757     1  180.0000771  0.0000000  2
   2688   2674   2675   5757     1  180.0000771  0.0000000  2
   2689   2676   2669   2694     1  0.0000000  0.6508444  3
   2689   2676   2677   2691     1  0.0000000  0.6508444  3
   2689   2676   2677   2692     1  0.0000000  0.6508444  3
   2690   2676   2669   2694     1  0.0000000  0.6508444  3
   2690   2676   2677   2691     1  0.0000000  0.6508444  3
   2690   2676   2677   2692     1  0.0000000  0.6508444  3
   2691   2677   2678   2693     1  0.0000000  0.0000000  2
   2692   2677   2678   2693     1  0.0000000  0.0000000  2
   2695   2696   2698   2711     1  0.0000000  0.6508444  3
   2695   2696   2698   2712     1  0.0000000  0.6508444  3
   2695   2697   2700   2713     1  0.0000000  0.6508444  3
   2695   2697   2700   2714     1  0.0000000  0.6508444  3
   2695   2702   2703   2717     1  0.0000000  0.6508444  3
   2695   2702   2703   2718     1  0.0000000  0.6508444  3
   2696   2695   2697   2709     1  0.0000000  0.6508444  3
   2696   2695   2697   2710     1  0.0000000  0.6508444  3
   2696   2695   2702   2715     1  0.0000000  0.6508444  3
   2696   2695   2702   2716     1  0.0000000  0.6508444  3
   2697   2695   2696   2707     1  0.0000000  0.6508444  3
   2697   2695   2696   2708     1  0.0000000  0.6508444  3
   2697   2695   2702   2715     1  0.0000000  0.6508444  3
   2697   2695   2702   2716     1  0.0000000  0.6508444  3
   2698   2696   2695   2720     1  0.0000000  0.6508444  3
   2698   2699   5787   5788     1  180.0000771  10.4600000  2
   2699   2698   2696   2707     1  0.0000000  0.6508444  3
   2699   2698   2696   2708     1  0.0000000  0.6508444  3
   2699   5787   5789   5790     1  0.0000000  0.0000000  2
   2699   5787   5789   5792     1  0.0000000  0.0000000  2
   2700   2697   2695   2720     1  0.0000000  0.6508444  3
   2700   2701   5817   5818     1  180.0000771  10.4600000  2
   2701   2700   2697   2709     1  0.0000000  0.6508444  3
   2701   2700   2697   2710     1  0.0000000  0.6508444  3
   2701   5817   5819   5820     1  0.0000000  0.0000000  2
   2701   5817   5819   5822     1  0.0000000  0.0000000  2
   2702   2695   2696   2707     1  0.0000000  0.6508444  3
   2702   2695   2696   2708     1  0.0000000  0.6508444  3
   2702   2695   2697   2709     1  0.0000000  0.6508444  3
   2702   2695   2697   2710     1  0.0000000  0.6508444  3
   2702   2703   2704   2719     1  0.0000000  0.0000000  2
   2703   2702   2695   2720     1  0.0000000  0.6508444  3
   2704   2703   2702   2715     1  0.0000000  0.6508444  3
   2704   2703   2702   2716     1  0.0000000  0.6508444  3
   2705   2699   2698   2711     1  0.0000000  3.3472000  1
   2705   2699   2698   2711     1  0.0000000  0.0000000  2
   2705   2699   2698   2711     1  180.0000771  0.3347200  3
   2705   2699   2698   2712     1  0.0000000  3.3472000  1
   2705   2699   2698   2712     1  0.0000000  0.0000000  2
   2705   2699   2698   2712     1  180.0000771  0.3347200  3
   2705   2699   5787   5788     1  0.0000000  8.3680000  1
   2705   2699   5787   5788     1  180.0000771  10.4600000  2
   2706   2701   2700   2713     1  0.0000000  3.3472000  1
   2706   2701   2700   2713     1  0.0000000  0.0000000  2
   2706   2701   2700   2713     1  180.0000771  0.3347200  3
   2706   2701   2700   2714     1  0.0000000  3.3472000  1
   2706   2701   2700   2714     1  0.0000000  0.0000000  2
   2706   2701   2700   2714     1  180.0000771  0.3347200  3
   2706   2701   5817   5818     1  0.0000000  8.3680000  1
   2706   2701   5817   5818     1  180.0000771  10.4600000  2
   2707   2696   2695   2720     1  0.0000000  0.6508444  3
   2707   2696   2698   2711     1  0.0000000  0.6508444  3
   2707   2696   2698   2712     1  0.0000000  0.6508444  3
   2708   2696   2695   2720     1  0.0000000  0.6508444  3
   2708   2696   2698   2711     1  0.0000000  0.6508444  3
   2708   2696   2698   2712     1  0.0000000  0.6508444  3
   2709   2697   2695   2720     1  0.0000000  0.6508444  3
   2709   2697   2700   2713     1  0.0000000  0.6508444  3
   2709   2697   2700   2714     1  0.0000000  0.6508444  3
   2710   2697   2695   2720     1  0.0000000  0.6508444  3
   2710   2697   2700   2713     1  0.0000000  0.6508444  3
   2710   2697   2700   2714     1  0.0000000  0.6508444  3
   2711   2698   2699   5787     1  180.0000771  0.0000000  2
   2712   2698   2699   5787     1  180.0000771  0.0000000  2
   2713   2700   2701   5817     1  180.0000771  0.0000000  2
   2714   2700   2701   5817     1  180.0000771  0.0000000  2
   2715   2702   2695   2720     1  0.0000000  0.6508444  3
   2715   2702   2703   2717     1  0.0000000  0.6508444  3
   2715   2702   2703   2718     1  0.0000000  0.6508444  3
   2716   2702   2695   2720     1  0.0000000  0.6508444  3
   2716   2702   2703   2717     1  0.0000000  0.6508444  3
   2716   2702   2703   2718     1  0.0000000  0.6508444  3
   2717   2703   2704   2719     1  0.0000000  0.0000000  2
   2718   2703   2704   2719     1  0.0000000  0.0000000  2
   2721   2722   2724   2737     1  0.0000000  0.6508444  3
   2721   2722   2724   2738     1  0.0000000  0.6508444  3
   2721   2723   2726   2739     1  0.0000000  0.6508444  3
   2721   2723   2726   2740     1  0.0000000  0.6508444  3
   2721   2728   2729   2743     1  0.0000000  0.6508444  3
   2721   2728   2729   2744     1  0.0000000  0.6508444  3
   2722   2721   2723   2735     1  0.0000000  0.6508444  3
   2722   2721   2723   2736     1  0.0000000  0.6508444  3
   2722   2721   2728   2741     1  0.0000000  0.6508444  3
   2722   2721   2728   2742     1  0.0000000  0.6508444  3
   2723   2721   2722   2733     1  0.0000000  0.6508444  3
   2723   2721   2722   2734     1  0.0000000  0.6508444  3
   2723   2721   2728   2741     1  0.0000000  0.6508444  3
   2723   2721   2728   2742     1  0.0000000  0.6508444  3
   2724   2722   2721   2746     1  0.0000000  0.6508444  3
   2724   2725   5847   5848     1  180.0000771  10.4600000  2
   2725   2724   2722   2733     1  0.0000000  0.6508444  3
   2725   2724   2722   2734     1  0.0000000  0.6508444  3
   2725   5847   5849   5850     1  0.0000000  0.0000000  2
   2725   5847   5849   5852     1  0.0000000  0.0000000  2
   2726   2723   2721   2746     1  0.0000000  0.6508444  3
   2726   2727   5877   5878     1  180.0000771  10.4600000  2
   2727   2726   2723   2735     1  0.0000000  0.6508444  3
   2727   2726   2723   2736     1  0.0000000  0.6508444  3
   2727   5877   5879   5880     1  0.0000000  0.0000000  2
   2727   5877   5879   5882     1  0.0000000  0.0000000  2
   2728   2721   2722   2733     1  0.0000000  0.6508444  3
   2728   2721   2722   2734     1  0.0000000  0.6508444  3
   2728   2721   2723   2735     1  0.0000000  0.6508444  3
   2728   2721   2723   2736     1  0.0000000  0.6508444  3
   2728   2729   2730   2745     1  0.0000000  0.0000000  2
   2729   2728   2721   2746     1  0.0000000  0.6508444  3
   2730   2729   2728   2741     1  0.0000000  0.6508444  3
   2730   2729   2728   2742     1  0.0000000  0.6508444  3
   2731   2725   2724   2737     1  0.0000000  3.3472000  1
   2731   2725   2724   2737     1  0.0000000  0.0000000  2
   2731   2725   2724   2737     1  180.0000771  0.3347200  3
   2731   2725   2724   2738     1  0.0000000  3.3472000  1
   2731   2725   2724   2738     1  0.0000000  0.0000000  2
   2731   2725   2724   2738     1  180.0000771  0.3347200  3
   2731   2725   5847   5848     1  0.0000000  8.3680000  1
   2731   2725   5847   5848     1  180.0000771  10.4600000  2
   2732   2727   2726   2739     1  0.0000000  3.3472000  1
   2732   2727   2726   2739     1  0.0000000  0.0000000  2
   2732   2727   2726   2739     1  180.0000771  0.3347200  3
   2732   2727   2726   2740     1  0.0000000  3.3472000  1
   2732   2727   2726   2740     1  0.0000000  0.0000000  2
   2732   2727   2726   2740     1  180.0000771  0.3347200  3
   2732   2727   5877   5878     1  0.0000000  8.3680000  1
   2732   2727   5877   5878     1  180.0000771  10.4600000  2
   2733   2722   2721   2746     1  0.0000000  0.6508444  3
   2733   2722   2724   2737     1  0.0000000  0.6508444  3
   2733   2722   2724   2738     1  0.0000000  0.6508444  3
   2734   2722   2721   2746     1  0.0000000  0.6508444  3
   2734   2722   2724   2737     1  0.0000000  0.6508444  3
   2734   2722   2724   2738     1  0.0000000  0.6508444  3
   2735   2723   2721   2746     1  0.0000000  0.6508444  3
   2735   2723   2726   2739     1  0.0000000  0.6508444  3
   2735   2723   2726   2740     1  0.0000000  0.6508444  3
   2736   2723   2721   2746     1  0.0000000  0.6508444  3
   2736   2723   2726   2739     1  0.0000000  0.6508444  3
   2736   2723   2726   2740     1  0.0000000  0.6508444  3
   2737   2724   2725   5847     1  180.0000771  0.0000000  2
   2738   2724   2725   5847     1  180.0000771  0.0000000  2
   2739   2726   2727   5877     1  180.0000771  0.0000000  2
   2740   2726   2727   5877     1  180.0000771  0.0000000  2
   2741   2728   2721   2746     1  0.0000000  0.6508444  3
   2741   2728   2729   2743     1  0.0000000  0.6508444  3
   2741   2728   2729   2744     1  0.0000000  0.6508444  3
   2742   2728   2721   2746     1  0.0000000  0.6508444  3
   2742   2728   2729   2743     1  0.0000000  0.6508444  3
   2742   2728   2729   2744     1  0.0000000  0.6508444  3
   2743   2729   2730   2745     1  0.0000000  0.0000000  2
   2744   2729   2730   2745     1  0.0000000  0.0000000  2
   2747   2748   2750   2763     1  0.0000000  0.6508444  3
   2747   2748   2750   2764     1  0.0000000  0.6508444  3
   2747   2749   2752   2765     1  0.0000000  0.6508444  3
   2747   2749   2752   2766     1  0.0000000  0.6508444  3
   2747   2754   2755   2769     1  0.0000000  0.6508444  3
   2747   2754   2755   2770     1  0.0000000  0.6508444  3
   2748   2747   2749   2761     1  0.0000000  0.6508444  3
   2748   2747   2749   2762     1  0.0000000  0.6508444  3
   2748   2747   2754   2767     1  0.0000000  0.6508444  3
   2748   2747   2754   2768     1  0.0000000  0.6508444  3
   2749   2747   2748   2759     1  0.0000000  0.6508444  3
   2749   2747   2748   2760     1  0.0000000  0.6508444  3
   2749   2747   2754   2767     1  0.0000000  0.6508444  3
   2749   2747   2754   2768     1  0.0000000  0.6508444  3
   2750   2748   2747   2772     1  0.0000000  0.6508444  3
   2750   2751   5907   5908     1  180.0000771  10.4600000  2
   2751   2750   2748   2759     1  0.0000000  0.6508444  3
   2751   2750   2748   2760     1  0.0000000  0.6508444  3
   2751   5907   5909   5910     1  0.0000000  0.0000000  2
   2751   5907   5909   5912     1  0.0000000  0.0000000  2
   2752   2749   2747   2772     1  0.0000000  0.6508444  3
   2752   2753   5937   5938     1  180.0000771  10.4600000  2
   2753   2752   2749   2761     1  0.0000000  0.6508444  3
   2753   2752   2749   2762     1  0.0000000  0.6508444  3
   2753   5937   5939   5940     1  0.0000000  0.0000000  2
   2753   5937   5939   5942     1  0.0000000  0.0000000  2
   2754   2747   2748   2759     1  0.0000000  0.6508444  3
   2754   2747   2748   2760     1  0.0000000  0.6508444  3
   2754   2747   2749   2761     1  0.0000000  0.6508444  3
   2754   2747   2749   2762     1  0.0000000  0.6508444  3
   2754   2755   2756   2771     1  0.0000000  0.0000000  2
   2755   2754   2747   2772     1  0.0000000  0.6508444  3
   2756   2755   2754   2767     1  0.0000000  0.6508444  3
   2756   2755   2754   2768     1  0.0000000  0.6508444  3
   2757   2751   2750   2763     1  0.0000000  3.3472000  1
   2757   2751   2750   2763     1  0.0000000  0.0000000  2
   2757   2751   2750   2763     1  180.0000771  0.3347200  3
   2757   2751   2750   2764     1  0.0000000  3.3472000  1
   2757   2751   2750   2764     1  0.0000000  0.0000000  2
   2757   2751   2750   2764     1  180.0000771  0.3347200  3
   2757   2751   5907   5908     1  0.0000000  8.3680000  1
   2757   2751   5907   5908     1  180.0000771  10.4600000  2
   2758   2753   2752   2765     1  0.0000000  3.3472000  1
   2758   2753   2752   2765     1  0.0000000  0.0000000  2
   2758   2753   2752   2765     1  180.0000771  0.3347200  3
   2758   2753   2752   2766     1  0.0000000  3.3472000  1
   2758   2753   2752   2766     1  0.0000000  0.0000000  2
   2758   2753   2752   2766     1  180.0000771  0.3347200  3
   2758   2753   5937   5938     1  0.0000000  8.3680000  1
   2758   2753   5937   5938     1  180.0000771  10.4600000  2
   2759   2748   2747   2772     1  0.0000000  0.6508444  3
   2759   2748   2750   2763     1  0.0000000  0.6508444  3
   2759   2748   2750   2764     1  0.0000000  0.6508444  3
   2760   2748   2747   2772     1  0.0000000  0.6508444  3
   2760   2748   2750   2763     1  0.0000000  0.6508444  3
   2760   2748   2750   2764     1  0.0000000  0.6508444  3
   2761   2749   2747   2772     1  0.0000000  0.6508444  3
   2761   2749   2752   2765     1  0.0000000  0.6508444  3
   2761   2749   2752   2766     1  0.0000000  0.6508444  3
   2762   2749   2747   2772     1  0.0000000  0.6508444  3
   2762   2749   2752   2765     1  0.0000000  0.6508444  3
   2762   2749   2752   2766     1  0.0000000  0.6508444  3
   2763   2750   2751   5907     1  180.0000771  0.0000000  2
   2764   2750   2751   5907     1  180.0000771  0.0000000  2
   2765   2752   2753   5937     1  180.0000771  0.0000000  2
   2766   2752   2753   5937     1  180.0000771  0.0000000  2
   2767   2754   2747   2772     1  0.0000000  0.6508444  3
   2767   2754   2755   2769     1  0.0000000  0.6508444  3
   2767   2754   2755   2770     1  0.0000000  0.6508444  3
   2768   2754   2747   2772     1  0.0000000  0.6508444  3
   2768   2754   2755   2769     1  0.0000000  0.6508444  3
   2768   2754   2755   2770     1  0.0000000  0.6508444  3
   2769   2755   2756   2771     1  0.0000000  0.0000000  2
   2770   2755   2756   2771     1  0.0000000  0.0000000  2
   2773   2774   2776   2789     1  0.0000000  0.6508444  3
   2773   2774   2776   2790     1  0.0000000  0.6508444  3
   2773   2775   2778   2791     1  0.0000000  0.6508444  3
   2773   2775   2778   2792     1  0.0000000  0.6508444  3
   2773   2780   2781   2795     1  0.0000000  0.6508444  3
   2773   2780   2781   2796     1  0.0000000  0.6508444  3
   2774   2773   2775   2787     1  0.0000000  0.6508444  3
   2774   2773   2775   2788     1  0.0000000  0.6508444  3
   2774   2773   2780   2793     1  0.0000000  0.6508444  3
   2774   2773   2780   2794     1  0.0000000  0.6508444  3
   2775   2773   2774   2785     1  0.0000000  0.6508444  3
   2775   2773   2774   2786     1  0.0000000  0.6508444  3
   2775   2773   2780   2793     1  0.0000000  0.6508444  3
   2775   2773   2780   2794     1  0.0000000  0.6508444  3
   2776   2774   2773   2798     1  0.0000000  0.6508444  3
   2776   2777   5967   5968     1  180.0000771  10.4600000  2
   2777   2776   2774   2785     1  0.0000000  0.6508444  3
   2777   2776   2774   2786     1  0.0000000  0.6508444  3
   2777   5967   5969   5970     1  0.0000000  0.0000000  2
   2777   5967   5969   5972     1  0.0000000  0.0000000  2
   2778   2775   2773   2798     1  0.0000000  0.6508444  3
   2778   2779   5997   5998     1  180.0000771  10.4600000  2
   2779   2778   2775   2787     1  0.0000000  0.6508444  3
   2779   2778   2775   2788     1  0.0000000  0.6508444  3
   2779   5997   5999   6000     1  0.0000000  0.0000000  2
   2779   5997   5999   6002     1  0.0000000  0.0000000  2
   2780   2773   2774   2785     1  0.0000000  0.6508444  3
   2780   2773   2774   2786     1  0.0000000  0.6508444  3
   2780   2773   2775   2787     1  0.0000000  0.6508444  3
   2780   2773   2775   2788     1  0.0000000  0.6508444  3
   2780   2781   2782   2797     1  0.0000000  0.0000000  2
   2781   2780   2773   2798     1  0.0000000  0.6508444  3
   2782   2781   2780   2793     1  0.0000000  0.6508444  3
   2782   2781   2780   2794     1  0.0000000  0.6508444  3
   2783   2777   2776   2789     1  0.0000000  3.3472000  1
   2783   2777   2776   2789     1  0.0000000  0.0000000  2
   2783   2777   2776   2789     1  180.0000771  0.3347200  3
   2783   2777   2776   2790     1  0.0000000  3.3472000  1
   2783   2777   2776   2790     1  0.0000000  0.0000000  2
   2783   2777   2776   2790     1  180.0000771  0.3347200  3
   2783   2777   5967   5968     1  0.0000000  8.3680000  1
   2783   2777   5967   5968     1  180.0000771  10.4600000  2
   2784   2779   2778   2791     1  0.0000000  3.3472000  1
   2784   2779   2778   2791     1  0.0000000  0.0000000  2
   2784   2779   2778   2791     1  180.0000771  0.3347200  3
   2784   2779   2778   2792     1  0.0000000  3.3472000  1
   2784   2779   2778   2792     1  0.0000000  0.0000000  2
   2784   2779   2778   2792     1  180.0000771  0.3347200  3
   2784   2779   5997   5998     1  0.0000000  8.3680000  1
   2784   2779   5997   5998     1  180.0000771  10.4600000  2
   2785   2774   2773   2798     1  0.0000000  0.6508444  3
   2785   2774   2776   2789     1  0.0000000  0.6508444  3
   2785   2774   2776   2790     1  0.0000000  0.6508444  3
   2786   2774   2773   2798     1  0.0000000  0.6508444  3
   2786   2774   2776   2789     1  0.0000000  0.6508444  3
   2786   2774   2776   2790     1  0.0000000  0.6508444  3
   2787   2775   2773   2798     1  0.0000000  0.6508444  3
   2787   2775   2778   2791     1  0.0000000  0.6508444  3
   2787   2775   2778   2792     1  0.0000000  0.6508444  3
   2788   2775   2773   2798     1  0.0000000  0.6508444  3
   2788   2775   2778   2791     1  0.0000000  0.6508444  3
   2788   2775   2778   2792     1  0.0000000  0.6508444  3
   2789   2776   2777   5967     1  180.0000771  0.0000000  2
   2790   2776   2777   5967     1  180.0000771  0.0000000  2
   2791   2778   2779   5997     1  180.0000771  0.0000000  2
   2792   2778   2779   5997     1  180.0000771  0.0000000  2
   2793   2780   2773   2798     1  0.0000000  0.6508444  3
   2793   2780   2781   2795     1  0.0000000  0.6508444  3
   2793   2780   2781   2796     1  0.0000000  0.6508444  3
   2794   2780   2773   2798     1  0.0000000  0.6508444  3
   2794   2780   2781   2795     1  0.0000000  0.6508444  3
   2794   2780   2781   2796     1  0.0000000  0.6508444  3
   2795   2781   2782   2797     1  0.0000000  0.0000000  2
   2796   2781   2782   2797     1  0.0000000  0.0000000  2
   2799   2800   2802   2815     1  0.0000000  0.6508444  3
   2799   2800   2802   2816     1  0.0000000  0.6508444  3
   2799   2801   2804   2817     1  0.0000000  0.6508444  3
   2799   2801   2804   2818     1  0.0000000  0.6508444  3
   2799   2806   2807   2821     1  0.0000000  0.6508444  3
   2799   2806   2807   2822     1  0.0000000  0.6508444  3
   2800   2799   2801   2813     1  0.0000000  0.6508444  3
   2800   2799   2801   2814     1  0.0000000  0.6508444  3
   2800   2799   2806   2819     1  0.0000000  0.6508444  3
   2800   2799   2806   2820     1  0.0000000  0.6508444  3
   2801   2799   2800   2811     1  0.0000000  0.6508444  3
   2801   2799   2800   2812     1  0.0000000  0.6508444  3
   2801   2799   2806   2819     1  0.0000000  0.6508444  3
   2801   2799   2806   2820     1  0.0000000  0.6508444  3
   2802   2800   2799   2824     1  0.0000000  0.6508444  3
   2802   2803   6027   6028     1  180.0000771  10.4600000  2
   2803   2802   2800   2811     1  0.0000000  0.6508444  3
   2803   2802   2800   2812     1  0.0000000  0.6508444  3
   2803   6027   6029   6030     1  0.0000000  0.0000000  2
   2803   6027   6029   6032     1  0.0000000  0.0000000  2
   2804   2801   2799   2824     1  0.0000000  0.6508444  3
   2804   2805   6057   6058     1  180.0000771  10.4600000  2
   2805   2804   2801   2813     1  0.0000000  0.6508444  3
   2805   2804   2801   2814     1  0.0000000  0.6508444  3
   2805   6057   6059   6060     1  0.0000000  0.0000000  2
   2805   6057   6059   6062     1  0.0000000  0.0000000  2
   2806   2799   2800   2811     1  0.0000000  0.6508444  3
   2806   2799   2800   2812     1  0.0000000  0.6508444  3
   2806   2799   2801   2813     1  0.0000000  0.6508444  3
   2806   2799   2801   2814     1  0.0000000  0.6508444  3
   2806   2807   2808   2823     1  0.0000000  0.0000000  2
   2807   2806   2799   2824     1  0.0000000  0.6508444  3
   2808   2807   2806   2819     1  0.0000000  0.6508444  3
   2808   2807   2806   2820     1  0.0000000  0.6508444  3
   2809   2803   2802   2815     1  0.0000000  3.3472000  1
   2809   2803   2802   2815     1  0.0000000  0.0000000  2
   2809   2803   2802   2815     1  180.0000771  0.3347200  3
   2809   2803   2802   2816     1  0.0000000  3.3472000  1
   2809   2803   2802   2816     1  0.0000000  0.0000000  2
   2809   2803   2802   2816     1  180.0000771  0.3347200  3
   2809   2803   6027   6028     1  0.0000000  8.3680000  1
   2809   2803   6027   6028     1  180.0000771  10.4600000  2
   2810   2805   2804   2817     1  0.0000000  3.3472000  1
   2810   2805   2804   2817     1  0.0000000  0.0000000  2
   2810   2805   2804   2817     1  180.0000771  0.3347200  3
   2810   2805   2804   2818     1  0.0000000  3.3472000  1
   2810   2805   2804   2818     1  0.0000000  0.0000000  2
   2810   2805   2804   2818     1  180.0000771  0.3347200  3
   2810   2805   6057   6058     1  0.0000000  8.3680000  1
   2810   2805   6057   6058     1  180.0000771  10.4600000  2
   2811   2800   2799   2824     1  0.0000000  0.6508444  3
   2811   2800   2802   2815     1  0.0000000  0.6508444  3
   2811   2800   2802   2816     1  0.0000000  0.6508444  3
   2812   2800   2799   2824     1  0.0000000  0.6508444  3
   2812   2800   2802   2815     1  0.0000000  0.6508444  3
   2812   2800   2802   2816     1  0.0000000  0.6508444  3
   2813   2801   2799   2824     1  0.0000000  0.6508444  3
   2813   2801   2804   2817     1  0.0000000  0.6508444  3
   2813   2801   2804   2818     1  0.0000000  0.6508444  3
   2814   2801   2799   2824     1  0.0000000  0.6508444  3
   2814   2801   2804   2817     1  0.0000000  0.6508444  3
   2814   2801   2804   2818     1  0.0000000  0.6508444  3
   2815   2802   2803   6027     1  180.0000771  0.0000000  2
   2816   2802   2803   6027     1  180.0000771  0.0000000  2
   2817   2804   2805   6057     1  180.0000771  0.0000000  2
   2818   2804   2805   6057     1  180.0000771  0.0000000  2
   2819   2806   2799   2824     1  0.0000000  0.6508444  3
   2819   2806   2807   2821     1  0.0000000  0.6508444  3
   2819   2806   2807   2822     1  0.0000000  0.6508444  3
   2820   2806   2799   2824     1  0.0000000  0.6508444  3
   2820   2806   2807   2821     1  0.0000000  0.6508444  3
   2820   2806   2807   2822     1  0.0000000  0.6508444  3
   2821   2807   2808   2823     1  0.0000000  0.0000000  2
   2822   2807   2808   2823     1  0.0000000  0.0000000  2
   2825   2826   2828   2841     1  0.0000000  0.6508444  3
   2825   2826   2828   2842     1  0.0000000  0.6508444  3
   2825   2827   2830   2843     1  0.0000000  0.6508444  3
   2825   2827   2830   2844     1  0.0000000  0.6508444  3
   2825   2832   2833   2847     1  0.0000000  0.6508444  3
   2825   2832   2833   2848     1  0.0000000  0.6508444  3
   2826   2825   2827   2839     1  0.0000000  0.6508444  3
   2826   2825   2827   2840     1  0.0000000  0.6508444  3
   2826   2825   2832   2845     1  0.0000000  0.6508444  3
   2826   2825   2832   2846     1  0.0000000  0.6508444  3
   2827   2825   2826   2837     1  0.0000000  0.6508444  3
   2827   2825   2826   2838     1  0.0000000  0.6508444  3
   2827   2825   2832   2845     1  0.0000000  0.6508444  3
   2827   2825   2832   2846     1  0.0000000  0.6508444  3
   2828   2826   2825   2850     1  0.0000000  0.6508444  3
   2828   2829   6087   6088     1  180.0000771  10.4600000  2
   2829   2828   2826   2837     1  0.0000000  0.6508444  3
   2829   2828   2826   2838     1  0.0000000  0.6508444  3
   2829   6087   6089   6090     1  0.0000000  0.0000000  2
   2829   6087   6089   6092     1  0.0000000  0.0000000  2
   2830   2827   2825   2850     1  0.0000000  0.6508444  3
   2830   2831   6117   6118     1  180.0000771  10.4600000  2
   2831   2830   2827   2839     1  0.0000000  0.6508444  3
   2831   2830   2827   2840     1  0.0000000  0.6508444  3
   2831   6117   6119   6120     1  0.0000000  0.0000000  2
   2831   6117   6119   6122     1  0.0000000  0.0000000  2
   2832   2825   2826   2837     1  0.0000000  0.6508444  3
   2832   2825   2826   2838     1  0.0000000  0.6508444  3
   2832   2825   2827   2839     1  0.0000000  0.6508444  3
   2832   2825   2827   2840     1  0.0000000  0.6508444  3
   2832   2833   2834   2849     1  0.0000000  0.0000000  2
   2833   2832   2825   2850     1  0.0000000  0.6508444  3
   2834   2833   2832   2845     1  0.0000000  0.6508444  3
   2834   2833   2832   2846     1  0.0000000  0.6508444  3
   2835   2829   2828   2841     1  0.0000000  3.3472000  1
   2835   2829   2828   2841     1  0.0000000  0.0000000  2
   2835   2829   2828   2841     1  180.0000771  0.3347200  3
   2835   2829   2828   2842     1  0.0000000  3.3472000  1
   2835   2829   2828   2842     1  0.0000000  0.0000000  2
   2835   2829   2828   2842     1  180.0000771  0.3347200  3
   2835   2829   6087   6088     1  0.0000000  8.3680000  1
   2835   2829   6087   6088     1  180.0000771  10.4600000  2
   2836   2831   2830   2843     1  0.0000000  3.3472000  1
   2836   2831   2830   2843     1  0.0000000  0.0000000  2
   2836   2831   2830   2843     1  180.0000771  0.3347200  3
   2836   2831   2830   2844     1  0.0000000  3.3472000  1
   2836   2831   2830   2844     1  0.0000000  0.0000000  2
   2836   2831   2830   2844     1  180.0000771  0.3347200  3
   2836   2831   6117   6118     1  0.0000000  8.3680000  1
   2836   2831   6117   6118     1  180.0000771  10.4600000  2
   2837   2826   2825   2850     1  0.0000000  0.6508444  3
   2837   2826   2828   2841     1  0.0000000  0.6508444  3
   2837   2826   2828   2842     1  0.0000000  0.6508444  3
   2838   2826   2825   2850     1  0.0000000  0.6508444  3
   2838   2826   2828   2841     1  0.0000000  0.6508444  3
   2838   2826   2828   2842     1  0.0000000  0.6508444  3
   2839   2827   2825   2850     1  0.0000000  0.6508444  3
   2839   2827   2830   2843     1  0.0000000  0.6508444  3
   2839   2827   2830   2844     1  0.0000000  0.6508444  3
   2840   2827   2825   2850     1  0.0000000  0.6508444  3
   2840   2827   2830   2843     1  0.0000000  0.6508444  3
   2840   2827   2830   2844     1  0.0000000  0.6508444  3
   2841   2828   2829   6087     1  180.0000771  0.0000000  2
   2842   2828   2829   6087     1  180.0000771  0.0000000  2
   2843   2830   2831   6117     1  180.0000771  0.0000000  2
   2844   2830   2831   6117     1  180.0000771  0.0000000  2
   2845   2832   2825   2850     1  0.0000000  0.6508444  3
   2845   2832   2833   2847     1  0.0000000  0.6508444  3
   2845   2832   2833   2848     1  0.0000000  0.6508444  3
   2846   2832   2825   2850     1  0.0000000  0.6508444  3
   2846   2832   2833   2847     1  0.0000000  0.6508444  3
   2846   2832   2833   2848     1  0.0000000  0.6508444  3
   2847   2833   2834   2849     1  0.0000000  0.0000000  2
   2848   2833   2834   2849     1  0.0000000  0.0000000  2
   2851   2852   2854   2867     1  0.0000000  0.6508444  3
   2851   2852   2854   2868     1  0.0000000  0.6508444  3
   2851   2853   2856   2869     1  0.0000000  0.6508444  3
   2851   2853   2856   2870     1  0.0000000  0.6508444  3
   2851   2858   2859   2873     1  0.0000000  0.6508444  3
   2851   2858   2859   2874     1  0.0000000  0.6508444  3
   2852   2851   2853   2865     1  0.0000000  0.6508444  3
   2852   2851   2853   2866     1  0.0000000  0.6508444  3
   2852   2851   2858   2871     1  0.0000000  0.6508444  3
   2852   2851   2858   2872     1  0.0000000  0.6508444  3
   2853   2851   2852   2863     1  0.0000000  0.6508444  3
   2853   2851   2852   2864     1  0.0000000  0.6508444  3
   2853   2851   2858   2871     1  0.0000000  0.6508444  3
   2853   2851   2858   2872     1  0.0000000  0.6508444  3
   2854   2852   2851   2876     1  0.0000000  0.6508444  3
   2854   2855   6147   6148     1  180.0000771  10.4600000  2
   2855   2854   2852   2863     1  0.0000000  0.6508444  3
   2855   2854   2852   2864     1  0.0000000  0.6508444  3
   2855   6147   6149   6150     1  0.0000000  0.0000000  2
   2855   6147   6149   6152     1  0.0000000  0.0000000  2
   2856   2853   2851   2876     1  0.0000000  0.6508444  3
   2856   2857   6177   6178     1  180.0000771  10.4600000  2
   2857   2856   2853   2865     1  0.0000000  0.6508444  3
   2857   2856   2853   2866     1  0.0000000  0.6508444  3
   2857   6177   6179   6180     1  0.0000000  0.0000000  2
   2857   6177   6179   6182     1  0.0000000  0.0000000  2
   2858   2851   2852   2863     1  0.0000000  0.6508444  3
   2858   2851   2852   2864     1  0.0000000  0.6508444  3
   2858   2851   2853   2865     1  0.0000000  0.6508444  3
   2858   2851   2853   2866     1  0.0000000  0.6508444  3
   2858   2859   2860   2875     1  0.0000000  0.0000000  2
   2859   2858   2851   2876     1  0.0000000  0.6508444  3
   2860   2859   2858   2871     1  0.0000000  0.6508444  3
   2860   2859   2858   2872     1  0.0000000  0.6508444  3
   2861   2855   2854   2867     1  0.0000000  3.3472000  1
   2861   2855   2854   2867     1  0.0000000  0.0000000  2
   2861   2855   2854   2867     1  180.0000771  0.3347200  3
   2861   2855   2854   2868     1  0.0000000  3.3472000  1
   2861   2855   2854   2868     1  0.0000000  0.0000000  2
   2861   2855   2854   2868     1  180.0000771  0.3347200  3
   2861   2855   6147   6148     1  0.0000000  8.3680000  1
   2861   2855   6147   6148     1  180.0000771  10.4600000  2
   2862   2857   2856   2869     1  0.0000000  3.3472000  1
   2862   2857   2856   2869     1  0.0000000  0.0000000  2
   2862   2857   2856   2869     1  180.0000771  0.3347200  3
   2862   2857   2856   2870     1  0.0000000  3.3472000  1
   2862   2857   2856   2870     1  0.0000000  0.0000000  2
   2862   2857   2856   2870     1  180.0000771  0.3347200  3
   2862   2857   6177   6178     1  0.0000000  8.3680000  1
   2862   2857   6177   6178     1  180.0000771  10.4600000  2
   2863   2852   2851   2876     1  0.0000000  0.6508444  3
   2863   2852   2854   2867     1  0.0000000  0.6508444  3
   2863   2852   2854   2868     1  0.0000000  0.6508444  3
   2864   2852   2851   2876     1  0.0000000  0.6508444  3
   2864   2852   2854   2867     1  0.0000000  0.6508444  3
   2864   2852   2854   2868     1  0.0000000  0.6508444  3
   2865   2853   2851   2876     1  0.0000000  0.6508444  3
   2865   2853   2856   2869     1  0.0000000  0.6508444  3
   2865   2853   2856   2870     1  0.0000000  0.6508444  3
   2866   2853   2851   2876     1  0.0000000  0.6508444  3
   2866   2853   2856   2869     1  0.0000000  0.6508444  3
   2866   2853   2856   2870     1  0.0000000  0.6508444  3
   2867   2854   2855   6147     1  180.0000771  0.0000000  2
   2868   2854   2855   6147     1  180.0000771  0.0000000  2
   2869   2856   2857   6177     1  180.0000771  0.0000000  2
   2870   2856   2857   6177     1  180.0000771  0.0000000  2
   2871   2858   2851   2876     1  0.0000000  0.6508444  3
   2871   2858   2859   2873     1  0.0000000  0.6508444  3
   2871   2858   2859   2874     1  0.0000000  0.6508444  3
   2872   2858   2851   2876     1  0.0000000  0.6508444  3
   2872   2858   2859   2873     1  0.0000000  0.6508444  3
   2872   2858   2859   2874     1  0.0000000  0.6508444  3
   2873   2859   2860   2875     1  0.0000000  0.0000000  2
   2874   2859   2860   2875     1  0.0000000  0.0000000  2
   2877   2878   2880   2893     1  0.0000000  0.6508444  3
   2877   2878   2880   2894     1  0.0000000  0.6508444  3
   2877   2879   2882   2895     1  0.0000000  0.6508444  3
   2877   2879   2882   2896     1  0.0000000  0.6508444  3
   2877   2884   2885   2899     1  0.0000000  0.6508444  3
   2877   2884   2885   2900     1  0.0000000  0.6508444  3
   2878   2877   2879   2891     1  0.0000000  0.6508444  3
   2878   2877   2879   2892     1  0.0000000  0.6508444  3
   2878   2877   2884   2897     1  0.0000000  0.6508444  3
   2878   2877   2884   2898     1  0.0000000  0.6508444  3
   2879   2877   2878   2889     1  0.0000000  0.6508444  3
   2879   2877   2878   2890     1  0.0000000  0.6508444  3
   2879   2877   2884   2897     1  0.0000000  0.6508444  3
   2879   2877   2884   2898     1  0.0000000  0.6508444  3
   2880   2878   2877   2902     1  0.0000000  0.6508444  3
   2880   2881   6207   6208     1  180.0000771  10.4600000  2
   2881   2880   2878   2889     1  0.0000000  0.6508444  3
   2881   2880   2878   2890     1  0.0000000  0.6508444  3
   2881   6207   6209   6210     1  0.0000000  0.0000000  2
   2881   6207   6209   6212     1  0.0000000  0.0000000  2
   2882   2879   2877   2902     1  0.0000000  0.6508444  3
   2882   2883   6237   6238     1  180.0000771  10.4600000  2
   2883   2882   2879   2891     1  0.0000000  0.6508444  3
   2883   2882   2879   2892     1  0.0000000  0.6508444  3
   2883   6237   6239   6240     1  0.0000000  0.0000000  2
   2883   6237   6239   6242     1  0.0000000  0.0000000  2
   2884   2877   2878   2889     1  0.0000000  0.6508444  3
   2884   2877   2878   2890     1  0.0000000  0.6508444  3
   2884   2877   2879   2891     1  0.0000000  0.6508444  3
   2884   2877   2879   2892     1  0.0000000  0.6508444  3
   2884   2885   2886   2901     1  0.0000000  0.0000000  2
   2885   2884   2877   2902     1  0.0000000  0.6508444  3
   2886   2885   2884   2897     1  0.0000000  0.6508444  3
   2886   2885   2884   2898     1  0.0000000  0.6508444  3
   2887   2881   2880   2893     1  0.0000000  3.3472000  1
   2887   2881   2880   2893     1  0.0000000  0.0000000  2
   2887   2881   2880   2893     1  180.0000771  0.3347200  3
   2887   2881   2880   2894     1  0.0000000  3.3472000  1
   2887   2881   2880   2894     1  0.0000000  0.0000000  2
   2887   2881   2880   2894     1  180.0000771  0.3347200  3
   2887   2881   6207   6208     1  0.0000000  8.3680000  1
   2887   2881   6207   6208     1  180.0000771  10.4600000  2
   2888   2883   2882   2895     1  0.0000000  3.3472000  1
   2888   2883   2882   2895     1  0.0000000  0.0000000  2
   2888   2883   2882   2895     1  180.0000771  0.3347200  3
   2888   2883   2882   2896     1  0.0000000  3.3472000  1
   2888   2883   2882   2896     1  0.0000000  0.0000000  2
   2888   2883   2882   2896     1  180.0000771  0.3347200  3
   2888   2883   6237   6238     1  0.0000000  8.3680000  1
   2888   2883   6237   6238     1  180.0000771  10.4600000  2
   2889   2878   2877   2902     1  0.0000000  0.6508444  3
   2889   2878   2880   2893     1  0.0000000  0.6508444  3
   2889   2878   2880   2894     1  0.0000000  0.6508444  3
   2890   2878   2877   2902     1  0.0000000  0.6508444  3
   2890   2878   2880   2893     1  0.0000000  0.6508444  3
   2890   2878   2880   2894     1  0.0000000  0.6508444  3
   2891   2879   2877   2902     1  0.0000000  0.6508444  3
   2891   2879   2882   2895     1  0.0000000  0.6508444  3
   2891   2879   2882   2896     1  0.0000000  0.6508444  3
   2892   2879   2877   2902     1  0.0000000  0.6508444  3
   2892   2879   2882   2895     1  0.0000000  0.6508444  3
   2892   2879   2882   2896     1  0.0000000  0.6508444  3
   2893   2880   2881   6207     1  180.0000771  0.0000000  2
   2894   2880   2881   6207     1  180.0000771  0.0000000  2
   2895   2882   2883   6237     1  180.0000771  0.0000000  2
   2896   2882   2883   6237     1  180.0000771  0.0000000  2
   2897   2884   2877   2902     1  0.0000000  0.6508444  3
   2897   2884   2885   2899     1  0.0000000  0.6508444  3
   2897   2884   2885   2900     1  0.0000000  0.6508444  3
   2898   2884   2877   2902     1  0.0000000  0.6508444  3
   2898   2884   2885   2899     1  0.0000000  0.6508444  3
   2898   2884   2885   2900     1  0.0000000  0.6508444  3
   2899   2885   2886   2901     1  0.0000000  0.0000000  2
   2900   2885   2886   2901     1  0.0000000  0.0000000  2
   2903   2904   2906   2919     1  0.0000000  0.6508444  3
   2903   2904   2906   2920     1  0.0000000  0.6508444  3
   2903   2905   2908   2921     1  0.0000000  0.6508444  3
   2903   2905   2908   2922     1  0.0000000  0.6508444  3
   2903   2910   2911   2925     1  0.0000000  0.6508444  3
   2903   2910   2911   2926     1  0.0000000  0.6508444  3
   2904   2903   2905   2917     1  0.0000000  0.6508444  3
   2904   2903   2905   2918     1  0.0000000  0.6508444  3
   2904   2903   2910   2923     1  0.0000000  0.6508444  3
   2904   2903   2910   2924     1  0.0000000  0.6508444  3
   2905   2903   2904   2915     1  0.0000000  0.6508444  3
   2905   2903   2904   2916     1  0.0000000  0.6508444  3
   2905   2903   2910   2923     1  0.0000000  0.6508444  3
   2905   2903   2910   2924     1  0.0000000  0.6508444  3
   2906   2904   2903   2928     1  0.0000000  0.6508444  3
   2906   2907   6267   6268     1  180.0000771  10.4600000  2
   2907   2906   2904   2915     1  0.0000000  0.6508444  3
   2907   2906   2904   2916     1  0.0000000  0.6508444  3
   2907   6267   6269   6270     1  0.0000000  0.0000000  2
   2907   6267   6269   6272     1  0.0000000  0.0000000  2
   2908   2905   2903   2928     1  0.0000000  0.6508444  3
   2908   2909   6297   6298     1  180.0000771  10.4600000  2
   2909   2908   2905   2917     1  0.0000000  0.6508444  3
   2909   2908   2905   2918     1  0.0000000  0.6508444  3
   2909   6297   6299   6300     1  0.0000000  0.0000000  2
   2909   6297   6299   6302     1  0.0000000  0.0000000  2
   2910   2903   2904   2915     1  0.0000000  0.6508444  3
   2910   2903   2904   2916     1  0.0000000  0.6508444  3
   2910   2903   2905   2917     1  0.0000000  0.6508444  3
   2910   2903   2905   2918     1  0.0000000  0.6508444  3
   2910   2911   2912   2927     1  0.0000000  0.0000000  2
   2911   2910   2903   2928     1  0.0000000  0.6508444  3
   2912   2911   2910   2923     1  0.0000000  0.6508444  3
   2912   2911   2910   2924     1  0.0000000  0.6508444  3
   2913   2907   2906   2919     1  0.0000000  3.3472000  1
   2913   2907   2906   2919     1  0.0000000  0.0000000  2
   2913   2907   2906   2919     1  180.0000771  0.3347200  3
   2913   2907   2906   2920     1  0.0000000  3.3472000  1
   2913   2907   2906   2920     1  0.0000000  0.0000000  2
   2913   2907   2906   2920     1  180.0000771  0.3347200  3
   2913   2907   6267   6268     1  0.0000000  8.3680000  1
   2913   2907   6267   6268     1  180.0000771  10.4600000  2
   2914   2909   2908   2921     1  0.0000000  3.3472000  1
   2914   2909   2908   2921     1  0.0000000  0.0000000  2
   2914   2909   2908   2921     1  180.0000771  0.3347200  3
   2914   2909   2908   2922     1  0.0000000  3.3472000  1
   2914   2909   2908   2922     1  0.0000000  0.0000000  2
   2914   2909   2908   2922     1  180.0000771  0.3347200  3
   2914   2909   6297   6298     1  0.0000000  8.3680000  1
   2914   2909   6297   6298     1  180.0000771  10.4600000  2
   2915   2904   2903   2928     1  0.0000000  0.6508444  3
   2915   2904   2906   2919     1  0.0000000  0.6508444  3
   2915   2904   2906   2920     1  0.0000000  0.6508444  3
   2916   2904   2903   2928     1  0.0000000  0.6508444  3
   2916   2904   2906   2919     1  0.0000000  0.6508444  3
   2916   2904   2906   2920     1  0.0000000  0.6508444  3
   2917   2905   2903   2928     1  0.0000000  0.6508444  3
   2917   2905   2908   2921     1  0.0000000  0.6508444  3
   2917   2905   2908   2922     1  0.0000000  0.6508444  3
   2918   2905   2903   2928     1  0.0000000  0.6508444  3
   2918   2905   2908   2921     1  0.0000000  0.6508444  3
   2918   2905   2908   2922     1  0.0000000  0.6508444  3
   2919   2906   2907   6267     1  180.0000771  0.0000000  2
   2920   2906   2907   6267     1  180.0000771  0.0000000  2
   2921   2908   2909   6297     1  180.0000771  0.0000000  2
   2922   2908   2909   6297     1  180.0000771  0.0000000  2
   2923   2910   2903   2928     1  0.0000000  0.6508444  3
   2923   2910   2911   2925     1  0.0000000  0.6508444  3
   2923   2910   2911   2926     1  0.0000000  0.6508444  3
   2924   2910   2903   2928     1  0.0000000  0.6508444  3
   2924   2910   2911   2925     1  0.0000000  0.6508444  3
   2924   2910   2911   2926     1  0.0000000  0.6508444  3
   2925   2911   2912   2927     1  0.0000000  0.0000000  2
   2926   2911   2912   2927     1  0.0000000  0.0000000  2
   2929   2930   2932   2945     1  0.0000000  0.6508444  3
   2929   2930   2932   2946     1  0.0000000  0.6508444  3
   2929   2931   2934   2947     1  0.0000000  0.6508444  3
   2929   2931   2934   2948     1  0.0000000  0.6508444  3
   2929   2936   2937   2951     1  0.0000000  0.6508444  3
   2929   2936   2937   2952     1  0.0000000  0.6508444  3
   2930   2929   2931   2943     1  0.0000000  0.6508444  3
   2930   2929   2931   2944     1  0.0000000  0.6508444  3
   2930   2929   2936   2949     1  0.0000000  0.6508444  3
   2930   2929   2936   2950     1  0.0000000  0.6508444  3
   2931   2929   2930   2941     1  0.0000000  0.6508444  3
   2931   2929   2930   2942     1  0.0000000  0.6508444  3
   2931   2929   2936   2949     1  0.0000000  0.6508444  3
   2931   2929   2936   2950     1  0.0000000  0.6508444  3
   2932   2930   2929   2954     1  0.0000000  0.6508444  3
   2932   2933   6327   6328     1  180.0000771  10.4600000  2
   2933   2932   2930   2941     1  0.0000000  0.6508444  3
   2933   2932   2930   2942     1  0.0000000  0.6508444  3
   2933   6327   6329   6330     1  0.0000000  0.0000000  2
   2933   6327   6329   6332     1  0.0000000  0.0000000  2
   2934   2931   2929   2954     1  0.0000000  0.6508444  3
   2934   2935   6357   6358     1  180.0000771  10.4600000  2
   2935   2934   2931   2943     1  0.0000000  0.6508444  3
   2935   2934   2931   2944     1  0.0000000  0.6508444  3
   2935   6357   6359   6360     1  0.0000000  0.0000000  2
   2935   6357   6359   6362     1  0.0000000  0.0000000  2
   2936   2929   2930   2941     1  0.0000000  0.6508444  3
   2936   2929   2930   2942     1  0.0000000  0.6508444  3
   2936   2929   2931   2943     1  0.0000000  0.6508444  3
   2936   2929   2931   2944     1  0.0000000  0.6508444  3
   2936   2937   2938   2953     1  0.0000000  0.0000000  2
   2937   2936   2929   2954     1  0.0000000  0.6508444  3
   2938   2937   2936   2949     1  0.0000000  0.6508444  3
   2938   2937   2936   2950     1  0.0000000  0.6508444  3
   2939   2933   2932   2945     1  0.0000000  3.3472000  1
   2939   2933   2932   2945     1  0.0000000  0.0000000  2
   2939   2933   2932   2945     1  180.0000771  0.3347200  3
   2939   2933   2932   2946     1  0.0000000  3.3472000  1
   2939   2933   2932   2946     1  0.0000000  0.0000000  2
   2939   2933   2932   2946     1  180.0000771  0.3347200  3
   2939   2933   6327   6328     1  0.0000000  8.3680000  1
   2939   2933   6327   6328     1  180.0000771  10.4600000  2
   2940   2935   2934   2947     1  0.0000000  3.3472000  1
   2940   2935   2934   2947     1  0.0000000  0.0000000  2
   2940   2935   2934   2947     1  180.0000771  0.3347200  3
   2940   2935   2934   2948     1  0.0000000  3.3472000  1
   2940   2935   2934   2948     1  0.0000000  0.0000000  2
   2940   2935   2934   2948     1  180.0000771  0.3347200  3
   2940   2935   6357   6358     1  0.0000000  8.3680000  1
   2940   2935   6357   6358     1  180.0000771  10.4600000  2
   2941   2930   2929   2954     1  0.0000000  0.6508444  3
   2941   2930   2932   2945     1  0.0000000  0.6508444  3
   2941   2930   2932   2946     1  0.0000000  0.6508444  3
   2942   2930   2929   2954     1  0.0000000  0.6508444  3
   2942   2930   2932   2945     1  0.0000000  0.6508444  3
   2942   2930   2932   2946     1  0.0000000  0.6508444  3
   2943   2931   2929   2954     1  0.0000000  0.6508444  3
   2943   2931   2934   2947     1  0.0000000  0.6508444  3
   2943   2931   2934   2948     1  0.0000000  0.6508444  3
   2944   2931   2929   2954     1  0.0000000  0.6508444  3
   2944   2931   2934   2947     1  0.0000000  0.6508444  3
   2944   2931   2934   2948     1  0.0000000  0.6508444  3
   2945   2932   2933   6327     1  180.0000771  0.0000000  2
   2946   2932   2933   6327     1  180.0000771  0.0000000  2
   2947   2934   2935   6357     1  180.0000771  0.0000000  2
   2948   2934   2935   6357     1  180.0000771  0.0000000  2
   2949   2936   2929   2954     1  0.0000000  0.6508444  3
   2949   2936   2937   2951     1  0.0000000  0.6508444  3
   2949   2936   2937   2952     1  0.0000000  0.6508444  3
   2950   2936   2929   2954     1  0.0000000  0.6508444  3
   2950   2936   2937   2951     1  0.0000000  0.6508444  3
   2950   2936   2937   2952     1  0.0000000  0.6508444  3
   2951   2937   2938   2953     1  0.0000000  0.0000000  2
   2952   2937   2938   2953     1  0.0000000  0.0000000  2
   2955   2956   2958   2971     1  0.0000000  0.6508444  3
   2955   2956   2958   2972     1  0.0000000  0.6508444  3
   2955   2957   2960   2973     1  0.0000000  0.6508444  3
   2955   2957   2960   2974     1  0.0000000  0.6508444  3
   2955   2962   2963   2977     1  0.0000000  0.6508444  3
   2955   2962   2963   2978     1  0.0000000  0.6508444  3
   2956   2955   2957   2969     1  0.0000000  0.6508444  3
   2956   2955   2957   2970     1  0.0000000  0.6508444  3
   2956   2955   2962   2975     1  0.0000000  0.6508444  3
   2956   2955   2962   2976     1  0.0000000  0.6508444  3
   2957   2955   2956   2967     1  0.0000000  0.6508444  3
   2957   2955   2956   2968     1  0.0000000  0.6508444  3
   2957   2955   2962   2975     1  0.0000000  0.6508444  3
   2957   2955   2962   2976     1  0.0000000  0.6508444  3
   2958   2956   2955   2980     1  0.0000000  0.6508444  3
   2958   2959   6387   6388     1  180.0000771  10.4600000  2
   2959   2958   2956   2967     1  0.0000000  0.6508444  3
   2959   2958   2956   2968     1  0.0000000  0.6508444  3
   2959   6387   6389   6390     1  0.0000000  0.0000000  2
   2959   6387   6389   6392     1  0.0000000  0.0000000  2
   2960   2957   2955   2980     1  0.0000000  0.6508444  3
   2960   2961   6417   6418     1  180.0000771  10.4600000  2
   2961   2960   2957   2969     1  0.0000000  0.6508444  3
   2961   2960   2957   2970     1  0.0000000  0.6508444  3
   2961   6417   6419   6420     1  0.0000000  0.0000000  2
   2961   6417   6419   6422     1  0.0000000  0.0000000  2
   2962   2955   2956   2967     1  0.0000000  0.6508444  3
   2962   2955   2956   2968     1  0.0000000  0.6508444  3
   2962   2955   2957   2969     1  0.0000000  0.6508444  3
   2962   2955   2957   2970     1  0.0000000  0.6508444  3
   2962   2963   2964   2979     1  0.0000000  0.0000000  2
   2963   2962   2955   2980     1  0.0000000  0.6508444  3
   2964   2963   2962   2975     1  0.0000000  0.6508444  3
   2964   2963   2962   2976     1  0.0000000  0.6508444  3
   2965   2959   2958   2971     1  0.0000000  3.3472000  1
   2965   2959   2958   2971     1  0.0000000  0.0000000  2
   2965   2959   2958   2971     1  180.0000771  0.3347200  3
   2965   2959   2958   2972     1  0.0000000  3.3472000  1
   2965   2959   2958   2972     1  0.0000000  0.0000000  2
   2965   2959   2958   2972     1  180.0000771  0.3347200  3
   2965   2959   6387   6388     1  0.0000000  8.3680000  1
   2965   2959   6387   6388     1  180.0000771  10.4600000  2
   2966   2961   2960   2973     1  0.0000000  3.3472000  1
   2966   2961   2960   2973     1  0.0000000  0.0000000  2
   2966   2961   2960   2973     1  180.0000771  0.3347200  3
   2966   2961   2960   2974     1  0.0000000  3.3472000  1
   2966   2961   2960   2974     1  0.0000000  0.0000000  2
   2966   2961   2960   2974     1  180.0000771  0.3347200  3
   2966   2961   6417   6418     1  0.0000000  8.3680000  1
   2966   2961   6417   6418     1  180.0000771  10.4600000  2
   2967   2956   2955   2980     1  0.0000000  0.6508444  3
   2967   2956   2958   2971     1  0.0000000  0.6508444  3
   2967   2956   2958   2972     1  0.0000000  0.6508444  3
   2968   2956   2955   2980     1  0.0000000  0.6508444  3
   2968   2956   2958   2971     1  0.0000000  0.6508444  3
   2968   2956   2958   2972     1  0.0000000  0.6508444  3
   2969   2957   2955   2980     1  0.0000000  0.6508444  3
   2969   2957   2960   2973     1  0.0000000  0.6508444  3
   2969   2957   2960   2974     1  0.0000000  0.6508444  3
   2970   2957   2955   2980     1  0.0000000  0.6508444  3
   2970   2957   2960   2973     1  0.0000000  0.6508444  3
   2970   2957   2960   2974     1  0.0000000  0.6508444  3
   2971   2958   2959   6387     1  180.0000771  0.0000000  2
   2972   2958   2959   6387     1  180.0000771  0.0000000  2
   2973   2960   2961   6417     1  180.0000771  0.0000000  2
   2974   2960   2961   6417     1  180.0000771  0.0000000  2
   2975   2962   2955   2980     1  0.0000000  0.6508444  3
   2975   2962   2963   2977     1  0.0000000  0.6508444  3
   2975   2962   2963   2978     1  0.0000000  0.6508444  3
   2976   2962   2955   2980     1  0.0000000  0.6508444  3
   2976   2962   2963   2977     1  0.0000000  0.6508444  3
   2976   2962   2963   2978     1  0.0000000  0.6508444  3
   2977   2963   2964   2979     1  0.0000000  0.0000000  2
   2978   2963   2964   2979     1  0.0000000  0.0000000  2
   2981   2982   2984   2997     1  0.0000000  0.6508444  3
   2981   2982   2984   2998     1  0.0000000  0.6508444  3
   2981   2983   2986   2999     1  0.0000000  0.6508444  3
   2981   2983   2986   3000     1  0.0000000  0.6508444  3
   2981   2988   2989   3003     1  0.0000000  0.6508444  3
   2981   2988   2989   3004     1  0.0000000  0.6508444  3
   2982   2981   2983   2995     1  0.0000000  0.6508444  3
   2982   2981   2983   2996     1  0.0000000  0.6508444  3
   2982   2981   2988   3001     1  0.0000000  0.6508444  3
   2982   2981   2988   3002     1  0.0000000  0.6508444  3
   2983   2981   2982   2993     1  0.0000000  0.6508444  3
   2983   2981   2982   2994     1  0.0000000  0.6508444  3
   2983   2981   2988   3001     1  0.0000000  0.6508444  3
   2983   2981   2988   3002     1  0.0000000  0.6508444  3
   2984   2982   2981   3006     1  0.0000000  0.6508444  3
   2984   2985   6447   6448     1  180.0000771  10.4600000  2
   2985   2984   2982   2993     1  0.0000000  0.6508444  3
   2985   2984   2982   2994     1  0.0000000  0.6508444  3
   2985   6447   6449   6450     1  0.0000000  0.0000000  2
   2985   6447   6449   6452     1  0.0000000  0.0000000  2
   2986   2983   2981   3006     1  0.0000000  0.6508444  3
   2986   2987   6477   6478     1  180.0000771  10.4600000  2
   2987   2986   2983   2995     1  0.0000000  0.6508444  3
   2987   2986   2983   2996     1  0.0000000  0.6508444  3
   2987   6477   6479   6480     1  0.0000000  0.0000000  2
   2987   6477   6479   6482     1  0.0000000  0.0000000  2
   2988   2981   2982   2993     1  0.0000000  0.6508444  3
   2988   2981   2982   2994     1  0.0000000  0.6508444  3
   2988   2981   2983   2995     1  0.0000000  0.6508444  3
   2988   2981   2983   2996     1  0.0000000  0.6508444  3
   2988   2989   2990   3005     1  0.0000000  0.0000000  2
   2989   2988   2981   3006     1  0.0000000  0.6508444  3
   2990   2989   2988   3001     1  0.0000000  0.6508444  3
   2990   2989   2988   3002     1  0.0000000  0.6508444  3
   2991   2985   2984   2997     1  0.0000000  3.3472000  1
   2991   2985   2984   2997     1  0.0000000  0.0000000  2
   2991   2985   2984   2997     1  180.0000771  0.3347200  3
   2991   2985   2984   2998     1  0.0000000  3.3472000  1
   2991   2985   2984   2998     1  0.0000000  0.0000000  2
   2991   2985   2984   2998     1  180.0000771  0.3347200  3
   2991   2985   6447   6448     1  0.0000000  8.3680000  1
   2991   2985   6447   6448     1  180.0000771  10.4600000  2
   2992   2987   2986   2999     1  0.0000000  3.3472000  1
   2992   2987   2986   2999     1  0.0000000  0.0000000  2
   2992   2987   2986   2999     1  180.0000771  0.3347200  3
   2992   2987   2986   3000     1  0.0000000  3.3472000  1
   2992   2987   2986   3000     1  0.0000000  0.0000000  2
   2992   2987   2986   3000     1  180.0000771  0.3347200  3
   2992   2987   6477   6478     1  0.0000000  8.3680000  1
   2992   2987   6477   6478     1  180.0000771  10.4600000  2
   2993   2982   2981   3006     1  0.0000000  0.6508444  3
   2993   2982   2984   2997     1  0.0000000  0.6508444  3
   2993   2982   2984   2998     1  0.0000000  0.6508444  3
   2994   2982   2981   3006     1  0.0000000  0.6508444  3
   2994   2982   2984   2997     1  0.0000000  0.6508444  3
   2994   2982   2984   2998     1  0.0000000  0.6508444  3
   2995   2983   2981   3006     1  0.0000000  0.6508444  3
   2995   2983   2986   2999     1  0.0000000  0.6508444  3
   2995   2983   2986   3000     1  0.0000000  0.6508444  3
   2996   2983   2981   3006     1  0.0000000  0.6508444  3
   2996   2983   2986   2999     1  0.0000000  0.6508444  3
   2996   2983   2986   3000     1  0.0000000  0.6508444  3
   2997   2984   2985   6447     1  180.0000771  0.0000000  2
   2998   2984   2985   6447     1  180.0000771  0.0000000  2
   2999   2986   2987   6477     1  180.0000771  0.0000000  2
   3000   2986   2987   6477     1  180.0000771  0.0000000  2
   3001   2988   2981   3006     1  0.0000000  0.6508444  3
   3001   2988   2989   3003     1  0.0000000  0.6508444  3
   3001   2988   2989   3004     1  0.0000000  0.6508444  3
   3002   2988   2981   3006     1  0.0000000  0.6508444  3
   3002   2988   2989   3003     1  0.0000000  0.6508444  3
   3002   2988   2989   3004     1  0.0000000  0.6508444  3
   3003   2989   2990   3005     1  0.0000000  0.0000000  2
   3004   2989   2990   3005     1  0.0000000  0.0000000  2
   3007   3008   3010   3023     1  0.0000000  0.6508444  3
   3007   3008   3010   3024     1  0.0000000  0.6508444  3
   3007   3009   3012   3025     1  0.0000000  0.6508444  3
   3007   3009   3012   3026     1  0.0000000  0.6508444  3
   3007   3014   3015   3029     1  0.0000000  0.6508444  3
   3007   3014   3015   3030     1  0.0000000  0.6508444  3
   3008   3007   3009   3021     1  0.0000000  0.6508444  3
   3008   3007   3009   3022     1  0.0000000  0.6508444  3
   3008   3007   3014   3027     1  0.0000000  0.6508444  3
   3008   3007   3014   3028     1  0.0000000  0.6508444  3
   3009   3007   3008   3019     1  0.0000000  0.6508444  3
   3009   3007   3008   3020     1  0.0000000  0.6508444  3
   3009   3007   3014   3027     1  0.0000000  0.6508444  3
   3009   3007   3014   3028     1  0.0000000  0.6508444  3
   3010   3008   3007   3032     1  0.0000000  0.6508444  3
   3010   3011   6507   6508     1  180.0000771  10.4600000  2
   3011   3010   3008   3019     1  0.0000000  0.6508444  3
   3011   3010   3008   3020     1  0.0000000  0.6508444  3
   3011   6507   6509   6510     1  0.0000000  0.0000000  2
   3011   6507   6509   6512     1  0.0000000  0.0000000  2
   3012   3009   3007   3032     1  0.0000000  0.6508444  3
   3012   3013   6537   6538     1  180.0000771  10.4600000  2
   3013   3012   3009   3021     1  0.0000000  0.6508444  3
   3013   3012   3009   3022     1  0.0000000  0.6508444  3
   3013   6537   6539   6540     1  0.0000000  0.0000000  2
   3013   6537   6539   6542     1  0.0000000  0.0000000  2
   3014   3007   3008   3019     1  0.0000000  0.6508444  3
   3014   3007   3008   3020     1  0.0000000  0.6508444  3
   3014   3007   3009   3021     1  0.0000000  0.6508444  3
   3014   3007   3009   3022     1  0.0000000  0.6508444  3
   3014   3015   3016   3031     1  0.0000000  0.0000000  2
   3015   3014   3007   3032     1  0.0000000  0.6508444  3
   3016   3015   3014   3027     1  0.0000000  0.6508444  3
   3016   3015   3014   3028     1  0.0000000  0.6508444  3
   3017   3011   3010   3023     1  0.0000000  3.3472000  1
   3017   3011   3010   3023     1  0.0000000  0.0000000  2
   3017   3011   3010   3023     1  180.0000771  0.3347200  3
   3017   3011   3010   3024     1  0.0000000  3.3472000  1
   3017   3011   3010   3024     1  0.0000000  0.0000000  2
   3017   3011   3010   3024     1  180.0000771  0.3347200  3
   3017   3011   6507   6508     1  0.0000000  8.3680000  1
   3017   3011   6507   6508     1  180.0000771  10.4600000  2
   3018   3013   3012   3025     1  0.0000000  3.3472000  1
   3018   3013   3012   3025     1  0.0000000  0.0000000  2
   3018   3013   3012   3025     1  180.0000771  0.3347200  3
   3018   3013   3012   3026     1  0.0000000  3.3472000  1
   3018   3013   3012   3026     1  0.0000000  0.0000000  2
   3018   3013   3012   3026     1  180.0000771  0.3347200  3
   3018   3013   6537   6538     1  0.0000000  8.3680000  1
   3018   3013   6537   6538     1  180.0000771  10.4600000  2
   3019   3008   3007   3032     1  0.0000000  0.6508444  3
   3019   3008   3010   3023     1  0.0000000  0.6508444  3
   3019   3008   3010   3024     1  0.0000000  0.6508444  3
   3020   3008   3007   3032     1  0.0000000  0.6508444  3
   3020   3008   3010   3023     1  0.0000000  0.6508444  3
   3020   3008   3010   3024     1  0.0000000  0.6508444  3
   3021   3009   3007   3032     1  0.0000000  0.6508444  3
   3021   3009   3012   3025     1  0.0000000  0.6508444  3
   3021   3009   3012   3026     1  0.0000000  0.6508444  3
   3022   3009   3007   3032     1  0.0000000  0.6508444  3
   3022   3009   3012   3025     1  0.0000000  0.6508444  3
   3022   3009   3012   3026     1  0.0000000  0.6508444  3
   3023   3010   3011   6507     1  180.0000771  0.0000000  2
   3024   3010   3011   6507     1  180.0000771  0.0000000  2
   3025   3012   3013   6537     1  180.0000771  0.0000000  2
   3026   3012   3013   6537     1  180.0000771  0.0000000  2
   3027   3014   3007   3032     1  0.0000000  0.6508444  3
   3027   3014   3015   3029     1  0.0000000  0.6508444  3
   3027   3014   3015   3030     1  0.0000000  0.6508444  3
   3028   3014   3007   3032     1  0.0000000  0.6508444  3
   3028   3014   3015   3029     1  0.0000000  0.6508444  3
   3028   3014   3015   3030     1  0.0000000  0.6508444  3
   3029   3015   3016   3031     1  0.0000000  0.0000000  2
   3030   3015   3016   3031     1  0.0000000  0.0000000  2
   3033   3034   3036   3049     1  0.0000000  0.6508444  3
   3033   3034   3036   3050     1  0.0000000  0.6508444  3
   3033   3035   3038   3051     1  0.0000000  0.6508444  3
   3033   3035   3038   3052     1  0.0000000  0.6508444  3
   3033   3040   3041   3055     1  0.0000000  0.6508444  3
   3033   3040   3041   3056     1  0.0000000  0.6508444  3
   3034   3033   3035   3047     1  0.0000000  0.6508444  3
   3034   3033   3035   3048     1  0.0000000  0.6508444  3
   3034   3033   3040   3053     1  0.0000000  0.6508444  3
   3034   3033   3040   3054     1  0.0000000  0.6508444  3
   3035   3033   3034   3045     1  0.0000000  0.6508444  3
   3035   3033   3034   3046     1  0.0000000  0.6508444  3
   3035   3033   3040   3053     1  0.0000000  0.6508444  3
   3035   3033   3040   3054     1  0.0000000  0.6508444  3
   3036   3034   3033   3058     1  0.0000000  0.6508444  3
   3036   3037   6567   6568     1  180.0000771  10.4600000  2
   3037   3036   3034   3045     1  0.0000000  0.6508444  3
   3037   3036   3034   3046     1  0.0000000  0.6508444  3
   3037   6567   6569   6570     1  0.0000000  0.0000000  2
   3037   6567   6569   6572     1  0.0000000  0.0000000  2
   3038   3035   3033   3058     1  0.0000000  0.6508444  3
   3038   3039   6597   6598     1  180.0000771  10.4600000  2
   3039   3038   3035   3047     1  0.0000000  0.6508444  3
   3039   3038   3035   3048     1  0.0000000  0.6508444  3
   3039   6597   6599   6600     1  0.0000000  0.0000000  2
   3039   6597   6599   6602     1  0.0000000  0.0000000  2
   3040   3033   3034   3045     1  0.0000000  0.6508444  3
   3040   3033   3034   3046     1  0.0000000  0.6508444  3
   3040   3033   3035   3047     1  0.0000000  0.6508444  3
   3040   3033   3035   3048     1  0.0000000  0.6508444  3
   3040   3041   3042   3057     1  0.0000000  0.0000000  2
   3041   3040   3033   3058     1  0.0000000  0.6508444  3
   3042   3041   3040   3053     1  0.0000000  0.6508444  3
   3042   3041   3040   3054     1  0.0000000  0.6508444  3
   3043   3037   3036   3049     1  0.0000000  3.3472000  1
   3043   3037   3036   3049     1  0.0000000  0.0000000  2
   3043   3037   3036   3049     1  180.0000771  0.3347200  3
   3043   3037   3036   3050     1  0.0000000  3.3472000  1
   3043   3037   3036   3050     1  0.0000000  0.0000000  2
   3043   3037   3036   3050     1  180.0000771  0.3347200  3
   3043   3037   6567   6568     1  0.0000000  8.3680000  1
   3043   3037   6567   6568     1  180.0000771  10.4600000  2
   3044   3039   3038   3051     1  0.0000000  3.3472000  1
   3044   3039   3038   3051     1  0.0000000  0.0000000  2
   3044   3039   3038   3051     1  180.0000771  0.3347200  3
   3044   3039   3038   3052     1  0.0000000  3.3472000  1
   3044   3039   3038   3052     1  0.0000000  0.0000000  2
   3044   3039   3038   3052     1  180.0000771  0.3347200  3
   3044   3039   6597   6598     1  0.0000000  8.3680000  1
   3044   3039   6597   6598     1  180.0000771  10.4600000  2
   3045   3034   3033   3058     1  0.0000000  0.6508444  3
   3045   3034   3036   3049     1  0.0000000  0.6508444  3
   3045   3034   3036   3050     1  0.0000000  0.6508444  3
   3046   3034   3033   3058     1  0.0000000  0.6508444  3
   3046   3034   3036   3049     1  0.0000000  0.6508444  3
   3046   3034   3036   3050     1  0.0000000  0.6508444  3
   3047   3035   3033   3058     1  0.0000000  0.6508444  3
   3047   3035   3038   3051     1  0.0000000  0.6508444  3
   3047   3035   3038   3052     1  0.0000000  0.6508444  3
   3048   3035   3033   3058     1  0.0000000  0.6508444  3
   3048   3035   3038   3051     1  0.0000000  0.6508444  3
   3048   3035   3038   3052     1  0.0000000  0.6508444  3
   3049   3036   3037   6567     1  180.0000771  0.0000000  2
   3050   3036   3037   6567     1  180.0000771  0.0000000  2
   3051   3038   3039   6597     1  180.0000771  0.0000000  2
   3052   3038   3039   6597     1  180.0000771  0.0000000  2
   3053   3040   3033   3058     1  0.0000000  0.6508444  3
   3053   3040   3041   3055     1  0.0000000  0.6508444  3
   3053   3040   3041   3056     1  0.0000000  0.6508444  3
   3054   3040   3033   3058     1  0.0000000  0.6508444  3
   3054   3040   3041   3055     1  0.0000000  0.6508444  3
   3054   3040   3041   3056     1  0.0000000  0.6508444  3
   3055   3041   3042   3057     1  0.0000000  0.0000000  2
   3056   3041   3042   3057     1  0.0000000  0.0000000  2
   3059   3060   3062   3075     1  0.0000000  0.6508444  3
   3059   3060   3062   3076     1  0.0000000  0.6508444  3
   3059   3061   3064   3077     1  0.0000000  0.6508444  3
   3059   3061   3064   3078     1  0.0000000  0.6508444  3
   3059   3066   3067   3081     1  0.0000000  0.6508444  3
   3059   3066   3067   3082     1  0.0000000  0.6508444  3
   3060   3059   3061   3073     1  0.0000000  0.6508444  3
   3060   3059   3061   3074     1  0.0000000  0.6508444  3
   3060   3059   3066   3079     1  0.0000000  0.6508444  3
   3060   3059   3066   3080     1  0.0000000  0.6508444  3
   3061   3059   3060   3071     1  0.0000000  0.6508444  3
   3061   3059   3060   3072     1  0.0000000  0.6508444  3
   3061   3059   3066   3079     1  0.0000000  0.6508444  3
   3061   3059   3066   3080     1  0.0000000  0.6508444  3
   3062   3060   3059   3084     1  0.0000000  0.6508444  3
   3062   3063   6627   6628     1  180.0000771  10.4600000  2
   3063   3062   3060   3071     1  0.0000000  0.6508444  3
   3063   3062   3060   3072     1  0.0000000  0.6508444  3
   3063   6627   6629   6630     1  0.0000000  0.0000000  2
   3063   6627   6629   6632     1  0.0000000  0.0000000  2
   3064   3061   3059   3084     1  0.0000000  0.6508444  3
   3064   3065   6657   6658     1  180.0000771  10.4600000  2
   3065   3064   3061   3073     1  0.0000000  0.6508444  3
   3065   3064   3061   3074     1  0.0000000  0.6508444  3
   3065   6657   6659   6660     1  0.0000000  0.0000000  2
   3065   6657   6659   6662     1  0.0000000  0.0000000  2
   3066   3059   3060   3071     1  0.0000000  0.6508444  3
   3066   3059   3060   3072     1  0.0000000  0.6508444  3
   3066   3059   3061   3073     1  0.0000000  0.6508444  3
   3066   3059   3061   3074     1  0.0000000  0.6508444  3
   3066   3067   3068   3083     1  0.0000000  0.0000000  2
   3067   3066   3059   3084     1  0.0000000  0.6508444  3
   3068   3067   3066   3079     1  0.0000000  0.6508444  3
   3068   3067   3066   3080     1  0.0000000  0.6508444  3
   3069   3063   3062   3075     1  0.0000000  3.3472000  1
   3069   3063   3062   3075     1  0.0000000  0.0000000  2
   3069   3063   3062   3075     1  180.0000771  0.3347200  3
   3069   3063   3062   3076     1  0.0000000  3.3472000  1
   3069   3063   3062   3076     1  0.0000000  0.0000000  2
   3069   3063   3062   3076     1  180.0000771  0.3347200  3
   3069   3063   6627   6628     1  0.0000000  8.3680000  1
   3069   3063   6627   6628     1  180.0000771  10.4600000  2
   3070   3065   3064   3077     1  0.0000000  3.3472000  1
   3070   3065   3064   3077     1  0.0000000  0.0000000  2
   3070   3065   3064   3077     1  180.0000771  0.3347200  3
   3070   3065   3064   3078     1  0.0000000  3.3472000  1
   3070   3065   3064   3078     1  0.0000000  0.0000000  2
   3070   3065   3064   3078     1  180.0000771  0.3347200  3
   3070   3065   6657   6658     1  0.0000000  8.3680000  1
   3070   3065   6657   6658     1  180.0000771  10.4600000  2
   3071   3060   3059   3084     1  0.0000000  0.6508444  3
   3071   3060   3062   3075     1  0.0000000  0.6508444  3
   3071   3060   3062   3076     1  0.0000000  0.6508444  3
   3072   3060   3059   3084     1  0.0000000  0.6508444  3
   3072   3060   3062   3075     1  0.0000000  0.6508444  3
   3072   3060   3062   3076     1  0.0000000  0.6508444  3
   3073   3061   3059   3084     1  0.0000000  0.6508444  3
   3073   3061   3064   3077     1  0.0000000  0.6508444  3
   3073   3061   3064   3078     1  0.0000000  0.6508444  3
   3074   3061   3059   3084     1  0.0000000  0.6508444  3
   3074   3061   3064   3077     1  0.0000000  0.6508444  3
   3074   3061   3064   3078     1  0.0000000  0.6508444  3
   3075   3062   3063   6627     1  180.0000771  0.0000000  2
   3076   3062   3063   6627     1  180.0000771  0.0000000  2
   3077   3064   3065   6657     1  180.0000771  0.0000000  2
   3078   3064   3065   6657     1  180.0000771  0.0000000  2
   3079   3066   3059   3084     1  0.0000000  0.6508444  3
   3079   3066   3067   3081     1  0.0000000  0.6508444  3
   3079   3066   3067   3082     1  0.0000000  0.6508444  3
   3080   3066   3059   3084     1  0.0000000  0.6508444  3
   3080   3066   3067   3081     1  0.0000000  0.6508444  3
   3080   3066   3067   3082     1  0.0000000  0.6508444  3
   3081   3067   3068   3083     1  0.0000000  0.0000000  2
   3082   3067   3068   3083     1  0.0000000  0.0000000  2
   3085   3086   3088   3101     1  0.0000000  0.6508444  3
   3085   3086   3088   3102     1  0.0000000  0.6508444  3
   3085   3087   3090   3103     1  0.0000000  0.6508444  3
   3085   3087   3090   3104     1  0.0000000  0.6508444  3
   3085   3092   3093   3107     1  0.0000000  0.6508444  3
   3085   3092   3093   3108     1  0.0000000  0.6508444  3
   3086   3085   3087   3099     1  0.0000000  0.6508444  3
   3086   3085   3087   3100     1  0.0000000  0.6508444  3
   3086   3085   3092   3105     1  0.0000000  0.6508444  3
   3086   3085   3092   3106     1  0.0000000  0.6508444  3
   3087   3085   3086   3097     1  0.0000000  0.6508444  3
   3087   3085   3086   3098     1  0.0000000  0.6508444  3
   3087   3085   3092   3105     1  0.0000000  0.6508444  3
   3087   3085   3092   3106     1  0.0000000  0.6508444  3
   3088   3086   3085   3110     1  0.0000000  0.6508444  3
   3088   3089   6687   6688     1  180.0000771  10.4600000  2
   3089   3088   3086   3097     1  0.0000000  0.6508444  3
   3089   3088   3086   3098     1  0.0000000  0.6508444  3
   3089   6687   6689   6690     1  0.0000000  0.0000000  2
   3089   6687   6689   6692     1  0.0000000  0.0000000  2
   3090   3087   3085   3110     1  0.0000000  0.6508444  3
   3090   3091   6717   6718     1  180.0000771  10.4600000  2
   3091   3090   3087   3099     1  0.0000000  0.6508444  3
   3091   3090   3087   3100     1  0.0000000  0.6508444  3
   3091   6717   6719   6720     1  0.0000000  0.0000000  2
   3091   6717   6719   6722     1  0.0000000  0.0000000  2
   3092   3085   3086   3097     1  0.0000000  0.6508444  3
   3092   3085   3086   3098     1  0.0000000  0.6508444  3
   3092   3085   3087   3099     1  0.0000000  0.6508444  3
   3092   3085   3087   3100     1  0.0000000  0.6508444  3
   3092   3093   3094   3109     1  0.0000000  0.0000000  2
   3093   3092   3085   3110     1  0.0000000  0.6508444  3
   3094   3093   3092   3105     1  0.0000000  0.6508444  3
   3094   3093   3092   3106     1  0.0000000  0.6508444  3
   3095   3089   3088   3101     1  0.0000000  3.3472000  1
   3095   3089   3088   3101     1  0.0000000  0.0000000  2
   3095   3089   3088   3101     1  180.0000771  0.3347200  3
   3095   3089   3088   3102     1  0.0000000  3.3472000  1
   3095   3089   3088   3102     1  0.0000000  0.0000000  2
   3095   3089   3088   3102     1  180.0000771  0.3347200  3
   3095   3089   6687   6688     1  0.0000000  8.3680000  1
   3095   3089   6687   6688     1  180.0000771  10.4600000  2
   3096   3091   3090   3103     1  0.0000000  3.3472000  1
   3096   3091   3090   3103     1  0.0000000  0.0000000  2
   3096   3091   3090   3103     1  180.0000771  0.3347200  3
   3096   3091   3090   3104     1  0.0000000  3.3472000  1
   3096   3091   3090   3104     1  0.0000000  0.0000000  2
   3096   3091   3090   3104     1  180.0000771  0.3347200  3
   3096   3091   6717   6718     1  0.0000000  8.3680000  1
   3096   3091   6717   6718     1  180.0000771  10.4600000  2
   3097   3086   3085   3110     1  0.0000000  0.6508444  3
   3097   3086   3088   3101     1  0.0000000  0.6508444  3
   3097   3086   3088   3102     1  0.0000000  0.6508444  3
   3098   3086   3085   3110     1  0.0000000  0.6508444  3
   3098   3086   3088   3101     1  0.0000000  0.6508444  3
   3098   3086   3088   3102     1  0.0000000  0.6508444  3
   3099   3087   3085   3110     1  0.0000000  0.6508444  3
   3099   3087   3090   3103     1  0.0000000  0.6508444  3
   3099   3087   3090   3104     1  0.0000000  0.6508444  3
   3100   3087   3085   3110     1  0.0000000  0.6508444  3
   3100   3087   3090   3103     1  0.0000000  0.6508444  3
   3100   3087   3090   3104     1  0.0000000  0.6508444  3
   3101   3088   3089   6687     1  180.0000771  0.0000000  2
   3102   3088   3089   6687     1  180.0000771  0.0000000  2
   3103   3090   3091   6717     1  180.0000771  0.0000000  2
   3104   3090   3091   6717     1  180.0000771  0.0000000  2
   3105   3092   3085   3110     1  0.0000000  0.6508444  3
   3105   3092   3093   3107     1  0.0000000  0.6508444  3
   3105   3092   3093   3108     1  0.0000000  0.6508444  3
   3106   3092   3085   3110     1  0.0000000  0.6508444  3
   3106   3092   3093   3107     1  0.0000000  0.6508444  3
   3106   3092   3093   3108     1  0.0000000  0.6508444  3
   3107   3093   3094   3109     1  0.0000000  0.0000000  2
   3108   3093   3094   3109     1  0.0000000  0.0000000  2
   3111   3112   3114   3127     1  0.0000000  0.6508444  3
   3111   3112   3114   3128     1  0.0000000  0.6508444  3
   3111   3113   3116   3129     1  0.0000000  0.6508444  3
   3111   3113   3116   3130     1  0.0000000  0.6508444  3
   3111   3118   3119   3133     1  0.0000000  0.6508444  3
   3111   3118   3119   3134     1  0.0000000  0.6508444  3
   3112   3111   3113   3125     1  0.0000000  0.6508444  3
   3112   3111   3113   3126     1  0.0000000  0.6508444  3
   3112   3111   3118   3131     1  0.0000000  0.6508444  3
   3112   3111   3118   3132     1  0.0000000  0.6508444  3
   3113   3111   3112   3123     1  0.0000000  0.6508444  3
   3113   3111   3112   3124     1  0.0000000  0.6508444  3
   3113   3111   3118   3131     1  0.0000000  0.6508444  3
   3113   3111   3118   3132     1  0.0000000  0.6508444  3
   3114   3112   3111   3136     1  0.0000000  0.6508444  3
   3114   3115   6747   6748     1  180.0000771  10.4600000  2
   3115   3114   3112   3123     1  0.0000000  0.6508444  3
   3115   3114   3112   3124     1  0.0000000  0.6508444  3
   3115   6747   6749   6750     1  0.0000000  0.0000000  2
   3115   6747   6749   6752     1  0.0000000  0.0000000  2
   3116   3113   3111   3136     1  0.0000000  0.6508444  3
   3116   3117   6777   6778     1  180.0000771  10.4600000  2
   3117   3116   3113   3125     1  0.0000000  0.6508444  3
   3117   3116   3113   3126     1  0.0000000  0.6508444  3
   3117   6777   6779   6780     1  0.0000000  0.0000000  2
   3117   6777   6779   6782     1  0.0000000  0.0000000  2
   3118   3111   3112   3123     1  0.0000000  0.6508444  3
   3118   3111   3112   3124     1  0.0000000  0.6508444  3
   3118   3111   3113   3125     1  0.0000000  0.6508444  3
   3118   3111   3113   3126     1  0.0000000  0.6508444  3
   3118   3119   3120   3135     1  0.0000000  0.0000000  2
   3119   3118   3111   3136     1  0.0000000  0.6508444  3
   3120   3119   3118   3131     1  0.0000000  0.6508444  3
   3120   3119   3118   3132     1  0.0000000  0.6508444  3
   3121   3115   3114   3127     1  0.0000000  3.3472000  1
   3121   3115   3114   3127     1  0.0000000  0.0000000  2
   3121   3115   3114   3127     1  180.0000771  0.3347200  3
   3121   3115   3114   3128     1  0.0000000  3.3472000  1
   3121   3115   3114   3128     1  0.0000000  0.0000000  2
   3121   3115   3114   3128     1  180.0000771  0.3347200  3
   3121   3115   6747   6748     1  0.0000000  8.3680000  1
   3121   3115   6747   6748     1  180.0000771  10.4600000  2
   3122   3117   3116   3129     1  0.0000000  3.3472000  1
   3122   3117   3116   3129     1  0.0000000  0.0000000  2
   3122   3117   3116   3129     1  180.0000771  0.3347200  3
   3122   3117   3116   3130     1  0.0000000  3.3472000  1
   3122   3117   3116   3130     1  0.0000000  0.0000000  2
   3122   3117   3116   3130     1  180.0000771  0.3347200  3
   3122   3117   6777   6778     1  0.0000000  8.3680000  1
   3122   3117   6777   6778     1  180.0000771  10.4600000  2
   3123   3112   3111   3136     1  0.0000000  0.6508444  3
   3123   3112   3114   3127     1  0.0000000  0.6508444  3
   3123   3112   3114   3128     1  0.0000000  0.6508444  3
   3124   3112   3111   3136     1  0.0000000  0.6508444  3
   3124   3112   3114   3127     1  0.0000000  0.6508444  3
   3124   3112   3114   3128     1  0.0000000  0.6508444  3
   3125   3113   3111   3136     1  0.0000000  0.6508444  3
   3125   3113   3116   3129     1  0.0000000  0.6508444  3
   3125   3113   3116   3130     1  0.0000000  0.6508444  3
   3126   3113   3111   3136     1  0.0000000  0.6508444  3
   3126   3113   3116   3129     1  0.0000000  0.6508444  3
   3126   3113   3116   3130     1  0.0000000  0.6508444  3
   3127   3114   3115   6747     1  180.0000771  0.0000000  2
   3128   3114   3115   6747     1  180.0000771  0.0000000  2
   3129   3116   3117   6777     1  180.0000771  0.0000000  2
   3130   3116   3117   6777     1  180.0000771  0.0000000  2
   3131   3118   3111   3136     1  0.0000000  0.6508444  3
   3131   3118   3119   3133     1  0.0000000  0.6508444  3
   3131   3118   3119   3134     1  0.0000000  0.6508444  3
   3132   3118   3111   3136     1  0.0000000  0.6508444  3
   3132   3118   3119   3133     1  0.0000000  0.6508444  3
   3132   3118   3119   3134     1  0.0000000  0.6508444  3
   3133   3119   3120   3135     1  0.0000000  0.0000000  2
   3134   3119   3120   3135     1  0.0000000  0.0000000  2
   3137   3138   3140   3153     1  0.0000000  0.6508444  3
   3137   3138   3140   3154     1  0.0000000  0.6508444  3
   3137   3139   3142   3155     1  0.0000000  0.6508444  3
   3137   3139   3142   3156     1  0.0000000  0.6508444  3
   3137   3144   3145   3159     1  0.0000000  0.6508444  3
   3137   3144   3145   3160     1  0.0000000  0.6508444  3
   3138   3137   3139   3151     1  0.0000000  0.6508444  3
   3138   3137   3139   3152     1  0.0000000  0.6508444  3
   3138   3137   3144   3157     1  0.0000000  0.6508444  3
   3138   3137   3144   3158     1  0.0000000  0.6508444  3
   3139   3137   3138   3149     1  0.0000000  0.6508444  3
   3139   3137   3138   3150     1  0.0000000  0.6508444  3
   3139   3137   3144   3157     1  0.0000000  0.6508444  3
   3139   3137   3144   3158     1  0.0000000  0.6508444  3
   3140   3138   3137   3162     1  0.0000000  0.6508444  3
   3140   3141   6807   6808     1  180.0000771  10.4600000  2
   3141   3140   3138   3149     1  0.0000000  0.6508444  3
   3141   3140   3138   3150     1  0.0000000  0.6508444  3
   3141   6807   6809   6810     1  0.0000000  0.0000000  2
   3141   6807   6809   6812     1  0.0000000  0.0000000  2
   3142   3139   3137   3162     1  0.0000000  0.6508444  3
   3142   3143   6837   6838     1  180.0000771  10.4600000  2
   3143   3142   3139   3151     1  0.0000000  0.6508444  3
   3143   3142   3139   3152     1  0.0000000  0.6508444  3
   3143   6837   6839   6840     1  0.0000000  0.0000000  2
   3143   6837   6839   6842     1  0.0000000  0.0000000  2
   3144   3137   3138   3149     1  0.0000000  0.6508444  3
   3144   3137   3138   3150     1  0.0000000  0.6508444  3
   3144   3137   3139   3151     1  0.0000000  0.6508444  3
   3144   3137   3139   3152     1  0.0000000  0.6508444  3
   3144   3145   3146   3161     1  0.0000000  0.0000000  2
   3145   3144   3137   3162     1  0.0000000  0.6508444  3
   3146   3145   3144   3157     1  0.0000000  0.6508444  3
   3146   3145   3144   3158     1  0.0000000  0.6508444  3
   3147   3141   3140   3153     1  0.0000000  3.3472000  1
   3147   3141   3140   3153     1  0.0000000  0.0000000  2
   3147   3141   3140   3153     1  180.0000771  0.3347200  3
   3147   3141   3140   3154     1  0.0000000  3.3472000  1
   3147   3141   3140   3154     1  0.0000000  0.0000000  2
   3147   3141   3140   3154     1  180.0000771  0.3347200  3
   3147   3141   6807   6808     1  0.0000000  8.3680000  1
   3147   3141   6807   6808     1  180.0000771  10.4600000  2
   3148   3143   3142   3155     1  0.0000000  3.3472000  1
   3148   3143   3142   3155     1  0.0000000  0.0000000  2
   3148   3143   3142   3155     1  180.0000771  0.3347200  3
   3148   3143   3142   3156     1  0.0000000  3.3472000  1
   3148   3143   3142   3156     1  0.0000000  0.0000000  2
   3148   3143   3142   3156     1  180.0000771  0.3347200  3
   3148   3143   6837   6838     1  0.0000000  8.3680000  1
   3148   3143   6837   6838     1  180.0000771  10.4600000  2
   3149   3138   3137   3162     1  0.0000000  0.6508444  3
   3149   3138   3140   3153     1  0.0000000  0.6508444  3
   3149   3138   3140   3154     1  0.0000000  0.6508444  3
   3150   3138   3137   3162     1  0.0000000  0.6508444  3
   3150   3138   3140   3153     1  0.0000000  0.6508444  3
   3150   3138   3140   3154     1  0.0000000  0.6508444  3
   3151   3139   3137   3162     1  0.0000000  0.6508444  3
   3151   3139   3142   3155     1  0.0000000  0.6508444  3
   3151   3139   3142   3156     1  0.0000000  0.6508444  3
   3152   3139   3137   3162     1  0.0000000  0.6508444  3
   3152   3139   3142   3155     1  0.0000000  0.6508444  3
   3152   3139   3142   3156     1  0.0000000  0.6508444  3
   3153   3140   3141   6807     1  180.0000771  0.0000000  2
   3154   3140   3141   6807     1  180.0000771  0.0000000  2
   3155   3142   3143   6837     1  180.0000771  0.0000000  2
   3156   3142   3143   6837     1  180.0000771  0.0000000  2
   3157   3144   3137   3162     1  0.0000000  0.6508444  3
   3157   3144   3145   3159     1  0.0000000  0.6508444  3
   3157   3144   3145   3160     1  0.0000000  0.6508444  3
   3158   3144   3137   3162     1  0.0000000  0.6508444  3
   3158   3144   3145   3159     1  0.0000000  0.6508444  3
   3158   3144   3145   3160     1  0.0000000  0.6508444  3
   3159   3145   3146   3161     1  0.0000000  0.0000000  2
   3160   3145   3146   3161     1  0.0000000  0.0000000  2
   3163   3164   3166   3179     1  0.0000000  0.6508444  3
   3163   3164   3166   3180     1  0.0000000  0.6508444  3
   3163   3165   3168   3181     1  0.0000000  0.6508444  3
   3163   3165   3168   3182     1  0.0000000  0.6508444  3
   3163   3170   3171   3185     1  0.0000000  0.6508444  3
   3163   3170   3171   3186     1  0.0000000  0.6508444  3
   3164   3163   3165   3177     1  0.0000000  0.6508444  3
   3164   3163   3165   3178     1  0.0000000  0.6508444  3
   3164   3163   3170   3183     1  0.0000000  0.6508444  3
   3164   3163   3170   3184     1  0.0000000  0.6508444  3
   3165   3163   3164   3175     1  0.0000000  0.6508444  3
   3165   3163   3164   3176     1  0.0000000  0.6508444  3
   3165   3163   3170   3183     1  0.0000000  0.6508444  3
   3165   3163   3170   3184     1  0.0000000  0.6508444  3
   3166   3164   3163   3188     1  0.0000000  0.6508444  3
   3166   3167   6867   6868     1  180.0000771  10.4600000  2
   3167   3166   3164   3175     1  0.0000000  0.6508444  3
   3167   3166   3164   3176     1  0.0000000  0.6508444  3
   3167   6867   6869   6870     1  0.0000000  0.0000000  2
   3167   6867   6869   6872     1  0.0000000  0.0000000  2
   3168   3165   3163   3188     1  0.0000000  0.6508444  3
   3168   3169   6897   6898     1  180.0000771  10.4600000  2
   3169   3168   3165   3177     1  0.0000000  0.6508444  3
   3169   3168   3165   3178     1  0.0000000  0.6508444  3
   3169   6897   6899   6900     1  0.0000000  0.0000000  2
   3169   6897   6899   6902     1  0.0000000  0.0000000  2
   3170   3163   3164   3175     1  0.0000000  0.6508444  3
   3170   3163   3164   3176     1  0.0000000  0.6508444  3
   3170   3163   3165   3177     1  0.0000000  0.6508444  3
   3170   3163   3165   3178     1  0.0000000  0.6508444  3
   3170   3171   3172   3187     1  0.0000000  0.0000000  2
   3171   3170   3163   3188     1  0.0000000  0.6508444  3
   3172   3171   3170   3183     1  0.0000000  0.6508444  3
   3172   3171   3170   3184     1  0.0000000  0.6508444  3
   3173   3167   3166   3179     1  0.0000000  3.3472000  1
   3173   3167   3166   3179     1  0.0000000  0.0000000  2
   3173   3167   3166   3179     1  180.0000771  0.3347200  3
   3173   3167   3166   3180     1  0.0000000  3.3472000  1
   3173   3167   3166   3180     1  0.0000000  0.0000000  2
   3173   3167   3166   3180     1  180.0000771  0.3347200  3
   3173   3167   6867   6868     1  0.0000000  8.3680000  1
   3173   3167   6867   6868     1  180.0000771  10.4600000  2
   3174   3169   3168   3181     1  0.0000000  3.3472000  1
   3174   3169   3168   3181     1  0.0000000  0.0000000  2
   3174   3169   3168   3181     1  180.0000771  0.3347200  3
   3174   3169   3168   3182     1  0.0000000  3.3472000  1
   3174   3169   3168   3182     1  0.0000000  0.0000000  2
   3174   3169   3168   3182     1  180.0000771  0.3347200  3
   3174   3169   6897   6898     1  0.0000000  8.3680000  1
   3174   3169   6897   6898     1  180.0000771  10.4600000  2
   3175   3164   3163   3188     1  0.0000000  0.6508444  3
   3175   3164   3166   3179     1  0.0000000  0.6508444  3
   3175   3164   3166   3180     1  0.0000000  0.6508444  3
   3176   3164   3163   3188     1  0.0000000  0.6508444  3
   3176   3164   3166   3179     1  0.0000000  0.6508444  3
   3176   3164   3166   3180     1  0.0000000  0.6508444  3
   3177   3165   3163   3188     1  0.0000000  0.6508444  3
   3177   3165   3168   3181     1  0.0000000  0.6508444  3
   3177   3165   3168   3182     1  0.0000000  0.6508444  3
   3178   3165   3163   3188     1  0.0000000  0.6508444  3
   3178   3165   3168   3181     1  0.0000000  0.6508444  3
   3178   3165   3168   3182     1  0.0000000  0.6508444  3
   3179   3166   3167   6867     1  180.0000771  0.0000000  2
   3180   3166   3167   6867     1  180.0000771  0.0000000  2
   3181   3168   3169   6897     1  180.0000771  0.0000000  2
   3182   3168   3169   6897     1  180.0000771  0.0000000  2
   3183   3170   3163   3188     1  0.0000000  0.6508444  3
   3183   3170   3171   3185     1  0.0000000  0.6508444  3
   3183   3170   3171   3186     1  0.0000000  0.6508444  3
   3184   3170   3163   3188     1  0.0000000  0.6508444  3
   3184   3170   3171   3185     1  0.0000000  0.6508444  3
   3184   3170   3171   3186     1  0.0000000  0.6508444  3
   3185   3171   3172   3187     1  0.0000000  0.0000000  2
   3186   3171   3172   3187     1  0.0000000  0.0000000  2
   3189   3190   3192   3205     1  0.0000000  0.6508444  3
   3189   3190   3192   3206     1  0.0000000  0.6508444  3
   3189   3191   3194   3207     1  0.0000000  0.6508444  3
   3189   3191   3194   3208     1  0.0000000  0.6508444  3
   3189   3196   3197   3211     1  0.0000000  0.6508444  3
   3189   3196   3197   3212     1  0.0000000  0.6508444  3
   3190   3189   3191   3203     1  0.0000000  0.6508444  3
   3190   3189   3191   3204     1  0.0000000  0.6508444  3
   3190   3189   3196   3209     1  0.0000000  0.6508444  3
   3190   3189   3196   3210     1  0.0000000  0.6508444  3
   3191   3189   3190   3201     1  0.0000000  0.6508444  3
   3191   3189   3190   3202     1  0.0000000  0.6508444  3
   3191   3189   3196   3209     1  0.0000000  0.6508444  3
   3191   3189   3196   3210     1  0.0000000  0.6508444  3
   3192   3190   3189   3214     1  0.0000000  0.6508444  3
   3192   3193   6927   6928     1  180.0000771  10.4600000  2
   3193   3192   3190   3201     1  0.0000000  0.6508444  3
   3193   3192   3190   3202     1  0.0000000  0.6508444  3
   3193   6927   6929   6930     1  0.0000000  0.0000000  2
   3193   6927   6929   6932     1  0.0000000  0.0000000  2
   3194   3191   3189   3214     1  0.0000000  0.6508444  3
   3194   3195   6957   6958     1  180.0000771  10.4600000  2
   3195   3194   3191   3203     1  0.0000000  0.6508444  3
   3195   3194   3191   3204     1  0.0000000  0.6508444  3
   3195   6957   6959   6960     1  0.0000000  0.0000000  2
   3195   6957   6959   6962     1  0.0000000  0.0000000  2
   3196   3189   3190   3201     1  0.0000000  0.6508444  3
   3196   3189   3190   3202     1  0.0000000  0.6508444  3
   3196   3189   3191   3203     1  0.0000000  0.6508444  3
   3196   3189   3191   3204     1  0.0000000  0.6508444  3
   3196   3197   3198   3213     1  0.0000000  0.0000000  2
   3197   3196   3189   3214     1  0.0000000  0.6508444  3
   3198   3197   3196   3209     1  0.0000000  0.6508444  3
   3198   3197   3196   3210     1  0.0000000  0.6508444  3
   3199   3193   3192   3205     1  0.0000000  3.3472000  1
   3199   3193   3192   3205     1  0.0000000  0.0000000  2
   3199   3193   3192   3205     1  180.0000771  0.3347200  3
   3199   3193   3192   3206     1  0.0000000  3.3472000  1
   3199   3193   3192   3206     1  0.0000000  0.0000000  2
   3199   3193   3192   3206     1  180.0000771  0.3347200  3
   3199   3193   6927   6928     1  0.0000000  8.3680000  1
   3199   3193   6927   6928     1  180.0000771  10.4600000  2
   3200   3195   3194   3207     1  0.0000000  3.3472000  1
   3200   3195   3194   3207     1  0.0000000  0.0000000  2
   3200   3195   3194   3207     1  180.0000771  0.3347200  3
   3200   3195   3194   3208     1  0.0000000  3.3472000  1
   3200   3195   3194   3208     1  0.0000000  0.0000000  2
   3200   3195   3194   3208     1  180.0000771  0.3347200  3
   3200   3195   6957   6958     1  0.0000000  8.3680000  1
   3200   3195   6957   6958     1  180.0000771  10.4600000  2
   3201   3190   3189   3214     1  0.0000000  0.6508444  3
   3201   3190   3192   3205     1  0.0000000  0.6508444  3
   3201   3190   3192   3206     1  0.0000000  0.6508444  3
   3202   3190   3189   3214     1  0.0000000  0.6508444  3
   3202   3190   3192   3205     1  0.0000000  0.6508444  3
   3202   3190   3192   3206     1  0.0000000  0.6508444  3
   3203   3191   3189   3214     1  0.0000000  0.6508444  3
   3203   3191   3194   3207     1  0.0000000  0.6508444  3
   3203   3191   3194   3208     1  0.0000000  0.6508444  3
   3204   3191   3189   3214     1  0.0000000  0.6508444  3
   3204   3191   3194   3207     1  0.0000000  0.6508444  3
   3204   3191   3194   3208     1  0.0000000  0.6508444  3
   3205   3192   3193   6927     1  180.0000771  0.0000000  2
   3206   3192   3193   6927     1  180.0000771  0.0000000  2
   3207   3194   3195   6957     1  180.0000771  0.0000000  2
   3208   3194   3195   6957     1  180.0000771  0.0000000  2
   3209   3196   3189   3214     1  0.0000000  0.6508444  3
   3209   3196   3197   3211     1  0.0000000  0.6508444  3
   3209   3196   3197   3212     1  0.0000000  0.6508444  3
   3210   3196   3189   3214     1  0.0000000  0.6508444  3
   3210   3196   3197   3211     1  0.0000000  0.6508444  3
   3210   3196   3197   3212     1  0.0000000  0.6508444  3
   3211   3197   3198   3213     1  0.0000000  0.0000000  2
   3212   3197   3198   3213     1  0.0000000  0.0000000  2
   3215   3216   3218   3231     1  0.0000000  0.6508444  3
   3215   3216   3218   3232     1  0.0000000  0.6508444  3
   3215   3217   3220   3233     1  0.0000000  0.6508444  3
   3215   3217   3220   3234     1  0.0000000  0.6508444  3
   3215   3222   3223   3237     1  0.0000000  0.6508444  3
   3215   3222   3223   3238     1  0.0000000  0.6508444  3
   3216   3215   3217   3229     1  0.0000000  0.6508444  3
   3216   3215   3217   3230     1  0.0000000  0.6508444  3
   3216   3215   3222   3235     1  0.0000000  0.6508444  3
   3216   3215   3222   3236     1  0.0000000  0.6508444  3
   3217   3215   3216   3227     1  0.0000000  0.6508444  3
   3217   3215   3216   3228     1  0.0000000  0.6508444  3
   3217   3215   3222   3235     1  0.0000000  0.6508444  3
   3217   3215   3222   3236     1  0.0000000  0.6508444  3
   3218   3216   3215   3240     1  0.0000000  0.6508444  3
   3218   3219   6987   6988     1  180.0000771  10.4600000  2
   3219   3218   3216   3227     1  0.0000000  0.6508444  3
   3219   3218   3216   3228     1  0.0000000  0.6508444  3
   3219   6987   6989   6990     1  0.0000000  0.0000000  2
   3219   6987   6989   6992     1  0.0000000  0.0000000  2
   3220   3217   3215   3240     1  0.0000000  0.6508444  3
   3220   3221   7017   7018     1  180.0000771  10.4600000  2
   3221   3220   3217   3229     1  0.0000000  0.6508444  3
   3221   3220   3217   3230     1  0.0000000  0.6508444  3
   3221   7017   7019   7020     1  0.0000000  0.0000000  2
   3221   7017   7019   7022     1  0.0000000  0.0000000  2
   3222   3215   3216   3227     1  0.0000000  0.6508444  3
   3222   3215   3216   3228     1  0.0000000  0.6508444  3
   3222   3215   3217   3229     1  0.0000000  0.6508444  3
   3222   3215   3217   3230     1  0.0000000  0.6508444  3
   3222   3223   3224   3239     1  0.0000000  0.0000000  2
   3223   3222   3215   3240     1  0.0000000  0.6508444  3
   3224   3223   3222   3235     1  0.0000000  0.6508444  3
   3224   3223   3222   3236     1  0.0000000  0.6508444  3
   3225   3219   3218   3231     1  0.0000000  3.3472000  1
   3225   3219   3218   3231     1  0.0000000  0.0000000  2
   3225   3219   3218   3231     1  180.0000771  0.3347200  3
   3225   3219   3218   3232     1  0.0000000  3.3472000  1
   3225   3219   3218   3232     1  0.0000000  0.0000000  2
   3225   3219   3218   3232     1  180.0000771  0.3347200  3
   3225   3219   6987   6988     1  0.0000000  8.3680000  1
   3225   3219   6987   6988     1  180.0000771  10.4600000  2
   3226   3221   3220   3233     1  0.0000000  3.3472000  1
   3226   3221   3220   3233     1  0.0000000  0.0000000  2
   3226   3221   3220   3233     1  180.0000771  0.3347200  3
   3226   3221   3220   3234     1  0.0000000  3.3472000  1
   3226   3221   3220   3234     1  0.0000000  0.0000000  2
   3226   3221   3220   3234     1  180.0000771  0.3347200  3
   3226   3221   7017   7018     1  0.0000000  8.3680000  1
   3226   3221   7017   7018     1  180.0000771  10.4600000  2
   3227   3216   3215   3240     1  0.0000000  0.6508444  3
   3227   3216   3218   3231     1  0.0000000  0.6508444  3
   3227   3216   3218   3232     1  0.0000000  0.6508444  3
   3228   3216   3215   3240     1  0.0000000  0.6508444  3
   3228   3216   3218   3231     1  0.0000000  0.6508444  3
   3228   3216   3218   3232     1  0.0000000  0.6508444  3
   3229   3217   3215   3240     1  0.0000000  0.6508444  3
   3229   3217   3220   3233     1  0.0000000  0.6508444  3
   3229   3217   3220   3234     1  0.0000000  0.6508444  3
   3230   3217   3215   3240     1  0.0000000  0.6508444  3
   3230   3217   3220   3233     1  0.0000000  0.6508444  3
   3230   3217   3220   3234     1  0.0000000  0.6508444  3
   3231   3218   3219   6987     1  180.0000771  0.0000000  2
   3232   3218   3219   6987     1  180.0000771  0.0000000  2
   3233   3220   3221   7017     1  180.0000771  0.0000000  2
   3234   3220   3221   7017     1  180.0000771  0.0000000  2
   3235   3222   3215   3240     1  0.0000000  0.6508444  3
   3235   3222   3223   3237     1  0.0000000  0.6508444  3
   3235   3222   3223   3238     1  0.0000000  0.6508444  3
   3236   3222   3215   3240     1  0.0000000  0.6508444  3
   3236   3222   3223   3237     1  0.0000000  0.6508444  3
   3236   3222   3223   3238     1  0.0000000  0.6508444  3
   3237   3223   3224   3239     1  0.0000000  0.0000000  2
   3238   3223   3224   3239     1  0.0000000  0.0000000  2
   3241   3242   3244   3257     1  0.0000000  0.6508444  3
   3241   3242   3244   3258     1  0.0000000  0.6508444  3
   3241   3243   3246   3259     1  0.0000000  0.6508444  3
   3241   3243   3246   3260     1  0.0000000  0.6508444  3
   3241   3248   3249   3263     1  0.0000000  0.6508444  3
   3241   3248   3249   3264     1  0.0000000  0.6508444  3
   3242   3241   3243   3255     1  0.0000000  0.6508444  3
   3242   3241   3243   3256     1  0.0000000  0.6508444  3
   3242   3241   3248   3261     1  0.0000000  0.6508444  3
   3242   3241   3248   3262     1  0.0000000  0.6508444  3
   3243   3241   3242   3253     1  0.0000000  0.6508444  3
   3243   3241   3242   3254     1  0.0000000  0.6508444  3
   3243   3241   3248   3261     1  0.0000000  0.6508444  3
   3243   3241   3248   3262     1  0.0000000  0.6508444  3
   3244   3242   3241   3266     1  0.0000000  0.6508444  3
   3244   3245   7047   7048     1  180.0000771  10.4600000  2
   3245   3244   3242   3253     1  0.0000000  0.6508444  3
   3245   3244   3242   3254     1  0.0000000  0.6508444  3
   3245   7047   7049   7050     1  0.0000000  0.0000000  2
   3245   7047   7049   7052     1  0.0000000  0.0000000  2
   3246   3243   3241   3266     1  0.0000000  0.6508444  3
   3246   3247   7077   7078     1  180.0000771  10.4600000  2
   3247   3246   3243   3255     1  0.0000000  0.6508444  3
   3247   3246   3243   3256     1  0.0000000  0.6508444  3
   3247   7077   7079   7080     1  0.0000000  0.0000000  2
   3247   7077   7079   7082     1  0.0000000  0.0000000  2
   3248   3241   3242   3253     1  0.0000000  0.6508444  3
   3248   3241   3242   3254     1  0.0000000  0.6508444  3
   3248   3241   3243   3255     1  0.0000000  0.6508444  3
   3248   3241   3243   3256     1  0.0000000  0.6508444  3
   3248   3249   3250   3265     1  0.0000000  0.0000000  2
   3249   3248   3241   3266     1  0.0000000  0.6508444  3
   3250   3249   3248   3261     1  0.0000000  0.6508444  3
   3250   3249   3248   3262     1  0.0000000  0.6508444  3
   3251   3245   3244   3257     1  0.0000000  3.3472000  1
   3251   3245   3244   3257     1  0.0000000  0.0000000  2
   3251   3245   3244   3257     1  180.0000771  0.3347200  3
   3251   3245   3244   3258     1  0.0000000  3.3472000  1
   3251   3245   3244   3258     1  0.0000000  0.0000000  2
   3251   3245   3244   3258     1  180.0000771  0.3347200  3
   3251   3245   7047   7048     1  0.0000000  8.3680000  1
   3251   3245   7047   7048     1  180.0000771  10.4600000  2
   3252   3247   3246   3259     1  0.0000000  3.3472000  1
   3252   3247   3246   3259     1  0.0000000  0.0000000  2
   3252   3247   3246   3259     1  180.0000771  0.3347200  3
   3252   3247   3246   3260     1  0.0000000  3.3472000  1
   3252   3247   3246   3260     1  0.0000000  0.0000000  2
   3252   3247   3246   3260     1  180.0000771  0.3347200  3
   3252   3247   7077   7078     1  0.0000000  8.3680000  1
   3252   3247   7077   7078     1  180.0000771  10.4600000  2
   3253   3242   3241   3266     1  0.0000000  0.6508444  3
   3253   3242   3244   3257     1  0.0000000  0.6508444  3
   3253   3242   3244   3258     1  0.0000000  0.6508444  3
   3254   3242   3241   3266     1  0.0000000  0.6508444  3
   3254   3242   3244   3257     1  0.0000000  0.6508444  3
   3254   3242   3244   3258     1  0.0000000  0.6508444  3
   3255   3243   3241   3266     1  0.0000000  0.6508444  3
   3255   3243   3246   3259     1  0.0000000  0.6508444  3
   3255   3243   3246   3260     1  0.0000000  0.6508444  3
   3256   3243   3241   3266     1  0.0000000  0.6508444  3
   3256   3243   3246   3259     1  0.0000000  0.6508444  3
   3256   3243   3246   3260     1  0.0000000  0.6508444  3
   3257   3244   3245   7047     1  180.0000771  0.0000000  2
   3258   3244   3245   7047     1  180.0000771  0.0000000  2
   3259   3246   3247   7077     1  180.0000771  0.0000000  2
   3260   3246   3247   7077     1  180.0000771  0.0000000  2
   3261   3248   3241   3266     1  0.0000000  0.6508444  3
   3261   3248   3249   3263     1  0.0000000  0.6508444  3
   3261   3248   3249   3264     1  0.0000000  0.6508444  3
   3262   3248   3241   3266     1  0.0000000  0.6508444  3
   3262   3248   3249   3263     1  0.0000000  0.6508444  3
   3262   3248   3249   3264     1  0.0000000  0.6508444  3
   3263   3249   3250   3265     1  0.0000000  0.0000000  2
   3264   3249   3250   3265     1  0.0000000  0.0000000  2
   3267   3269   3271   3273     1  0.0000000  0.6508444  3
   3267   3269   3271   3274     1  0.0000000  0.6508444  3
   3268   3267   3269   3271     1  0.0000000  0.0000000  2
   3268   3267   3269   3270     1  0.0000000  0.0000000  2
   3268   3267   3269   3272     1  0.0000000  0.0000000  2
   3269   3271   3275   3296     1  0.0000000  0.6508444  3
   3270   3269   3271   3275     1  0.0000000  0.6508444  3
   3270   3269   3271   3273     1  0.0000000  0.6508444  3
   3270   3269   3271   3274     1  0.0000000  0.6508444  3
   3271   3275   3276   3286     1  0.0000000  0.6508444  3
   3271   3275   3276   3287     1  0.0000000  0.6508444  3
   3271   3275   3277   3278     1  0.0000000  0.6508444  3
   3271   3275   3277   3280     1  0.0000000  0.6508444  3
   3272   3269   3271   3275     1  0.0000000  0.6508444  3
   3272   3269   3271   3273     1  0.0000000  0.6508444  3
   3272   3269   3271   3274     1  0.0000000  0.6508444  3
   3273   3271   3275   3276     1  0.0000000  0.6508444  3
   3273   3271   3275   3277     1  0.0000000  0.6508444  3
   3273   3271   3275   3296     1  0.0000000  0.6508444  3
   3274   3271   3275   3276     1  0.0000000  0.6508444  3
   3274   3271   3275   3277     1  0.0000000  0.6508444  3
   3274   3271   3275   3296     1  0.0000000  0.6508444  3
   3275   3276   3288   3289     1  0.0000000  0.6508444  3
   3275   3276   3288   3290     1  0.0000000  0.6508444  3
   3275   3277   3279   3281     1  0.0000000  0.6508444  3
   3275   3277   3279   3282     1  0.0000000  0.6508444  3
   3276   3275   3277   3278     1  0.0000000  0.6508444  3
   3276   3275   3277   3280     1  0.0000000  0.6508444  3
   3277   3275   3276   3286     1  0.0000000  0.6508444  3
   3277   3275   3276   3287     1  0.0000000  0.6508444  3
   3278   3277   3275   3296     1  0.0000000  0.6508444  3
   3278   3277   3279   3283     1  0.0000000  0.6508444  3
   3278   3277   3279   3281     1  0.0000000  0.6508444  3
   3278   3277   3279   3282     1  0.0000000  0.6508444  3
   3279   3277   3275   3296     1  0.0000000  0.6508444  3
   3279   3283   3284   3294     1  180.0000771  9.6232000  2
   3280   3277   3275   3296     1  0.0000000  0.6508444  3
   3280   3277   3279   3283     1  0.0000000  0.6508444  3
   3280   3277   3279   3281     1  0.0000000  0.6508444  3
   3280   3277   3279   3282     1  0.0000000  0.6508444  3
   3281   3279   3283   3284     1  180.0000771  0.0000000  2
   3281   3279   3283   3285     1  0.0000000  3.3472000  1
   3281   3279   3283   3285     1  0.0000000  0.0000000  2
   3281   3279   3283   3285     1  180.0000771  0.3347200  3
   3282   3279   3283   3284     1  180.0000771  0.0000000  2
   3282   3279   3283   3285     1  0.0000000  3.3472000  1
   3282   3279   3283   3285     1  0.0000000  0.0000000  2
   3282   3279   3283   3285     1  180.0000771  0.3347200  3
   3285   3283   3284   3294     1  0.0000000  7.9496000  1
   3285   3283   3284   3294     1  180.0000771  9.6232000  2
   3286   3276   3275   3296     1  0.0000000  0.6508444  3
   3286   3276   3288   3291     1  0.0000000  0.6508444  3
   3286   3276   3288   3289     1  0.0000000  0.6508444  3
   3286   3276   3288   3290     1  0.0000000  0.6508444  3
   3287   3276   3275   3296     1  0.0000000  0.6508444  3
   3287   3276   3288   3291     1  0.0000000  0.6508444  3
   3287   3276   3288   3289     1  0.0000000  0.6508444  3
   3287   3276   3288   3290     1  0.0000000  0.6508444  3
   3288   3276   3275   3296     1  0.0000000  0.6508444  3
   3288   3291   3293   3295     1  180.0000771  9.6232000  2
   3289   3288   3291   3292     1  0.0000000  3.3472000  1
   3289   3288   3291   3292     1  0.0000000  0.0000000  2
   3289   3288   3291   3292     1  180.0000771  0.3347200  3
   3289   3288   3291   3293     1  180.0000771  0.0000000  2
   3290   3288   3291   3292     1  0.0000000  3.3472000  1
   3290   3288   3291   3292     1  0.0000000  0.0000000  2
   3290   3288   3291   3292     1  180.0000771  0.3347200  3
   3290   3288   3291   3293     1  180.0000771  0.0000000  2
   3292   3291   3293   3295     1  0.0000000  7.9496000  1
   3292   3291   3293   3295     1  180.0000771  9.6232000  2
   3297   3299   3301   3303     1  0.0000000  0.6508444  3
   3297   3299   3301   3304     1  0.0000000  0.6508444  3
   3298   3297   3299   3301     1  0.0000000  0.0000000  2
   3298   3297   3299   3300     1  0.0000000  0.0000000  2
   3298   3297   3299   3302     1  0.0000000  0.0000000  2
   3299   3301   3305   3326     1  0.0000000  0.6508444  3
   3300   3299   3301   3305     1  0.0000000  0.6508444  3
   3300   3299   3301   3303     1  0.0000000  0.6508444  3
   3300   3299   3301   3304     1  0.0000000  0.6508444  3
   3301   3305   3306   3316     1  0.0000000  0.6508444  3
   3301   3305   3306   3317     1  0.0000000  0.6508444  3
   3301   3305   3307   3308     1  0.0000000  0.6508444  3
   3301   3305   3307   3310     1  0.0000000  0.6508444  3
   3302   3299   3301   3305     1  0.0000000  0.6508444  3
   3302   3299   3301   3303     1  0.0000000  0.6508444  3
   3302   3299   3301   3304     1  0.0000000  0.6508444  3
   3303   3301   3305   3306     1  0.0000000  0.6508444  3
   3303   3301   3305   3307     1  0.0000000  0.6508444  3
   3303   3301   3305   3326     1  0.0000000  0.6508444  3
   3304   3301   3305   3306     1  0.0000000  0.6508444  3
   3304   3301   3305   3307     1  0.0000000  0.6508444  3
   3304   3301   3305   3326     1  0.0000000  0.6508444  3
   3305   3306   3318   3319     1  0.0000000  0.6508444  3
   3305   3306   3318   3320     1  0.0000000  0.6508444  3
   3305   3307   3309   3311     1  0.0000000  0.6508444  3
   3305   3307   3309   3312     1  0.0000000  0.6508444  3
   3306   3305   3307   3308     1  0.0000000  0.6508444  3
   3306   3305   3307   3310     1  0.0000000  0.6508444  3
   3307   3305   3306   3316     1  0.0000000  0.6508444  3
   3307   3305   3306   3317     1  0.0000000  0.6508444  3
   3308   3307   3309   3313     1  0.0000000  0.6508444  3
   3308   3307   3309   3311     1  0.0000000  0.6508444  3
   3308   3307   3309   3312     1  0.0000000  0.6508444  3
   3308   3307   3305   3326     1  0.0000000  0.6508444  3
   3309   3313   3314   3324     1  180.0000771  9.6232000  2
   3309   3307   3305   3326     1  0.0000000  0.6508444  3
   3310   3307   3309   3313     1  0.0000000  0.6508444  3
   3310   3307   3309   3311     1  0.0000000  0.6508444  3
   3310   3307   3309   3312     1  0.0000000  0.6508444  3
   3310   3307   3305   3326     1  0.0000000  0.6508444  3
   3311   3309   3313   3314     1  180.0000771  0.0000000  2
   3311   3309   3313   3315     1  0.0000000  3.3472000  1
   3311   3309   3313   3315     1  0.0000000  0.0000000  2
   3311   3309   3313   3315     1  180.0000771  0.3347200  3
   3312   3309   3313   3314     1  180.0000771  0.0000000  2
   3312   3309   3313   3315     1  0.0000000  3.3472000  1
   3312   3309   3313   3315     1  0.0000000  0.0000000  2
   3312   3309   3313   3315     1  180.0000771  0.3347200  3
   3315   3313   3314   3324     1  0.0000000  7.9496000  1
   3315   3313   3314   3324     1  180.0000771  9.6232000  2
   3316   3306   3318   3321     1  0.0000000  0.6508444  3
   3316   3306   3318   3319     1  0.0000000  0.6508444  3
   3316   3306   3318   3320     1  0.0000000  0.6508444  3
   3316   3306   3305   3326     1  0.0000000  0.6508444  3
   3317   3306   3318   3321     1  0.0000000  0.6508444  3
   3317   3306   3318   3319     1  0.0000000  0.6508444  3
   3317   3306   3318   3320     1  0.0000000  0.6508444  3
   3317   3306   3305   3326     1  0.0000000  0.6508444  3
   3318   3321   3323   3325     1  180.0000771  9.6232000  2
   3318   3306   3305   3326     1  0.0000000  0.6508444  3
   3319   3318   3321   3322     1  0.0000000  3.3472000  1
   3319   3318   3321   3322     1  0.0000000  0.0000000  2
   3319   3318   3321   3322     1  180.0000771  0.3347200  3
   3319   3318   3321   3323     1  180.0000771  0.0000000  2
   3320   3318   3321   3322     1  0.0000000  3.3472000  1
   3320   3318   3321   3322     1  0.0000000  0.0000000  2
   3320   3318   3321   3322     1  180.0000771  0.3347200  3
   3320   3318   3321   3323     1  180.0000771  0.0000000  2
   3322   3321   3323   3325     1  0.0000000  7.9496000  1
   3322   3321   3323   3325     1  180.0000771  9.6232000  2
   3327   3329   3331   3333     1  0.0000000  0.6508444  3
   3327   3329   3331   3334     1  0.0000000  0.6508444  3
   3328   3327   3329   3331     1  0.0000000  0.0000000  2
   3328   3327   3329   3330     1  0.0000000  0.0000000  2
   3328   3327   3329   3332     1  0.0000000  0.0000000  2
   3329   3331   3335   3356     1  0.0000000  0.6508444  3
   3330   3329   3331   3335     1  0.0000000  0.6508444  3
   3330   3329   3331   3333     1  0.0000000  0.6508444  3
   3330   3329   3331   3334     1  0.0000000  0.6508444  3
   3331   3335   3336   3346     1  0.0000000  0.6508444  3
   3331   3335   3336   3347     1  0.0000000  0.6508444  3
   3331   3335   3337   3338     1  0.0000000  0.6508444  3
   3331   3335   3337   3340     1  0.0000000  0.6508444  3
   3332   3329   3331   3335     1  0.0000000  0.6508444  3
   3332   3329   3331   3333     1  0.0000000  0.6508444  3
   3332   3329   3331   3334     1  0.0000000  0.6508444  3
   3333   3331   3335   3336     1  0.0000000  0.6508444  3
   3333   3331   3335   3337     1  0.0000000  0.6508444  3
   3333   3331   3335   3356     1  0.0000000  0.6508444  3
   3334   3331   3335   3336     1  0.0000000  0.6508444  3
   3334   3331   3335   3337     1  0.0000000  0.6508444  3
   3334   3331   3335   3356     1  0.0000000  0.6508444  3
   3335   3336   3348   3349     1  0.0000000  0.6508444  3
   3335   3336   3348   3350     1  0.0000000  0.6508444  3
   3335   3337   3339   3341     1  0.0000000  0.6508444  3
   3335   3337   3339   3342     1  0.0000000  0.6508444  3
   3336   3335   3337   3338     1  0.0000000  0.6508444  3
   3336   3335   3337   3340     1  0.0000000  0.6508444  3
   3337   3335   3336   3346     1  0.0000000  0.6508444  3
   3337   3335   3336   3347     1  0.0000000  0.6508444  3
   3338   3337   3335   3356     1  0.0000000  0.6508444  3
   3338   3337   3339   3343     1  0.0000000  0.6508444  3
   3338   3337   3339   3341     1  0.0000000  0.6508444  3
   3338   3337   3339   3342     1  0.0000000  0.6508444  3
   3339   3337   3335   3356     1  0.0000000  0.6508444  3
   3339   3343   3344   3354     1  180.0000771  9.6232000  2
   3340   3337   3335   3356     1  0.0000000  0.6508444  3
   3340   3337   3339   3343     1  0.0000000  0.6508444  3
   3340   3337   3339   3341     1  0.0000000  0.6508444  3
   3340   3337   3339   3342     1  0.0000000  0.6508444  3
   3341   3339   3343   3344     1  180.0000771  0.0000000  2
   3341   3339   3343   3345     1  0.0000000  3.3472000  1
   3341   3339   3343   3345     1  0.0000000  0.0000000  2
   3341   3339   3343   3345     1  180.0000771  0.3347200  3
   3342   3339   3343   3344     1  180.0000771  0.0000000  2
   3342   3339   3343   3345     1  0.0000000  3.3472000  1
   3342   3339   3343   3345     1  0.0000000  0.0000000  2
   3342   3339   3343   3345     1  180.0000771  0.3347200  3
   3345   3343   3344   3354     1  0.0000000  7.9496000  1
   3345   3343   3344   3354     1  180.0000771  9.6232000  2
   3346   3336   3335   3356     1  0.0000000  0.6508444  3
   3346   3336   3348   3351     1  0.0000000  0.6508444  3
   3346   3336   3348   3349     1  0.0000000  0.6508444  3
   3346   3336   3348   3350     1  0.0000000  0.6508444  3
   3347   3336   3335   3356     1  0.0000000  0.6508444  3
   3347   3336   3348   3351     1  0.0000000  0.6508444  3
   3347   3336   3348   3349     1  0.0000000  0.6508444  3
   3347   3336   3348   3350     1  0.0000000  0.6508444  3
   3348   3336   3335   3356     1  0.0000000  0.6508444  3
   3348   3351   3353   3355     1  180.0000771  9.6232000  2
   3349   3348   3351   3352     1  0.0000000  3.3472000  1
   3349   3348   3351   3352     1  0.0000000  0.0000000  2
   3349   3348   3351   3352     1  180.0000771  0.3347200  3
   3349   3348   3351   3353     1  180.0000771  0.0000000  2
   3350   3348   3351   3352     1  0.0000000  3.3472000  1
   3350   3348   3351   3352     1  0.0000000  0.0000000  2
   3350   3348   3351   3352     1  180.0000771  0.3347200  3
   3350   3348   3351   3353     1  180.0000771  0.0000000  2
   3352   3351   3353   3355     1  0.0000000  7.9496000  1
   3352   3351   3353   3355     1  180.0000771  9.6232000  2
   3357   3359   3361   3363     1  0.0000000  0.6508444  3
   3357   3359   3361   3364     1  0.0000000  0.6508444  3
   3358   3357   3359   3361     1  0.0000000  0.0000000  2
   3358   3357   3359   3360     1  0.0000000  0.0000000  2
   3358   3357   3359   3362     1  0.0000000  0.0000000  2
   3359   3361   3365   3386     1  0.0000000  0.6508444  3
   3360   3359   3361   3365     1  0.0000000  0.6508444  3
   3360   3359   3361   3363     1  0.0000000  0.6508444  3
   3360   3359   3361   3364     1  0.0000000  0.6508444  3
   3361   3365   3366   3376     1  0.0000000  0.6508444  3
   3361   3365   3366   3377     1  0.0000000  0.6508444  3
   3361   3365   3367   3368     1  0.0000000  0.6508444  3
   3361   3365   3367   3370     1  0.0000000  0.6508444  3
   3362   3359   3361   3365     1  0.0000000  0.6508444  3
   3362   3359   3361   3363     1  0.0000000  0.6508444  3
   3362   3359   3361   3364     1  0.0000000  0.6508444  3
   3363   3361   3365   3366     1  0.0000000  0.6508444  3
   3363   3361   3365   3367     1  0.0000000  0.6508444  3
   3363   3361   3365   3386     1  0.0000000  0.6508444  3
   3364   3361   3365   3366     1  0.0000000  0.6508444  3
   3364   3361   3365   3367     1  0.0000000  0.6508444  3
   3364   3361   3365   3386     1  0.0000000  0.6508444  3
   3365   3366   3378   3379     1  0.0000000  0.6508444  3
   3365   3366   3378   3380     1  0.0000000  0.6508444  3
   3365   3367   3369   3371     1  0.0000000  0.6508444  3
   3365   3367   3369   3372     1  0.0000000  0.6508444  3
   3366   3365   3367   3368     1  0.0000000  0.6508444  3
   3366   3365   3367   3370     1  0.0000000  0.6508444  3
   3367   3365   3366   3376     1  0.0000000  0.6508444  3
   3367   3365   3366   3377     1  0.0000000  0.6508444  3
   3368   3367   3369   3373     1  0.0000000  0.6508444  3
   3368   3367   3369   3371     1  0.0000000  0.6508444  3
   3368   3367   3369   3372     1  0.0000000  0.6508444  3
   3368   3367   3365   3386     1  0.0000000  0.6508444  3
   3369   3373   3374   3384     1  180.0000771  9.6232000  2
   3369   3367   3365   3386     1  0.0000000  0.6508444  3
   3370   3367   3369   3373     1  0.0000000  0.6508444  3
   3370   3367   3369   3371     1  0.0000000  0.6508444  3
   3370   3367   3369   3372     1  0.0000000  0.6508444  3
   3370   3367   3365   3386     1  0.0000000  0.6508444  3
   3371   3369   3373   3374     1  180.0000771  0.0000000  2
   3371   3369   3373   3375     1  0.0000000  3.3472000  1
   3371   3369   3373   3375     1  0.0000000  0.0000000  2
   3371   3369   3373   3375     1  180.0000771  0.3347200  3
   3372   3369   3373   3374     1  180.0000771  0.0000000  2
   3372   3369   3373   3375     1  0.0000000  3.3472000  1
   3372   3369   3373   3375     1  0.0000000  0.0000000  2
   3372   3369   3373   3375     1  180.0000771  0.3347200  3
   3375   3373   3374   3384     1  0.0000000  7.9496000  1
   3375   3373   3374   3384     1  180.0000771  9.6232000  2
   3376   3366   3378   3381     1  0.0000000  0.6508444  3
   3376   3366   3378   3379     1  0.0000000  0.6508444  3
   3376   3366   3378   3380     1  0.0000000  0.6508444  3
   3376   3366   3365   3386     1  0.0000000  0.6508444  3
   3377   3366   3378   3381     1  0.0000000  0.6508444  3
   3377   3366   3378   3379     1  0.0000000  0.6508444  3
   3377   3366   3378   3380     1  0.0000000  0.6508444  3
   3377   3366   3365   3386     1  0.0000000  0.6508444  3
   3378   3381   3383   3385     1  180.0000771  9.6232000  2
   3378   3366   3365   3386     1  0.0000000  0.6508444  3
   3379   3378   3381   3382     1  0.0000000  3.3472000  1
   3379   3378   3381   3382     1  0.0000000  0.0000000  2
   3379   3378   3381   3382     1  180.0000771  0.3347200  3
   3379   3378   3381   3383     1  180.0000771  0.0000000  2
   3380   3378   3381   3382     1  0.0000000  3.3472000  1
   3380   3378   3381   3382     1  0.0000000  0.0000000  2
   3380   3378   3381   3382     1  180.0000771  0.3347200  3
   3380   3378   3381   3383     1  180.0000771  0.0000000  2
   3382   3381   3383   3385     1  0.0000000  7.9496000  1
   3382   3381   3383   3385     1  180.0000771  9.6232000  2
   3387   3389   3391   3393     1  0.0000000  0.6508444  3
   3387   3389   3391   3394     1  0.0000000  0.6508444  3
   3388   3387   3389   3391     1  0.0000000  0.0000000  2
   3388   3387   3389   3390     1  0.0000000  0.0000000  2
   3388   3387   3389   3392     1  0.0000000  0.0000000  2
   3389   3391   3395   3416     1  0.0000000  0.6508444  3
   3390   3389   3391   3395     1  0.0000000  0.6508444  3
   3390   3389   3391   3393     1  0.0000000  0.6508444  3
   3390   3389   3391   3394     1  0.0000000  0.6508444  3
   3391   3395   3396   3406     1  0.0000000  0.6508444  3
   3391   3395   3396   3407     1  0.0000000  0.6508444  3
   3391   3395   3397   3398     1  0.0000000  0.6508444  3
   3391   3395   3397   3400     1  0.0000000  0.6508444  3
   3392   3389   3391   3395     1  0.0000000  0.6508444  3
   3392   3389   3391   3393     1  0.0000000  0.6508444  3
   3392   3389   3391   3394     1  0.0000000  0.6508444  3
   3393   3391   3395   3396     1  0.0000000  0.6508444  3
   3393   3391   3395   3397     1  0.0000000  0.6508444  3
   3393   3391   3395   3416     1  0.0000000  0.6508444  3
   3394   3391   3395   3396     1  0.0000000  0.6508444  3
   3394   3391   3395   3397     1  0.0000000  0.6508444  3
   3394   3391   3395   3416     1  0.0000000  0.6508444  3
   3395   3396   3408   3409     1  0.0000000  0.6508444  3
   3395   3396   3408   3410     1  0.0000000  0.6508444  3
   3395   3397   3399   3401     1  0.0000000  0.6508444  3
   3395   3397   3399   3402     1  0.0000000  0.6508444  3
   3396   3395   3397   3398     1  0.0000000  0.6508444  3
   3396   3395   3397   3400     1  0.0000000  0.6508444  3
   3397   3395   3396   3406     1  0.0000000  0.6508444  3
   3397   3395   3396   3407     1  0.0000000  0.6508444  3
   3398   3397   3395   3416     1  0.0000000  0.6508444  3
   3398   3397   3399   3403     1  0.0000000  0.6508444  3
   3398   3397   3399   3401     1  0.0000000  0.6508444  3
   3398   3397   3399   3402     1  0.0000000  0.6508444  3
   3399   3397   3395   3416     1  0.0000000  0.6508444  3
   3399   3403   3404   3414     1  180.0000771  9.6232000  2
   3400   3397   3395   3416     1  0.0000000  0.6508444  3
   3400   3397   3399   3403     1  0.0000000  0.6508444  3
   3400   3397   3399   3401     1  0.0000000  0.6508444  3
   3400   3397   3399   3402     1  0.0000000  0.6508444  3
   3401   3399   3403   3404     1  180.0000771  0.0000000  2
   3401   3399   3403   3405     1  0.0000000  3.3472000  1
   3401   3399   3403   3405     1  0.0000000  0.0000000  2
   3401   3399   3403   3405     1  180.0000771  0.3347200  3
   3402   3399   3403   3404     1  180.0000771  0.0000000  2
   3402   3399   3403   3405     1  0.0000000  3.3472000  1
   3402   3399   3403   3405     1  0.0000000  0.0000000  2
   3402   3399   3403   3405     1  180.0000771  0.3347200  3
   3405   3403   3404   3414     1  0.0000000  7.9496000  1
   3405   3403   3404   3414     1  180.0000771  9.6232000  2
   3406   3396   3395   3416     1  0.0000000  0.6508444  3
   3406   3396   3408   3411     1  0.0000000  0.6508444  3
   3406   3396   3408   3409     1  0.0000000  0.6508444  3
   3406   3396   3408   3410     1  0.0000000  0.6508444  3
   3407   3396   3395   3416     1  0.0000000  0.6508444  3
   3407   3396   3408   3411     1  0.0000000  0.6508444  3
   3407   3396   3408   3409     1  0.0000000  0.6508444  3
   3407   3396   3408   3410     1  0.0000000  0.6508444  3
   3408   3396   3395   3416     1  0.0000000  0.6508444  3
   3408   3411   3413   3415     1  180.0000771  9.6232000  2
   3409   3408   3411   3412     1  0.0000000  3.3472000  1
   3409   3408   3411   3412     1  0.0000000  0.0000000  2
   3409   3408   3411   3412     1  180.0000771  0.3347200  3
   3409   3408   3411   3413     1  180.0000771  0.0000000  2
   3410   3408   3411   3412     1  0.0000000  3.3472000  1
   3410   3408   3411   3412     1  0.0000000  0.0000000  2
   3410   3408   3411   3412     1  180.0000771  0.3347200  3
   3410   3408   3411   3413     1  180.0000771  0.0000000  2
   3412   3411   3413   3415     1  0.0000000  7.9496000  1
   3412   3411   3413   3415     1  180.0000771  9.6232000  2
   3417   3419   3421   3423     1  0.0000000  0.6508444  3
   3417   3419   3421   3424     1  0.0000000  0.6508444  3
   3418   3417   3419   3421     1  0.0000000  0.0000000  2
   3418   3417   3419   3420     1  0.0000000  0.0000000  2
   3418   3417   3419   3422     1  0.0000000  0.0000000  2
   3419   3421   3425   3446     1  0.0000000  0.6508444  3
   3420   3419   3421   3425     1  0.0000000  0.6508444  3
   3420   3419   3421   3423     1  0.0000000  0.6508444  3
   3420   3419   3421   3424     1  0.0000000  0.6508444  3
   3421   3425   3426   3436     1  0.0000000  0.6508444  3
   3421   3425   3426   3437     1  0.0000000  0.6508444  3
   3421   3425   3427   3428     1  0.0000000  0.6508444  3
   3421   3425   3427   3430     1  0.0000000  0.6508444  3
   3422   3419   3421   3425     1  0.0000000  0.6508444  3
   3422   3419   3421   3423     1  0.0000000  0.6508444  3
   3422   3419   3421   3424     1  0.0000000  0.6508444  3
   3423   3421   3425   3426     1  0.0000000  0.6508444  3
   3423   3421   3425   3427     1  0.0000000  0.6508444  3
   3423   3421   3425   3446     1  0.0000000  0.6508444  3
   3424   3421   3425   3426     1  0.0000000  0.6508444  3
   3424   3421   3425   3427     1  0.0000000  0.6508444  3
   3424   3421   3425   3446     1  0.0000000  0.6508444  3
   3425   3426   3438   3439     1  0.0000000  0.6508444  3
   3425   3426   3438   3440     1  0.0000000  0.6508444  3
   3425   3427   3429   3431     1  0.0000000  0.6508444  3
   3425   3427   3429   3432     1  0.0000000  0.6508444  3
   3426   3425   3427   3428     1  0.0000000  0.6508444  3
   3426   3425   3427   3430     1  0.0000000  0.6508444  3
   3427   3425   3426   3436     1  0.0000000  0.6508444  3
   3427   3425   3426   3437     1  0.0000000  0.6508444  3
   3428   3427   3429   3433     1  0.0000000  0.6508444  3
   3428   3427   3429   3431     1  0.0000000  0.6508444  3
   3428   3427   3429   3432     1  0.0000000  0.6508444  3
   3428   3427   3425   3446     1  0.0000000  0.6508444  3
   3429   3433   3434   3444     1  180.0000771  9.6232000  2
   3429   3427   3425   3446     1  0.0000000  0.6508444  3
   3430   3427   3429   3433     1  0.0000000  0.6508444  3
   3430   3427   3429   3431     1  0.0000000  0.6508444  3
   3430   3427   3429   3432     1  0.0000000  0.6508444  3
   3430   3427   3425   3446     1  0.0000000  0.6508444  3
   3431   3429   3433   3434     1  180.0000771  0.0000000  2
   3431   3429   3433   3435     1  0.0000000  3.3472000  1
   3431   3429   3433   3435     1  0.0000000  0.0000000  2
   3431   3429   3433   3435     1  180.0000771  0.3347200  3
   3432   3429   3433   3434     1  180.0000771  0.0000000  2
   3432   3429   3433   3435     1  0.0000000  3.3472000  1
   3432   3429   3433   3435     1  0.0000000  0.0000000  2
   3432   3429   3433   3435     1  180.0000771  0.3347200  3
   3435   3433   3434   3444     1  0.0000000  7.9496000  1
   3435   3433   3434   3444     1  180.0000771  9.6232000  2
   3436   3426   3438   3441     1  0.0000000  0.6508444  3
   3436   3426   3438   3439     1  0.0000000  0.6508444  3
   3436   3426   3438   3440     1  0.0000000  0.6508444  3
   3436   3426   3425   3446     1  0.0000000  0.6508444  3
   3437   3426   3438   3441     1  0.0000000  0.6508444  3
   3437   3426   3438   3439     1  0.0000000  0.6508444  3
   3437   3426   3438   3440     1  0.0000000  0.6508444  3
   3437   3426   3425   3446     1  0.0000000  0.6508444  3
   3438   3441   3443   3445     1  180.0000771  9.6232000  2
   3438   3426   3425   3446     1  0.0000000  0.6508444  3
   3439   3438   3441   3442     1  0.0000000  3.3472000  1
   3439   3438   3441   3442     1  0.0000000  0.0000000  2
   3439   3438   3441   3442     1  180.0000771  0.3347200  3
   3439   3438   3441   3443     1  180.0000771  0.0000000  2
   3440   3438   3441   3442     1  0.0000000  3.3472000  1
   3440   3438   3441   3442     1  0.0000000  0.0000000  2
   3440   3438   3441   3442     1  180.0000771  0.3347200  3
   3440   3438   3441   3443     1  180.0000771  0.0000000  2
   3442   3441   3443   3445     1  0.0000000  7.9496000  1
   3442   3441   3443   3445     1  180.0000771  9.6232000  2
   3447   3449   3451   3453     1  0.0000000  0.6508444  3
   3447   3449   3451   3454     1  0.0000000  0.6508444  3
   3448   3447   3449   3451     1  0.0000000  0.0000000  2
   3448   3447   3449   3450     1  0.0000000  0.0000000  2
   3448   3447   3449   3452     1  0.0000000  0.0000000  2
   3449   3451   3455   3476     1  0.0000000  0.6508444  3
   3450   3449   3451   3455     1  0.0000000  0.6508444  3
   3450   3449   3451   3453     1  0.0000000  0.6508444  3
   3450   3449   3451   3454     1  0.0000000  0.6508444  3
   3451   3455   3456   3466     1  0.0000000  0.6508444  3
   3451   3455   3456   3467     1  0.0000000  0.6508444  3
   3451   3455   3457   3458     1  0.0000000  0.6508444  3
   3451   3455   3457   3460     1  0.0000000  0.6508444  3
   3452   3449   3451   3455     1  0.0000000  0.6508444  3
   3452   3449   3451   3453     1  0.0000000  0.6508444  3
   3452   3449   3451   3454     1  0.0000000  0.6508444  3
   3453   3451   3455   3456     1  0.0000000  0.6508444  3
   3453   3451   3455   3457     1  0.0000000  0.6508444  3
   3453   3451   3455   3476     1  0.0000000  0.6508444  3
   3454   3451   3455   3456     1  0.0000000  0.6508444  3
   3454   3451   3455   3457     1  0.0000000  0.6508444  3
   3454   3451   3455   3476     1  0.0000000  0.6508444  3
   3455   3456   3468   3469     1  0.0000000  0.6508444  3
   3455   3456   3468   3470     1  0.0000000  0.6508444  3
   3455   3457   3459   3461     1  0.0000000  0.6508444  3
   3455   3457   3459   3462     1  0.0000000  0.6508444  3
   3456   3455   3457   3458     1  0.0000000  0.6508444  3
   3456   3455   3457   3460     1  0.0000000  0.6508444  3
   3457   3455   3456   3466     1  0.0000000  0.6508444  3
   3457   3455   3456   3467     1  0.0000000  0.6508444  3
   3458   3457   3455   3476     1  0.0000000  0.6508444  3
   3458   3457   3459   3463     1  0.0000000  0.6508444  3
   3458   3457   3459   3461     1  0.0000000  0.6508444  3
   3458   3457   3459   3462     1  0.0000000  0.6508444  3
   3459   3457   3455   3476     1  0.0000000  0.6508444  3
   3459   3463   3464   3474     1  180.0000771  9.6232000  2
   3460   3457   3455   3476     1  0.0000000  0.6508444  3
   3460   3457   3459   3463     1  0.0000000  0.6508444  3
   3460   3457   3459   3461     1  0.0000000  0.6508444  3
   3460   3457   3459   3462     1  0.0000000  0.6508444  3
   3461   3459   3463   3464     1  180.0000771  0.0000000  2
   3461   3459   3463   3465     1  0.0000000  3.3472000  1
   3461   3459   3463   3465     1  0.0000000  0.0000000  2
   3461   3459   3463   3465     1  180.0000771  0.3347200  3
   3462   3459   3463   3464     1  180.0000771  0.0000000  2
   3462   3459   3463   3465     1  0.0000000  3.3472000  1
   3462   3459   3463   3465     1  0.0000000  0.0000000  2
   3462   3459   3463   3465     1  180.0000771  0.3347200  3
   3465   3463   3464   3474     1  0.0000000  7.9496000  1
   3465   3463   3464   3474     1  180.0000771  9.6232000  2
   3466   3456   3455   3476     1  0.0000000  0.6508444  3
   3466   3456   3468   3471     1  0.0000000  0.6508444  3
   3466   3456   3468   3469     1  0.0000000  0.6508444  3
   3466   3456   3468   3470     1  0.0000000  0.6508444  3
   3467   3456   3455   3476     1  0.0000000  0.6508444  3
   3467   3456   3468   3471     1  0.0000000  0.6508444  3
   3467   3456   3468   3469     1  0.0000000  0.6508444  3
   3467   3456   3468   3470     1  0.0000000  0.6508444  3
   3468   3456   3455   3476     1  0.0000000  0.6508444  3
   3468   3471   3473   3475     1  180.0000771  9.6232000  2
   3469   3468   3471   3472     1  0.0000000  3.3472000  1
   3469   3468   3471   3472     1  0.0000000  0.0000000  2
   3469   3468   3471   3472     1  180.0000771  0.3347200  3
   3469   3468   3471   3473     1  180.0000771  0.0000000  2
   3470   3468   3471   3472     1  0.0000000  3.3472000  1
   3470   3468   3471   3472     1  0.0000000  0.0000000  2
   3470   3468   3471   3472     1  180.0000771  0.3347200  3
   3470   3468   3471   3473     1  180.0000771  0.0000000  2
   3472   3471   3473   3475     1  0.0000000  7.9496000  1
   3472   3471   3473   3475     1  180.0000771  9.6232000  2
   3477   3479   3481   3483     1  0.0000000  0.6508444  3
   3477   3479   3481   3484     1  0.0000000  0.6508444  3
   3478   3477   3479   3481     1  0.0000000  0.0000000  2
   3478   3477   3479   3480     1  0.0000000  0.0000000  2
   3478   3477   3479   3482     1  0.0000000  0.0000000  2
   3479   3481   3485   3506     1  0.0000000  0.6508444  3
   3480   3479   3481   3485     1  0.0000000  0.6508444  3
   3480   3479   3481   3483     1  0.0000000  0.6508444  3
   3480   3479   3481   3484     1  0.0000000  0.6508444  3
   3481   3485   3486   3496     1  0.0000000  0.6508444  3
   3481   3485   3486   3497     1  0.0000000  0.6508444  3
   3481   3485   3487   3488     1  0.0000000  0.6508444  3
   3481   3485   3487   3490     1  0.0000000  0.6508444  3
   3482   3479   3481   3485     1  0.0000000  0.6508444  3
   3482   3479   3481   3483     1  0.0000000  0.6508444  3
   3482   3479   3481   3484     1  0.0000000  0.6508444  3
   3483   3481   3485   3486     1  0.0000000  0.6508444  3
   3483   3481   3485   3487     1  0.0000000  0.6508444  3
   3483   3481   3485   3506     1  0.0000000  0.6508444  3
   3484   3481   3485   3486     1  0.0000000  0.6508444  3
   3484   3481   3485   3487     1  0.0000000  0.6508444  3
   3484   3481   3485   3506     1  0.0000000  0.6508444  3
   3485   3486   3498   3499     1  0.0000000  0.6508444  3
   3485   3486   3498   3500     1  0.0000000  0.6508444  3
   3485   3487   3489   3491     1  0.0000000  0.6508444  3
   3485   3487   3489   3492     1  0.0000000  0.6508444  3
   3486   3485   3487   3488     1  0.0000000  0.6508444  3
   3486   3485   3487   3490     1  0.0000000  0.6508444  3
   3487   3485   3486   3496     1  0.0000000  0.6508444  3
   3487   3485   3486   3497     1  0.0000000  0.6508444  3
   3488   3487   3489   3493     1  0.0000000  0.6508444  3
   3488   3487   3489   3491     1  0.0000000  0.6508444  3
   3488   3487   3489   3492     1  0.0000000  0.6508444  3
   3488   3487   3485   3506     1  0.0000000  0.6508444  3
   3489   3493   3494   3504     1  180.0000771  9.6232000  2
   3489   3487   3485   3506     1  0.0000000  0.6508444  3
   3490   3487   3489   3493     1  0.0000000  0.6508444  3
   3490   3487   3489   3491     1  0.0000000  0.6508444  3
   3490   3487   3489   3492     1  0.0000000  0.6508444  3
   3490   3487   3485   3506     1  0.0000000  0.6508444  3
   3491   3489   3493   3494     1  180.0000771  0.0000000  2
   3491   3489   3493   3495     1  0.0000000  3.3472000  1
   3491   3489   3493   3495     1  0.0000000  0.0000000  2
   3491   3489   3493   3495     1  180.0000771  0.3347200  3
   3492   3489   3493   3494     1  180.0000771  0.0000000  2
   3492   3489   3493   3495     1  0.0000000  3.3472000  1
   3492   3489   3493   3495     1  0.0000000  0.0000000  2
   3492   3489   3493   3495     1  180.0000771  0.3347200  3
   3495   3493   3494   3504     1  0.0000000  7.9496000  1
   3495   3493   3494   3504     1  180.0000771  9.6232000  2
   3496   3486   3498   3501     1  0.0000000  0.6508444  3
   3496   3486   3498   3499     1  0.0000000  0.6508444  3
   3496   3486   3498   3500     1  0.0000000  0.6508444  3
   3496   3486   3485   3506     1  0.0000000  0.6508444  3
   3497   3486   3498   3501     1  0.0000000  0.6508444  3
   3497   3486   3498   3499     1  0.0000000  0.6508444  3
   3497   3486   3498   3500     1  0.0000000  0.6508444  3
   3497   3486   3485   3506     1  0.0000000  0.6508444  3
   3498   3501   3503   3505     1  180.0000771  9.6232000  2
   3498   3486   3485   3506     1  0.0000000  0.6508444  3
   3499   3498   3501   3502     1  0.0000000  3.3472000  1
   3499   3498   3501   3502     1  0.0000000  0.0000000  2
   3499   3498   3501   3502     1  180.0000771  0.3347200  3
   3499   3498   3501   3503     1  180.0000771  0.0000000  2
   3500   3498   3501   3502     1  0.0000000  3.3472000  1
   3500   3498   3501   3502     1  0.0000000  0.0000000  2
   3500   3498   3501   3502     1  180.0000771  0.3347200  3
   3500   3498   3501   3503     1  180.0000771  0.0000000  2
   3502   3501   3503   3505     1  0.0000000  7.9496000  1
   3502   3501   3503   3505     1  180.0000771  9.6232000  2
   3507   3509   3511   3513     1  0.0000000  0.6508444  3
   3507   3509   3511   3514     1  0.0000000  0.6508444  3
   3508   3507   3509   3511     1  0.0000000  0.0000000  2
   3508   3507   3509   3510     1  0.0000000  0.0000000  2
   3508   3507   3509   3512     1  0.0000000  0.0000000  2
   3509   3511   3515   3536     1  0.0000000  0.6508444  3
   3510   3509   3511   3515     1  0.0000000  0.6508444  3
   3510   3509   3511   3513     1  0.0000000  0.6508444  3
   3510   3509   3511   3514     1  0.0000000  0.6508444  3
   3511   3515   3516   3526     1  0.0000000  0.6508444  3
   3511   3515   3516   3527     1  0.0000000  0.6508444  3
   3511   3515   3517   3518     1  0.0000000  0.6508444  3
   3511   3515   3517   3520     1  0.0000000  0.6508444  3
   3512   3509   3511   3515     1  0.0000000  0.6508444  3
   3512   3509   3511   3513     1  0.0000000  0.6508444  3
   3512   3509   3511   3514     1  0.0000000  0.6508444  3
   3513   3511   3515   3516     1  0.0000000  0.6508444  3
   3513   3511   3515   3517     1  0.0000000  0.6508444  3
   3513   3511   3515   3536     1  0.0000000  0.6508444  3
   3514   3511   3515   3516     1  0.0000000  0.6508444  3
   3514   3511   3515   3517     1  0.0000000  0.6508444  3
   3514   3511   3515   3536     1  0.0000000  0.6508444  3
   3515   3516   3528   3529     1  0.0000000  0.6508444  3
   3515   3516   3528   3530     1  0.0000000  0.6508444  3
   3515   3517   3519   3521     1  0.0000000  0.6508444  3
   3515   3517   3519   3522     1  0.0000000  0.6508444  3
   3516   3515   3517   3518     1  0.0000000  0.6508444  3
   3516   3515   3517   3520     1  0.0000000  0.6508444  3
   3517   3515   3516   3526     1  0.0000000  0.6508444  3
   3517   3515   3516   3527     1  0.0000000  0.6508444  3
   3518   3517   3515   3536     1  0.0000000  0.6508444  3
   3518   3517   3519   3523     1  0.0000000  0.6508444  3
   3518   3517   3519   3521     1  0.0000000  0.6508444  3
   3518   3517   3519   3522     1  0.0000000  0.6508444  3
   3519   3517   3515   3536     1  0.0000000  0.6508444  3
   3519   3523   3524   3534     1  180.0000771  9.6232000  2
   3520   3517   3515   3536     1  0.0000000  0.6508444  3
   3520   3517   3519   3523     1  0.0000000  0.6508444  3
   3520   3517   3519   3521     1  0.0000000  0.6508444  3
   3520   3517   3519   3522     1  0.0000000  0.6508444  3
   3521   3519   3523   3524     1  180.0000771  0.0000000  2
   3521   3519   3523   3525     1  0.0000000  3.3472000  1
   3521   3519   3523   3525     1  0.0000000  0.0000000  2
   3521   3519   3523   3525     1  180.0000771  0.3347200  3
   3522   3519   3523   3524     1  180.0000771  0.0000000  2
   3522   3519   3523   3525     1  0.0000000  3.3472000  1
   3522   3519   3523   3525     1  0.0000000  0.0000000  2
   3522   3519   3523   3525     1  180.0000771  0.3347200  3
   3525   3523   3524   3534     1  0.0000000  7.9496000  1
   3525   3523   3524   3534     1  180.0000771  9.6232000  2
   3526   3516   3515   3536     1  0.0000000  0.6508444  3
   3526   3516   3528   3531     1  0.0000000  0.6508444  3
   3526   3516   3528   3529     1  0.0000000  0.6508444  3
   3526   3516   3528   3530     1  0.0000000  0.6508444  3
   3527   3516   3515   3536     1  0.0000000  0.6508444  3
   3527   3516   3528   3531     1  0.0000000  0.6508444  3
   3527   3516   3528   3529     1  0.0000000  0.6508444  3
   3527   3516   3528   3530     1  0.0000000  0.6508444  3
   3528   3516   3515   3536     1  0.0000000  0.6508444  3
   3528   3531   3533   3535     1  180.0000771  9.6232000  2
   3529   3528   3531   3532     1  0.0000000  3.3472000  1
   3529   3528   3531   3532     1  0.0000000  0.0000000  2
   3529   3528   3531   3532     1  180.0000771  0.3347200  3
   3529   3528   3531   3533     1  180.0000771  0.0000000  2
   3530   3528   3531   3532     1  0.0000000  3.3472000  1
   3530   3528   3531   3532     1  0.0000000  0.0000000  2
   3530   3528   3531   3532     1  180.0000771  0.3347200  3
   3530   3528   3531   3533     1  180.0000771  0.0000000  2
   3532   3531   3533   3535     1  0.0000000  7.9496000  1
   3532   3531   3533   3535     1  180.0000771  9.6232000  2
   3537   3539   3541   3543     1  0.0000000  0.6508444  3
   3537   3539   3541   3544     1  0.0000000  0.6508444  3
   3538   3537   3539   3541     1  0.0000000  0.0000000  2
   3538   3537   3539   3540     1  0.0000000  0.0000000  2
   3538   3537   3539   3542     1  0.0000000  0.0000000  2
   3539   3541   3545   3566     1  0.0000000  0.6508444  3
   3540   3539   3541   3545     1  0.0000000  0.6508444  3
   3540   3539   3541   3543     1  0.0000000  0.6508444  3
   3540   3539   3541   3544     1  0.0000000  0.6508444  3
   3541   3545   3546   3556     1  0.0000000  0.6508444  3
   3541   3545   3546   3557     1  0.0000000  0.6508444  3
   3541   3545   3547   3548     1  0.0000000  0.6508444  3
   3541   3545   3547   3550     1  0.0000000  0.6508444  3
   3542   3539   3541   3545     1  0.0000000  0.6508444  3
   3542   3539   3541   3543     1  0.0000000  0.6508444  3
   3542   3539   3541   3544     1  0.0000000  0.6508444  3
   3543   3541   3545   3546     1  0.0000000  0.6508444  3
   3543   3541   3545   3547     1  0.0000000  0.6508444  3
   3543   3541   3545   3566     1  0.0000000  0.6508444  3
   3544   3541   3545   3546     1  0.0000000  0.6508444  3
   3544   3541   3545   3547     1  0.0000000  0.6508444  3
   3544   3541   3545   3566     1  0.0000000  0.6508444  3
   3545   3546   3558   3559     1  0.0000000  0.6508444  3
   3545   3546   3558   3560     1  0.0000000  0.6508444  3
   3545   3547   3549   3551     1  0.0000000  0.6508444  3
   3545   3547   3549   3552     1  0.0000000  0.6508444  3
   3546   3545   3547   3548     1  0.0000000  0.6508444  3
   3546   3545   3547   3550     1  0.0000000  0.6508444  3
   3547   3545   3546   3556     1  0.0000000  0.6508444  3
   3547   3545   3546   3557     1  0.0000000  0.6508444  3
   3548   3547   3549   3553     1  0.0000000  0.6508444  3
   3548   3547   3549   3551     1  0.0000000  0.6508444  3
   3548   3547   3549   3552     1  0.0000000  0.6508444  3
   3548   3547   3545   3566     1  0.0000000  0.6508444  3
   3549   3553   3554   3564     1  180.0000771  9.6232000  2
   3549   3547   3545   3566     1  0.0000000  0.6508444  3
   3550   3547   3549   3553     1  0.0000000  0.6508444  3
   3550   3547   3549   3551     1  0.0000000  0.6508444  3
   3550   3547   3549   3552     1  0.0000000  0.6508444  3
   3550   3547   3545   3566     1  0.0000000  0.6508444  3
   3551   3549   3553   3554     1  180.0000771  0.0000000  2
   3551   3549   3553   3555     1  0.0000000  3.3472000  1
   3551   3549   3553   3555     1  0.0000000  0.0000000  2
   3551   3549   3553   3555     1  180.0000771  0.3347200  3
   3552   3549   3553   3554     1  180.0000771  0.0000000  2
   3552   3549   3553   3555     1  0.0000000  3.3472000  1
   3552   3549   3553   3555     1  0.0000000  0.0000000  2
   3552   3549   3553   3555     1  180.0000771  0.3347200  3
   3555   3553   3554   3564     1  0.0000000  7.9496000  1
   3555   3553   3554   3564     1  180.0000771  9.6232000  2
   3556   3546   3558   3561     1  0.0000000  0.6508444  3
   3556   3546   3558   3559     1  0.0000000  0.6508444  3
   3556   3546   3558   3560     1  0.0000000  0.6508444  3
   3556   3546   3545   3566     1  0.0000000  0.6508444  3
   3557   3546   3558   3561     1  0.0000000  0.6508444  3
   3557   3546   3558   3559     1  0.0000000  0.6508444  3
   3557   3546   3558   3560     1  0.0000000  0.6508444  3
   3557   3546   3545   3566     1  0.0000000  0.6508444  3
   3558   3561   3563   3565     1  180.0000771  9.6232000  2
   3558   3546   3545   3566     1  0.0000000  0.6508444  3
   3559   3558   3561   3562     1  0.0000000  3.3472000  1
   3559   3558   3561   3562     1  0.0000000  0.0000000  2
   3559   3558   3561   3562     1  180.0000771  0.3347200  3
   3559   3558   3561   3563     1  180.0000771  0.0000000  2
   3560   3558   3561   3562     1  0.0000000  3.3472000  1
   3560   3558   3561   3562     1  0.0000000  0.0000000  2
   3560   3558   3561   3562     1  180.0000771  0.3347200  3
   3560   3558   3561   3563     1  180.0000771  0.0000000  2
   3562   3561   3563   3565     1  0.0000000  7.9496000  1
   3562   3561   3563   3565     1  180.0000771  9.6232000  2
   3567   3569   3571   3573     1  0.0000000  0.6508444  3
   3567   3569   3571   3574     1  0.0000000  0.6508444  3
   3568   3567   3569   3571     1  0.0000000  0.0000000  2
   3568   3567   3569   3570     1  0.0000000  0.0000000  2
   3568   3567   3569   3572     1  0.0000000  0.0000000  2
   3569   3571   3575   3596     1  0.0000000  0.6508444  3
   3570   3569   3571   3575     1  0.0000000  0.6508444  3
   3570   3569   3571   3573     1  0.0000000  0.6508444  3
   3570   3569   3571   3574     1  0.0000000  0.6508444  3
   3571   3575   3576   3586     1  0.0000000  0.6508444  3
   3571   3575   3576   3587     1  0.0000000  0.6508444  3
   3571   3575   3577   3578     1  0.0000000  0.6508444  3
   3571   3575   3577   3580     1  0.0000000  0.6508444  3
   3572   3569   3571   3575     1  0.0000000  0.6508444  3
   3572   3569   3571   3573     1  0.0000000  0.6508444  3
   3572   3569   3571   3574     1  0.0000000  0.6508444  3
   3573   3571   3575   3576     1  0.0000000  0.6508444  3
   3573   3571   3575   3577     1  0.0000000  0.6508444  3
   3573   3571   3575   3596     1  0.0000000  0.6508444  3
   3574   3571   3575   3576     1  0.0000000  0.6508444  3
   3574   3571   3575   3577     1  0.0000000  0.6508444  3
   3574   3571   3575   3596     1  0.0000000  0.6508444  3
   3575   3576   3588   3589     1  0.0000000  0.6508444  3
   3575   3576   3588   3590     1  0.0000000  0.6508444  3
   3575   3577   3579   3581     1  0.0000000  0.6508444  3
   3575   3577   3579   3582     1  0.0000000  0.6508444  3
   3576   3575   3577   3578     1  0.0000000  0.6508444  3
   3576   3575   3577   3580     1  0.0000000  0.6508444  3
   3577   3575   3576   3586     1  0.0000000  0.6508444  3
   3577   3575   3576   3587     1  0.0000000  0.6508444  3
   3578   3577   3575   3596     1  0.0000000  0.6508444  3
   3578   3577   3579   3583     1  0.0000000  0.6508444  3
   3578   3577   3579   3581     1  0.0000000  0.6508444  3
   3578   3577   3579   3582     1  0.0000000  0.6508444  3
   3579   3577   3575   3596     1  0.0000000  0.6508444  3
   3579   3583   3584   3594     1  180.0000771  9.6232000  2
   3580   3577   3575   3596     1  0.0000000  0.6508444  3
   3580   3577   3579   3583     1  0.0000000  0.6508444  3
   3580   3577   3579   3581     1  0.0000000  0.6508444  3
   3580   3577   3579   3582     1  0.0000000  0.6508444  3
   3581   3579   3583   3584     1  180.0000771  0.0000000  2
   3581   3579   3583   3585     1  0.0000000  3.3472000  1
   3581   3579   3583   3585     1  0.0000000  0.0000000  2
   3581   3579   3583   3585     1  180.0000771  0.3347200  3
   3582   3579   3583   3584     1  180.0000771  0.0000000  2
   3582   3579   3583   3585     1  0.0000000  3.3472000  1
   3582   3579   3583   3585     1  0.0000000  0.0000000  2
   3582   3579   3583   3585     1  180.0000771  0.3347200  3
   3585   3583   3584   3594     1  0.0000000  7.9496000  1
   3585   3583   3584   3594     1  180.0000771  9.6232000  2
   3586   3576   3575   3596     1  0.0000000  0.6508444  3
   3586   3576   3588   3591     1  0.0000000  0.6508444  3
   3586   3576   3588   3589     1  0.0000000  0.6508444  3
   3586   3576   3588   3590     1  0.0000000  0.6508444  3
   3587   3576   3575   3596     1  0.0000000  0.6508444  3
   3587   3576   3588   3591     1  0.0000000  0.6508444  3
   3587   3576   3588   3589     1  0.0000000  0.6508444  3
   3587   3576   3588   3590     1  0.0000000  0.6508444  3
   3588   3576   3575   3596     1  0.0000000  0.6508444  3
   3588   3591   3593   3595     1  180.0000771  9.6232000  2
   3589   3588   3591   3592     1  0.0000000  3.3472000  1
   3589   3588   3591   3592     1  0.0000000  0.0000000  2
   3589   3588   3591   3592     1  180.0000771  0.3347200  3
   3589   3588   3591   3593     1  180.0000771  0.0000000  2
   3590   3588   3591   3592     1  0.0000000  3.3472000  1
   3590   3588   3591   3592     1  0.0000000  0.0000000  2
   3590   3588   3591   3592     1  180.0000771  0.3347200  3
   3590   3588   3591   3593     1  180.0000771  0.0000000  2
   3592   3591   3593   3595     1  0.0000000  7.9496000  1
   3592   3591   3593   3595     1  180.0000771  9.6232000  2
   3597   3599   3601   3603     1  0.0000000  0.6508444  3
   3597   3599   3601   3604     1  0.0000000  0.6508444  3
   3598   3597   3599   3601     1  0.0000000  0.0000000  2
   3598   3597   3599   3600     1  0.0000000  0.0000000  2
   3598   3597   3599   3602     1  0.0000000  0.0000000  2
   3599   3601   3605   3626     1  0.0000000  0.6508444  3
   3600   3599   3601   3605     1  0.0000000  0.6508444  3
   3600   3599   3601   3603     1  0.0000000  0.6508444  3
   3600   3599   3601   3604     1  0.0000000  0.6508444  3
   3601   3605   3606   3616     1  0.0000000  0.6508444  3
   3601   3605   3606   3617     1  0.0000000  0.6508444  3
   3601   3605   3607   3608     1  0.0000000  0.6508444  3
   3601   3605   3607   3610     1  0.0000000  0.6508444  3
   3602   3599   3601   3605     1  0.0000000  0.6508444  3
   3602   3599   3601   3603     1  0.0000000  0.6508444  3
   3602   3599   3601   3604     1  0.0000000  0.6508444  3
   3603   3601   3605   3606     1  0.0000000  0.6508444  3
   3603   3601   3605   3607     1  0.0000000  0.6508444  3
   3603   3601   3605   3626     1  0.0000000  0.6508444  3
   3604   3601   3605   3606     1  0.0000000  0.6508444  3
   3604   3601   3605   3607     1  0.0000000  0.6508444  3
   3604   3601   3605   3626     1  0.0000000  0.6508444  3
   3605   3606   3618   3619     1  0.0000000  0.6508444  3
   3605   3606   3618   3620     1  0.0000000  0.6508444  3
   3605   3607   3609   3611     1  0.0000000  0.6508444  3
   3605   3607   3609   3612     1  0.0000000  0.6508444  3
   3606   3605   3607   3608     1  0.0000000  0.6508444  3
   3606   3605   3607   3610     1  0.0000000  0.6508444  3
   3607   3605   3606   3616     1  0.0000000  0.6508444  3
   3607   3605   3606   3617     1  0.0000000  0.6508444  3
   3608   3607   3609   3613     1  0.0000000  0.6508444  3
   3608   3607   3609   3611     1  0.0000000  0.6508444  3
   3608   3607   3609   3612     1  0.0000000  0.6508444  3
   3608   3607   3605   3626     1  0.0000000  0.6508444  3
   3609   3613   3614   3624     1  180.0000771  9.6232000  2
   3609   3607   3605   3626     1  0.0000000  0.6508444  3
   3610   3607   3609   3613     1  0.0000000  0.6508444  3
   3610   3607   3609   3611     1  0.0000000  0.6508444  3
   3610   3607   3609   3612     1  0.0000000  0.6508444  3
   3610   3607   3605   3626     1  0.0000000  0.6508444  3
   3611   3609   3613   3614     1  180.0000771  0.0000000  2
   3611   3609   3613   3615     1  0.0000000  3.3472000  1
   3611   3609   3613   3615     1  0.0000000  0.0000000  2
   3611   3609   3613   3615     1  180.0000771  0.3347200  3
   3612   3609   3613   3614     1  180.0000771  0.0000000  2
   3612   3609   3613   3615     1  0.0000000  3.3472000  1
   3612   3609   3613   3615     1  0.0000000  0.0000000  2
   3612   3609   3613   3615     1  180.0000771  0.3347200  3
   3615   3613   3614   3624     1  0.0000000  7.9496000  1
   3615   3613   3614   3624     1  180.0000771  9.6232000  2
   3616   3606   3618   3621     1  0.0000000  0.6508444  3
   3616   3606   3618   3619     1  0.0000000  0.6508444  3
   3616   3606   3618   3620     1  0.0000000  0.6508444  3
   3616   3606   3605   3626     1  0.0000000  0.6508444  3
   3617   3606   3618   3621     1  0.0000000  0.6508444  3
   3617   3606   3618   3619     1  0.0000000  0.6508444  3
   3617   3606   3618   3620     1  0.0000000  0.6508444  3
   3617   3606   3605   3626     1  0.0000000  0.6508444  3
   3618   3621   3623   3625     1  180.0000771  9.6232000  2
   3618   3606   3605   3626     1  0.0000000  0.6508444  3
   3619   3618   3621   3622     1  0.0000000  3.3472000  1
   3619   3618   3621   3622     1  0.0000000  0.0000000  2
   3619   3618   3621   3622     1  180.0000771  0.3347200  3
   3619   3618   3621   3623     1  180.0000771  0.0000000  2
   3620   3618   3621   3622     1  0.0000000  3.3472000  1
   3620   3618   3621   3622     1  0.0000000  0.0000000  2
   3620   3618   3621   3622     1  180.0000771  0.3347200  3
   3620   3618   3621   3623     1  180.0000771  0.0000000  2
   3622   3621   3623   3625     1  0.0000000  7.9496000  1
   3622   3621   3623   3625     1  180.0000771  9.6232000  2
   3627   3629   3631   3633     1  0.0000000  0.6508444  3
   3627   3629   3631   3634     1  0.0000000  0.6508444  3
   3628   3627   3629   3631     1  0.0000000  0.0000000  2
   3628   3627   3629   3630     1  0.0000000  0.0000000  2
   3628   3627   3629   3632     1  0.0000000  0.0000000  2
   3629   3631   3635   3656     1  0.0000000  0.6508444  3
   3630   3629   3631   3635     1  0.0000000  0.6508444  3
   3630   3629   3631   3633     1  0.0000000  0.6508444  3
   3630   3629   3631   3634     1  0.0000000  0.6508444  3
   3631   3635   3636   3646     1  0.0000000  0.6508444  3
   3631   3635   3636   3647     1  0.0000000  0.6508444  3
   3631   3635   3637   3638     1  0.0000000  0.6508444  3
   3631   3635   3637   3640     1  0.0000000  0.6508444  3
   3632   3629   3631   3635     1  0.0000000  0.6508444  3
   3632   3629   3631   3633     1  0.0000000  0.6508444  3
   3632   3629   3631   3634     1  0.0000000  0.6508444  3
   3633   3631   3635   3636     1  0.0000000  0.6508444  3
   3633   3631   3635   3637     1  0.0000000  0.6508444  3
   3633   3631   3635   3656     1  0.0000000  0.6508444  3
   3634   3631   3635   3636     1  0.0000000  0.6508444  3
   3634   3631   3635   3637     1  0.0000000  0.6508444  3
   3634   3631   3635   3656     1  0.0000000  0.6508444  3
   3635   3636   3648   3649     1  0.0000000  0.6508444  3
   3635   3636   3648   3650     1  0.0000000  0.6508444  3
   3635   3637   3639   3641     1  0.0000000  0.6508444  3
   3635   3637   3639   3642     1  0.0000000  0.6508444  3
   3636   3635   3637   3638     1  0.0000000  0.6508444  3
   3636   3635   3637   3640     1  0.0000000  0.6508444  3
   3637   3635   3636   3646     1  0.0000000  0.6508444  3
   3637   3635   3636   3647     1  0.0000000  0.6508444  3
   3638   3637   3635   3656     1  0.0000000  0.6508444  3
   3638   3637   3639   3643     1  0.0000000  0.6508444  3
   3638   3637   3639   3641     1  0.0000000  0.6508444  3
   3638   3637   3639   3642     1  0.0000000  0.6508444  3
   3639   3637   3635   3656     1  0.0000000  0.6508444  3
   3639   3643   3644   3654     1  180.0000771  9.6232000  2
   3640   3637   3635   3656     1  0.0000000  0.6508444  3
   3640   3637   3639   3643     1  0.0000000  0.6508444  3
   3640   3637   3639   3641     1  0.0000000  0.6508444  3
   3640   3637   3639   3642     1  0.0000000  0.6508444  3
   3641   3639   3643   3644     1  180.0000771  0.0000000  2
   3641   3639   3643   3645     1  0.0000000  3.3472000  1
   3641   3639   3643   3645     1  0.0000000  0.0000000  2
   3641   3639   3643   3645     1  180.0000771  0.3347200  3
   3642   3639   3643   3644     1  180.0000771  0.0000000  2
   3642   3639   3643   3645     1  0.0000000  3.3472000  1
   3642   3639   3643   3645     1  0.0000000  0.0000000  2
   3642   3639   3643   3645     1  180.0000771  0.3347200  3
   3645   3643   3644   3654     1  0.0000000  7.9496000  1
   3645   3643   3644   3654     1  180.0000771  9.6232000  2
   3646   3636   3635   3656     1  0.0000000  0.6508444  3
   3646   3636   3648   3651     1  0.0000000  0.6508444  3
   3646   3636   3648   3649     1  0.0000000  0.6508444  3
   3646   3636   3648   3650     1  0.0000000  0.6508444  3
   3647   3636   3635   3656     1  0.0000000  0.6508444  3
   3647   3636   3648   3651     1  0.0000000  0.6508444  3
   3647   3636   3648   3649     1  0.0000000  0.6508444  3
   3647   3636   3648   3650     1  0.0000000  0.6508444  3
   3648   3636   3635   3656     1  0.0000000  0.6508444  3
   3648   3651   3653   3655     1  180.0000771  9.6232000  2
   3649   3648   3651   3652     1  0.0000000  3.3472000  1
   3649   3648   3651   3652     1  0.0000000  0.0000000  2
   3649   3648   3651   3652     1  180.0000771  0.3347200  3
   3649   3648   3651   3653     1  180.0000771  0.0000000  2
   3650   3648   3651   3652     1  0.0000000  3.3472000  1
   3650   3648   3651   3652     1  0.0000000  0.0000000  2
   3650   3648   3651   3652     1  180.0000771  0.3347200  3
   3650   3648   3651   3653     1  180.0000771  0.0000000  2
   3652   3651   3653   3655     1  0.0000000  7.9496000  1
   3652   3651   3653   3655     1  180.0000771  9.6232000  2
   3657   3659   3661   3663     1  0.0000000  0.6508444  3
   3657   3659   3661   3664     1  0.0000000  0.6508444  3
   3658   3657   3659   3661     1  0.0000000  0.0000000  2
   3658   3657   3659   3660     1  0.0000000  0.0000000  2
   3658   3657   3659   3662     1  0.0000000  0.0000000  2
   3659   3661   3665   3686     1  0.0000000  0.6508444  3
   3660   3659   3661   3665     1  0.0000000  0.6508444  3
   3660   3659   3661   3663     1  0.0000000  0.6508444  3
   3660   3659   3661   3664     1  0.0000000  0.6508444  3
   3661   3665   3666   3676     1  0.0000000  0.6508444  3
   3661   3665   3666   3677     1  0.0000000  0.6508444  3
   3661   3665   3667   3668     1  0.0000000  0.6508444  3
   3661   3665   3667   3670     1  0.0000000  0.6508444  3
   3662   3659   3661   3665     1  0.0000000  0.6508444  3
   3662   3659   3661   3663     1  0.0000000  0.6508444  3
   3662   3659   3661   3664     1  0.0000000  0.6508444  3
   3663   3661   3665   3666     1  0.0000000  0.6508444  3
   3663   3661   3665   3667     1  0.0000000  0.6508444  3
   3663   3661   3665   3686     1  0.0000000  0.6508444  3
   3664   3661   3665   3666     1  0.0000000  0.6508444  3
   3664   3661   3665   3667     1  0.0000000  0.6508444  3
   3664   3661   3665   3686     1  0.0000000  0.6508444  3
   3665   3666   3678   3679     1  0.0000000  0.6508444  3
   3665   3666   3678   3680     1  0.0000000  0.6508444  3
   3665   3667   3669   3671     1  0.0000000  0.6508444  3
   3665   3667   3669   3672     1  0.0000000  0.6508444  3
   3666   3665   3667   3668     1  0.0000000  0.6508444  3
   3666   3665   3667   3670     1  0.0000000  0.6508444  3
   3667   3665   3666   3676     1  0.0000000  0.6508444  3
   3667   3665   3666   3677     1  0.0000000  0.6508444  3
   3668   3667   3669   3673     1  0.0000000  0.6508444  3
   3668   3667   3669   3671     1  0.0000000  0.6508444  3
   3668   3667   3669   3672     1  0.0000000  0.6508444  3
   3668   3667   3665   3686     1  0.0000000  0.6508444  3
   3669   3673   3674   3684     1  180.0000771  9.6232000  2
   3669   3667   3665   3686     1  0.0000000  0.6508444  3
   3670   3667   3669   3673     1  0.0000000  0.6508444  3
   3670   3667   3669   3671     1  0.0000000  0.6508444  3
   3670   3667   3669   3672     1  0.0000000  0.6508444  3
   3670   3667   3665   3686     1  0.0000000  0.6508444  3
   3671   3669   3673   3674     1  180.0000771  0.0000000  2
   3671   3669   3673   3675     1  0.0000000  3.3472000  1
   3671   3669   3673   3675     1  0.0000000  0.0000000  2
   3671   3669   3673   3675     1  180.0000771  0.3347200  3
   3672   3669   3673   3674     1  180.0000771  0.0000000  2
   3672   3669   3673   3675     1  0.0000000  3.3472000  1
   3672   3669   3673   3675     1  0.0000000  0.0000000  2
   3672   3669   3673   3675     1  180.0000771  0.3347200  3
   3675   3673   3674   3684     1  0.0000000  7.9496000  1
   3675   3673   3674   3684     1  180.0000771  9.6232000  2
   3676   3666   3678   3681     1  0.0000000  0.6508444  3
   3676   3666   3678   3679     1  0.0000000  0.6508444  3
   3676   3666   3678   3680     1  0.0000000  0.6508444  3
   3676   3666   3665   3686     1  0.0000000  0.6508444  3
   3677   3666   3678   3681     1  0.0000000  0.6508444  3
   3677   3666   3678   3679     1  0.0000000  0.6508444  3
   3677   3666   3678   3680     1  0.0000000  0.6508444  3
   3677   3666   3665   3686     1  0.0000000  0.6508444  3
   3678   3681   3683   3685     1  180.0000771  9.6232000  2
   3678   3666   3665   3686     1  0.0000000  0.6508444  3
   3679   3678   3681   3682     1  0.0000000  3.3472000  1
   3679   3678   3681   3682     1  0.0000000  0.0000000  2
   3679   3678   3681   3682     1  180.0000771  0.3347200  3
   3679   3678   3681   3683     1  180.0000771  0.0000000  2
   3680   3678   3681   3682     1  0.0000000  3.3472000  1
   3680   3678   3681   3682     1  0.0000000  0.0000000  2
   3680   3678   3681   3682     1  180.0000771  0.3347200  3
   3680   3678   3681   3683     1  180.0000771  0.0000000  2
   3682   3681   3683   3685     1  0.0000000  7.9496000  1
   3682   3681   3683   3685     1  180.0000771  9.6232000  2
   3687   3689   3691   3693     1  0.0000000  0.6508444  3
   3687   3689   3691   3694     1  0.0000000  0.6508444  3
   3688   3687   3689   3691     1  0.0000000  0.0000000  2
   3688   3687   3689   3690     1  0.0000000  0.0000000  2
   3688   3687   3689   3692     1  0.0000000  0.0000000  2
   3689   3691   3695   3716     1  0.0000000  0.6508444  3
   3690   3689   3691   3695     1  0.0000000  0.6508444  3
   3690   3689   3691   3693     1  0.0000000  0.6508444  3
   3690   3689   3691   3694     1  0.0000000  0.6508444  3
   3691   3695   3696   3706     1  0.0000000  0.6508444  3
   3691   3695   3696   3707     1  0.0000000  0.6508444  3
   3691   3695   3697   3698     1  0.0000000  0.6508444  3
   3691   3695   3697   3700     1  0.0000000  0.6508444  3
   3692   3689   3691   3695     1  0.0000000  0.6508444  3
   3692   3689   3691   3693     1  0.0000000  0.6508444  3
   3692   3689   3691   3694     1  0.0000000  0.6508444  3
   3693   3691   3695   3696     1  0.0000000  0.6508444  3
   3693   3691   3695   3697     1  0.0000000  0.6508444  3
   3693   3691   3695   3716     1  0.0000000  0.6508444  3
   3694   3691   3695   3696     1  0.0000000  0.6508444  3
   3694   3691   3695   3697     1  0.0000000  0.6508444  3
   3694   3691   3695   3716     1  0.0000000  0.6508444  3
   3695   3696   3708   3709     1  0.0000000  0.6508444  3
   3695   3696   3708   3710     1  0.0000000  0.6508444  3
   3695   3697   3699   3701     1  0.0000000  0.6508444  3
   3695   3697   3699   3702     1  0.0000000  0.6508444  3
   3696   3695   3697   3698     1  0.0000000  0.6508444  3
   3696   3695   3697   3700     1  0.0000000  0.6508444  3
   3697   3695   3696   3706     1  0.0000000  0.6508444  3
   3697   3695   3696   3707     1  0.0000000  0.6508444  3
   3698   3697   3695   3716     1  0.0000000  0.6508444  3
   3698   3697   3699   3703     1  0.0000000  0.6508444  3
   3698   3697   3699   3701     1  0.0000000  0.6508444  3
   3698   3697   3699   3702     1  0.0000000  0.6508444  3
   3699   3697   3695   3716     1  0.0000000  0.6508444  3
   3699   3703   3704   3714     1  180.0000771  9.6232000  2
   3700   3697   3695   3716     1  0.0000000  0.6508444  3
   3700   3697   3699   3703     1  0.0000000  0.6508444  3
   3700   3697   3699   3701     1  0.0000000  0.6508444  3
   3700   3697   3699   3702     1  0.0000000  0.6508444  3
   3701   3699   3703   3704     1  180.0000771  0.0000000  2
   3701   3699   3703   3705     1  0.0000000  3.3472000  1
   3701   3699   3703   3705     1  0.0000000  0.0000000  2
   3701   3699   3703   3705     1  180.0000771  0.3347200  3
   3702   3699   3703   3704     1  180.0000771  0.0000000  2
   3702   3699   3703   3705     1  0.0000000  3.3472000  1
   3702   3699   3703   3705     1  0.0000000  0.0000000  2
   3702   3699   3703   3705     1  180.0000771  0.3347200  3
   3705   3703   3704   3714     1  0.0000000  7.9496000  1
   3705   3703   3704   3714     1  180.0000771  9.6232000  2
   3706   3696   3695   3716     1  0.0000000  0.6508444  3
   3706   3696   3708   3711     1  0.0000000  0.6508444  3
   3706   3696   3708   3709     1  0.0000000  0.6508444  3
   3706   3696   3708   3710     1  0.0000000  0.6508444  3
   3707   3696   3695   3716     1  0.0000000  0.6508444  3
   3707   3696   3708   3711     1  0.0000000  0.6508444  3
   3707   3696   3708   3709     1  0.0000000  0.6508444  3
   3707   3696   3708   3710     1  0.0000000  0.6508444  3
   3708   3696   3695   3716     1  0.0000000  0.6508444  3
   3708   3711   3713   3715     1  180.0000771  9.6232000  2
   3709   3708   3711   3712     1  0.0000000  3.3472000  1
   3709   3708   3711   3712     1  0.0000000  0.0000000  2
   3709   3708   3711   3712     1  180.0000771  0.3347200  3
   3709   3708   3711   3713     1  180.0000771  0.0000000  2
   3710   3708   3711   3712     1  0.0000000  3.3472000  1
   3710   3708   3711   3712     1  0.0000000  0.0000000  2
   3710   3708   3711   3712     1  180.0000771  0.3347200  3
   3710   3708   3711   3713     1  180.0000771  0.0000000  2
   3712   3711   3713   3715     1  0.0000000  7.9496000  1
   3712   3711   3713   3715     1  180.0000771  9.6232000  2
   3717   3719   3721   3723     1  0.0000000  0.6508444  3
   3717   3719   3721   3724     1  0.0000000  0.6508444  3
   3718   3717   3719   3721     1  0.0000000  0.0000000  2
   3718   3717   3719   3720     1  0.0000000  0.0000000  2
   3718   3717   3719   3722     1  0.0000000  0.0000000  2
   3719   3721   3725   3746     1  0.0000000  0.6508444  3
   3720   3719   3721   3725     1  0.0000000  0.6508444  3
   3720   3719   3721   3723     1  0.0000000  0.6508444  3
   3720   3719   3721   3724     1  0.0000000  0.6508444  3
   3721   3725   3726   3736     1  0.0000000  0.6508444  3
   3721   3725   3726   3737     1  0.0000000  0.6508444  3
   3721   3725   3727   3728     1  0.0000000  0.6508444  3
   3721   3725   3727   3730     1  0.0000000  0.6508444  3
   3722   3719   3721   3725     1  0.0000000  0.6508444  3
   3722   3719   3721   3723     1  0.0000000  0.6508444  3
   3722   3719   3721   3724     1  0.0000000  0.6508444  3
   3723   3721   3725   3726     1  0.0000000  0.6508444  3
   3723   3721   3725   3727     1  0.0000000  0.6508444  3
   3723   3721   3725   3746     1  0.0000000  0.6508444  3
   3724   3721   3725   3726     1  0.0000000  0.6508444  3
   3724   3721   3725   3727     1  0.0000000  0.6508444  3
   3724   3721   3725   3746     1  0.0000000  0.6508444  3
   3725   3726   3738   3739     1  0.0000000  0.6508444  3
   3725   3726   3738   3740     1  0.0000000  0.6508444  3
   3725   3727   3729   3731     1  0.0000000  0.6508444  3
   3725   3727   3729   3732     1  0.0000000  0.6508444  3
   3726   3725   3727   3728     1  0.0000000  0.6508444  3
   3726   3725   3727   3730     1  0.0000000  0.6508444  3
   3727   3725   3726   3736     1  0.0000000  0.6508444  3
   3727   3725   3726   3737     1  0.0000000  0.6508444  3
   3728   3727   3729   3733     1  0.0000000  0.6508444  3
   3728   3727   3729   3731     1  0.0000000  0.6508444  3
   3728   3727   3729   3732     1  0.0000000  0.6508444  3
   3728   3727   3725   3746     1  0.0000000  0.6508444  3
   3729   3733   3734   3744     1  180.0000771  9.6232000  2
   3729   3727   3725   3746     1  0.0000000  0.6508444  3
   3730   3727   3729   3733     1  0.0000000  0.6508444  3
   3730   3727   3729   3731     1  0.0000000  0.6508444  3
   3730   3727   3729   3732     1  0.0000000  0.6508444  3
   3730   3727   3725   3746     1  0.0000000  0.6508444  3
   3731   3729   3733   3734     1  180.0000771  0.0000000  2
   3731   3729   3733   3735     1  0.0000000  3.3472000  1
   3731   3729   3733   3735     1  0.0000000  0.0000000  2
   3731   3729   3733   3735     1  180.0000771  0.3347200  3
   3732   3729   3733   3734     1  180.0000771  0.0000000  2
   3732   3729   3733   3735     1  0.0000000  3.3472000  1
   3732   3729   3733   3735     1  0.0000000  0.0000000  2
   3732   3729   3733   3735     1  180.0000771  0.3347200  3
   3735   3733   3734   3744     1  0.0000000  7.9496000  1
   3735   3733   3734   3744     1  180.0000771  9.6232000  2
   3736   3726   3738   3741     1  0.0000000  0.6508444  3
   3736   3726   3738   3739     1  0.0000000  0.6508444  3
   3736   3726   3738   3740     1  0.0000000  0.6508444  3
   3736   3726   3725   3746     1  0.0000000  0.6508444  3
   3737   3726   3738   3741     1  0.0000000  0.6508444  3
   3737   3726   3738   3739     1  0.0000000  0.6508444  3
   3737   3726   3738   3740     1  0.0000000  0.6508444  3
   3737   3726   3725   3746     1  0.0000000  0.6508444  3
   3738   3741   3743   3745     1  180.0000771  9.6232000  2
   3738   3726   3725   3746     1  0.0000000  0.6508444  3
   3739   3738   3741   3742     1  0.0000000  3.3472000  1
   3739   3738   3741   3742     1  0.0000000  0.0000000  2
   3739   3738   3741   3742     1  180.0000771  0.3347200  3
   3739   3738   3741   3743     1  180.0000771  0.0000000  2
   3740   3738   3741   3742     1  0.0000000  3.3472000  1
   3740   3738   3741   3742     1  0.0000000  0.0000000  2
   3740   3738   3741   3742     1  180.0000771  0.3347200  3
   3740   3738   3741   3743     1  180.0000771  0.0000000  2
   3742   3741   3743   3745     1  0.0000000  7.9496000  1
   3742   3741   3743   3745     1  180.0000771  9.6232000  2
   3747   3749   3751   3753     1  0.0000000  0.6508444  3
   3747   3749   3751   3754     1  0.0000000  0.6508444  3
   3748   3747   3749   3751     1  0.0000000  0.0000000  2
   3748   3747   3749   3750     1  0.0000000  0.0000000  2
   3748   3747   3749   3752     1  0.0000000  0.0000000  2
   3749   3751   3755   3776     1  0.0000000  0.6508444  3
   3750   3749   3751   3755     1  0.0000000  0.6508444  3
   3750   3749   3751   3753     1  0.0000000  0.6508444  3
   3750   3749   3751   3754     1  0.0000000  0.6508444  3
   3751   3755   3756   3766     1  0.0000000  0.6508444  3
   3751   3755   3756   3767     1  0.0000000  0.6508444  3
   3751   3755   3757   3758     1  0.0000000  0.6508444  3
   3751   3755   3757   3760     1  0.0000000  0.6508444  3
   3752   3749   3751   3755     1  0.0000000  0.6508444  3
   3752   3749   3751   3753     1  0.0000000  0.6508444  3
   3752   3749   3751   3754     1  0.0000000  0.6508444  3
   3753   3751   3755   3756     1  0.0000000  0.6508444  3
   3753   3751   3755   3757     1  0.0000000  0.6508444  3
   3753   3751   3755   3776     1  0.0000000  0.6508444  3
   3754   3751   3755   3756     1  0.0000000  0.6508444  3
   3754   3751   3755   3757     1  0.0000000  0.6508444  3
   3754   3751   3755   3776     1  0.0000000  0.6508444  3
   3755   3756   3768   3769     1  0.0000000  0.6508444  3
   3755   3756   3768   3770     1  0.0000000  0.6508444  3
   3755   3757   3759   3761     1  0.0000000  0.6508444  3
   3755   3757   3759   3762     1  0.0000000  0.6508444  3
   3756   3755   3757   3758     1  0.0000000  0.6508444  3
   3756   3755   3757   3760     1  0.0000000  0.6508444  3
   3757   3755   3756   3766     1  0.0000000  0.6508444  3
   3757   3755   3756   3767     1  0.0000000  0.6508444  3
   3758   3757   3755   3776     1  0.0000000  0.6508444  3
   3758   3757   3759   3763     1  0.0000000  0.6508444  3
   3758   3757   3759   3761     1  0.0000000  0.6508444  3
   3758   3757   3759   3762     1  0.0000000  0.6508444  3
   3759   3757   3755   3776     1  0.0000000  0.6508444  3
   3759   3763   3764   3774     1  180.0000771  9.6232000  2
   3760   3757   3755   3776     1  0.0000000  0.6508444  3
   3760   3757   3759   3763     1  0.0000000  0.6508444  3
   3760   3757   3759   3761     1  0.0000000  0.6508444  3
   3760   3757   3759   3762     1  0.0000000  0.6508444  3
   3761   3759   3763   3764     1  180.0000771  0.0000000  2
   3761   3759   3763   3765     1  0.0000000  3.3472000  1
   3761   3759   3763   3765     1  0.0000000  0.0000000  2
   3761   3759   3763   3765     1  180.0000771  0.3347200  3
   3762   3759   3763   3764     1  180.0000771  0.0000000  2
   3762   3759   3763   3765     1  0.0000000  3.3472000  1
   3762   3759   3763   3765     1  0.0000000  0.0000000  2
   3762   3759   3763   3765     1  180.0000771  0.3347200  3
   3765   3763   3764   3774     1  0.0000000  7.9496000  1
   3765   3763   3764   3774     1  180.0000771  9.6232000  2
   3766   3756   3755   3776     1  0.0000000  0.6508444  3
   3766   3756   3768   3771     1  0.0000000  0.6508444  3
   3766   3756   3768   3769     1  0.0000000  0.6508444  3
   3766   3756   3768   3770     1  0.0000000  0.6508444  3
   3767   3756   3755   3776     1  0.0000000  0.6508444  3
   3767   3756   3768   3771     1  0.0000000  0.6508444  3
   3767   3756   3768   3769     1  0.0000000  0.6508444  3
   3767   3756   3768   3770     1  0.0000000  0.6508444  3
   3768   3756   3755   3776     1  0.0000000  0.6508444  3
   3768   3771   3773   3775     1  180.0000771  9.6232000  2
   3769   3768   3771   3772     1  0.0000000  3.3472000  1
   3769   3768   3771   3772     1  0.0000000  0.0000000  2
   3769   3768   3771   3772     1  180.0000771  0.3347200  3
   3769   3768   3771   3773     1  180.0000771  0.0000000  2
   3770   3768   3771   3772     1  0.0000000  3.3472000  1
   3770   3768   3771   3772     1  0.0000000  0.0000000  2
   3770   3768   3771   3772     1  180.0000771  0.3347200  3
   3770   3768   3771   3773     1  180.0000771  0.0000000  2
   3772   3771   3773   3775     1  0.0000000  7.9496000  1
   3772   3771   3773   3775     1  180.0000771  9.6232000  2
   3777   3779   3781   3783     1  0.0000000  0.6508444  3
   3777   3779   3781   3784     1  0.0000000  0.6508444  3
   3778   3777   3779   3781     1  0.0000000  0.0000000  2
   3778   3777   3779   3780     1  0.0000000  0.0000000  2
   3778   3777   3779   3782     1  0.0000000  0.0000000  2
   3779   3781   3785   3806     1  0.0000000  0.6508444  3
   3780   3779   3781   3785     1  0.0000000  0.6508444  3
   3780   3779   3781   3783     1  0.0000000  0.6508444  3
   3780   3779   3781   3784     1  0.0000000  0.6508444  3
   3781   3785   3786   3796     1  0.0000000  0.6508444  3
   3781   3785   3786   3797     1  0.0000000  0.6508444  3
   3781   3785   3787   3788     1  0.0000000  0.6508444  3
   3781   3785   3787   3790     1  0.0000000  0.6508444  3
   3782   3779   3781   3785     1  0.0000000  0.6508444  3
   3782   3779   3781   3783     1  0.0000000  0.6508444  3
   3782   3779   3781   3784     1  0.0000000  0.6508444  3
   3783   3781   3785   3786     1  0.0000000  0.6508444  3
   3783   3781   3785   3787     1  0.0000000  0.6508444  3
   3783   3781   3785   3806     1  0.0000000  0.6508444  3
   3784   3781   3785   3786     1  0.0000000  0.6508444  3
   3784   3781   3785   3787     1  0.0000000  0.6508444  3
   3784   3781   3785   3806     1  0.0000000  0.6508444  3
   3785   3786   3798   3799     1  0.0000000  0.6508444  3
   3785   3786   3798   3800     1  0.0000000  0.6508444  3
   3785   3787   3789   3791     1  0.0000000  0.6508444  3
   3785   3787   3789   3792     1  0.0000000  0.6508444  3
   3786   3785   3787   3788     1  0.0000000  0.6508444  3
   3786   3785   3787   3790     1  0.0000000  0.6508444  3
   3787   3785   3786   3796     1  0.0000000  0.6508444  3
   3787   3785   3786   3797     1  0.0000000  0.6508444  3
   3788   3787   3789   3793     1  0.0000000  0.6508444  3
   3788   3787   3789   3791     1  0.0000000  0.6508444  3
   3788   3787   3789   3792     1  0.0000000  0.6508444  3
   3788   3787   3785   3806     1  0.0000000  0.6508444  3
   3789   3793   3794   3804     1  180.0000771  9.6232000  2
   3789   3787   3785   3806     1  0.0000000  0.6508444  3
   3790   3787   3789   3793     1  0.0000000  0.6508444  3
   3790   3787   3789   3791     1  0.0000000  0.6508444  3
   3790   3787   3789   3792     1  0.0000000  0.6508444  3
   3790   3787   3785   3806     1  0.0000000  0.6508444  3
   3791   3789   3793   3794     1  180.0000771  0.0000000  2
   3791   3789   3793   3795     1  0.0000000  3.3472000  1
   3791   3789   3793   3795     1  0.0000000  0.0000000  2
   3791   3789   3793   3795     1  180.0000771  0.3347200  3
   3792   3789   3793   3794     1  180.0000771  0.0000000  2
   3792   3789   3793   3795     1  0.0000000  3.3472000  1
   3792   3789   3793   3795     1  0.0000000  0.0000000  2
   3792   3789   3793   3795     1  180.0000771  0.3347200  3
   3795   3793   3794   3804     1  0.0000000  7.9496000  1
   3795   3793   3794   3804     1  180.0000771  9.6232000  2
   3796   3786   3798   3801     1  0.0000000  0.6508444  3
   3796   3786   3798   3799     1  0.0000000  0.6508444  3
   3796   3786   3798   3800     1  0.0000000  0.6508444  3
   3796   3786   3785   3806     1  0.0000000  0.6508444  3
   3797   3786   3798   3801     1  0.0000000  0.6508444  3
   3797   3786   3798   3799     1  0.0000000  0.6508444  3
   3797   3786   3798   3800     1  0.0000000  0.6508444  3
   3797   3786   3785   3806     1  0.0000000  0.6508444  3
   3798   3801   3803   3805     1  180.0000771  9.6232000  2
   3798   3786   3785   3806     1  0.0000000  0.6508444  3
   3799   3798   3801   3802     1  0.0000000  3.3472000  1
   3799   3798   3801   3802     1  0.0000000  0.0000000  2
   3799   3798   3801   3802     1  180.0000771  0.3347200  3
   3799   3798   3801   3803     1  180.0000771  0.0000000  2
   3800   3798   3801   3802     1  0.0000000  3.3472000  1
   3800   3798   3801   3802     1  0.0000000  0.0000000  2
   3800   3798   3801   3802     1  180.0000771  0.3347200  3
   3800   3798   3801   3803     1  180.0000771  0.0000000  2
   3802   3801   3803   3805     1  0.0000000  7.9496000  1
   3802   3801   3803   3805     1  180.0000771  9.6232000  2
   3807   3809   3811   3813     1  0.0000000  0.6508444  3
   3807   3809   3811   3814     1  0.0000000  0.6508444  3
   3808   3807   3809   3811     1  0.0000000  0.0000000  2
   3808   3807   3809   3810     1  0.0000000  0.0000000  2
   3808   3807   3809   3812     1  0.0000000  0.0000000  2
   3809   3811   3815   3836     1  0.0000000  0.6508444  3
   3810   3809   3811   3815     1  0.0000000  0.6508444  3
   3810   3809   3811   3813     1  0.0000000  0.6508444  3
   3810   3809   3811   3814     1  0.0000000  0.6508444  3
   3811   3815   3816   3826     1  0.0000000  0.6508444  3
   3811   3815   3816   3827     1  0.0000000  0.6508444  3
   3811   3815   3817   3818     1  0.0000000  0.6508444  3
   3811   3815   3817   3820     1  0.0000000  0.6508444  3
   3812   3809   3811   3815     1  0.0000000  0.6508444  3
   3812   3809   3811   3813     1  0.0000000  0.6508444  3
   3812   3809   3811   3814     1  0.0000000  0.6508444  3
   3813   3811   3815   3816     1  0.0000000  0.6508444  3
   3813   3811   3815   3817     1  0.0000000  0.6508444  3
   3813   3811   3815   3836     1  0.0000000  0.6508444  3
   3814   3811   3815   3816     1  0.0000000  0.6508444  3
   3814   3811   3815   3817     1  0.0000000  0.6508444  3
   3814   3811   3815   3836     1  0.0000000  0.6508444  3
   3815   3816   3828   3829     1  0.0000000  0.6508444  3
   3815   3816   3828   3830     1  0.0000000  0.6508444  3
   3815   3817   3819   3821     1  0.0000000  0.6508444  3
   3815   3817   3819   3822     1  0.0000000  0.6508444  3
   3816   3815   3817   3818     1  0.0000000  0.6508444  3
   3816   3815   3817   3820     1  0.0000000  0.6508444  3
   3817   3815   3816   3826     1  0.0000000  0.6508444  3
   3817   3815   3816   3827     1  0.0000000  0.6508444  3
   3818   3817   3815   3836     1  0.0000000  0.6508444  3
   3818   3817   3819   3823     1  0.0000000  0.6508444  3
   3818   3817   3819   3821     1  0.0000000  0.6508444  3
   3818   3817   3819   3822     1  0.0000000  0.6508444  3
   3819   3817   3815   3836     1  0.0000000  0.6508444  3
   3819   3823   3824   3834     1  180.0000771  9.6232000  2
   3820   3817   3815   3836     1  0.0000000  0.6508444  3
   3820   3817   3819   3823     1  0.0000000  0.6508444  3
   3820   3817   3819   3821     1  0.0000000  0.6508444  3
   3820   3817   3819   3822     1  0.0000000  0.6508444  3
   3821   3819   3823   3824     1  180.0000771  0.0000000  2
   3821   3819   3823   3825     1  0.0000000  3.3472000  1
   3821   3819   3823   3825     1  0.0000000  0.0000000  2
   3821   3819   3823   3825     1  180.0000771  0.3347200  3
   3822   3819   3823   3824     1  180.0000771  0.0000000  2
   3822   3819   3823   3825     1  0.0000000  3.3472000  1
   3822   3819   3823   3825     1  0.0000000  0.0000000  2
   3822   3819   3823   3825     1  180.0000771  0.3347200  3
   3825   3823   3824   3834     1  0.0000000  7.9496000  1
   3825   3823   3824   3834     1  180.0000771  9.6232000  2
   3826   3816   3815   3836     1  0.0000000  0.6508444  3
   3826   3816   3828   3831     1  0.0000000  0.6508444  3
   3826   3816   3828   3829     1  0.0000000  0.6508444  3
   3826   3816   3828   3830     1  0.0000000  0.6508444  3
   3827   3816   3815   3836     1  0.0000000  0.6508444  3
   3827   3816   3828   3831     1  0.0000000  0.6508444  3
   3827   3816   3828   3829     1  0.0000000  0.6508444  3
   3827   3816   3828   3830     1  0.0000000  0.6508444  3
   3828   3816   3815   3836     1  0.0000000  0.6508444  3
   3828   3831   3833   3835     1  180.0000771  9.6232000  2
   3829   3828   3831   3832     1  0.0000000  3.3472000  1
   3829   3828   3831   3832     1  0.0000000  0.0000000  2
   3829   3828   3831   3832     1  180.0000771  0.3347200  3
   3829   3828   3831   3833     1  180.0000771  0.0000000  2
   3830   3828   3831   3832     1  0.0000000  3.3472000  1
   3830   3828   3831   3832     1  0.0000000  0.0000000  2
   3830   3828   3831   3832     1  180.0000771  0.3347200  3
   3830   3828   3831   3833     1  180.0000771  0.0000000  2
   3832   3831   3833   3835     1  0.0000000  7.9496000  1
   3832   3831   3833   3835     1  180.0000771  9.6232000  2
   3837   3839   3841   3843     1  0.0000000  0.6508444  3
   3837   3839   3841   3844     1  0.0000000  0.6508444  3
   3838   3837   3839   3841     1  0.0000000  0.0000000  2
   3838   3837   3839   3840     1  0.0000000  0.0000000  2
   3838   3837   3839   3842     1  0.0000000  0.0000000  2
   3839   3841   3845   3866     1  0.0000000  0.6508444  3
   3840   3839   3841   3845     1  0.0000000  0.6508444  3
   3840   3839   3841   3843     1  0.0000000  0.6508444  3
   3840   3839   3841   3844     1  0.0000000  0.6508444  3
   3841   3845   3846   3856     1  0.0000000  0.6508444  3
   3841   3845   3846   3857     1  0.0000000  0.6508444  3
   3841   3845   3847   3848     1  0.0000000  0.6508444  3
   3841   3845   3847   3850     1  0.0000000  0.6508444  3
   3842   3839   3841   3845     1  0.0000000  0.6508444  3
   3842   3839   3841   3843     1  0.0000000  0.6508444  3
   3842   3839   3841   3844     1  0.0000000  0.6508444  3
   3843   3841   3845   3846     1  0.0000000  0.6508444  3
   3843   3841   3845   3847     1  0.0000000  0.6508444  3
   3843   3841   3845   3866     1  0.0000000  0.6508444  3
   3844   3841   3845   3846     1  0.0000000  0.6508444  3
   3844   3841   3845   3847     1  0.0000000  0.6508444  3
   3844   3841   3845   3866     1  0.0000000  0.6508444  3
   3845   3846   3858   3859     1  0.0000000  0.6508444  3
   3845   3846   3858   3860     1  0.0000000  0.6508444  3
   3845   3847   3849   3851     1  0.0000000  0.6508444  3
   3845   3847   3849   3852     1  0.0000000  0.6508444  3
   3846   3845   3847   3848     1  0.0000000  0.6508444  3
   3846   3845   3847   3850     1  0.0000000  0.6508444  3
   3847   3845   3846   3856     1  0.0000000  0.6508444  3
   3847   3845   3846   3857     1  0.0000000  0.6508444  3
   3848   3847   3849   3853     1  0.0000000  0.6508444  3
   3848   3847   3849   3851     1  0.0000000  0.6508444  3
   3848   3847   3849   3852     1  0.0000000  0.6508444  3
   3848   3847   3845   3866     1  0.0000000  0.6508444  3
   3849   3853   3854   3864     1  180.0000771  9.6232000  2
   3849   3847   3845   3866     1  0.0000000  0.6508444  3
   3850   3847   3849   3853     1  0.0000000  0.6508444  3
   3850   3847   3849   3851     1  0.0000000  0.6508444  3
   3850   3847   3849   3852     1  0.0000000  0.6508444  3
   3850   3847   3845   3866     1  0.0000000  0.6508444  3
   3851   3849   3853   3854     1  180.0000771  0.0000000  2
   3851   3849   3853   3855     1  0.0000000  3.3472000  1
   3851   3849   3853   3855     1  0.0000000  0.0000000  2
   3851   3849   3853   3855     1  180.0000771  0.3347200  3
   3852   3849   3853   3854     1  180.0000771  0.0000000  2
   3852   3849   3853   3855     1  0.0000000  3.3472000  1
   3852   3849   3853   3855     1  0.0000000  0.0000000  2
   3852   3849   3853   3855     1  180.0000771  0.3347200  3
   3855   3853   3854   3864     1  0.0000000  7.9496000  1
   3855   3853   3854   3864     1  180.0000771  9.6232000  2
   3856   3846   3858   3861     1  0.0000000  0.6508444  3
   3856   3846   3858   3859     1  0.0000000  0.6508444  3
   3856   3846   3858   3860     1  0.0000000  0.6508444  3
   3856   3846   3845   3866     1  0.0000000  0.6508444  3
   3857   3846   3858   3861     1  0.0000000  0.6508444  3
   3857   3846   3858   3859     1  0.0000000  0.6508444  3
   3857   3846   3858   3860     1  0.0000000  0.6508444  3
   3857   3846   3845   3866     1  0.0000000  0.6508444  3
   3858   3861   3863   3865     1  180.0000771  9.6232000  2
   3858   3846   3845   3866     1  0.0000000  0.6508444  3
   3859   3858   3861   3862     1  0.0000000  3.3472000  1
   3859   3858   3861   3862     1  0.0000000  0.0000000  2
   3859   3858   3861   3862     1  180.0000771  0.3347200  3
   3859   3858   3861   3863     1  180.0000771  0.0000000  2
   3860   3858   3861   3862     1  0.0000000  3.3472000  1
   3860   3858   3861   3862     1  0.0000000  0.0000000  2
   3860   3858   3861   3862     1  180.0000771  0.3347200  3
   3860   3858   3861   3863     1  180.0000771  0.0000000  2
   3862   3861   3863   3865     1  0.0000000  7.9496000  1
   3862   3861   3863   3865     1  180.0000771  9.6232000  2
   3867   3869   3871   3873     1  0.0000000  0.6508444  3
   3867   3869   3871   3874     1  0.0000000  0.6508444  3
   3868   3867   3869   3871     1  0.0000000  0.0000000  2
   3868   3867   3869   3870     1  0.0000000  0.0000000  2
   3868   3867   3869   3872     1  0.0000000  0.0000000  2
   3869   3871   3875   3896     1  0.0000000  0.6508444  3
   3870   3869   3871   3875     1  0.0000000  0.6508444  3
   3870   3869   3871   3873     1  0.0000000  0.6508444  3
   3870   3869   3871   3874     1  0.0000000  0.6508444  3
   3871   3875   3876   3886     1  0.0000000  0.6508444  3
   3871   3875   3876   3887     1  0.0000000  0.6508444  3
   3871   3875   3877   3878     1  0.0000000  0.6508444  3
   3871   3875   3877   3880     1  0.0000000  0.6508444  3
   3872   3869   3871   3875     1  0.0000000  0.6508444  3
   3872   3869   3871   3873     1  0.0000000  0.6508444  3
   3872   3869   3871   3874     1  0.0000000  0.6508444  3
   3873   3871   3875   3876     1  0.0000000  0.6508444  3
   3873   3871   3875   3877     1  0.0000000  0.6508444  3
   3873   3871   3875   3896     1  0.0000000  0.6508444  3
   3874   3871   3875   3876     1  0.0000000  0.6508444  3
   3874   3871   3875   3877     1  0.0000000  0.6508444  3
   3874   3871   3875   3896     1  0.0000000  0.6508444  3
   3875   3876   3888   3889     1  0.0000000  0.6508444  3
   3875   3876   3888   3890     1  0.0000000  0.6508444  3
   3875   3877   3879   3881     1  0.0000000  0.6508444  3
   3875   3877   3879   3882     1  0.0000000  0.6508444  3
   3876   3875   3877   3878     1  0.0000000  0.6508444  3
   3876   3875   3877   3880     1  0.0000000  0.6508444  3
   3877   3875   3876   3886     1  0.0000000  0.6508444  3
   3877   3875   3876   3887     1  0.0000000  0.6508444  3
   3878   3877   3875   3896     1  0.0000000  0.6508444  3
   3878   3877   3879   3883     1  0.0000000  0.6508444  3
   3878   3877   3879   3881     1  0.0000000  0.6508444  3
   3878   3877   3879   3882     1  0.0000000  0.6508444  3
   3879   3877   3875   3896     1  0.0000000  0.6508444  3
   3879   3883   3884   3894     1  180.0000771  9.6232000  2
   3880   3877   3875   3896     1  0.0000000  0.6508444  3
   3880   3877   3879   3883     1  0.0000000  0.6508444  3
   3880   3877   3879   3881     1  0.0000000  0.6508444  3
   3880   3877   3879   3882     1  0.0000000  0.6508444  3
   3881   3879   3883   3884     1  180.0000771  0.0000000  2
   3881   3879   3883   3885     1  0.0000000  3.3472000  1
   3881   3879   3883   3885     1  0.0000000  0.0000000  2
   3881   3879   3883   3885     1  180.0000771  0.3347200  3
   3882   3879   3883   3884     1  180.0000771  0.0000000  2
   3882   3879   3883   3885     1  0.0000000  3.3472000  1
   3882   3879   3883   3885     1  0.0000000  0.0000000  2
   3882   3879   3883   3885     1  180.0000771  0.3347200  3
   3885   3883   3884   3894     1  0.0000000  7.9496000  1
   3885   3883   3884   3894     1  180.0000771  9.6232000  2
   3886   3876   3875   3896     1  0.0000000  0.6508444  3
   3886   3876   3888   3891     1  0.0000000  0.6508444  3
   3886   3876   3888   3889     1  0.0000000  0.6508444  3
   3886   3876   3888   3890     1  0.0000000  0.6508444  3
   3887   3876   3875   3896     1  0.0000000  0.6508444  3
   3887   3876   3888   3891     1  0.0000000  0.6508444  3
   3887   3876   3888   3889     1  0.0000000  0.6508444  3
   3887   3876   3888   3890     1  0.0000000  0.6508444  3
   3888   3876   3875   3896     1  0.0000000  0.6508444  3
   3888   3891   3893   3895     1  180.0000771  9.6232000  2
   3889   3888   3891   3892     1  0.0000000  3.3472000  1
   3889   3888   3891   3892     1  0.0000000  0.0000000  2
   3889   3888   3891   3892     1  180.0000771  0.3347200  3
   3889   3888   3891   3893     1  180.0000771  0.0000000  2
   3890   3888   3891   3892     1  0.0000000  3.3472000  1
   3890   3888   3891   3892     1  0.0000000  0.0000000  2
   3890   3888   3891   3892     1  180.0000771  0.3347200  3
   3890   3888   3891   3893     1  180.0000771  0.0000000  2
   3892   3891   3893   3895     1  0.0000000  7.9496000  1
   3892   3891   3893   3895     1  180.0000771  9.6232000  2
   3897   3899   3901   3903     1  0.0000000  0.6508444  3
   3897   3899   3901   3904     1  0.0000000  0.6508444  3
   3898   3897   3899   3901     1  0.0000000  0.0000000  2
   3898   3897   3899   3900     1  0.0000000  0.0000000  2
   3898   3897   3899   3902     1  0.0000000  0.0000000  2
   3899   3901   3905   3926     1  0.0000000  0.6508444  3
   3900   3899   3901   3905     1  0.0000000  0.6508444  3
   3900   3899   3901   3903     1  0.0000000  0.6508444  3
   3900   3899   3901   3904     1  0.0000000  0.6508444  3
   3901   3905   3906   3916     1  0.0000000  0.6508444  3
   3901   3905   3906   3917     1  0.0000000  0.6508444  3
   3901   3905   3907   3908     1  0.0000000  0.6508444  3
   3901   3905   3907   3910     1  0.0000000  0.6508444  3
   3902   3899   3901   3905     1  0.0000000  0.6508444  3
   3902   3899   3901   3903     1  0.0000000  0.6508444  3
   3902   3899   3901   3904     1  0.0000000  0.6508444  3
   3903   3901   3905   3906     1  0.0000000  0.6508444  3
   3903   3901   3905   3907     1  0.0000000  0.6508444  3
   3903   3901   3905   3926     1  0.0000000  0.6508444  3
   3904   3901   3905   3906     1  0.0000000  0.6508444  3
   3904   3901   3905   3907     1  0.0000000  0.6508444  3
   3904   3901   3905   3926     1  0.0000000  0.6508444  3
   3905   3906   3918   3919     1  0.0000000  0.6508444  3
   3905   3906   3918   3920     1  0.0000000  0.6508444  3
   3905   3907   3909   3911     1  0.0000000  0.6508444  3
   3905   3907   3909   3912     1  0.0000000  0.6508444  3
   3906   3905   3907   3908     1  0.0000000  0.6508444  3
   3906   3905   3907   3910     1  0.0000000  0.6508444  3
   3907   3905   3906   3916     1  0.0000000  0.6508444  3
   3907   3905   3906   3917     1  0.0000000  0.6508444  3
   3908   3907   3909   3913     1  0.0000000  0.6508444  3
   3908   3907   3909   3911     1  0.0000000  0.6508444  3
   3908   3907   3909   3912     1  0.0000000  0.6508444  3
   3908   3907   3905   3926     1  0.0000000  0.6508444  3
   3909   3913   3914   3924     1  180.0000771  9.6232000  2
   3909   3907   3905   3926     1  0.0000000  0.6508444  3
   3910   3907   3909   3913     1  0.0000000  0.6508444  3
   3910   3907   3909   3911     1  0.0000000  0.6508444  3
   3910   3907   3909   3912     1  0.0000000  0.6508444  3
   3910   3907   3905   3926     1  0.0000000  0.6508444  3
   3911   3909   3913   3914     1  180.0000771  0.0000000  2
   3911   3909   3913   3915     1  0.0000000  3.3472000  1
   3911   3909   3913   3915     1  0.0000000  0.0000000  2
   3911   3909   3913   3915     1  180.0000771  0.3347200  3
   3912   3909   3913   3914     1  180.0000771  0.0000000  2
   3912   3909   3913   3915     1  0.0000000  3.3472000  1
   3912   3909   3913   3915     1  0.0000000  0.0000000  2
   3912   3909   3913   3915     1  180.0000771  0.3347200  3
   3915   3913   3914   3924     1  0.0000000  7.9496000  1
   3915   3913   3914   3924     1  180.0000771  9.6232000  2
   3916   3906   3918   3921     1  0.0000000  0.6508444  3
   3916   3906   3918   3919     1  0.0000000  0.6508444  3
   3916   3906   3918   3920     1  0.0000000  0.6508444  3
   3916   3906   3905   3926     1  0.0000000  0.6508444  3
   3917   3906   3918   3921     1  0.0000000  0.6508444  3
   3917   3906   3918   3919     1  0.0000000  0.6508444  3
   3917   3906   3918   3920     1  0.0000000  0.6508444  3
   3917   3906   3905   3926     1  0.0000000  0.6508444  3
   3918   3921   3923   3925     1  180.0000771  9.6232000  2
   3918   3906   3905   3926     1  0.0000000  0.6508444  3
   3919   3918   3921   3922     1  0.0000000  3.3472000  1
   3919   3918   3921   3922     1  0.0000000  0.0000000  2
   3919   3918   3921   3922     1  180.0000771  0.3347200  3
   3919   3918   3921   3923     1  180.0000771  0.0000000  2
   3920   3918   3921   3922     1  0.0000000  3.3472000  1
   3920   3918   3921   3922     1  0.0000000  0.0000000  2
   3920   3918   3921   3922     1  180.0000771  0.3347200  3
   3920   3918   3921   3923     1  180.0000771  0.0000000  2
   3922   3921   3923   3925     1  0.0000000  7.9496000  1
   3922   3921   3923   3925     1  180.0000771  9.6232000  2
   3927   3929   3931   3933     1  0.0000000  0.6508444  3
   3927   3929   3931   3934     1  0.0000000  0.6508444  3
   3928   3927   3929   3931     1  0.0000000  0.0000000  2
   3928   3927   3929   3930     1  0.0000000  0.0000000  2
   3928   3927   3929   3932     1  0.0000000  0.0000000  2
   3929   3931   3935   3956     1  0.0000000  0.6508444  3
   3930   3929   3931   3935     1  0.0000000  0.6508444  3
   3930   3929   3931   3933     1  0.0000000  0.6508444  3
   3930   3929   3931   3934     1  0.0000000  0.6508444  3
   3931   3935   3936   3946     1  0.0000000  0.6508444  3
   3931   3935   3936   3947     1  0.0000000  0.6508444  3
   3931   3935   3937   3938     1  0.0000000  0.6508444  3
   3931   3935   3937   3940     1  0.0000000  0.6508444  3
   3932   3929   3931   3935     1  0.0000000  0.6508444  3
   3932   3929   3931   3933     1  0.0000000  0.6508444  3
   3932   3929   3931   3934     1  0.0000000  0.6508444  3
   3933   3931   3935   3936     1  0.0000000  0.6508444  3
   3933   3931   3935   3937     1  0.0000000  0.6508444  3
   3933   3931   3935   3956     1  0.0000000  0.6508444  3
   3934   3931   3935   3936     1  0.0000000  0.6508444  3
   3934   3931   3935   3937     1  0.0000000  0.6508444  3
   3934   3931   3935   3956     1  0.0000000  0.6508444  3
   3935   3936   3948   3949     1  0.0000000  0.6508444  3
   3935   3936   3948   3950     1  0.0000000  0.6508444  3
   3935   3937   3939   3941     1  0.0000000  0.6508444  3
   3935   3937   3939   3942     1  0.0000000  0.6508444  3
   3936   3935   3937   3938     1  0.0000000  0.6508444  3
   3936   3935   3937   3940     1  0.0000000  0.6508444  3
   3937   3935   3936   3946     1  0.0000000  0.6508444  3
   3937   3935   3936   3947     1  0.0000000  0.6508444  3
   3938   3937   3935   3956     1  0.0000000  0.6508444  3
   3938   3937   3939   3943     1  0.0000000  0.6508444  3
   3938   3937   3939   3941     1  0.0000000  0.6508444  3
   3938   3937   3939   3942     1  0.0000000  0.6508444  3
   3939   3937   3935   3956     1  0.0000000  0.6508444  3
   3939   3943   3944   3954     1  180.0000771  9.6232000  2
   3940   3937   3935   3956     1  0.0000000  0.6508444  3
   3940   3937   3939   3943     1  0.0000000  0.6508444  3
   3940   3937   3939   3941     1  0.0000000  0.6508444  3
   3940   3937   3939   3942     1  0.0000000  0.6508444  3
   3941   3939   3943   3944     1  180.0000771  0.0000000  2
   3941   3939   3943   3945     1  0.0000000  3.3472000  1
   3941   3939   3943   3945     1  0.0000000  0.0000000  2
   3941   3939   3943   3945     1  180.0000771  0.3347200  3
   3942   3939   3943   3944     1  180.0000771  0.0000000  2
   3942   3939   3943   3945     1  0.0000000  3.3472000  1
   3942   3939   3943   3945     1  0.0000000  0.0000000  2
   3942   3939   3943   3945     1  180.0000771  0.3347200  3
   3945   3943   3944   3954     1  0.0000000  7.9496000  1
   3945   3943   3944   3954     1  180.0000771  9.6232000  2
   3946   3936   3935   3956     1  0.0000000  0.6508444  3
   3946   3936   3948   3951     1  0.0000000  0.6508444  3
   3946   3936   3948   3949     1  0.0000000  0.6508444  3
   3946   3936   3948   3950     1  0.0000000  0.6508444  3
   3947   3936   3935   3956     1  0.0000000  0.6508444  3
   3947   3936   3948   3951     1  0.0000000  0.6508444  3
   3947   3936   3948   3949     1  0.0000000  0.6508444  3
   3947   3936   3948   3950     1  0.0000000  0.6508444  3
   3948   3936   3935   3956     1  0.0000000  0.6508444  3
   3948   3951   3953   3955     1  180.0000771  9.6232000  2
   3949   3948   3951   3952     1  0.0000000  3.3472000  1
   3949   3948   3951   3952     1  0.0000000  0.0000000  2
   3949   3948   3951   3952     1  180.0000771  0.3347200  3
   3949   3948   3951   3953     1  180.0000771  0.0000000  2
   3950   3948   3951   3952     1  0.0000000  3.3472000  1
   3950   3948   3951   3952     1  0.0000000  0.0000000  2
   3950   3948   3951   3952     1  180.0000771  0.3347200  3
   3950   3948   3951   3953     1  180.0000771  0.0000000  2
   3952   3951   3953   3955     1  0.0000000  7.9496000  1
   3952   3951   3953   3955     1  180.0000771  9.6232000  2
   3957   3959   3961   3963     1  0.0000000  0.6508444  3
   3957   3959   3961   3964     1  0.0000000  0.6508444  3
   3958   3957   3959   3961     1  0.0000000  0.0000000  2
   3958   3957   3959   3960     1  0.0000000  0.0000000  2
   3958   3957   3959   3962     1  0.0000000  0.0000000  2
   3959   3961   3965   3986     1  0.0000000  0.6508444  3
   3960   3959   3961   3965     1  0.0000000  0.6508444  3
   3960   3959   3961   3963     1  0.0000000  0.6508444  3
   3960   3959   3961   3964     1  0.0000000  0.6508444  3
   3961   3965   3966   3976     1  0.0000000  0.6508444  3
   3961   3965   3966   3977     1  0.0000000  0.6508444  3
   3961   3965   3967   3968     1  0.0000000  0.6508444  3
   3961   3965   3967   3970     1  0.0000000  0.6508444  3
   3962   3959   3961   3965     1  0.0000000  0.6508444  3
   3962   3959   3961   3963     1  0.0000000  0.6508444  3
   3962   3959   3961   3964     1  0.0000000  0.6508444  3
   3963   3961   3965   3966     1  0.0000000  0.6508444  3
   3963   3961   3965   3967     1  0.0000000  0.6508444  3
   3963   3961   3965   3986     1  0.0000000  0.6508444  3
   3964   3961   3965   3966     1  0.0000000  0.6508444  3
   3964   3961   3965   3967     1  0.0000000  0.6508444  3
   3964   3961   3965   3986     1  0.0000000  0.6508444  3
   3965   3966   3978   3979     1  0.0000000  0.6508444  3
   3965   3966   3978   3980     1  0.0000000  0.6508444  3
   3965   3967   3969   3971     1  0.0000000  0.6508444  3
   3965   3967   3969   3972     1  0.0000000  0.6508444  3
   3966   3965   3967   3968     1  0.0000000  0.6508444  3
   3966   3965   3967   3970     1  0.0000000  0.6508444  3
   3967   3965   3966   3976     1  0.0000000  0.6508444  3
   3967   3965   3966   3977     1  0.0000000  0.6508444  3
   3968   3967   3969   3973     1  0.0000000  0.6508444  3
   3968   3967   3969   3971     1  0.0000000  0.6508444  3
   3968   3967   3969   3972     1  0.0000000  0.6508444  3
   3968   3967   3965   3986     1  0.0000000  0.6508444  3
   3969   3973   3974   3984     1  180.0000771  9.6232000  2
   3969   3967   3965   3986     1  0.0000000  0.6508444  3
   3970   3967   3969   3973     1  0.0000000  0.6508444  3
   3970   3967   3969   3971     1  0.0000000  0.6508444  3
   3970   3967   3969   3972     1  0.0000000  0.6508444  3
   3970   3967   3965   3986     1  0.0000000  0.6508444  3
   3971   3969   3973   3974     1  180.0000771  0.0000000  2
   3971   3969   3973   3975     1  0.0000000  3.3472000  1
   3971   3969   3973   3975     1  0.0000000  0.0000000  2
   3971   3969   3973   3975     1  180.0000771  0.3347200  3
   3972   3969   3973   3974     1  180.0000771  0.0000000  2
   3972   3969   3973   3975     1  0.0000000  3.3472000  1
   3972   3969   3973   3975     1  0.0000000  0.0000000  2
   3972   3969   3973   3975     1  180.0000771  0.3347200  3
   3975   3973   3974   3984     1  0.0000000  7.9496000  1
   3975   3973   3974   3984     1  180.0000771  9.6232000  2
   3976   3966   3978   3981     1  0.0000000  0.6508444  3
   3976   3966   3978   3979     1  0.0000000  0.6508444  3
   3976   3966   3978   3980     1  0.0000000  0.6508444  3
   3976   3966   3965   3986     1  0.0000000  0.6508444  3
   3977   3966   3978   3981     1  0.0000000  0.6508444  3
   3977   3966   3978   3979     1  0.0000000  0.6508444  3
   3977   3966   3978   3980     1  0.0000000  0.6508444  3
   3977   3966   3965   3986     1  0.0000000  0.6508444  3
   3978   3981   3983   3985     1  180.0000771  9.6232000  2
   3978   3966   3965   3986     1  0.0000000  0.6508444  3
   3979   3978   3981   3982     1  0.0000000  3.3472000  1
   3979   3978   3981   3982     1  0.0000000  0.0000000  2
   3979   3978   3981   3982     1  180.0000771  0.3347200  3
   3979   3978   3981   3983     1  180.0000771  0.0000000  2
   3980   3978   3981   3982     1  0.0000000  3.3472000  1
   3980   3978   3981   3982     1  0.0000000  0.0000000  2
   3980   3978   3981   3982     1  180.0000771  0.3347200  3
   3980   3978   3981   3983     1  180.0000771  0.0000000  2
   3982   3981   3983   3985     1  0.0000000  7.9496000  1
   3982   3981   3983   3985     1  180.0000771  9.6232000  2
   3987   3989   3991   3993     1  0.0000000  0.6508444  3
   3987   3989   3991   3994     1  0.0000000  0.6508444  3
   3988   3987   3989   3991     1  0.0000000  0.0000000  2
   3988   3987   3989   3990     1  0.0000000  0.0000000  2
   3988   3987   3989   3992     1  0.0000000  0.0000000  2
   3989   3991   3995   4016     1  0.0000000  0.6508444  3
   3990   3989   3991   3995     1  0.0000000  0.6508444  3
   3990   3989   3991   3993     1  0.0000000  0.6508444  3
   3990   3989   3991   3994     1  0.0000000  0.6508444  3
   3991   3995   3996   4006     1  0.0000000  0.6508444  3
   3991   3995   3996   4007     1  0.0000000  0.6508444  3
   3991   3995   3997   3998     1  0.0000000  0.6508444  3
   3991   3995   3997   4000     1  0.0000000  0.6508444  3
   3992   3989   3991   3995     1  0.0000000  0.6508444  3
   3992   3989   3991   3993     1  0.0000000  0.6508444  3
   3992   3989   3991   3994     1  0.0000000  0.6508444  3
   3993   3991   3995   3996     1  0.0000000  0.6508444  3
   3993   3991   3995   3997     1  0.0000000  0.6508444  3
   3993   3991   3995   4016     1  0.0000000  0.6508444  3
   3994   3991   3995   3996     1  0.0000000  0.6508444  3
   3994   3991   3995   3997     1  0.0000000  0.6508444  3
   3994   3991   3995   4016     1  0.0000000  0.6508444  3
   3995   3996   4008   4009     1  0.0000000  0.6508444  3
   3995   3996   4008   4010     1  0.0000000  0.6508444  3
   3995   3997   3999   4001     1  0.0000000  0.6508444  3
   3995   3997   3999   4002     1  0.0000000  0.6508444  3
   3996   3995   3997   3998     1  0.0000000  0.6508444  3
   3996   3995   3997   4000     1  0.0000000  0.6508444  3
   3997   3995   3996   4006     1  0.0000000  0.6508444  3
   3997   3995   3996   4007     1  0.0000000  0.6508444  3
   3998   3997   3995   4016     1  0.0000000  0.6508444  3
   3998   3997   3999   4003     1  0.0000000  0.6508444  3
   3998   3997   3999   4001     1  0.0000000  0.6508444  3
   3998   3997   3999   4002     1  0.0000000  0.6508444  3
   3999   3997   3995   4016     1  0.0000000  0.6508444  3
   3999   4003   4004   4014     1  180.0000771  9.6232000  2
   4000   3997   3995   4016     1  0.0000000  0.6508444  3
   4000   3997   3999   4003     1  0.0000000  0.6508444  3
   4000   3997   3999   4001     1  0.0000000  0.6508444  3
   4000   3997   3999   4002     1  0.0000000  0.6508444  3
   4001   3999   4003   4004     1  180.0000771  0.0000000  2
   4001   3999   4003   4005     1  0.0000000  3.3472000  1
   4001   3999   4003   4005     1  0.0000000  0.0000000  2
   4001   3999   4003   4005     1  180.0000771  0.3347200  3
   4002   3999   4003   4004     1  180.0000771  0.0000000  2
   4002   3999   4003   4005     1  0.0000000  3.3472000  1
   4002   3999   4003   4005     1  0.0000000  0.0000000  2
   4002   3999   4003   4005     1  180.0000771  0.3347200  3
   4005   4003   4004   4014     1  0.0000000  7.9496000  1
   4005   4003   4004   4014     1  180.0000771  9.6232000  2
   4006   3996   3995   4016     1  0.0000000  0.6508444  3
   4006   3996   4008   4011     1  0.0000000  0.6508444  3
   4006   3996   4008   4009     1  0.0000000  0.6508444  3
   4006   3996   4008   4010     1  0.0000000  0.6508444  3
   4007   3996   3995   4016     1  0.0000000  0.6508444  3
   4007   3996   4008   4011     1  0.0000000  0.6508444  3
   4007   3996   4008   4009     1  0.0000000  0.6508444  3
   4007   3996   4008   4010     1  0.0000000  0.6508444  3
   4008   3996   3995   4016     1  0.0000000  0.6508444  3
   4008   4011   4013   4015     1  180.0000771  9.6232000  2
   4009   4008   4011   4012     1  0.0000000  3.3472000  1
   4009   4008   4011   4012     1  0.0000000  0.0000000  2
   4009   4008   4011   4012     1  180.0000771  0.3347200  3
   4009   4008   4011   4013     1  180.0000771  0.0000000  2
   4010   4008   4011   4012     1  0.0000000  3.3472000  1
   4010   4008   4011   4012     1  0.0000000  0.0000000  2
   4010   4008   4011   4012     1  180.0000771  0.3347200  3
   4010   4008   4011   4013     1  180.0000771  0.0000000  2
   4012   4011   4013   4015     1  0.0000000  7.9496000  1
   4012   4011   4013   4015     1  180.0000771  9.6232000  2
   4017   4019   4021   4023     1  0.0000000  0.6508444  3
   4017   4019   4021   4024     1  0.0000000  0.6508444  3
   4018   4017   4019   4021     1  0.0000000  0.0000000  2
   4018   4017   4019   4020     1  0.0000000  0.0000000  2
   4018   4017   4019   4022     1  0.0000000  0.0000000  2
   4019   4021   4025   4046     1  0.0000000  0.6508444  3
   4020   4019   4021   4025     1  0.0000000  0.6508444  3
   4020   4019   4021   4023     1  0.0000000  0.6508444  3
   4020   4019   4021   4024     1  0.0000000  0.6508444  3
   4021   4025   4026   4036     1  0.0000000  0.6508444  3
   4021   4025   4026   4037     1  0.0000000  0.6508444  3
   4021   4025   4027   4028     1  0.0000000  0.6508444  3
   4021   4025   4027   4030     1  0.0000000  0.6508444  3
   4022   4019   4021   4025     1  0.0000000  0.6508444  3
   4022   4019   4021   4023     1  0.0000000  0.6508444  3
   4022   4019   4021   4024     1  0.0000000  0.6508444  3
   4023   4021   4025   4026     1  0.0000000  0.6508444  3
   4023   4021   4025   4027     1  0.0000000  0.6508444  3
   4023   4021   4025   4046     1  0.0000000  0.6508444  3
   4024   4021   4025   4026     1  0.0000000  0.6508444  3
   4024   4021   4025   4027     1  0.0000000  0.6508444  3
   4024   4021   4025   4046     1  0.0000000  0.6508444  3
   4025   4026   4038   4039     1  0.0000000  0.6508444  3
   4025   4026   4038   4040     1  0.0000000  0.6508444  3
   4025   4027   4029   4031     1  0.0000000  0.6508444  3
   4025   4027   4029   4032     1  0.0000000  0.6508444  3
   4026   4025   4027   4028     1  0.0000000  0.6508444  3
   4026   4025   4027   4030     1  0.0000000  0.6508444  3
   4027   4025   4026   4036     1  0.0000000  0.6508444  3
   4027   4025   4026   4037     1  0.0000000  0.6508444  3
   4028   4027   4029   4033     1  0.0000000  0.6508444  3
   4028   4027   4029   4031     1  0.0000000  0.6508444  3
   4028   4027   4029   4032     1  0.0000000  0.6508444  3
   4028   4027   4025   4046     1  0.0000000  0.6508444  3
   4029   4033   4034   4044     1  180.0000771  9.6232000  2
   4029   4027   4025   4046     1  0.0000000  0.6508444  3
   4030   4027   4029   4033     1  0.0000000  0.6508444  3
   4030   4027   4029   4031     1  0.0000000  0.6508444  3
   4030   4027   4029   4032     1  0.0000000  0.6508444  3
   4030   4027   4025   4046     1  0.0000000  0.6508444  3
   4031   4029   4033   4034     1  180.0000771  0.0000000  2
   4031   4029   4033   4035     1  0.0000000  3.3472000  1
   4031   4029   4033   4035     1  0.0000000  0.0000000  2
   4031   4029   4033   4035     1  180.0000771  0.3347200  3
   4032   4029   4033   4034     1  180.0000771  0.0000000  2
   4032   4029   4033   4035     1  0.0000000  3.3472000  1
   4032   4029   4033   4035     1  0.0000000  0.0000000  2
   4032   4029   4033   4035     1  180.0000771  0.3347200  3
   4035   4033   4034   4044     1  0.0000000  7.9496000  1
   4035   4033   4034   4044     1  180.0000771  9.6232000  2
   4036   4026   4038   4041     1  0.0000000  0.6508444  3
   4036   4026   4038   4039     1  0.0000000  0.6508444  3
   4036   4026   4038   4040     1  0.0000000  0.6508444  3
   4036   4026   4025   4046     1  0.0000000  0.6508444  3
   4037   4026   4038   4041     1  0.0000000  0.6508444  3
   4037   4026   4038   4039     1  0.0000000  0.6508444  3
   4037   4026   4038   4040     1  0.0000000  0.6508444  3
   4037   4026   4025   4046     1  0.0000000  0.6508444  3
   4038   4041   4043   4045     1  180.0000771  9.6232000  2
   4038   4026   4025   4046     1  0.0000000  0.6508444  3
   4039   4038   4041   4042     1  0.0000000  3.3472000  1
   4039   4038   4041   4042     1  0.0000000  0.0000000  2
   4039   4038   4041   4042     1  180.0000771  0.3347200  3
   4039   4038   4041   4043     1  180.0000771  0.0000000  2
   4040   4038   4041   4042     1  0.0000000  3.3472000  1
   4040   4038   4041   4042     1  0.0000000  0.0000000  2
   4040   4038   4041   4042     1  180.0000771  0.3347200  3
   4040   4038   4041   4043     1  180.0000771  0.0000000  2
   4042   4041   4043   4045     1  0.0000000  7.9496000  1
   4042   4041   4043   4045     1  180.0000771  9.6232000  2
   4047   4049   4051   4053     1  0.0000000  0.6508444  3
   4047   4049   4051   4054     1  0.0000000  0.6508444  3
   4048   4047   4049   4051     1  0.0000000  0.0000000  2
   4048   4047   4049   4050     1  0.0000000  0.0000000  2
   4048   4047   4049   4052     1  0.0000000  0.0000000  2
   4049   4051   4055   4076     1  0.0000000  0.6508444  3
   4050   4049   4051   4055     1  0.0000000  0.6508444  3
   4050   4049   4051   4053     1  0.0000000  0.6508444  3
   4050   4049   4051   4054     1  0.0000000  0.6508444  3
   4051   4055   4056   4066     1  0.0000000  0.6508444  3
   4051   4055   4056   4067     1  0.0000000  0.6508444  3
   4051   4055   4057   4058     1  0.0000000  0.6508444  3
   4051   4055   4057   4060     1  0.0000000  0.6508444  3
   4052   4049   4051   4055     1  0.0000000  0.6508444  3
   4052   4049   4051   4053     1  0.0000000  0.6508444  3
   4052   4049   4051   4054     1  0.0000000  0.6508444  3
   4053   4051   4055   4056     1  0.0000000  0.6508444  3
   4053   4051   4055   4057     1  0.0000000  0.6508444  3
   4053   4051   4055   4076     1  0.0000000  0.6508444  3
   4054   4051   4055   4056     1  0.0000000  0.6508444  3
   4054   4051   4055   4057     1  0.0000000  0.6508444  3
   4054   4051   4055   4076     1  0.0000000  0.6508444  3
   4055   4056   4068   4069     1  0.0000000  0.6508444  3
   4055   4056   4068   4070     1  0.0000000  0.6508444  3
   4055   4057   4059   4061     1  0.0000000  0.6508444  3
   4055   4057   4059   4062     1  0.0000000  0.6508444  3
   4056   4055   4057   4058     1  0.0000000  0.6508444  3
   4056   4055   4057   4060     1  0.0000000  0.6508444  3
   4057   4055   4056   4066     1  0.0000000  0.6508444  3
   4057   4055   4056   4067     1  0.0000000  0.6508444  3
   4058   4057   4055   4076     1  0.0000000  0.6508444  3
   4058   4057   4059   4063     1  0.0000000  0.6508444  3
   4058   4057   4059   4061     1  0.0000000  0.6508444  3
   4058   4057   4059   4062     1  0.0000000  0.6508444  3
   4059   4057   4055   4076     1  0.0000000  0.6508444  3
   4059   4063   4064   4074     1  180.0000771  9.6232000  2
   4060   4057   4055   4076     1  0.0000000  0.6508444  3
   4060   4057   4059   4063     1  0.0000000  0.6508444  3
   4060   4057   4059   4061     1  0.0000000  0.6508444  3
   4060   4057   4059   4062     1  0.0000000  0.6508444  3
   4061   4059   4063   4064     1  180.0000771  0.0000000  2
   4061   4059   4063   4065     1  0.0000000  3.3472000  1
   4061   4059   4063   4065     1  0.0000000  0.0000000  2
   4061   4059   4063   4065     1  180.0000771  0.3347200  3
   4062   4059   4063   4064     1  180.0000771  0.0000000  2
   4062   4059   4063   4065     1  0.0000000  3.3472000  1
   4062   4059   4063   4065     1  0.0000000  0.0000000  2
   4062   4059   4063   4065     1  180.0000771  0.3347200  3
   4065   4063   4064   4074     1  0.0000000  7.9496000  1
   4065   4063   4064   4074     1  180.0000771  9.6232000  2
   4066   4056   4055   4076     1  0.0000000  0.6508444  3
   4066   4056   4068   4071     1  0.0000000  0.6508444  3
   4066   4056   4068   4069     1  0.0000000  0.6508444  3
   4066   4056   4068   4070     1  0.0000000  0.6508444  3
   4067   4056   4055   4076     1  0.0000000  0.6508444  3
   4067   4056   4068   4071     1  0.0000000  0.6508444  3
   4067   4056   4068   4069     1  0.0000000  0.6508444  3
   4067   4056   4068   4070     1  0.0000000  0.6508444  3
   4068   4056   4055   4076     1  0.0000000  0.6508444  3
   4068   4071   4073   4075     1  180.0000771  9.6232000  2
   4069   4068   4071   4072     1  0.0000000  3.3472000  1
   4069   4068   4071   4072     1  0.0000000  0.0000000  2
   4069   4068   4071   4072     1  180.0000771  0.3347200  3
   4069   4068   4071   4073     1  180.0000771  0.0000000  2
   4070   4068   4071   4072     1  0.0000000  3.3472000  1
   4070   4068   4071   4072     1  0.0000000  0.0000000  2
   4070   4068   4071   4072     1  180.0000771  0.3347200  3
   4070   4068   4071   4073     1  180.0000771  0.0000000  2
   4072   4071   4073   4075     1  0.0000000  7.9496000  1
   4072   4071   4073   4075     1  180.0000771  9.6232000  2
   4077   4079   4081   4083     1  0.0000000  0.6508444  3
   4077   4079   4081   4084     1  0.0000000  0.6508444  3
   4078   4077   4079   4081     1  0.0000000  0.0000000  2
   4078   4077   4079   4080     1  0.0000000  0.0000000  2
   4078   4077   4079   4082     1  0.0000000  0.0000000  2
   4079   4081   4085   4106     1  0.0000000  0.6508444  3
   4080   4079   4081   4085     1  0.0000000  0.6508444  3
   4080   4079   4081   4083     1  0.0000000  0.6508444  3
   4080   4079   4081   4084     1  0.0000000  0.6508444  3
   4081   4085   4086   4096     1  0.0000000  0.6508444  3
   4081   4085   4086   4097     1  0.0000000  0.6508444  3
   4081   4085   4087   4088     1  0.0000000  0.6508444  3
   4081   4085   4087   4090     1  0.0000000  0.6508444  3
   4082   4079   4081   4085     1  0.0000000  0.6508444  3
   4082   4079   4081   4083     1  0.0000000  0.6508444  3
   4082   4079   4081   4084     1  0.0000000  0.6508444  3
   4083   4081   4085   4086     1  0.0000000  0.6508444  3
   4083   4081   4085   4087     1  0.0000000  0.6508444  3
   4083   4081   4085   4106     1  0.0000000  0.6508444  3
   4084   4081   4085   4086     1  0.0000000  0.6508444  3
   4084   4081   4085   4087     1  0.0000000  0.6508444  3
   4084   4081   4085   4106     1  0.0000000  0.6508444  3
   4085   4086   4098   4099     1  0.0000000  0.6508444  3
   4085   4086   4098   4100     1  0.0000000  0.6508444  3
   4085   4087   4089   4091     1  0.0000000  0.6508444  3
   4085   4087   4089   4092     1  0.0000000  0.6508444  3
   4086   4085   4087   4088     1  0.0000000  0.6508444  3
   4086   4085   4087   4090     1  0.0000000  0.6508444  3
   4087   4085   4086   4096     1  0.0000000  0.6508444  3
   4087   4085   4086   4097     1  0.0000000  0.6508444  3
   4088   4087   4089   4093     1  0.0000000  0.6508444  3
   4088   4087   4089   4091     1  0.0000000  0.6508444  3
   4088   4087   4089   4092     1  0.0000000  0.6508444  3
   4088   4087   4085   4106     1  0.0000000  0.6508444  3
   4089   4093   4094   4104     1  180.0000771  9.6232000  2
   4089   4087   4085   4106     1  0.0000000  0.6508444  3
   4090   4087   4089   4093     1  0.0000000  0.6508444  3
   4090   4087   4089   4091     1  0.0000000  0.6508444  3
   4090   4087   4089   4092     1  0.0000000  0.6508444  3
   4090   4087   4085   4106     1  0.0000000  0.6508444  3
   4091   4089   4093   4094     1  180.0000771  0.0000000  2
   4091   4089   4093   4095     1  0.0000000  3.3472000  1
   4091   4089   4093   4095     1  0.0000000  0.0000000  2
   4091   4089   4093   4095     1  180.0000771  0.3347200  3
   4092   4089   4093   4094     1  180.0000771  0.0000000  2
   4092   4089   4093   4095     1  0.0000000  3.3472000  1
   4092   4089   4093   4095     1  0.0000000  0.0000000  2
   4092   4089   4093   4095     1  180.0000771  0.3347200  3
   4095   4093   4094   4104     1  0.0000000  7.9496000  1
   4095   4093   4094   4104     1  180.0000771  9.6232000  2
   4096   4086   4098   4101     1  0.0000000  0.6508444  3
   4096   4086   4098   4099     1  0.0000000  0.6508444  3
   4096   4086   4098   4100     1  0.0000000  0.6508444  3
   4096   4086   4085   4106     1  0.0000000  0.6508444  3
   4097   4086   4098   4101     1  0.0000000  0.6508444  3
   4097   4086   4098   4099     1  0.0000000  0.6508444  3
   4097   4086   4098   4100     1  0.0000000  0.6508444  3
   4097   4086   4085   4106     1  0.0000000  0.6508444  3
   4098   4101   4103   4105     1  180.0000771  9.6232000  2
   4098   4086   4085   4106     1  0.0000000  0.6508444  3
   4099   4098   4101   4102     1  0.0000000  3.3472000  1
   4099   4098   4101   4102     1  0.0000000  0.0000000  2
   4099   4098   4101   4102     1  180.0000771  0.3347200  3
   4099   4098   4101   4103     1  180.0000771  0.0000000  2
   4100   4098   4101   4102     1  0.0000000  3.3472000  1
   4100   4098   4101   4102     1  0.0000000  0.0000000  2
   4100   4098   4101   4102     1  180.0000771  0.3347200  3
   4100   4098   4101   4103     1  180.0000771  0.0000000  2
   4102   4101   4103   4105     1  0.0000000  7.9496000  1
   4102   4101   4103   4105     1  180.0000771  9.6232000  2
   4107   4109   4111   4113     1  0.0000000  0.6508444  3
   4107   4109   4111   4114     1  0.0000000  0.6508444  3
   4108   4107   4109   4111     1  0.0000000  0.0000000  2
   4108   4107   4109   4110     1  0.0000000  0.0000000  2
   4108   4107   4109   4112     1  0.0000000  0.0000000  2
   4109   4111   4115   4136     1  0.0000000  0.6508444  3
   4110   4109   4111   4115     1  0.0000000  0.6508444  3
   4110   4109   4111   4113     1  0.0000000  0.6508444  3
   4110   4109   4111   4114     1  0.0000000  0.6508444  3
   4111   4115   4116   4126     1  0.0000000  0.6508444  3
   4111   4115   4116   4127     1  0.0000000  0.6508444  3
   4111   4115   4117   4118     1  0.0000000  0.6508444  3
   4111   4115   4117   4120     1  0.0000000  0.6508444  3
   4112   4109   4111   4115     1  0.0000000  0.6508444  3
   4112   4109   4111   4113     1  0.0000000  0.6508444  3
   4112   4109   4111   4114     1  0.0000000  0.6508444  3
   4113   4111   4115   4116     1  0.0000000  0.6508444  3
   4113   4111   4115   4117     1  0.0000000  0.6508444  3
   4113   4111   4115   4136     1  0.0000000  0.6508444  3
   4114   4111   4115   4116     1  0.0000000  0.6508444  3
   4114   4111   4115   4117     1  0.0000000  0.6508444  3
   4114   4111   4115   4136     1  0.0000000  0.6508444  3
   4115   4116   4128   4129     1  0.0000000  0.6508444  3
   4115   4116   4128   4130     1  0.0000000  0.6508444  3
   4115   4117   4119   4121     1  0.0000000  0.6508444  3
   4115   4117   4119   4122     1  0.0000000  0.6508444  3
   4116   4115   4117   4118     1  0.0000000  0.6508444  3
   4116   4115   4117   4120     1  0.0000000  0.6508444  3
   4117   4115   4116   4126     1  0.0000000  0.6508444  3
   4117   4115   4116   4127     1  0.0000000  0.6508444  3
   4118   4117   4115   4136     1  0.0000000  0.6508444  3
   4118   4117   4119   4123     1  0.0000000  0.6508444  3
   4118   4117   4119   4121     1  0.0000000  0.6508444  3
   4118   4117   4119   4122     1  0.0000000  0.6508444  3
   4119   4117   4115   4136     1  0.0000000  0.6508444  3
   4119   4123   4124   4134     1  180.0000771  9.6232000  2
   4120   4117   4115   4136     1  0.0000000  0.6508444  3
   4120   4117   4119   4123     1  0.0000000  0.6508444  3
   4120   4117   4119   4121     1  0.0000000  0.6508444  3
   4120   4117   4119   4122     1  0.0000000  0.6508444  3
   4121   4119   4123   4124     1  180.0000771  0.0000000  2
   4121   4119   4123   4125     1  0.0000000  3.3472000  1
   4121   4119   4123   4125     1  0.0000000  0.0000000  2
   4121   4119   4123   4125     1  180.0000771  0.3347200  3
   4122   4119   4123   4124     1  180.0000771  0.0000000  2
   4122   4119   4123   4125     1  0.0000000  3.3472000  1
   4122   4119   4123   4125     1  0.0000000  0.0000000  2
   4122   4119   4123   4125     1  180.0000771  0.3347200  3
   4125   4123   4124   4134     1  0.0000000  7.9496000  1
   4125   4123   4124   4134     1  180.0000771  9.6232000  2
   4126   4116   4115   4136     1  0.0000000  0.6508444  3
   4126   4116   4128   4131     1  0.0000000  0.6508444  3
   4126   4116   4128   4129     1  0.0000000  0.6508444  3
   4126   4116   4128   4130     1  0.0000000  0.6508444  3
   4127   4116   4115   4136     1  0.0000000  0.6508444  3
   4127   4116   4128   4131     1  0.0000000  0.6508444  3
   4127   4116   4128   4129     1  0.0000000  0.6508444  3
   4127   4116   4128   4130     1  0.0000000  0.6508444  3
   4128   4116   4115   4136     1  0.0000000  0.6508444  3
   4128   4131   4133   4135     1  180.0000771  9.6232000  2
   4129   4128   4131   4132     1  0.0000000  3.3472000  1
   4129   4128   4131   4132     1  0.0000000  0.0000000  2
   4129   4128   4131   4132     1  180.0000771  0.3347200  3
   4129   4128   4131   4133     1  180.0000771  0.0000000  2
   4130   4128   4131   4132     1  0.0000000  3.3472000  1
   4130   4128   4131   4132     1  0.0000000  0.0000000  2
   4130   4128   4131   4132     1  180.0000771  0.3347200  3
   4130   4128   4131   4133     1  180.0000771  0.0000000  2
   4132   4131   4133   4135     1  0.0000000  7.9496000  1
   4132   4131   4133   4135     1  180.0000771  9.6232000  2
   4137   4139   4141   4143     1  0.0000000  0.6508444  3
   4137   4139   4141   4144     1  0.0000000  0.6508444  3
   4138   4137   4139   4141     1  0.0000000  0.0000000  2
   4138   4137   4139   4140     1  0.0000000  0.0000000  2
   4138   4137   4139   4142     1  0.0000000  0.0000000  2
   4139   4141   4145   4166     1  0.0000000  0.6508444  3
   4140   4139   4141   4145     1  0.0000000  0.6508444  3
   4140   4139   4141   4143     1  0.0000000  0.6508444  3
   4140   4139   4141   4144     1  0.0000000  0.6508444  3
   4141   4145   4146   4156     1  0.0000000  0.6508444  3
   4141   4145   4146   4157     1  0.0000000  0.6508444  3
   4141   4145   4147   4148     1  0.0000000  0.6508444  3
   4141   4145   4147   4150     1  0.0000000  0.6508444  3
   4142   4139   4141   4145     1  0.0000000  0.6508444  3
   4142   4139   4141   4143     1  0.0000000  0.6508444  3
   4142   4139   4141   4144     1  0.0000000  0.6508444  3
   4143   4141   4145   4146     1  0.0000000  0.6508444  3
   4143   4141   4145   4147     1  0.0000000  0.6508444  3
   4143   4141   4145   4166     1  0.0000000  0.6508444  3
   4144   4141   4145   4146     1  0.0000000  0.6508444  3
   4144   4141   4145   4147     1  0.0000000  0.6508444  3
   4144   4141   4145   4166     1  0.0000000  0.6508444  3
   4145   4146   4158   4159     1  0.0000000  0.6508444  3
   4145   4146   4158   4160     1  0.0000000  0.6508444  3
   4145   4147   4149   4151     1  0.0000000  0.6508444  3
   4145   4147   4149   4152     1  0.0000000  0.6508444  3
   4146   4145   4147   4148     1  0.0000000  0.6508444  3
   4146   4145   4147   4150     1  0.0000000  0.6508444  3
   4147   4145   4146   4156     1  0.0000000  0.6508444  3
   4147   4145   4146   4157     1  0.0000000  0.6508444  3
   4148   4147   4149   4153     1  0.0000000  0.6508444  3
   4148   4147   4149   4151     1  0.0000000  0.6508444  3
   4148   4147   4149   4152     1  0.0000000  0.6508444  3
   4148   4147   4145   4166     1  0.0000000  0.6508444  3
   4149   4153   4154   4164     1  180.0000771  9.6232000  2
   4149   4147   4145   4166     1  0.0000000  0.6508444  3
   4150   4147   4149   4153     1  0.0000000  0.6508444  3
   4150   4147   4149   4151     1  0.0000000  0.6508444  3
   4150   4147   4149   4152     1  0.0000000  0.6508444  3
   4150   4147   4145   4166     1  0.0000000  0.6508444  3
   4151   4149   4153   4154     1  180.0000771  0.0000000  2
   4151   4149   4153   4155     1  0.0000000  3.3472000  1
   4151   4149   4153   4155     1  0.0000000  0.0000000  2
   4151   4149   4153   4155     1  180.0000771  0.3347200  3
   4152   4149   4153   4154     1  180.0000771  0.0000000  2
   4152   4149   4153   4155     1  0.0000000  3.3472000  1
   4152   4149   4153   4155     1  0.0000000  0.0000000  2
   4152   4149   4153   4155     1  180.0000771  0.3347200  3
   4155   4153   4154   4164     1  0.0000000  7.9496000  1
   4155   4153   4154   4164     1  180.0000771  9.6232000  2
   4156   4146   4158   4161     1  0.0000000  0.6508444  3
   4156   4146   4158   4159     1  0.0000000  0.6508444  3
   4156   4146   4158   4160     1  0.0000000  0.6508444  3
   4156   4146   4145   4166     1  0.0000000  0.6508444  3
   4157   4146   4158   4161     1  0.0000000  0.6508444  3
   4157   4146   4158   4159     1  0.0000000  0.6508444  3
   4157   4146   4158   4160     1  0.0000000  0.6508444  3
   4157   4146   4145   4166     1  0.0000000  0.6508444  3
   4158   4161   4163   4165     1  180.0000771  9.6232000  2
   4158   4146   4145   4166     1  0.0000000  0.6508444  3
   4159   4158   4161   4162     1  0.0000000  3.3472000  1
   4159   4158   4161   4162     1  0.0000000  0.0000000  2
   4159   4158   4161   4162     1  180.0000771  0.3347200  3
   4159   4158   4161   4163     1  180.0000771  0.0000000  2
   4160   4158   4161   4162     1  0.0000000  3.3472000  1
   4160   4158   4161   4162     1  0.0000000  0.0000000  2
   4160   4158   4161   4162     1  180.0000771  0.3347200  3
   4160   4158   4161   4163     1  180.0000771  0.0000000  2
   4162   4161   4163   4165     1  0.0000000  7.9496000  1
   4162   4161   4163   4165     1  180.0000771  9.6232000  2
   4167   4169   4171   4173     1  0.0000000  0.6508444  3
   4167   4169   4171   4174     1  0.0000000  0.6508444  3
   4168   4167   4169   4171     1  0.0000000  0.0000000  2
   4168   4167   4169   4170     1  0.0000000  0.0000000  2
   4168   4167   4169   4172     1  0.0000000  0.0000000  2
   4169   4171   4175   4196     1  0.0000000  0.6508444  3
   4170   4169   4171   4175     1  0.0000000  0.6508444  3
   4170   4169   4171   4173     1  0.0000000  0.6508444  3
   4170   4169   4171   4174     1  0.0000000  0.6508444  3
   4171   4175   4176   4186     1  0.0000000  0.6508444  3
   4171   4175   4176   4187     1  0.0000000  0.6508444  3
   4171   4175   4177   4178     1  0.0000000  0.6508444  3
   4171   4175   4177   4180     1  0.0000000  0.6508444  3
   4172   4169   4171   4175     1  0.0000000  0.6508444  3
   4172   4169   4171   4173     1  0.0000000  0.6508444  3
   4172   4169   4171   4174     1  0.0000000  0.6508444  3
   4173   4171   4175   4176     1  0.0000000  0.6508444  3
   4173   4171   4175   4177     1  0.0000000  0.6508444  3
   4173   4171   4175   4196     1  0.0000000  0.6508444  3
   4174   4171   4175   4176     1  0.0000000  0.6508444  3
   4174   4171   4175   4177     1  0.0000000  0.6508444  3
   4174   4171   4175   4196     1  0.0000000  0.6508444  3
   4175   4176   4188   4189     1  0.0000000  0.6508444  3
   4175   4176   4188   4190     1  0.0000000  0.6508444  3
   4175   4177   4179   4181     1  0.0000000  0.6508444  3
   4175   4177   4179   4182     1  0.0000000  0.6508444  3
   4176   4175   4177   4178     1  0.0000000  0.6508444  3
   4176   4175   4177   4180     1  0.0000000  0.6508444  3
   4177   4175   4176   4186     1  0.0000000  0.6508444  3
   4177   4175   4176   4187     1  0.0000000  0.6508444  3
   4178   4177   4175   4196     1  0.0000000  0.6508444  3
   4178   4177   4179   4183     1  0.0000000  0.6508444  3
   4178   4177   4179   4181     1  0.0000000  0.6508444  3
   4178   4177   4179   4182     1  0.0000000  0.6508444  3
   4179   4177   4175   4196     1  0.0000000  0.6508444  3
   4179   4183   4184   4194     1  180.0000771  9.6232000  2
   4180   4177   4175   4196     1  0.0000000  0.6508444  3
   4180   4177   4179   4183     1  0.0000000  0.6508444  3
   4180   4177   4179   4181     1  0.0000000  0.6508444  3
   4180   4177   4179   4182     1  0.0000000  0.6508444  3
   4181   4179   4183   4184     1  180.0000771  0.0000000  2
   4181   4179   4183   4185     1  0.0000000  3.3472000  1
   4181   4179   4183   4185     1  0.0000000  0.0000000  2
   4181   4179   4183   4185     1  180.0000771  0.3347200  3
   4182   4179   4183   4184     1  180.0000771  0.0000000  2
   4182   4179   4183   4185     1  0.0000000  3.3472000  1
   4182   4179   4183   4185     1  0.0000000  0.0000000  2
   4182   4179   4183   4185     1  180.0000771  0.3347200  3
   4185   4183   4184   4194     1  0.0000000  7.9496000  1
   4185   4183   4184   4194     1  180.0000771  9.6232000  2
   4186   4176   4175   4196     1  0.0000000  0.6508444  3
   4186   4176   4188   4191     1  0.0000000  0.6508444  3
   4186   4176   4188   4189     1  0.0000000  0.6508444  3
   4186   4176   4188   4190     1  0.0000000  0.6508444  3
   4187   4176   4175   4196     1  0.0000000  0.6508444  3
   4187   4176   4188   4191     1  0.0000000  0.6508444  3
   4187   4176   4188   4189     1  0.0000000  0.6508444  3
   4187   4176   4188   4190     1  0.0000000  0.6508444  3
   4188   4176   4175   4196     1  0.0000000  0.6508444  3
   4188   4191   4193   4195     1  180.0000771  9.6232000  2
   4189   4188   4191   4192     1  0.0000000  3.3472000  1
   4189   4188   4191   4192     1  0.0000000  0.0000000  2
   4189   4188   4191   4192     1  180.0000771  0.3347200  3
   4189   4188   4191   4193     1  180.0000771  0.0000000  2
   4190   4188   4191   4192     1  0.0000000  3.3472000  1
   4190   4188   4191   4192     1  0.0000000  0.0000000  2
   4190   4188   4191   4192     1  180.0000771  0.3347200  3
   4190   4188   4191   4193     1  180.0000771  0.0000000  2
   4192   4191   4193   4195     1  0.0000000  7.9496000  1
   4192   4191   4193   4195     1  180.0000771  9.6232000  2
   4197   4199   4201   4203     1  0.0000000  0.6508444  3
   4197   4199   4201   4204     1  0.0000000  0.6508444  3
   4198   4197   4199   4201     1  0.0000000  0.0000000  2
   4198   4197   4199   4200     1  0.0000000  0.0000000  2
   4198   4197   4199   4202     1  0.0000000  0.0000000  2
   4199   4201   4205   4226     1  0.0000000  0.6508444  3
   4200   4199   4201   4205     1  0.0000000  0.6508444  3
   4200   4199   4201   4203     1  0.0000000  0.6508444  3
   4200   4199   4201   4204     1  0.0000000  0.6508444  3
   4201   4205   4206   4216     1  0.0000000  0.6508444  3
   4201   4205   4206   4217     1  0.0000000  0.6508444  3
   4201   4205   4207   4208     1  0.0000000  0.6508444  3
   4201   4205   4207   4210     1  0.0000000  0.6508444  3
   4202   4199   4201   4205     1  0.0000000  0.6508444  3
   4202   4199   4201   4203     1  0.0000000  0.6508444  3
   4202   4199   4201   4204     1  0.0000000  0.6508444  3
   4203   4201   4205   4206     1  0.0000000  0.6508444  3
   4203   4201   4205   4207     1  0.0000000  0.6508444  3
   4203   4201   4205   4226     1  0.0000000  0.6508444  3
   4204   4201   4205   4206     1  0.0000000  0.6508444  3
   4204   4201   4205   4207     1  0.0000000  0.6508444  3
   4204   4201   4205   4226     1  0.0000000  0.6508444  3
   4205   4206   4218   4219     1  0.0000000  0.6508444  3
   4205   4206   4218   4220     1  0.0000000  0.6508444  3
   4205   4207   4209   4211     1  0.0000000  0.6508444  3
   4205   4207   4209   4212     1  0.0000000  0.6508444  3
   4206   4205   4207   4208     1  0.0000000  0.6508444  3
   4206   4205   4207   4210     1  0.0000000  0.6508444  3
   4207   4205   4206   4216     1  0.0000000  0.6508444  3
   4207   4205   4206   4217     1  0.0000000  0.6508444  3
   4208   4207   4209   4213     1  0.0000000  0.6508444  3
   4208   4207   4209   4211     1  0.0000000  0.6508444  3
   4208   4207   4209   4212     1  0.0000000  0.6508444  3
   4208   4207   4205   4226     1  0.0000000  0.6508444  3
   4209   4213   4214   4224     1  180.0000771  9.6232000  2
   4209   4207   4205   4226     1  0.0000000  0.6508444  3
   4210   4207   4209   4213     1  0.0000000  0.6508444  3
   4210   4207   4209   4211     1  0.0000000  0.6508444  3
   4210   4207   4209   4212     1  0.0000000  0.6508444  3
   4210   4207   4205   4226     1  0.0000000  0.6508444  3
   4211   4209   4213   4214     1  180.0000771  0.0000000  2
   4211   4209   4213   4215     1  0.0000000  3.3472000  1
   4211   4209   4213   4215     1  0.0000000  0.0000000  2
   4211   4209   4213   4215     1  180.0000771  0.3347200  3
   4212   4209   4213   4214     1  180.0000771  0.0000000  2
   4212   4209   4213   4215     1  0.0000000  3.3472000  1
   4212   4209   4213   4215     1  0.0000000  0.0000000  2
   4212   4209   4213   4215     1  180.0000771  0.3347200  3
   4215   4213   4214   4224     1  0.0000000  7.9496000  1
   4215   4213   4214   4224     1  180.0000771  9.6232000  2
   4216   4206   4218   4221     1  0.0000000  0.6508444  3
   4216   4206   4218   4219     1  0.0000000  0.6508444  3
   4216   4206   4218   4220     1  0.0000000  0.6508444  3
   4216   4206   4205   4226     1  0.0000000  0.6508444  3
   4217   4206   4218   4221     1  0.0000000  0.6508444  3
   4217   4206   4218   4219     1  0.0000000  0.6508444  3
   4217   4206   4218   4220     1  0.0000000  0.6508444  3
   4217   4206   4205   4226     1  0.0000000  0.6508444  3
   4218   4221   4223   4225     1  180.0000771  9.6232000  2
   4218   4206   4205   4226     1  0.0000000  0.6508444  3
   4219   4218   4221   4222     1  0.0000000  3.3472000  1
   4219   4218   4221   4222     1  0.0000000  0.0000000  2
   4219   4218   4221   4222     1  180.0000771  0.3347200  3
   4219   4218   4221   4223     1  180.0000771  0.0000000  2
   4220   4218   4221   4222     1  0.0000000  3.3472000  1
   4220   4218   4221   4222     1  0.0000000  0.0000000  2
   4220   4218   4221   4222     1  180.0000771  0.3347200  3
   4220   4218   4221   4223     1  180.0000771  0.0000000  2
   4222   4221   4223   4225     1  0.0000000  7.9496000  1
   4222   4221   4223   4225     1  180.0000771  9.6232000  2
   4227   4229   4231   4233     1  0.0000000  0.6508444  3
   4227   4229   4231   4234     1  0.0000000  0.6508444  3
   4228   4227   4229   4231     1  0.0000000  0.0000000  2
   4228   4227   4229   4230     1  0.0000000  0.0000000  2
   4228   4227   4229   4232     1  0.0000000  0.0000000  2
   4229   4231   4235   4256     1  0.0000000  0.6508444  3
   4230   4229   4231   4235     1  0.0000000  0.6508444  3
   4230   4229   4231   4233     1  0.0000000  0.6508444  3
   4230   4229   4231   4234     1  0.0000000  0.6508444  3
   4231   4235   4236   4246     1  0.0000000  0.6508444  3
   4231   4235   4236   4247     1  0.0000000  0.6508444  3
   4231   4235   4237   4238     1  0.0000000  0.6508444  3
   4231   4235   4237   4240     1  0.0000000  0.6508444  3
   4232   4229   4231   4235     1  0.0000000  0.6508444  3
   4232   4229   4231   4233     1  0.0000000  0.6508444  3
   4232   4229   4231   4234     1  0.0000000  0.6508444  3
   4233   4231   4235   4236     1  0.0000000  0.6508444  3
   4233   4231   4235   4237     1  0.0000000  0.6508444  3
   4233   4231   4235   4256     1  0.0000000  0.6508444  3
   4234   4231   4235   4236     1  0.0000000  0.6508444  3
   4234   4231   4235   4237     1  0.0000000  0.6508444  3
   4234   4231   4235   4256     1  0.0000000  0.6508444  3
   4235   4236   4248   4249     1  0.0000000  0.6508444  3
   4235   4236   4248   4250     1  0.0000000  0.6508444  3
   4235   4237   4239   4241     1  0.0000000  0.6508444  3
   4235   4237   4239   4242     1  0.0000000  0.6508444  3
   4236   4235   4237   4238     1  0.0000000  0.6508444  3
   4236   4235   4237   4240     1  0.0000000  0.6508444  3
   4237   4235   4236   4246     1  0.0000000  0.6508444  3
   4237   4235   4236   4247     1  0.0000000  0.6508444  3
   4238   4237   4235   4256     1  0.0000000  0.6508444  3
   4238   4237   4239   4243     1  0.0000000  0.6508444  3
   4238   4237   4239   4241     1  0.0000000  0.6508444  3
   4238   4237   4239   4242     1  0.0000000  0.6508444  3
   4239   4237   4235   4256     1  0.0000000  0.6508444  3
   4239   4243   4244   4254     1  180.0000771  9.6232000  2
   4240   4237   4235   4256     1  0.0000000  0.6508444  3
   4240   4237   4239   4243     1  0.0000000  0.6508444  3
   4240   4237   4239   4241     1  0.0000000  0.6508444  3
   4240   4237   4239   4242     1  0.0000000  0.6508444  3
   4241   4239   4243   4244     1  180.0000771  0.0000000  2
   4241   4239   4243   4245     1  0.0000000  3.3472000  1
   4241   4239   4243   4245     1  0.0000000  0.0000000  2
   4241   4239   4243   4245     1  180.0000771  0.3347200  3
   4242   4239   4243   4244     1  180.0000771  0.0000000  2
   4242   4239   4243   4245     1  0.0000000  3.3472000  1
   4242   4239   4243   4245     1  0.0000000  0.0000000  2
   4242   4239   4243   4245     1  180.0000771  0.3347200  3
   4245   4243   4244   4254     1  0.0000000  7.9496000  1
   4245   4243   4244   4254     1  180.0000771  9.6232000  2
   4246   4236   4235   4256     1  0.0000000  0.6508444  3
   4246   4236   4248   4251     1  0.0000000  0.6508444  3
   4246   4236   4248   4249     1  0.0000000  0.6508444  3
   4246   4236   4248   4250     1  0.0000000  0.6508444  3
   4247   4236   4235   4256     1  0.0000000  0.6508444  3
   4247   4236   4248   4251     1  0.0000000  0.6508444  3
   4247   4236   4248   4249     1  0.0000000  0.6508444  3
   4247   4236   4248   4250     1  0.0000000  0.6508444  3
   4248   4236   4235   4256     1  0.0000000  0.6508444  3
   4248   4251   4253   4255     1  180.0000771  9.6232000  2
   4249   4248   4251   4252     1  0.0000000  3.3472000  1
   4249   4248   4251   4252     1  0.0000000  0.0000000  2
   4249   4248   4251   4252     1  180.0000771  0.3347200  3
   4249   4248   4251   4253     1  180.0000771  0.0000000  2
   4250   4248   4251   4252     1  0.0000000  3.3472000  1
   4250   4248   4251   4252     1  0.0000000  0.0000000  2
   4250   4248   4251   4252     1  180.0000771  0.3347200  3
   4250   4248   4251   4253     1  180.0000771  0.0000000  2
   4252   4251   4253   4255     1  0.0000000  7.9496000  1
   4252   4251   4253   4255     1  180.0000771  9.6232000  2
   4257   4259   4261   4263     1  0.0000000  0.6508444  3
   4257   4259   4261   4264     1  0.0000000  0.6508444  3
   4258   4257   4259   4261     1  0.0000000  0.0000000  2
   4258   4257   4259   4260     1  0.0000000  0.0000000  2
   4258   4257   4259   4262     1  0.0000000  0.0000000  2
   4259   4261   4265   4286     1  0.0000000  0.6508444  3
   4260   4259   4261   4265     1  0.0000000  0.6508444  3
   4260   4259   4261   4263     1  0.0000000  0.6508444  3
   4260   4259   4261   4264     1  0.0000000  0.6508444  3
   4261   4265   4266   4276     1  0.0000000  0.6508444  3
   4261   4265   4266   4277     1  0.0000000  0.6508444  3
   4261   4265   4267   4268     1  0.0000000  0.6508444  3
   4261   4265   4267   4270     1  0.0000000  0.6508444  3
   4262   4259   4261   4265     1  0.0000000  0.6508444  3
   4262   4259   4261   4263     1  0.0000000  0.6508444  3
   4262   4259   4261   4264     1  0.0000000  0.6508444  3
   4263   4261   4265   4266     1  0.0000000  0.6508444  3
   4263   4261   4265   4267     1  0.0000000  0.6508444  3
   4263   4261   4265   4286     1  0.0000000  0.6508444  3
   4264   4261   4265   4266     1  0.0000000  0.6508444  3
   4264   4261   4265   4267     1  0.0000000  0.6508444  3
   4264   4261   4265   4286     1  0.0000000  0.6508444  3
   4265   4266   4278   4279     1  0.0000000  0.6508444  3
   4265   4266   4278   4280     1  0.0000000  0.6508444  3
   4265   4267   4269   4271     1  0.0000000  0.6508444  3
   4265   4267   4269   4272     1  0.0000000  0.6508444  3
   4266   4265   4267   4268     1  0.0000000  0.6508444  3
   4266   4265   4267   4270     1  0.0000000  0.6508444  3
   4267   4265   4266   4276     1  0.0000000  0.6508444  3
   4267   4265   4266   4277     1  0.0000000  0.6508444  3
   4268   4267   4269   4273     1  0.0000000  0.6508444  3
   4268   4267   4269   4271     1  0.0000000  0.6508444  3
   4268   4267   4269   4272     1  0.0000000  0.6508444  3
   4268   4267   4265   4286     1  0.0000000  0.6508444  3
   4269   4273   4274   4284     1  180.0000771  9.6232000  2
   4269   4267   4265   4286     1  0.0000000  0.6508444  3
   4270   4267   4269   4273     1  0.0000000  0.6508444  3
   4270   4267   4269   4271     1  0.0000000  0.6508444  3
   4270   4267   4269   4272     1  0.0000000  0.6508444  3
   4270   4267   4265   4286     1  0.0000000  0.6508444  3
   4271   4269   4273   4274     1  180.0000771  0.0000000  2
   4271   4269   4273   4275     1  0.0000000  3.3472000  1
   4271   4269   4273   4275     1  0.0000000  0.0000000  2
   4271   4269   4273   4275     1  180.0000771  0.3347200  3
   4272   4269   4273   4274     1  180.0000771  0.0000000  2
   4272   4269   4273   4275     1  0.0000000  3.3472000  1
   4272   4269   4273   4275     1  0.0000000  0.0000000  2
   4272   4269   4273   4275     1  180.0000771  0.3347200  3
   4275   4273   4274   4284     1  0.0000000  7.9496000  1
   4275   4273   4274   4284     1  180.0000771  9.6232000  2
   4276   4266   4278   4281     1  0.0000000  0.6508444  3
   4276   4266   4278   4279     1  0.0000000  0.6508444  3
   4276   4266   4278   4280     1  0.0000000  0.6508444  3
   4276   4266   4265   4286     1  0.0000000  0.6508444  3
   4277   4266   4278   4281     1  0.0000000  0.6508444  3
   4277   4266   4278   4279     1  0.0000000  0.6508444  3
   4277   4266   4278   4280     1  0.0000000  0.6508444  3
   4277   4266   4265   4286     1  0.0000000  0.6508444  3
   4278   4281   4283   4285     1  180.0000771  9.6232000  2
   4278   4266   4265   4286     1  0.0000000  0.6508444  3
   4279   4278   4281   4282     1  0.0000000  3.3472000  1
   4279   4278   4281   4282     1  0.0000000  0.0000000  2
   4279   4278   4281   4282     1  180.0000771  0.3347200  3
   4279   4278   4281   4283     1  180.0000771  0.0000000  2
   4280   4278   4281   4282     1  0.0000000  3.3472000  1
   4280   4278   4281   4282     1  0.0000000  0.0000000  2
   4280   4278   4281   4282     1  180.0000771  0.3347200  3
   4280   4278   4281   4283     1  180.0000771  0.0000000  2
   4282   4281   4283   4285     1  0.0000000  7.9496000  1
   4282   4281   4283   4285     1  180.0000771  9.6232000  2
   4287   4289   4291   4293     1  0.0000000  0.6508444  3
   4287   4289   4291   4294     1  0.0000000  0.6508444  3
   4288   4287   4289   4291     1  0.0000000  0.0000000  2
   4288   4287   4289   4290     1  0.0000000  0.0000000  2
   4288   4287   4289   4292     1  0.0000000  0.0000000  2
   4289   4291   4295   4316     1  0.0000000  0.6508444  3
   4290   4289   4291   4295     1  0.0000000  0.6508444  3
   4290   4289   4291   4293     1  0.0000000  0.6508444  3
   4290   4289   4291   4294     1  0.0000000  0.6508444  3
   4291   4295   4296   4306     1  0.0000000  0.6508444  3
   4291   4295   4296   4307     1  0.0000000  0.6508444  3
   4291   4295   4297   4298     1  0.0000000  0.6508444  3
   4291   4295   4297   4300     1  0.0000000  0.6508444  3
   4292   4289   4291   4295     1  0.0000000  0.6508444  3
   4292   4289   4291   4293     1  0.0000000  0.6508444  3
   4292   4289   4291   4294     1  0.0000000  0.6508444  3
   4293   4291   4295   4296     1  0.0000000  0.6508444  3
   4293   4291   4295   4297     1  0.0000000  0.6508444  3
   4293   4291   4295   4316     1  0.0000000  0.6508444  3
   4294   4291   4295   4296     1  0.0000000  0.6508444  3
   4294   4291   4295   4297     1  0.0000000  0.6508444  3
   4294   4291   4295   4316     1  0.0000000  0.6508444  3
   4295   4296   4308   4309     1  0.0000000  0.6508444  3
   4295   4296   4308   4310     1  0.0000000  0.6508444  3
   4295   4297   4299   4301     1  0.0000000  0.6508444  3
   4295   4297   4299   4302     1  0.0000000  0.6508444  3
   4296   4295   4297   4298     1  0.0000000  0.6508444  3
   4296   4295   4297   4300     1  0.0000000  0.6508444  3
   4297   4295   4296   4306     1  0.0000000  0.6508444  3
   4297   4295   4296   4307     1  0.0000000  0.6508444  3
   4298   4297   4295   4316     1  0.0000000  0.6508444  3
   4298   4297   4299   4303     1  0.0000000  0.6508444  3
   4298   4297   4299   4301     1  0.0000000  0.6508444  3
   4298   4297   4299   4302     1  0.0000000  0.6508444  3
   4299   4297   4295   4316     1  0.0000000  0.6508444  3
   4299   4303   4304   4314     1  180.0000771  9.6232000  2
   4300   4297   4295   4316     1  0.0000000  0.6508444  3
   4300   4297   4299   4303     1  0.0000000  0.6508444  3
   4300   4297   4299   4301     1  0.0000000  0.6508444  3
   4300   4297   4299   4302     1  0.0000000  0.6508444  3
   4301   4299   4303   4304     1  180.0000771  0.0000000  2
   4301   4299   4303   4305     1  0.0000000  3.3472000  1
   4301   4299   4303   4305     1  0.0000000  0.0000000  2
   4301   4299   4303   4305     1  180.0000771  0.3347200  3
   4302   4299   4303   4304     1  180.0000771  0.0000000  2
   4302   4299   4303   4305     1  0.0000000  3.3472000  1
   4302   4299   4303   4305     1  0.0000000  0.0000000  2
   4302   4299   4303   4305     1  180.0000771  0.3347200  3
   4305   4303   4304   4314     1  0.0000000  7.9496000  1
   4305   4303   4304   4314     1  180.0000771  9.6232000  2
   4306   4296   4295   4316     1  0.0000000  0.6508444  3
   4306   4296   4308   4311     1  0.0000000  0.6508444  3
   4306   4296   4308   4309     1  0.0000000  0.6508444  3
   4306   4296   4308   4310     1  0.0000000  0.6508444  3
   4307   4296   4295   4316     1  0.0000000  0.6508444  3
   4307   4296   4308   4311     1  0.0000000  0.6508444  3
   4307   4296   4308   4309     1  0.0000000  0.6508444  3
   4307   4296   4308   4310     1  0.0000000  0.6508444  3
   4308   4296   4295   4316     1  0.0000000  0.6508444  3
   4308   4311   4313   4315     1  180.0000771  9.6232000  2
   4309   4308   4311   4312     1  0.0000000  3.3472000  1
   4309   4308   4311   4312     1  0.0000000  0.0000000  2
   4309   4308   4311   4312     1  180.0000771  0.3347200  3
   4309   4308   4311   4313     1  180.0000771  0.0000000  2
   4310   4308   4311   4312     1  0.0000000  3.3472000  1
   4310   4308   4311   4312     1  0.0000000  0.0000000  2
   4310   4308   4311   4312     1  180.0000771  0.3347200  3
   4310   4308   4311   4313     1  180.0000771  0.0000000  2
   4312   4311   4313   4315     1  0.0000000  7.9496000  1
   4312   4311   4313   4315     1  180.0000771  9.6232000  2
   4317   4319   4321   4323     1  0.0000000  0.6508444  3
   4317   4319   4321   4324     1  0.0000000  0.6508444  3
   4318   4317   4319   4321     1  0.0000000  0.0000000  2
   4318   4317   4319   4320     1  0.0000000  0.0000000  2
   4318   4317   4319   4322     1  0.0000000  0.0000000  2
   4319   4321   4325   4346     1  0.0000000  0.6508444  3
   4320   4319   4321   4325     1  0.0000000  0.6508444  3
   4320   4319   4321   4323     1  0.0000000  0.6508444  3
   4320   4319   4321   4324     1  0.0000000  0.6508444  3
   4321   4325   4326   4336     1  0.0000000  0.6508444  3
   4321   4325   4326   4337     1  0.0000000  0.6508444  3
   4321   4325   4327   4328     1  0.0000000  0.6508444  3
   4321   4325   4327   4330     1  0.0000000  0.6508444  3
   4322   4319   4321   4325     1  0.0000000  0.6508444  3
   4322   4319   4321   4323     1  0.0000000  0.6508444  3
   4322   4319   4321   4324     1  0.0000000  0.6508444  3
   4323   4321   4325   4326     1  0.0000000  0.6508444  3
   4323   4321   4325   4327     1  0.0000000  0.6508444  3
   4323   4321   4325   4346     1  0.0000000  0.6508444  3
   4324   4321   4325   4326     1  0.0000000  0.6508444  3
   4324   4321   4325   4327     1  0.0000000  0.6508444  3
   4324   4321   4325   4346     1  0.0000000  0.6508444  3
   4325   4326   4338   4339     1  0.0000000  0.6508444  3
   4325   4326   4338   4340     1  0.0000000  0.6508444  3
   4325   4327   4329   4331     1  0.0000000  0.6508444  3
   4325   4327   4329   4332     1  0.0000000  0.6508444  3
   4326   4325   4327   4328     1  0.0000000  0.6508444  3
   4326   4325   4327   4330     1  0.0000000  0.6508444  3
   4327   4325   4326   4336     1  0.0000000  0.6508444  3
   4327   4325   4326   4337     1  0.0000000  0.6508444  3
   4328   4327   4329   4333     1  0.0000000  0.6508444  3
   4328   4327   4329   4331     1  0.0000000  0.6508444  3
   4328   4327   4329   4332     1  0.0000000  0.6508444  3
   4328   4327   4325   4346     1  0.0000000  0.6508444  3
   4329   4333   4334   4344     1  180.0000771  9.6232000  2
   4329   4327   4325   4346     1  0.0000000  0.6508444  3
   4330   4327   4329   4333     1  0.0000000  0.6508444  3
   4330   4327   4329   4331     1  0.0000000  0.6508444  3
   4330   4327   4329   4332     1  0.0000000  0.6508444  3
   4330   4327   4325   4346     1  0.0000000  0.6508444  3
   4331   4329   4333   4334     1  180.0000771  0.0000000  2
   4331   4329   4333   4335     1  0.0000000  3.3472000  1
   4331   4329   4333   4335     1  0.0000000  0.0000000  2
   4331   4329   4333   4335     1  180.0000771  0.3347200  3
   4332   4329   4333   4334     1  180.0000771  0.0000000  2
   4332   4329   4333   4335     1  0.0000000  3.3472000  1
   4332   4329   4333   4335     1  0.0000000  0.0000000  2
   4332   4329   4333   4335     1  180.0000771  0.3347200  3
   4335   4333   4334   4344     1  0.0000000  7.9496000  1
   4335   4333   4334   4344     1  180.0000771  9.6232000  2
   4336   4326   4338   4341     1  0.0000000  0.6508444  3
   4336   4326   4338   4339     1  0.0000000  0.6508444  3
   4336   4326   4338   4340     1  0.0000000  0.6508444  3
   4336   4326   4325   4346     1  0.0000000  0.6508444  3
   4337   4326   4338   4341     1  0.0000000  0.6508444  3
   4337   4326   4338   4339     1  0.0000000  0.6508444  3
   4337   4326   4338   4340     1  0.0000000  0.6508444  3
   4337   4326   4325   4346     1  0.0000000  0.6508444  3
   4338   4341   4343   4345     1  180.0000771  9.6232000  2
   4338   4326   4325   4346     1  0.0000000  0.6508444  3
   4339   4338   4341   4342     1  0.0000000  3.3472000  1
   4339   4338   4341   4342     1  0.0000000  0.0000000  2
   4339   4338   4341   4342     1  180.0000771  0.3347200  3
   4339   4338   4341   4343     1  180.0000771  0.0000000  2
   4340   4338   4341   4342     1  0.0000000  3.3472000  1
   4340   4338   4341   4342     1  0.0000000  0.0000000  2
   4340   4338   4341   4342     1  180.0000771  0.3347200  3
   4340   4338   4341   4343     1  180.0000771  0.0000000  2
   4342   4341   4343   4345     1  0.0000000  7.9496000  1
   4342   4341   4343   4345     1  180.0000771  9.6232000  2
   4347   4349   4351   4353     1  0.0000000  0.6508444  3
   4347   4349   4351   4354     1  0.0000000  0.6508444  3
   4348   4347   4349   4351     1  0.0000000  0.0000000  2
   4348   4347   4349   4350     1  0.0000000  0.0000000  2
   4348   4347   4349   4352     1  0.0000000  0.0000000  2
   4349   4351   4355   4376     1  0.0000000  0.6508444  3
   4350   4349   4351   4355     1  0.0000000  0.6508444  3
   4350   4349   4351   4353     1  0.0000000  0.6508444  3
   4350   4349   4351   4354     1  0.0000000  0.6508444  3
   4351   4355   4356   4366     1  0.0000000  0.6508444  3
   4351   4355   4356   4367     1  0.0000000  0.6508444  3
   4351   4355   4357   4358     1  0.0000000  0.6508444  3
   4351   4355   4357   4360     1  0.0000000  0.6508444  3
   4352   4349   4351   4355     1  0.0000000  0.6508444  3
   4352   4349   4351   4353     1  0.0000000  0.6508444  3
   4352   4349   4351   4354     1  0.0000000  0.6508444  3
   4353   4351   4355   4356     1  0.0000000  0.6508444  3
   4353   4351   4355   4357     1  0.0000000  0.6508444  3
   4353   4351   4355   4376     1  0.0000000  0.6508444  3
   4354   4351   4355   4356     1  0.0000000  0.6508444  3
   4354   4351   4355   4357     1  0.0000000  0.6508444  3
   4354   4351   4355   4376     1  0.0000000  0.6508444  3
   4355   4356   4368   4369     1  0.0000000  0.6508444  3
   4355   4356   4368   4370     1  0.0000000  0.6508444  3
   4355   4357   4359   4361     1  0.0000000  0.6508444  3
   4355   4357   4359   4362     1  0.0000000  0.6508444  3
   4356   4355   4357   4358     1  0.0000000  0.6508444  3
   4356   4355   4357   4360     1  0.0000000  0.6508444  3
   4357   4355   4356   4366     1  0.0000000  0.6508444  3
   4357   4355   4356   4367     1  0.0000000  0.6508444  3
   4358   4357   4355   4376     1  0.0000000  0.6508444  3
   4358   4357   4359   4363     1  0.0000000  0.6508444  3
   4358   4357   4359   4361     1  0.0000000  0.6508444  3
   4358   4357   4359   4362     1  0.0000000  0.6508444  3
   4359   4357   4355   4376     1  0.0000000  0.6508444  3
   4359   4363   4364   4374     1  180.0000771  9.6232000  2
   4360   4357   4355   4376     1  0.0000000  0.6508444  3
   4360   4357   4359   4363     1  0.0000000  0.6508444  3
   4360   4357   4359   4361     1  0.0000000  0.6508444  3
   4360   4357   4359   4362     1  0.0000000  0.6508444  3
   4361   4359   4363   4364     1  180.0000771  0.0000000  2
   4361   4359   4363   4365     1  0.0000000  3.3472000  1
   4361   4359   4363   4365     1  0.0000000  0.0000000  2
   4361   4359   4363   4365     1  180.0000771  0.3347200  3
   4362   4359   4363   4364     1  180.0000771  0.0000000  2
   4362   4359   4363   4365     1  0.0000000  3.3472000  1
   4362   4359   4363   4365     1  0.0000000  0.0000000  2
   4362   4359   4363   4365     1  180.0000771  0.3347200  3
   4365   4363   4364   4374     1  0.0000000  7.9496000  1
   4365   4363   4364   4374     1  180.0000771  9.6232000  2
   4366   4356   4355   4376     1  0.0000000  0.6508444  3
   4366   4356   4368   4371     1  0.0000000  0.6508444  3
   4366   4356   4368   4369     1  0.0000000  0.6508444  3
   4366   4356   4368   4370     1  0.0000000  0.6508444  3
   4367   4356   4355   4376     1  0.0000000  0.6508444  3
   4367   4356   4368   4371     1  0.0000000  0.6508444  3
   4367   4356   4368   4369     1  0.0000000  0.6508444  3
   4367   4356   4368   4370     1  0.0000000  0.6508444  3
   4368   4356   4355   4376     1  0.0000000  0.6508444  3
   4368   4371   4373   4375     1  180.0000771  9.6232000  2
   4369   4368   4371   4372     1  0.0000000  3.3472000  1
   4369   4368   4371   4372     1  0.0000000  0.0000000  2
   4369   4368   4371   4372     1  180.0000771  0.3347200  3
   4369   4368   4371   4373     1  180.0000771  0.0000000  2
   4370   4368   4371   4372     1  0.0000000  3.3472000  1
   4370   4368   4371   4372     1  0.0000000  0.0000000  2
   4370   4368   4371   4372     1  180.0000771  0.3347200  3
   4370   4368   4371   4373     1  180.0000771  0.0000000  2
   4372   4371   4373   4375     1  0.0000000  7.9496000  1
   4372   4371   4373   4375     1  180.0000771  9.6232000  2
   4377   4379   4381   4383     1  0.0000000  0.6508444  3
   4377   4379   4381   4384     1  0.0000000  0.6508444  3
   4378   4377   4379   4381     1  0.0000000  0.0000000  2
   4378   4377   4379   4380     1  0.0000000  0.0000000  2
   4378   4377   4379   4382     1  0.0000000  0.0000000  2
   4379   4381   4385   4406     1  0.0000000  0.6508444  3
   4380   4379   4381   4385     1  0.0000000  0.6508444  3
   4380   4379   4381   4383     1  0.0000000  0.6508444  3
   4380   4379   4381   4384     1  0.0000000  0.6508444  3
   4381   4385   4386   4396     1  0.0000000  0.6508444  3
   4381   4385   4386   4397     1  0.0000000  0.6508444  3
   4381   4385   4387   4388     1  0.0000000  0.6508444  3
   4381   4385   4387   4390     1  0.0000000  0.6508444  3
   4382   4379   4381   4385     1  0.0000000  0.6508444  3
   4382   4379   4381   4383     1  0.0000000  0.6508444  3
   4382   4379   4381   4384     1  0.0000000  0.6508444  3
   4383   4381   4385   4386     1  0.0000000  0.6508444  3
   4383   4381   4385   4387     1  0.0000000  0.6508444  3
   4383   4381   4385   4406     1  0.0000000  0.6508444  3
   4384   4381   4385   4386     1  0.0000000  0.6508444  3
   4384   4381   4385   4387     1  0.0000000  0.6508444  3
   4384   4381   4385   4406     1  0.0000000  0.6508444  3
   4385   4386   4398   4399     1  0.0000000  0.6508444  3
   4385   4386   4398   4400     1  0.0000000  0.6508444  3
   4385   4387   4389   4391     1  0.0000000  0.6508444  3
   4385   4387   4389   4392     1  0.0000000  0.6508444  3
   4386   4385   4387   4388     1  0.0000000  0.6508444  3
   4386   4385   4387   4390     1  0.0000000  0.6508444  3
   4387   4385   4386   4396     1  0.0000000  0.6508444  3
   4387   4385   4386   4397     1  0.0000000  0.6508444  3
   4388   4387   4389   4393     1  0.0000000  0.6508444  3
   4388   4387   4389   4391     1  0.0000000  0.6508444  3
   4388   4387   4389   4392     1  0.0000000  0.6508444  3
   4388   4387   4385   4406     1  0.0000000  0.6508444  3
   4389   4393   4394   4404     1  180.0000771  9.6232000  2
   4389   4387   4385   4406     1  0.0000000  0.6508444  3
   4390   4387   4389   4393     1  0.0000000  0.6508444  3
   4390   4387   4389   4391     1  0.0000000  0.6508444  3
   4390   4387   4389   4392     1  0.0000000  0.6508444  3
   4390   4387   4385   4406     1  0.0000000  0.6508444  3
   4391   4389   4393   4394     1  180.0000771  0.0000000  2
   4391   4389   4393   4395     1  0.0000000  3.3472000  1
   4391   4389   4393   4395     1  0.0000000  0.0000000  2
   4391   4389   4393   4395     1  180.0000771  0.3347200  3
   4392   4389   4393   4394     1  180.0000771  0.0000000  2
   4392   4389   4393   4395     1  0.0000000  3.3472000  1
   4392   4389   4393   4395     1  0.0000000  0.0000000  2
   4392   4389   4393   4395     1  180.0000771  0.3347200  3
   4395   4393   4394   4404     1  0.0000000  7.9496000  1
   4395   4393   4394   4404     1  180.0000771  9.6232000  2
   4396   4386   4398   4401     1  0.0000000  0.6508444  3
   4396   4386   4398   4399     1  0.0000000  0.6508444  3
   4396   4386   4398   4400     1  0.0000000  0.6508444  3
   4396   4386   4385   4406     1  0.0000000  0.6508444  3
   4397   4386   4398   4401     1  0.0000000  0.6508444  3
   4397   4386   4398   4399     1  0.0000000  0.6508444  3
   4397   4386   4398   4400     1  0.0000000  0.6508444  3
   4397   4386   4385   4406     1  0.0000000  0.6508444  3
   4398   4401   4403   4405     1  180.0000771  9.6232000  2
   4398   4386   4385   4406     1  0.0000000  0.6508444  3
   4399   4398   4401   4402     1  0.0000000  3.3472000  1
   4399   4398   4401   4402     1  0.0000000  0.0000000  2
   4399   4398   4401   4402     1  180.0000771  0.3347200  3
   4399   4398   4401   4403     1  180.0000771  0.0000000  2
   4400   4398   4401   4402     1  0.0000000  3.3472000  1
   4400   4398   4401   4402     1  0.0000000  0.0000000  2
   4400   4398   4401   4402     1  180.0000771  0.3347200  3
   4400   4398   4401   4403     1  180.0000771  0.0000000  2
   4402   4401   4403   4405     1  0.0000000  7.9496000  1
   4402   4401   4403   4405     1  180.0000771  9.6232000  2
   4407   4409   4411   4413     1  0.0000000  0.6508444  3
   4407   4409   4411   4414     1  0.0000000  0.6508444  3
   4408   4407   4409   4411     1  0.0000000  0.0000000  2
   4408   4407   4409   4410     1  0.0000000  0.0000000  2
   4408   4407   4409   4412     1  0.0000000  0.0000000  2
   4409   4411   4415   4436     1  0.0000000  0.6508444  3
   4410   4409   4411   4415     1  0.0000000  0.6508444  3
   4410   4409   4411   4413     1  0.0000000  0.6508444  3
   4410   4409   4411   4414     1  0.0000000  0.6508444  3
   4411   4415   4416   4426     1  0.0000000  0.6508444  3
   4411   4415   4416   4427     1  0.0000000  0.6508444  3
   4411   4415   4417   4418     1  0.0000000  0.6508444  3
   4411   4415   4417   4420     1  0.0000000  0.6508444  3
   4412   4409   4411   4415     1  0.0000000  0.6508444  3
   4412   4409   4411   4413     1  0.0000000  0.6508444  3
   4412   4409   4411   4414     1  0.0000000  0.6508444  3
   4413   4411   4415   4416     1  0.0000000  0.6508444  3
   4413   4411   4415   4417     1  0.0000000  0.6508444  3
   4413   4411   4415   4436     1  0.0000000  0.6508444  3
   4414   4411   4415   4416     1  0.0000000  0.6508444  3
   4414   4411   4415   4417     1  0.0000000  0.6508444  3
   4414   4411   4415   4436     1  0.0000000  0.6508444  3
   4415   4416   4428   4429     1  0.0000000  0.6508444  3
   4415   4416   4428   4430     1  0.0000000  0.6508444  3
   4415   4417   4419   4421     1  0.0000000  0.6508444  3
   4415   4417   4419   4422     1  0.0000000  0.6508444  3
   4416   4415   4417   4418     1  0.0000000  0.6508444  3
   4416   4415   4417   4420     1  0.0000000  0.6508444  3
   4417   4415   4416   4426     1  0.0000000  0.6508444  3
   4417   4415   4416   4427     1  0.0000000  0.6508444  3
   4418   4417   4415   4436     1  0.0000000  0.6508444  3
   4418   4417   4419   4423     1  0.0000000  0.6508444  3
   4418   4417   4419   4421     1  0.0000000  0.6508444  3
   4418   4417   4419   4422     1  0.0000000  0.6508444  3
   4419   4417   4415   4436     1  0.0000000  0.6508444  3
   4419   4423   4424   4434     1  180.0000771  9.6232000  2
   4420   4417   4415   4436     1  0.0000000  0.6508444  3
   4420   4417   4419   4423     1  0.0000000  0.6508444  3
   4420   4417   4419   4421     1  0.0000000  0.6508444  3
   4420   4417   4419   4422     1  0.0000000  0.6508444  3
   4421   4419   4423   4424     1  180.0000771  0.0000000  2
   4421   4419   4423   4425     1  0.0000000  3.3472000  1
   4421   4419   4423   4425     1  0.0000000  0.0000000  2
   4421   4419   4423   4425     1  180.0000771  0.3347200  3
   4422   4419   4423   4424     1  180.0000771  0.0000000  2
   4422   4419   4423   4425     1  0.0000000  3.3472000  1
   4422   4419   4423   4425     1  0.0000000  0.0000000  2
   4422   4419   4423   4425     1  180.0000771  0.3347200  3
   4425   4423   4424   4434     1  0.0000000  7.9496000  1
   4425   4423   4424   4434     1  180.0000771  9.6232000  2
   4426   4416   4415   4436     1  0.0000000  0.6508444  3
   4426   4416   4428   4431     1  0.0000000  0.6508444  3
   4426   4416   4428   4429     1  0.0000000  0.6508444  3
   4426   4416   4428   4430     1  0.0000000  0.6508444  3
   4427   4416   4415   4436     1  0.0000000  0.6508444  3
   4427   4416   4428   4431     1  0.0000000  0.6508444  3
   4427   4416   4428   4429     1  0.0000000  0.6508444  3
   4427   4416   4428   4430     1  0.0000000  0.6508444  3
   4428   4416   4415   4436     1  0.0000000  0.6508444  3
   4428   4431   4433   4435     1  180.0000771  9.6232000  2
   4429   4428   4431   4432     1  0.0000000  3.3472000  1
   4429   4428   4431   4432     1  0.0000000  0.0000000  2
   4429   4428   4431   4432     1  180.0000771  0.3347200  3
   4429   4428   4431   4433     1  180.0000771  0.0000000  2
   4430   4428   4431   4432     1  0.0000000  3.3472000  1
   4430   4428   4431   4432     1  0.0000000  0.0000000  2
   4430   4428   4431   4432     1  180.0000771  0.3347200  3
   4430   4428   4431   4433     1  180.0000771  0.0000000  2
   4432   4431   4433   4435     1  0.0000000  7.9496000  1
   4432   4431   4433   4435     1  180.0000771  9.6232000  2
   4437   4439   4441   4443     1  0.0000000  0.6508444  3
   4437   4439   4441   4444     1  0.0000000  0.6508444  3
   4438   4437   4439   4441     1  0.0000000  0.0000000  2
   4438   4437   4439   4440     1  0.0000000  0.0000000  2
   4438   4437   4439   4442     1  0.0000000  0.0000000  2
   4439   4441   4445   4466     1  0.0000000  0.6508444  3
   4440   4439   4441   4445     1  0.0000000  0.6508444  3
   4440   4439   4441   4443     1  0.0000000  0.6508444  3
   4440   4439   4441   4444     1  0.0000000  0.6508444  3
   4441   4445   4446   4456     1  0.0000000  0.6508444  3
   4441   4445   4446   4457     1  0.0000000  0.6508444  3
   4441   4445   4447   4448     1  0.0000000  0.6508444  3
   4441   4445   4447   4450     1  0.0000000  0.6508444  3
   4442   4439   4441   4445     1  0.0000000  0.6508444  3
   4442   4439   4441   4443     1  0.0000000  0.6508444  3
   4442   4439   4441   4444     1  0.0000000  0.6508444  3
   4443   4441   4445   4446     1  0.0000000  0.6508444  3
   4443   4441   4445   4447     1  0.0000000  0.6508444  3
   4443   4441   4445   4466     1  0.0000000  0.6508444  3
   4444   4441   4445   4446     1  0.0000000  0.6508444  3
   4444   4441   4445   4447     1  0.0000000  0.6508444  3
   4444   4441   4445   4466     1  0.0000000  0.6508444  3
   4445   4446   4458   4459     1  0.0000000  0.6508444  3
   4445   4446   4458   4460     1  0.0000000  0.6508444  3
   4445   4447   4449   4451     1  0.0000000  0.6508444  3
   4445   4447   4449   4452     1  0.0000000  0.6508444  3
   4446   4445   4447   4448     1  0.0000000  0.6508444  3
   4446   4445   4447   4450     1  0.0000000  0.6508444  3
   4447   4445   4446   4456     1  0.0000000  0.6508444  3
   4447   4445   4446   4457     1  0.0000000  0.6508444  3
   4448   4447   4449   4453     1  0.0000000  0.6508444  3
   4448   4447   4449   4451     1  0.0000000  0.6508444  3
   4448   4447   4449   4452     1  0.0000000  0.6508444  3
   4448   4447   4445   4466     1  0.0000000  0.6508444  3
   4449   4453   4454   4464     1  180.0000771  9.6232000  2
   4449   4447   4445   4466     1  0.0000000  0.6508444  3
   4450   4447   4449   4453     1  0.0000000  0.6508444  3
   4450   4447   4449   4451     1  0.0000000  0.6508444  3
   4450   4447   4449   4452     1  0.0000000  0.6508444  3
   4450   4447   4445   4466     1  0.0000000  0.6508444  3
   4451   4449   4453   4454     1  180.0000771  0.0000000  2
   4451   4449   4453   4455     1  0.0000000  3.3472000  1
   4451   4449   4453   4455     1  0.0000000  0.0000000  2
   4451   4449   4453   4455     1  180.0000771  0.3347200  3
   4452   4449   4453   4454     1  180.0000771  0.0000000  2
   4452   4449   4453   4455     1  0.0000000  3.3472000  1
   4452   4449   4453   4455     1  0.0000000  0.0000000  2
   4452   4449   4453   4455     1  180.0000771  0.3347200  3
   4455   4453   4454   4464     1  0.0000000  7.9496000  1
   4455   4453   4454   4464     1  180.0000771  9.6232000  2
   4456   4446   4458   4461     1  0.0000000  0.6508444  3
   4456   4446   4458   4459     1  0.0000000  0.6508444  3
   4456   4446   4458   4460     1  0.0000000  0.6508444  3
   4456   4446   4445   4466     1  0.0000000  0.6508444  3
   4457   4446   4458   4461     1  0.0000000  0.6508444  3
   4457   4446   4458   4459     1  0.0000000  0.6508444  3
   4457   4446   4458   4460     1  0.0000000  0.6508444  3
   4457   4446   4445   4466     1  0.0000000  0.6508444  3
   4458   4461   4463   4465     1  180.0000771  9.6232000  2
   4458   4446   4445   4466     1  0.0000000  0.6508444  3
   4459   4458   4461   4462     1  0.0000000  3.3472000  1
   4459   4458   4461   4462     1  0.0000000  0.0000000  2
   4459   4458   4461   4462     1  180.0000771  0.3347200  3
   4459   4458   4461   4463     1  180.0000771  0.0000000  2
   4460   4458   4461   4462     1  0.0000000  3.3472000  1
   4460   4458   4461   4462     1  0.0000000  0.0000000  2
   4460   4458   4461   4462     1  180.0000771  0.3347200  3
   4460   4458   4461   4463     1  180.0000771  0.0000000  2
   4462   4461   4463   4465     1  0.0000000  7.9496000  1
   4462   4461   4463   4465     1  180.0000771  9.6232000  2
   4467   4469   4471   4473     1  0.0000000  0.6508444  3
   4467   4469   4471   4474     1  0.0000000  0.6508444  3
   4468   4467   4469   4471     1  0.0000000  0.0000000  2
   4468   4467   4469   4470     1  0.0000000  0.0000000  2
   4468   4467   4469   4472     1  0.0000000  0.0000000  2
   4469   4471   4475   4496     1  0.0000000  0.6508444  3
   4470   4469   4471   4475     1  0.0000000  0.6508444  3
   4470   4469   4471   4473     1  0.0000000  0.6508444  3
   4470   4469   4471   4474     1  0.0000000  0.6508444  3
   4471   4475   4476   4486     1  0.0000000  0.6508444  3
   4471   4475   4476   4487     1  0.0000000  0.6508444  3
   4471   4475   4477   4478     1  0.0000000  0.6508444  3
   4471   4475   4477   4480     1  0.0000000  0.6508444  3
   4472   4469   4471   4475     1  0.0000000  0.6508444  3
   4472   4469   4471   4473     1  0.0000000  0.6508444  3
   4472   4469   4471   4474     1  0.0000000  0.6508444  3
   4473   4471   4475   4476     1  0.0000000  0.6508444  3
   4473   4471   4475   4477     1  0.0000000  0.6508444  3
   4473   4471   4475   4496     1  0.0000000  0.6508444  3
   4474   4471   4475   4476     1  0.0000000  0.6508444  3
   4474   4471   4475   4477     1  0.0000000  0.6508444  3
   4474   4471   4475   4496     1  0.0000000  0.6508444  3
   4475   4476   4488   4489     1  0.0000000  0.6508444  3
   4475   4476   4488   4490     1  0.0000000  0.6508444  3
   4475   4477   4479   4481     1  0.0000000  0.6508444  3
   4475   4477   4479   4482     1  0.0000000  0.6508444  3
   4476   4475   4477   4478     1  0.0000000  0.6508444  3
   4476   4475   4477   4480     1  0.0000000  0.6508444  3
   4477   4475   4476   4486     1  0.0000000  0.6508444  3
   4477   4475   4476   4487     1  0.0000000  0.6508444  3
   4478   4477   4475   4496     1  0.0000000  0.6508444  3
   4478   4477   4479   4483     1  0.0000000  0.6508444  3
   4478   4477   4479   4481     1  0.0000000  0.6508444  3
   4478   4477   4479   4482     1  0.0000000  0.6508444  3
   4479   4477   4475   4496     1  0.0000000  0.6508444  3
   4479   4483   4484   4494     1  180.0000771  9.6232000  2
   4480   4477   4475   4496     1  0.0000000  0.6508444  3
   4480   4477   4479   4483     1  0.0000000  0.6508444  3
   4480   4477   4479   4481     1  0.0000000  0.6508444  3
   4480   4477   4479   4482     1  0.0000000  0.6508444  3
   4481   4479   4483   4484     1  180.0000771  0.0000000  2
   4481   4479   4483   4485     1  0.0000000  3.3472000  1
   4481   4479   4483   4485     1  0.0000000  0.0000000  2
   4481   4479   4483   4485     1  180.0000771  0.3347200  3
   4482   4479   4483   4484     1  180.0000771  0.0000000  2
   4482   4479   4483   4485     1  0.0000000  3.3472000  1
   4482   4479   4483   4485     1  0.0000000  0.0000000  2
   4482   4479   4483   4485     1  180.0000771  0.3347200  3
   4485   4483   4484   4494     1  0.0000000  7.9496000  1
   4485   4483   4484   4494     1  180.0000771  9.6232000  2
   4486   4476   4475   4496     1  0.0000000  0.6508444  3
   4486   4476   4488   4491     1  0.0000000  0.6508444  3
   4486   4476   4488   4489     1  0.0000000  0.6508444  3
   4486   4476   4488   4490     1  0.0000000  0.6508444  3
   4487   4476   4475   4496     1  0.0000000  0.6508444  3
   4487   4476   4488   4491     1  0.0000000  0.6508444  3
   4487   4476   4488   4489     1  0.0000000  0.6508444  3
   4487   4476   4488   4490     1  0.0000000  0.6508444  3
   4488   4476   4475   4496     1  0.0000000  0.6508444  3
   4488   4491   4493   4495     1  180.0000771  9.6232000  2
   4489   4488   4491   4492     1  0.0000000  3.3472000  1
   4489   4488   4491   4492     1  0.0000000  0.0000000  2
   4489   4488   4491   4492     1  180.0000771  0.3347200  3
   4489   4488   4491   4493     1  180.0000771  0.0000000  2
   4490   4488   4491   4492     1  0.0000000  3.3472000  1
   4490   4488   4491   4492     1  0.0000000  0.0000000  2
   4490   4488   4491   4492     1  180.0000771  0.3347200  3
   4490   4488   4491   4493     1  180.0000771  0.0000000  2
   4492   4491   4493   4495     1  0.0000000  7.9496000  1
   4492   4491   4493   4495     1  180.0000771  9.6232000  2
   4497   4499   4501   4503     1  0.0000000  0.6508444  3
   4497   4499   4501   4504     1  0.0000000  0.6508444  3
   4498   4497   4499   4501     1  0.0000000  0.0000000  2
   4498   4497   4499   4500     1  0.0000000  0.0000000  2
   4498   4497   4499   4502     1  0.0000000  0.0000000  2
   4499   4501   4505   4526     1  0.0000000  0.6508444  3
   4500   4499   4501   4505     1  0.0000000  0.6508444  3
   4500   4499   4501   4503     1  0.0000000  0.6508444  3
   4500   4499   4501   4504     1  0.0000000  0.6508444  3
   4501   4505   4506   4516     1  0.0000000  0.6508444  3
   4501   4505   4506   4517     1  0.0000000  0.6508444  3
   4501   4505   4507   4508     1  0.0000000  0.6508444  3
   4501   4505   4507   4510     1  0.0000000  0.6508444  3
   4502   4499   4501   4505     1  0.0000000  0.6508444  3
   4502   4499   4501   4503     1  0.0000000  0.6508444  3
   4502   4499   4501   4504     1  0.0000000  0.6508444  3
   4503   4501   4505   4506     1  0.0000000  0.6508444  3
   4503   4501   4505   4507     1  0.0000000  0.6508444  3
   4503   4501   4505   4526     1  0.0000000  0.6508444  3
   4504   4501   4505   4506     1  0.0000000  0.6508444  3
   4504   4501   4505   4507     1  0.0000000  0.6508444  3
   4504   4501   4505   4526     1  0.0000000  0.6508444  3
   4505   4506   4518   4519     1  0.0000000  0.6508444  3
   4505   4506   4518   4520     1  0.0000000  0.6508444  3
   4505   4507   4509   4511     1  0.0000000  0.6508444  3
   4505   4507   4509   4512     1  0.0000000  0.6508444  3
   4506   4505   4507   4508     1  0.0000000  0.6508444  3
   4506   4505   4507   4510     1  0.0000000  0.6508444  3
   4507   4505   4506   4516     1  0.0000000  0.6508444  3
   4507   4505   4506   4517     1  0.0000000  0.6508444  3
   4508   4507   4509   4513     1  0.0000000  0.6508444  3
   4508   4507   4509   4511     1  0.0000000  0.6508444  3
   4508   4507   4509   4512     1  0.0000000  0.6508444  3
   4508   4507   4505   4526     1  0.0000000  0.6508444  3
   4509   4513   4514   4524     1  180.0000771  9.6232000  2
   4509   4507   4505   4526     1  0.0000000  0.6508444  3
   4510   4507   4509   4513     1  0.0000000  0.6508444  3
   4510   4507   4509   4511     1  0.0000000  0.6508444  3
   4510   4507   4509   4512     1  0.0000000  0.6508444  3
   4510   4507   4505   4526     1  0.0000000  0.6508444  3
   4511   4509   4513   4514     1  180.0000771  0.0000000  2
   4511   4509   4513   4515     1  0.0000000  3.3472000  1
   4511   4509   4513   4515     1  0.0000000  0.0000000  2
   4511   4509   4513   4515     1  180.0000771  0.3347200  3
   4512   4509   4513   4514     1  180.0000771  0.0000000  2
   4512   4509   4513   4515     1  0.0000000  3.3472000  1
   4512   4509   4513   4515     1  0.0000000  0.0000000  2
   4512   4509   4513   4515     1  180.0000771  0.3347200  3
   4515   4513   4514   4524     1  0.0000000  7.9496000  1
   4515   4513   4514   4524     1  180.0000771  9.6232000  2
   4516   4506   4518   4521     1  0.0000000  0.6508444  3
   4516   4506   4518   4519     1  0.0000000  0.6508444  3
   4516   4506   4518   4520     1  0.0000000  0.6508444  3
   4516   4506   4505   4526     1  0.0000000  0.6508444  3
   4517   4506   4518   4521     1  0.0000000  0.6508444  3
   4517   4506   4518   4519     1  0.0000000  0.6508444  3
   4517   4506   4518   4520     1  0.0000000  0.6508444  3
   4517   4506   4505   4526     1  0.0000000  0.6508444  3
   4518   4521   4523   4525     1  180.0000771  9.6232000  2
   4518   4506   4505   4526     1  0.0000000  0.6508444  3
   4519   4518   4521   4522     1  0.0000000  3.3472000  1
   4519   4518   4521   4522     1  0.0000000  0.0000000  2
   4519   4518   4521   4522     1  180.0000771  0.3347200  3
   4519   4518   4521   4523     1  180.0000771  0.0000000  2
   4520   4518   4521   4522     1  0.0000000  3.3472000  1
   4520   4518   4521   4522     1  0.0000000  0.0000000  2
   4520   4518   4521   4522     1  180.0000771  0.3347200  3
   4520   4518   4521   4523     1  180.0000771  0.0000000  2
   4522   4521   4523   4525     1  0.0000000  7.9496000  1
   4522   4521   4523   4525     1  180.0000771  9.6232000  2
   4527   4529   4531   4533     1  0.0000000  0.6508444  3
   4527   4529   4531   4534     1  0.0000000  0.6508444  3
   4528   4527   4529   4531     1  0.0000000  0.0000000  2
   4528   4527   4529   4530     1  0.0000000  0.0000000  2
   4528   4527   4529   4532     1  0.0000000  0.0000000  2
   4529   4531   4535   4556     1  0.0000000  0.6508444  3
   4530   4529   4531   4535     1  0.0000000  0.6508444  3
   4530   4529   4531   4533     1  0.0000000  0.6508444  3
   4530   4529   4531   4534     1  0.0000000  0.6508444  3
   4531   4535   4536   4546     1  0.0000000  0.6508444  3
   4531   4535   4536   4547     1  0.0000000  0.6508444  3
   4531   4535   4537   4538     1  0.0000000  0.6508444  3
   4531   4535   4537   4540     1  0.0000000  0.6508444  3
   4532   4529   4531   4535     1  0.0000000  0.6508444  3
   4532   4529   4531   4533     1  0.0000000  0.6508444  3
   4532   4529   4531   4534     1  0.0000000  0.6508444  3
   4533   4531   4535   4536     1  0.0000000  0.6508444  3
   4533   4531   4535   4537     1  0.0000000  0.6508444  3
   4533   4531   4535   4556     1  0.0000000  0.6508444  3
   4534   4531   4535   4536     1  0.0000000  0.6508444  3
   4534   4531   4535   4537     1  0.0000000  0.6508444  3
   4534   4531   4535   4556     1  0.0000000  0.6508444  3
   4535   4536   4548   4549     1  0.0000000  0.6508444  3
   4535   4536   4548   4550     1  0.0000000  0.6508444  3
   4535   4537   4539   4541     1  0.0000000  0.6508444  3
   4535   4537   4539   4542     1  0.0000000  0.6508444  3
   4536   4535   4537   4538     1  0.0000000  0.6508444  3
   4536   4535   4537   4540     1  0.0000000  0.6508444  3
   4537   4535   4536   4546     1  0.0000000  0.6508444  3
   4537   4535   4536   4547     1  0.0000000  0.6508444  3
   4538   4537   4535   4556     1  0.0000000  0.6508444  3
   4538   4537   4539   4543     1  0.0000000  0.6508444  3
   4538   4537   4539   4541     1  0.0000000  0.6508444  3
   4538   4537   4539   4542     1  0.0000000  0.6508444  3
   4539   4537   4535   4556     1  0.0000000  0.6508444  3
   4539   4543   4544   4554     1  180.0000771  9.6232000  2
   4540   4537   4535   4556     1  0.0000000  0.6508444  3
   4540   4537   4539   4543     1  0.0000000  0.6508444  3
   4540   4537   4539   4541     1  0.0000000  0.6508444  3
   4540   4537   4539   4542     1  0.0000000  0.6508444  3
   4541   4539   4543   4544     1  180.0000771  0.0000000  2
   4541   4539   4543   4545     1  0.0000000  3.3472000  1
   4541   4539   4543   4545     1  0.0000000  0.0000000  2
   4541   4539   4543   4545     1  180.0000771  0.3347200  3
   4542   4539   4543   4544     1  180.0000771  0.0000000  2
   4542   4539   4543   4545     1  0.0000000  3.3472000  1
   4542   4539   4543   4545     1  0.0000000  0.0000000  2
   4542   4539   4543   4545     1  180.0000771  0.3347200  3
   4545   4543   4544   4554     1  0.0000000  7.9496000  1
   4545   4543   4544   4554     1  180.0000771  9.6232000  2
   4546   4536   4535   4556     1  0.0000000  0.6508444  3
   4546   4536   4548   4551     1  0.0000000  0.6508444  3
   4546   4536   4548   4549     1  0.0000000  0.6508444  3
   4546   4536   4548   4550     1  0.0000000  0.6508444  3
   4547   4536   4535   4556     1  0.0000000  0.6508444  3
   4547   4536   4548   4551     1  0.0000000  0.6508444  3
   4547   4536   4548   4549     1  0.0000000  0.6508444  3
   4547   4536   4548   4550     1  0.0000000  0.6508444  3
   4548   4536   4535   4556     1  0.0000000  0.6508444  3
   4548   4551   4553   4555     1  180.0000771  9.6232000  2
   4549   4548   4551   4552     1  0.0000000  3.3472000  1
   4549   4548   4551   4552     1  0.0000000  0.0000000  2
   4549   4548   4551   4552     1  180.0000771  0.3347200  3
   4549   4548   4551   4553     1  180.0000771  0.0000000  2
   4550   4548   4551   4552     1  0.0000000  3.3472000  1
   4550   4548   4551   4552     1  0.0000000  0.0000000  2
   4550   4548   4551   4552     1  180.0000771  0.3347200  3
   4550   4548   4551   4553     1  180.0000771  0.0000000  2
   4552   4551   4553   4555     1  0.0000000  7.9496000  1
   4552   4551   4553   4555     1  180.0000771  9.6232000  2
   4557   4559   4561   4563     1  0.0000000  0.6508444  3
   4557   4559   4561   4564     1  0.0000000  0.6508444  3
   4558   4557   4559   4561     1  0.0000000  0.0000000  2
   4558   4557   4559   4560     1  0.0000000  0.0000000  2
   4558   4557   4559   4562     1  0.0000000  0.0000000  2
   4559   4561   4565   4586     1  0.0000000  0.6508444  3
   4560   4559   4561   4565     1  0.0000000  0.6508444  3
   4560   4559   4561   4563     1  0.0000000  0.6508444  3
   4560   4559   4561   4564     1  0.0000000  0.6508444  3
   4561   4565   4566   4576     1  0.0000000  0.6508444  3
   4561   4565   4566   4577     1  0.0000000  0.6508444  3
   4561   4565   4567   4568     1  0.0000000  0.6508444  3
   4561   4565   4567   4570     1  0.0000000  0.6508444  3
   4562   4559   4561   4565     1  0.0000000  0.6508444  3
   4562   4559   4561   4563     1  0.0000000  0.6508444  3
   4562   4559   4561   4564     1  0.0000000  0.6508444  3
   4563   4561   4565   4566     1  0.0000000  0.6508444  3
   4563   4561   4565   4567     1  0.0000000  0.6508444  3
   4563   4561   4565   4586     1  0.0000000  0.6508444  3
   4564   4561   4565   4566     1  0.0000000  0.6508444  3
   4564   4561   4565   4567     1  0.0000000  0.6508444  3
   4564   4561   4565   4586     1  0.0000000  0.6508444  3
   4565   4566   4578   4579     1  0.0000000  0.6508444  3
   4565   4566   4578   4580     1  0.0000000  0.6508444  3
   4565   4567   4569   4571     1  0.0000000  0.6508444  3
   4565   4567   4569   4572     1  0.0000000  0.6508444  3
   4566   4565   4567   4568     1  0.0000000  0.6508444  3
   4566   4565   4567   4570     1  0.0000000  0.6508444  3
   4567   4565   4566   4576     1  0.0000000  0.6508444  3
   4567   4565   4566   4577     1  0.0000000  0.6508444  3
   4568   4567   4569   4573     1  0.0000000  0.6508444  3
   4568   4567   4569   4571     1  0.0000000  0.6508444  3
   4568   4567   4569   4572     1  0.0000000  0.6508444  3
   4568   4567   4565   4586     1  0.0000000  0.6508444  3
   4569   4573   4574   4584     1  180.0000771  9.6232000  2
   4569   4567   4565   4586     1  0.0000000  0.6508444  3
   4570   4567   4569   4573     1  0.0000000  0.6508444  3
   4570   4567   4569   4571     1  0.0000000  0.6508444  3
   4570   4567   4569   4572     1  0.0000000  0.6508444  3
   4570   4567   4565   4586     1  0.0000000  0.6508444  3
   4571   4569   4573   4574     1  180.0000771  0.0000000  2
   4571   4569   4573   4575     1  0.0000000  3.3472000  1
   4571   4569   4573   4575     1  0.0000000  0.0000000  2
   4571   4569   4573   4575     1  180.0000771  0.3347200  3
   4572   4569   4573   4574     1  180.0000771  0.0000000  2
   4572   4569   4573   4575     1  0.0000000  3.3472000  1
   4572   4569   4573   4575     1  0.0000000  0.0000000  2
   4572   4569   4573   4575     1  180.0000771  0.3347200  3
   4575   4573   4574   4584     1  0.0000000  7.9496000  1
   4575   4573   4574   4584     1  180.0000771  9.6232000  2
   4576   4566   4578   4581     1  0.0000000  0.6508444  3
   4576   4566   4578   4579     1  0.0000000  0.6508444  3
   4576   4566   4578   4580     1  0.0000000  0.6508444  3
   4576   4566   4565   4586     1  0.0000000  0.6508444  3
   4577   4566   4578   4581     1  0.0000000  0.6508444  3
   4577   4566   4578   4579     1  0.0000000  0.6508444  3
   4577   4566   4578   4580     1  0.0000000  0.6508444  3
   4577   4566   4565   4586     1  0.0000000  0.6508444  3
   4578   4581   4583   4585     1  180.0000771  9.6232000  2
   4578   4566   4565   4586     1  0.0000000  0.6508444  3
   4579   4578   4581   4582     1  0.0000000  3.3472000  1
   4579   4578   4581   4582     1  0.0000000  0.0000000  2
   4579   4578   4581   4582     1  180.0000771  0.3347200  3
   4579   4578   4581   4583     1  180.0000771  0.0000000  2
   4580   4578   4581   4582     1  0.0000000  3.3472000  1
   4580   4578   4581   4582     1  0.0000000  0.0000000  2
   4580   4578   4581   4582     1  180.0000771  0.3347200  3
   4580   4578   4581   4583     1  180.0000771  0.0000000  2
   4582   4581   4583   4585     1  0.0000000  7.9496000  1
   4582   4581   4583   4585     1  180.0000771  9.6232000  2
   4587   4589   4591   4593     1  0.0000000  0.6508444  3
   4587   4589   4591   4594     1  0.0000000  0.6508444  3
   4588   4587   4589   4591     1  0.0000000  0.0000000  2
   4588   4587   4589   4590     1  0.0000000  0.0000000  2
   4588   4587   4589   4592     1  0.0000000  0.0000000  2
   4589   4591   4595   4616     1  0.0000000  0.6508444  3
   4590   4589   4591   4595     1  0.0000000  0.6508444  3
   4590   4589   4591   4593     1  0.0000000  0.6508444  3
   4590   4589   4591   4594     1  0.0000000  0.6508444  3
   4591   4595   4596   4606     1  0.0000000  0.6508444  3
   4591   4595   4596   4607     1  0.0000000  0.6508444  3
   4591   4595   4597   4598     1  0.0000000  0.6508444  3
   4591   4595   4597   4600     1  0.0000000  0.6508444  3
   4592   4589   4591   4595     1  0.0000000  0.6508444  3
   4592   4589   4591   4593     1  0.0000000  0.6508444  3
   4592   4589   4591   4594     1  0.0000000  0.6508444  3
   4593   4591   4595   4596     1  0.0000000  0.6508444  3
   4593   4591   4595   4597     1  0.0000000  0.6508444  3
   4593   4591   4595   4616     1  0.0000000  0.6508444  3
   4594   4591   4595   4596     1  0.0000000  0.6508444  3
   4594   4591   4595   4597     1  0.0000000  0.6508444  3
   4594   4591   4595   4616     1  0.0000000  0.6508444  3
   4595   4596   4608   4609     1  0.0000000  0.6508444  3
   4595   4596   4608   4610     1  0.0000000  0.6508444  3
   4595   4597   4599   4601     1  0.0000000  0.6508444  3
   4595   4597   4599   4602     1  0.0000000  0.6508444  3
   4596   4595   4597   4598     1  0.0000000  0.6508444  3
   4596   4595   4597   4600     1  0.0000000  0.6508444  3
   4597   4595   4596   4606     1  0.0000000  0.6508444  3
   4597   4595   4596   4607     1  0.0000000  0.6508444  3
   4598   4597   4595   4616     1  0.0000000  0.6508444  3
   4598   4597   4599   4603     1  0.0000000  0.6508444  3
   4598   4597   4599   4601     1  0.0000000  0.6508444  3
   4598   4597   4599   4602     1  0.0000000  0.6508444  3
   4599   4597   4595   4616     1  0.0000000  0.6508444  3
   4599   4603   4604   4614     1  180.0000771  9.6232000  2
   4600   4597   4595   4616     1  0.0000000  0.6508444  3
   4600   4597   4599   4603     1  0.0000000  0.6508444  3
   4600   4597   4599   4601     1  0.0000000  0.6508444  3
   4600   4597   4599   4602     1  0.0000000  0.6508444  3
   4601   4599   4603   4604     1  180.0000771  0.0000000  2
   4601   4599   4603   4605     1  0.0000000  3.3472000  1
   4601   4599   4603   4605     1  0.0000000  0.0000000  2
   4601   4599   4603   4605     1  180.0000771  0.3347200  3
   4602   4599   4603   4604     1  180.0000771  0.0000000  2
   4602   4599   4603   4605     1  0.0000000  3.3472000  1
   4602   4599   4603   4605     1  0.0000000  0.0000000  2
   4602   4599   4603   4605     1  180.0000771  0.3347200  3
   4605   4603   4604   4614     1  0.0000000  7.9496000  1
   4605   4603   4604   4614     1  180.0000771  9.6232000  2
   4606   4596   4595   4616     1  0.0000000  0.6508444  3
   4606   4596   4608   4611     1  0.0000000  0.6508444  3
   4606   4596   4608   4609     1  0.0000000  0.6508444  3
   4606   4596   4608   4610     1  0.0000000  0.6508444  3
   4607   4596   4595   4616     1  0.0000000  0.6508444  3
   4607   4596   4608   4611     1  0.0000000  0.6508444  3
   4607   4596   4608   4609     1  0.0000000  0.6508444  3
   4607   4596   4608   4610     1  0.0000000  0.6508444  3
   4608   4596   4595   4616     1  0.0000000  0.6508444  3
   4608   4611   4613   4615     1  180.0000771  9.6232000  2
   4609   4608   4611   4612     1  0.0000000  3.3472000  1
   4609   4608   4611   4612     1  0.0000000  0.0000000  2
   4609   4608   4611   4612     1  180.0000771  0.3347200  3
   4609   4608   4611   4613     1  180.0000771  0.0000000  2
   4610   4608   4611   4612     1  0.0000000  3.3472000  1
   4610   4608   4611   4612     1  0.0000000  0.0000000  2
   4610   4608   4611   4612     1  180.0000771  0.3347200  3
   4610   4608   4611   4613     1  180.0000771  0.0000000  2
   4612   4611   4613   4615     1  0.0000000  7.9496000  1
   4612   4611   4613   4615     1  180.0000771  9.6232000  2
   4617   4619   4621   4623     1  0.0000000  0.6508444  3
   4617   4619   4621   4624     1  0.0000000  0.6508444  3
   4618   4617   4619   4621     1  0.0000000  0.0000000  2
   4618   4617   4619   4620     1  0.0000000  0.0000000  2
   4618   4617   4619   4622     1  0.0000000  0.0000000  2
   4619   4621   4625   4646     1  0.0000000  0.6508444  3
   4620   4619   4621   4625     1  0.0000000  0.6508444  3
   4620   4619   4621   4623     1  0.0000000  0.6508444  3
   4620   4619   4621   4624     1  0.0000000  0.6508444  3
   4621   4625   4626   4636     1  0.0000000  0.6508444  3
   4621   4625   4626   4637     1  0.0000000  0.6508444  3
   4621   4625   4627   4628     1  0.0000000  0.6508444  3
   4621   4625   4627   4630     1  0.0000000  0.6508444  3
   4622   4619   4621   4625     1  0.0000000  0.6508444  3
   4622   4619   4621   4623     1  0.0000000  0.6508444  3
   4622   4619   4621   4624     1  0.0000000  0.6508444  3
   4623   4621   4625   4626     1  0.0000000  0.6508444  3
   4623   4621   4625   4627     1  0.0000000  0.6508444  3
   4623   4621   4625   4646     1  0.0000000  0.6508444  3
   4624   4621   4625   4626     1  0.0000000  0.6508444  3
   4624   4621   4625   4627     1  0.0000000  0.6508444  3
   4624   4621   4625   4646     1  0.0000000  0.6508444  3
   4625   4626   4638   4639     1  0.0000000  0.6508444  3
   4625   4626   4638   4640     1  0.0000000  0.6508444  3
   4625   4627   4629   4631     1  0.0000000  0.6508444  3
   4625   4627   4629   4632     1  0.0000000  0.6508444  3
   4626   4625   4627   4628     1  0.0000000  0.6508444  3
   4626   4625   4627   4630     1  0.0000000  0.6508444  3
   4627   4625   4626   4636     1  0.0000000  0.6508444  3
   4627   4625   4626   4637     1  0.0000000  0.6508444  3
   4628   4627   4629   4633     1  0.0000000  0.6508444  3
   4628   4627   4629   4631     1  0.0000000  0.6508444  3
   4628   4627   4629   4632     1  0.0000000  0.6508444  3
   4628   4627   4625   4646     1  0.0000000  0.6508444  3
   4629   4633   4634   4644     1  180.0000771  9.6232000  2
   4629   4627   4625   4646     1  0.0000000  0.6508444  3
   4630   4627   4629   4633     1  0.0000000  0.6508444  3
   4630   4627   4629   4631     1  0.0000000  0.6508444  3
   4630   4627   4629   4632     1  0.0000000  0.6508444  3
   4630   4627   4625   4646     1  0.0000000  0.6508444  3
   4631   4629   4633   4634     1  180.0000771  0.0000000  2
   4631   4629   4633   4635     1  0.0000000  3.3472000  1
   4631   4629   4633   4635     1  0.0000000  0.0000000  2
   4631   4629   4633   4635     1  180.0000771  0.3347200  3
   4632   4629   4633   4634     1  180.0000771  0.0000000  2
   4632   4629   4633   4635     1  0.0000000  3.3472000  1
   4632   4629   4633   4635     1  0.0000000  0.0000000  2
   4632   4629   4633   4635     1  180.0000771  0.3347200  3
   4635   4633   4634   4644     1  0.0000000  7.9496000  1
   4635   4633   4634   4644     1  180.0000771  9.6232000  2
   4636   4626   4638   4641     1  0.0000000  0.6508444  3
   4636   4626   4638   4639     1  0.0000000  0.6508444  3
   4636   4626   4638   4640     1  0.0000000  0.6508444  3
   4636   4626   4625   4646     1  0.0000000  0.6508444  3
   4637   4626   4638   4641     1  0.0000000  0.6508444  3
   4637   4626   4638   4639     1  0.0000000  0.6508444  3
   4637   4626   4638   4640     1  0.0000000  0.6508444  3
   4637   4626   4625   4646     1  0.0000000  0.6508444  3
   4638   4641   4643   4645     1  180.0000771  9.6232000  2
   4638   4626   4625   4646     1  0.0000000  0.6508444  3
   4639   4638   4641   4642     1  0.0000000  3.3472000  1
   4639   4638   4641   4642     1  0.0000000  0.0000000  2
   4639   4638   4641   4642     1  180.0000771  0.3347200  3
   4639   4638   4641   4643     1  180.0000771  0.0000000  2
   4640   4638   4641   4642     1  0.0000000  3.3472000  1
   4640   4638   4641   4642     1  0.0000000  0.0000000  2
   4640   4638   4641   4642     1  180.0000771  0.3347200  3
   4640   4638   4641   4643     1  180.0000771  0.0000000  2
   4642   4641   4643   4645     1  0.0000000  7.9496000  1
   4642   4641   4643   4645     1  180.0000771  9.6232000  2
   4647   4649   4651   4653     1  0.0000000  0.6508444  3
   4647   4649   4651   4654     1  0.0000000  0.6508444  3
   4648   4647   4649   4651     1  0.0000000  0.0000000  2
   4648   4647   4649   4650     1  0.0000000  0.0000000  2
   4648   4647   4649   4652     1  0.0000000  0.0000000  2
   4649   4651   4655   4676     1  0.0000000  0.6508444  3
   4650   4649   4651   4655     1  0.0000000  0.6508444  3
   4650   4649   4651   4653     1  0.0000000  0.6508444  3
   4650   4649   4651   4654     1  0.0000000  0.6508444  3
   4651   4655   4656   4666     1  0.0000000  0.6508444  3
   4651   4655   4656   4667     1  0.0000000  0.6508444  3
   4651   4655   4657   4658     1  0.0000000  0.6508444  3
   4651   4655   4657   4660     1  0.0000000  0.6508444  3
   4652   4649   4651   4655     1  0.0000000  0.6508444  3
   4652   4649   4651   4653     1  0.0000000  0.6508444  3
   4652   4649   4651   4654     1  0.0000000  0.6508444  3
   4653   4651   4655   4656     1  0.0000000  0.6508444  3
   4653   4651   4655   4657     1  0.0000000  0.6508444  3
   4653   4651   4655   4676     1  0.0000000  0.6508444  3
   4654   4651   4655   4656     1  0.0000000  0.6508444  3
   4654   4651   4655   4657     1  0.0000000  0.6508444  3
   4654   4651   4655   4676     1  0.0000000  0.6508444  3
   4655   4656   4668   4669     1  0.0000000  0.6508444  3
   4655   4656   4668   4670     1  0.0000000  0.6508444  3
   4655   4657   4659   4661     1  0.0000000  0.6508444  3
   4655   4657   4659   4662     1  0.0000000  0.6508444  3
   4656   4655   4657   4658     1  0.0000000  0.6508444  3
   4656   4655   4657   4660     1  0.0000000  0.6508444  3
   4657   4655   4656   4666     1  0.0000000  0.6508444  3
   4657   4655   4656   4667     1  0.0000000  0.6508444  3
   4658   4657   4655   4676     1  0.0000000  0.6508444  3
   4658   4657   4659   4663     1  0.0000000  0.6508444  3
   4658   4657   4659   4661     1  0.0000000  0.6508444  3
   4658   4657   4659   4662     1  0.0000000  0.6508444  3
   4659   4657   4655   4676     1  0.0000000  0.6508444  3
   4659   4663   4664   4674     1  180.0000771  9.6232000  2
   4660   4657   4655   4676     1  0.0000000  0.6508444  3
   4660   4657   4659   4663     1  0.0000000  0.6508444  3
   4660   4657   4659   4661     1  0.0000000  0.6508444  3
   4660   4657   4659   4662     1  0.0000000  0.6508444  3
   4661   4659   4663   4664     1  180.0000771  0.0000000  2
   4661   4659   4663   4665     1  0.0000000  3.3472000  1
   4661   4659   4663   4665     1  0.0000000  0.0000000  2
   4661   4659   4663   4665     1  180.0000771  0.3347200  3
   4662   4659   4663   4664     1  180.0000771  0.0000000  2
   4662   4659   4663   4665     1  0.0000000  3.3472000  1
   4662   4659   4663   4665     1  0.0000000  0.0000000  2
   4662   4659   4663   4665     1  180.0000771  0.3347200  3
   4665   4663   4664   4674     1  0.0000000  7.9496000  1
   4665   4663   4664   4674     1  180.0000771  9.6232000  2
   4666   4656   4655   4676     1  0.0000000  0.6508444  3
   4666   4656   4668   4671     1  0.0000000  0.6508444  3
   4666   4656   4668   4669     1  0.0000000  0.6508444  3
   4666   4656   4668   4670     1  0.0000000  0.6508444  3
   4667   4656   4655   4676     1  0.0000000  0.6508444  3
   4667   4656   4668   4671     1  0.0000000  0.6508444  3
   4667   4656   4668   4669     1  0.0000000  0.6508444  3
   4667   4656   4668   4670     1  0.0000000  0.6508444  3
   4668   4656   4655   4676     1  0.0000000  0.6508444  3
   4668   4671   4673   4675     1  180.0000771  9.6232000  2
   4669   4668   4671   4672     1  0.0000000  3.3472000  1
   4669   4668   4671   4672     1  0.0000000  0.0000000  2
   4669   4668   4671   4672     1  180.0000771  0.3347200  3
   4669   4668   4671   4673     1  180.0000771  0.0000000  2
   4670   4668   4671   4672     1  0.0000000  3.3472000  1
   4670   4668   4671   4672     1  0.0000000  0.0000000  2
   4670   4668   4671   4672     1  180.0000771  0.3347200  3
   4670   4668   4671   4673     1  180.0000771  0.0000000  2
   4672   4671   4673   4675     1  0.0000000  7.9496000  1
   4672   4671   4673   4675     1  180.0000771  9.6232000  2
   4677   4679   4681   4683     1  0.0000000  0.6508444  3
   4677   4679   4681   4684     1  0.0000000  0.6508444  3
   4678   4677   4679   4681     1  0.0000000  0.0000000  2
   4678   4677   4679   4680     1  0.0000000  0.0000000  2
   4678   4677   4679   4682     1  0.0000000  0.0000000  2
   4679   4681   4685   4706     1  0.0000000  0.6508444  3
   4680   4679   4681   4685     1  0.0000000  0.6508444  3
   4680   4679   4681   4683     1  0.0000000  0.6508444  3
   4680   4679   4681   4684     1  0.0000000  0.6508444  3
   4681   4685   4686   4696     1  0.0000000  0.6508444  3
   4681   4685   4686   4697     1  0.0000000  0.6508444  3
   4681   4685   4687   4688     1  0.0000000  0.6508444  3
   4681   4685   4687   4690     1  0.0000000  0.6508444  3
   4682   4679   4681   4685     1  0.0000000  0.6508444  3
   4682   4679   4681   4683     1  0.0000000  0.6508444  3
   4682   4679   4681   4684     1  0.0000000  0.6508444  3
   4683   4681   4685   4686     1  0.0000000  0.6508444  3
   4683   4681   4685   4687     1  0.0000000  0.6508444  3
   4683   4681   4685   4706     1  0.0000000  0.6508444  3
   4684   4681   4685   4686     1  0.0000000  0.6508444  3
   4684   4681   4685   4687     1  0.0000000  0.6508444  3
   4684   4681   4685   4706     1  0.0000000  0.6508444  3
   4685   4686   4698   4699     1  0.0000000  0.6508444  3
   4685   4686   4698   4700     1  0.0000000  0.6508444  3
   4685   4687   4689   4691     1  0.0000000  0.6508444  3
   4685   4687   4689   4692     1  0.0000000  0.6508444  3
   4686   4685   4687   4688     1  0.0000000  0.6508444  3
   4686   4685   4687   4690     1  0.0000000  0.6508444  3
   4687   4685   4686   4696     1  0.0000000  0.6508444  3
   4687   4685   4686   4697     1  0.0000000  0.6508444  3
   4688   4687   4689   4693     1  0.0000000  0.6508444  3
   4688   4687   4689   4691     1  0.0000000  0.6508444  3
   4688   4687   4689   4692     1  0.0000000  0.6508444  3
   4688   4687   4685   4706     1  0.0000000  0.6508444  3
   4689   4693   4694   4704     1  180.0000771  9.6232000  2
   4689   4687   4685   4706     1  0.0000000  0.6508444  3
   4690   4687   4689   4693     1  0.0000000  0.6508444  3
   4690   4687   4689   4691     1  0.0000000  0.6508444  3
   4690   4687   4689   4692     1  0.0000000  0.6508444  3
   4690   4687   4685   4706     1  0.0000000  0.6508444  3
   4691   4689   4693   4694     1  180.0000771  0.0000000  2
   4691   4689   4693   4695     1  0.0000000  3.3472000  1
   4691   4689   4693   4695     1  0.0000000  0.0000000  2
   4691   4689   4693   4695     1  180.0000771  0.3347200  3
   4692   4689   4693   4694     1  180.0000771  0.0000000  2
   4692   4689   4693   4695     1  0.0000000  3.3472000  1
   4692   4689   4693   4695     1  0.0000000  0.0000000  2
   4692   4689   4693   4695     1  180.0000771  0.3347200  3
   4695   4693   4694   4704     1  0.0000000  7.9496000  1
   4695   4693   4694   4704     1  180.0000771  9.6232000  2
   4696   4686   4698   4701     1  0.0000000  0.6508444  3
   4696   4686   4698   4699     1  0.0000000  0.6508444  3
   4696   4686   4698   4700     1  0.0000000  0.6508444  3
   4696   4686   4685   4706     1  0.0000000  0.6508444  3
   4697   4686   4698   4701     1  0.0000000  0.6508444  3
   4697   4686   4698   4699     1  0.0000000  0.6508444  3
   4697   4686   4698   4700     1  0.0000000  0.6508444  3
   4697   4686   4685   4706     1  0.0000000  0.6508444  3
   4698   4701   4703   4705     1  180.0000771  9.6232000  2
   4698   4686   4685   4706     1  0.0000000  0.6508444  3
   4699   4698   4701   4702     1  0.0000000  3.3472000  1
   4699   4698   4701   4702     1  0.0000000  0.0000000  2
   4699   4698   4701   4702     1  180.0000771  0.3347200  3
   4699   4698   4701   4703     1  180.0000771  0.0000000  2
   4700   4698   4701   4702     1  0.0000000  3.3472000  1
   4700   4698   4701   4702     1  0.0000000  0.0000000  2
   4700   4698   4701   4702     1  180.0000771  0.3347200  3
   4700   4698   4701   4703     1  180.0000771  0.0000000  2
   4702   4701   4703   4705     1  0.0000000  7.9496000  1
   4702   4701   4703   4705     1  180.0000771  9.6232000  2
   4707   4709   4711   4713     1  0.0000000  0.6508444  3
   4707   4709   4711   4714     1  0.0000000  0.6508444  3
   4708   4707   4709   4711     1  0.0000000  0.0000000  2
   4708   4707   4709   4710     1  0.0000000  0.0000000  2
   4708   4707   4709   4712     1  0.0000000  0.0000000  2
   4709   4711   4715   4736     1  0.0000000  0.6508444  3
   4710   4709   4711   4715     1  0.0000000  0.6508444  3
   4710   4709   4711   4713     1  0.0000000  0.6508444  3
   4710   4709   4711   4714     1  0.0000000  0.6508444  3
   4711   4715   4716   4726     1  0.0000000  0.6508444  3
   4711   4715   4716   4727     1  0.0000000  0.6508444  3
   4711   4715   4717   4718     1  0.0000000  0.6508444  3
   4711   4715   4717   4720     1  0.0000000  0.6508444  3
   4712   4709   4711   4715     1  0.0000000  0.6508444  3
   4712   4709   4711   4713     1  0.0000000  0.6508444  3
   4712   4709   4711   4714     1  0.0000000  0.6508444  3
   4713   4711   4715   4716     1  0.0000000  0.6508444  3
   4713   4711   4715   4717     1  0.0000000  0.6508444  3
   4713   4711   4715   4736     1  0.0000000  0.6508444  3
   4714   4711   4715   4716     1  0.0000000  0.6508444  3
   4714   4711   4715   4717     1  0.0000000  0.6508444  3
   4714   4711   4715   4736     1  0.0000000  0.6508444  3
   4715   4716   4728   4729     1  0.0000000  0.6508444  3
   4715   4716   4728   4730     1  0.0000000  0.6508444  3
   4715   4717   4719   4721     1  0.0000000  0.6508444  3
   4715   4717   4719   4722     1  0.0000000  0.6508444  3
   4716   4715   4717   4718     1  0.0000000  0.6508444  3
   4716   4715   4717   4720     1  0.0000000  0.6508444  3
   4717   4715   4716   4726     1  0.0000000  0.6508444  3
   4717   4715   4716   4727     1  0.0000000  0.6508444  3
   4718   4717   4715   4736     1  0.0000000  0.6508444  3
   4718   4717   4719   4723     1  0.0000000  0.6508444  3
   4718   4717   4719   4721     1  0.0000000  0.6508444  3
   4718   4717   4719   4722     1  0.0000000  0.6508444  3
   4719   4717   4715   4736     1  0.0000000  0.6508444  3
   4719   4723   4724   4734     1  180.0000771  9.6232000  2
   4720   4717   4715   4736     1  0.0000000  0.6508444  3
   4720   4717   4719   4723     1  0.0000000  0.6508444  3
   4720   4717   4719   4721     1  0.0000000  0.6508444  3
   4720   4717   4719   4722     1  0.0000000  0.6508444  3
   4721   4719   4723   4724     1  180.0000771  0.0000000  2
   4721   4719   4723   4725     1  0.0000000  3.3472000  1
   4721   4719   4723   4725     1  0.0000000  0.0000000  2
   4721   4719   4723   4725     1  180.0000771  0.3347200  3
   4722   4719   4723   4724     1  180.0000771  0.0000000  2
   4722   4719   4723   4725     1  0.0000000  3.3472000  1
   4722   4719   4723   4725     1  0.0000000  0.0000000  2
   4722   4719   4723   4725     1  180.0000771  0.3347200  3
   4725   4723   4724   4734     1  0.0000000  7.9496000  1
   4725   4723   4724   4734     1  180.0000771  9.6232000  2
   4726   4716   4715   4736     1  0.0000000  0.6508444  3
   4726   4716   4728   4731     1  0.0000000  0.6508444  3
   4726   4716   4728   4729     1  0.0000000  0.6508444  3
   4726   4716   4728   4730     1  0.0000000  0.6508444  3
   4727   4716   4715   4736     1  0.0000000  0.6508444  3
   4727   4716   4728   4731     1  0.0000000  0.6508444  3
   4727   4716   4728   4729     1  0.0000000  0.6508444  3
   4727   4716   4728   4730     1  0.0000000  0.6508444  3
   4728   4716   4715   4736     1  0.0000000  0.6508444  3
   4728   4731   4733   4735     1  180.0000771  9.6232000  2
   4729   4728   4731   4732     1  0.0000000  3.3472000  1
   4729   4728   4731   4732     1  0.0000000  0.0000000  2
   4729   4728   4731   4732     1  180.0000771  0.3347200  3
   4729   4728   4731   4733     1  180.0000771  0.0000000  2
   4730   4728   4731   4732     1  0.0000000  3.3472000  1
   4730   4728   4731   4732     1  0.0000000  0.0000000  2
   4730   4728   4731   4732     1  180.0000771  0.3347200  3
   4730   4728   4731   4733     1  180.0000771  0.0000000  2
   4732   4731   4733   4735     1  0.0000000  7.9496000  1
   4732   4731   4733   4735     1  180.0000771  9.6232000  2
   4737   4739   4741   4743     1  0.0000000  0.6508444  3
   4737   4739   4741   4744     1  0.0000000  0.6508444  3
   4738   4737   4739   4741     1  0.0000000  0.0000000  2
   4738   4737   4739   4740     1  0.0000000  0.0000000  2
   4738   4737   4739   4742     1  0.0000000  0.0000000  2
   4739   4741   4745   4766     1  0.0000000  0.6508444  3
   4740   4739   4741   4745     1  0.0000000  0.6508444  3
   4740   4739   4741   4743     1  0.0000000  0.6508444  3
   4740   4739   4741   4744     1  0.0000000  0.6508444  3
   4741   4745   4746   4756     1  0.0000000  0.6508444  3
   4741   4745   4746   4757     1  0.0000000  0.6508444  3
   4741   4745   4747   4748     1  0.0000000  0.6508444  3
   4741   4745   4747   4750     1  0.0000000  0.6508444  3
   4742   4739   4741   4745     1  0.0000000  0.6508444  3
   4742   4739   4741   4743     1  0.0000000  0.6508444  3
   4742   4739   4741   4744     1  0.0000000  0.6508444  3
   4743   4741   4745   4746     1  0.0000000  0.6508444  3
   4743   4741   4745   4747     1  0.0000000  0.6508444  3
   4743   4741   4745   4766     1  0.0000000  0.6508444  3
   4744   4741   4745   4746     1  0.0000000  0.6508444  3
   4744   4741   4745   4747     1  0.0000000  0.6508444  3
   4744   4741   4745   4766     1  0.0000000  0.6508444  3
   4745   4746   4758   4759     1  0.0000000  0.6508444  3
   4745   4746   4758   4760     1  0.0000000  0.6508444  3
   4745   4747   4749   4751     1  0.0000000  0.6508444  3
   4745   4747   4749   4752     1  0.0000000  0.6508444  3
   4746   4745   4747   4748     1  0.0000000  0.6508444  3
   4746   4745   4747   4750     1  0.0000000  0.6508444  3
   4747   4745   4746   4756     1  0.0000000  0.6508444  3
   4747   4745   4746   4757     1  0.0000000  0.6508444  3
   4748   4747   4749   4753     1  0.0000000  0.6508444  3
   4748   4747   4749   4751     1  0.0000000  0.6508444  3
   4748   4747   4749   4752     1  0.0000000  0.6508444  3
   4748   4747   4745   4766     1  0.0000000  0.6508444  3
   4749   4753   4754   4764     1  180.0000771  9.6232000  2
   4749   4747   4745   4766     1  0.0000000  0.6508444  3
   4750   4747   4749   4753     1  0.0000000  0.6508444  3
   4750   4747   4749   4751     1  0.0000000  0.6508444  3
   4750   4747   4749   4752     1  0.0000000  0.6508444  3
   4750   4747   4745   4766     1  0.0000000  0.6508444  3
   4751   4749   4753   4754     1  180.0000771  0.0000000  2
   4751   4749   4753   4755     1  0.0000000  3.3472000  1
   4751   4749   4753   4755     1  0.0000000  0.0000000  2
   4751   4749   4753   4755     1  180.0000771  0.3347200  3
   4752   4749   4753   4754     1  180.0000771  0.0000000  2
   4752   4749   4753   4755     1  0.0000000  3.3472000  1
   4752   4749   4753   4755     1  0.0000000  0.0000000  2
   4752   4749   4753   4755     1  180.0000771  0.3347200  3
   4755   4753   4754   4764     1  0.0000000  7.9496000  1
   4755   4753   4754   4764     1  180.0000771  9.6232000  2
   4756   4746   4758   4761     1  0.0000000  0.6508444  3
   4756   4746   4758   4759     1  0.0000000  0.6508444  3
   4756   4746   4758   4760     1  0.0000000  0.6508444  3
   4756   4746   4745   4766     1  0.0000000  0.6508444  3
   4757   4746   4758   4761     1  0.0000000  0.6508444  3
   4757   4746   4758   4759     1  0.0000000  0.6508444  3
   4757   4746   4758   4760     1  0.0000000  0.6508444  3
   4757   4746   4745   4766     1  0.0000000  0.6508444  3
   4758   4761   4763   4765     1  180.0000771  9.6232000  2
   4758   4746   4745   4766     1  0.0000000  0.6508444  3
   4759   4758   4761   4762     1  0.0000000  3.3472000  1
   4759   4758   4761   4762     1  0.0000000  0.0000000  2
   4759   4758   4761   4762     1  180.0000771  0.3347200  3
   4759   4758   4761   4763     1  180.0000771  0.0000000  2
   4760   4758   4761   4762     1  0.0000000  3.3472000  1
   4760   4758   4761   4762     1  0.0000000  0.0000000  2
   4760   4758   4761   4762     1  180.0000771  0.3347200  3
   4760   4758   4761   4763     1  180.0000771  0.0000000  2
   4762   4761   4763   4765     1  0.0000000  7.9496000  1
   4762   4761   4763   4765     1  180.0000771  9.6232000  2
   4767   4769   4771   4773     1  0.0000000  0.6508444  3
   4767   4769   4771   4774     1  0.0000000  0.6508444  3
   4768   4767   4769   4771     1  0.0000000  0.0000000  2
   4768   4767   4769   4770     1  0.0000000  0.0000000  2
   4768   4767   4769   4772     1  0.0000000  0.0000000  2
   4769   4771   4775   4796     1  0.0000000  0.6508444  3
   4770   4769   4771   4775     1  0.0000000  0.6508444  3
   4770   4769   4771   4773     1  0.0000000  0.6508444  3
   4770   4769   4771   4774     1  0.0000000  0.6508444  3
   4771   4775   4776   4786     1  0.0000000  0.6508444  3
   4771   4775   4776   4787     1  0.0000000  0.6508444  3
   4771   4775   4777   4778     1  0.0000000  0.6508444  3
   4771   4775   4777   4780     1  0.0000000  0.6508444  3
   4772   4769   4771   4775     1  0.0000000  0.6508444  3
   4772   4769   4771   4773     1  0.0000000  0.6508444  3
   4772   4769   4771   4774     1  0.0000000  0.6508444  3
   4773   4771   4775   4776     1  0.0000000  0.6508444  3
   4773   4771   4775   4777     1  0.0000000  0.6508444  3
   4773   4771   4775   4796     1  0.0000000  0.6508444  3
   4774   4771   4775   4776     1  0.0000000  0.6508444  3
   4774   4771   4775   4777     1  0.0000000  0.6508444  3
   4774   4771   4775   4796     1  0.0000000  0.6508444  3
   4775   4776   4788   4789     1  0.0000000  0.6508444  3
   4775   4776   4788   4790     1  0.0000000  0.6508444  3
   4775   4777   4779   4781     1  0.0000000  0.6508444  3
   4775   4777   4779   4782     1  0.0000000  0.6508444  3
   4776   4775   4777   4778     1  0.0000000  0.6508444  3
   4776   4775   4777   4780     1  0.0000000  0.6508444  3
   4777   4775   4776   4786     1  0.0000000  0.6508444  3
   4777   4775   4776   4787     1  0.0000000  0.6508444  3
   4778   4777   4775   4796     1  0.0000000  0.6508444  3
   4778   4777   4779   4783     1  0.0000000  0.6508444  3
   4778   4777   4779   4781     1  0.0000000  0.6508444  3
   4778   4777   4779   4782     1  0.0000000  0.6508444  3
   4779   4777   4775   4796     1  0.0000000  0.6508444  3
   4779   4783   4784   4794     1  180.0000771  9.6232000  2
   4780   4777   4775   4796     1  0.0000000  0.6508444  3
   4780   4777   4779   4783     1  0.0000000  0.6508444  3
   4780   4777   4779   4781     1  0.0000000  0.6508444  3
   4780   4777   4779   4782     1  0.0000000  0.6508444  3
   4781   4779   4783   4784     1  180.0000771  0.0000000  2
   4781   4779   4783   4785     1  0.0000000  3.3472000  1
   4781   4779   4783   4785     1  0.0000000  0.0000000  2
   4781   4779   4783   4785     1  180.0000771  0.3347200  3
   4782   4779   4783   4784     1  180.0000771  0.0000000  2
   4782   4779   4783   4785     1  0.0000000  3.3472000  1
   4782   4779   4783   4785     1  0.0000000  0.0000000  2
   4782   4779   4783   4785     1  180.0000771  0.3347200  3
   4785   4783   4784   4794     1  0.0000000  7.9496000  1
   4785   4783   4784   4794     1  180.0000771  9.6232000  2
   4786   4776   4775   4796     1  0.0000000  0.6508444  3
   4786   4776   4788   4791     1  0.0000000  0.6508444  3
   4786   4776   4788   4789     1  0.0000000  0.6508444  3
   4786   4776   4788   4790     1  0.0000000  0.6508444  3
   4787   4776   4775   4796     1  0.0000000  0.6508444  3
   4787   4776   4788   4791     1  0.0000000  0.6508444  3
   4787   4776   4788   4789     1  0.0000000  0.6508444  3
   4787   4776   4788   4790     1  0.0000000  0.6508444  3
   4788   4776   4775   4796     1  0.0000000  0.6508444  3
   4788   4791   4793   4795     1  180.0000771  9.6232000  2
   4789   4788   4791   4792     1  0.0000000  3.3472000  1
   4789   4788   4791   4792     1  0.0000000  0.0000000  2
   4789   4788   4791   4792     1  180.0000771  0.3347200  3
   4789   4788   4791   4793     1  180.0000771  0.0000000  2
   4790   4788   4791   4792     1  0.0000000  3.3472000  1
   4790   4788   4791   4792     1  0.0000000  0.0000000  2
   4790   4788   4791   4792     1  180.0000771  0.3347200  3
   4790   4788   4791   4793     1  180.0000771  0.0000000  2
   4792   4791   4793   4795     1  0.0000000  7.9496000  1
   4792   4791   4793   4795     1  180.0000771  9.6232000  2
   4797   4799   4801   4803     1  0.0000000  0.6508444  3
   4797   4799   4801   4804     1  0.0000000  0.6508444  3
   4798   4797   4799   4801     1  0.0000000  0.0000000  2
   4798   4797   4799   4800     1  0.0000000  0.0000000  2
   4798   4797   4799   4802     1  0.0000000  0.0000000  2
   4799   4801   4805   4826     1  0.0000000  0.6508444  3
   4800   4799   4801   4805     1  0.0000000  0.6508444  3
   4800   4799   4801   4803     1  0.0000000  0.6508444  3
   4800   4799   4801   4804     1  0.0000000  0.6508444  3
   4801   4805   4806   4816     1  0.0000000  0.6508444  3
   4801   4805   4806   4817     1  0.0000000  0.6508444  3
   4801   4805   4807   4808     1  0.0000000  0.6508444  3
   4801   4805   4807   4810     1  0.0000000  0.6508444  3
   4802   4799   4801   4805     1  0.0000000  0.6508444  3
   4802   4799   4801   4803     1  0.0000000  0.6508444  3
   4802   4799   4801   4804     1  0.0000000  0.6508444  3
   4803   4801   4805   4806     1  0.0000000  0.6508444  3
   4803   4801   4805   4807     1  0.0000000  0.6508444  3
   4803   4801   4805   4826     1  0.0000000  0.6508444  3
   4804   4801   4805   4806     1  0.0000000  0.6508444  3
   4804   4801   4805   4807     1  0.0000000  0.6508444  3
   4804   4801   4805   4826     1  0.0000000  0.6508444  3
   4805   4806   4818   4819     1  0.0000000  0.6508444  3
   4805   4806   4818   4820     1  0.0000000  0.6508444  3
   4805   4807   4809   4811     1  0.0000000  0.6508444  3
   4805   4807   4809   4812     1  0.0000000  0.6508444  3
   4806   4805   4807   4808     1  0.0000000  0.6508444  3
   4806   4805   4807   4810     1  0.0000000  0.6508444  3
   4807   4805   4806   4816     1  0.0000000  0.6508444  3
   4807   4805   4806   4817     1  0.0000000  0.6508444  3
   4808   4807   4809   4813     1  0.0000000  0.6508444  3
   4808   4807   4809   4811     1  0.0000000  0.6508444  3
   4808   4807   4809   4812     1  0.0000000  0.6508444  3
   4808   4807   4805   4826     1  0.0000000  0.6508444  3
   4809   4813   4814   4824     1  180.0000771  9.6232000  2
   4809   4807   4805   4826     1  0.0000000  0.6508444  3
   4810   4807   4809   4813     1  0.0000000  0.6508444  3
   4810   4807   4809   4811     1  0.0000000  0.6508444  3
   4810   4807   4809   4812     1  0.0000000  0.6508444  3
   4810   4807   4805   4826     1  0.0000000  0.6508444  3
   4811   4809   4813   4814     1  180.0000771  0.0000000  2
   4811   4809   4813   4815     1  0.0000000  3.3472000  1
   4811   4809   4813   4815     1  0.0000000  0.0000000  2
   4811   4809   4813   4815     1  180.0000771  0.3347200  3
   4812   4809   4813   4814     1  180.0000771  0.0000000  2
   4812   4809   4813   4815     1  0.0000000  3.3472000  1
   4812   4809   4813   4815     1  0.0000000  0.0000000  2
   4812   4809   4813   4815     1  180.0000771  0.3347200  3
   4815   4813   4814   4824     1  0.0000000  7.9496000  1
   4815   4813   4814   4824     1  180.0000771  9.6232000  2
   4816   4806   4818   4821     1  0.0000000  0.6508444  3
   4816   4806   4818   4819     1  0.0000000  0.6508444  3
   4816   4806   4818   4820     1  0.0000000  0.6508444  3
   4816   4806   4805   4826     1  0.0000000  0.6508444  3
   4817   4806   4818   4821     1  0.0000000  0.6508444  3
   4817   4806   4818   4819     1  0.0000000  0.6508444  3
   4817   4806   4818   4820     1  0.0000000  0.6508444  3
   4817   4806   4805   4826     1  0.0000000  0.6508444  3
   4818   4821   4823   4825     1  180.0000771  9.6232000  2
   4818   4806   4805   4826     1  0.0000000  0.6508444  3
   4819   4818   4821   4822     1  0.0000000  3.3472000  1
   4819   4818   4821   4822     1  0.0000000  0.0000000  2
   4819   4818   4821   4822     1  180.0000771  0.3347200  3
   4819   4818   4821   4823     1  180.0000771  0.0000000  2
   4820   4818   4821   4822     1  0.0000000  3.3472000  1
   4820   4818   4821   4822     1  0.0000000  0.0000000  2
   4820   4818   4821   4822     1  180.0000771  0.3347200  3
   4820   4818   4821   4823     1  180.0000771  0.0000000  2
   4822   4821   4823   4825     1  0.0000000  7.9496000  1
   4822   4821   4823   4825     1  180.0000771  9.6232000  2
   4827   4829   4831   4833     1  0.0000000  0.6508444  3
   4827   4829   4831   4834     1  0.0000000  0.6508444  3
   4828   4827   4829   4831     1  0.0000000  0.0000000  2
   4828   4827   4829   4830     1  0.0000000  0.0000000  2
   4828   4827   4829   4832     1  0.0000000  0.0000000  2
   4829   4831   4835   4856     1  0.0000000  0.6508444  3
   4830   4829   4831   4835     1  0.0000000  0.6508444  3
   4830   4829   4831   4833     1  0.0000000  0.6508444  3
   4830   4829   4831   4834     1  0.0000000  0.6508444  3
   4831   4835   4836   4846     1  0.0000000  0.6508444  3
   4831   4835   4836   4847     1  0.0000000  0.6508444  3
   4831   4835   4837   4838     1  0.0000000  0.6508444  3
   4831   4835   4837   4840     1  0.0000000  0.6508444  3
   4832   4829   4831   4835     1  0.0000000  0.6508444  3
   4832   4829   4831   4833     1  0.0000000  0.6508444  3
   4832   4829   4831   4834     1  0.0000000  0.6508444  3
   4833   4831   4835   4836     1  0.0000000  0.6508444  3
   4833   4831   4835   4837     1  0.0000000  0.6508444  3
   4833   4831   4835   4856     1  0.0000000  0.6508444  3
   4834   4831   4835   4836     1  0.0000000  0.6508444  3
   4834   4831   4835   4837     1  0.0000000  0.6508444  3
   4834   4831   4835   4856     1  0.0000000  0.6508444  3
   4835   4836   4848   4849     1  0.0000000  0.6508444  3
   4835   4836   4848   4850     1  0.0000000  0.6508444  3
   4835   4837   4839   4841     1  0.0000000  0.6508444  3
   4835   4837   4839   4842     1  0.0000000  0.6508444  3
   4836   4835   4837   4838     1  0.0000000  0.6508444  3
   4836   4835   4837   4840     1  0.0000000  0.6508444  3
   4837   4835   4836   4846     1  0.0000000  0.6508444  3
   4837   4835   4836   4847     1  0.0000000  0.6508444  3
   4838   4837   4835   4856     1  0.0000000  0.6508444  3
   4838   4837   4839   4843     1  0.0000000  0.6508444  3
   4838   4837   4839   4841     1  0.0000000  0.6508444  3
   4838   4837   4839   4842     1  0.0000000  0.6508444  3
   4839   4837   4835   4856     1  0.0000000  0.6508444  3
   4839   4843   4844   4854     1  180.0000771  9.6232000  2
   4840   4837   4835   4856     1  0.0000000  0.6508444  3
   4840   4837   4839   4843     1  0.0000000  0.6508444  3
   4840   4837   4839   4841     1  0.0000000  0.6508444  3
   4840   4837   4839   4842     1  0.0000000  0.6508444  3
   4841   4839   4843   4844     1  180.0000771  0.0000000  2
   4841   4839   4843   4845     1  0.0000000  3.3472000  1
   4841   4839   4843   4845     1  0.0000000  0.0000000  2
   4841   4839   4843   4845     1  180.0000771  0.3347200  3
   4842   4839   4843   4844     1  180.0000771  0.0000000  2
   4842   4839   4843   4845     1  0.0000000  3.3472000  1
   4842   4839   4843   4845     1  0.0000000  0.0000000  2
   4842   4839   4843   4845     1  180.0000771  0.3347200  3
   4845   4843   4844   4854     1  0.0000000  7.9496000  1
   4845   4843   4844   4854     1  180.0000771  9.6232000  2
   4846   4836   4835   4856     1  0.0000000  0.6508444  3
   4846   4836   4848   4851     1  0.0000000  0.6508444  3
   4846   4836   4848   4849     1  0.0000000  0.6508444  3
   4846   4836   4848   4850     1  0.0000000  0.6508444  3
   4847   4836   4835   4856     1  0.0000000  0.6508444  3
   4847   4836   4848   4851     1  0.0000000  0.6508444  3
   4847   4836   4848   4849     1  0.0000000  0.6508444  3
   4847   4836   4848   4850     1  0.0000000  0.6508444  3
   4848   4836   4835   4856     1  0.0000000  0.6508444  3
   4848   4851   4853   4855     1  180.0000771  9.6232000  2
   4849   4848   4851   4852     1  0.0000000  3.3472000  1
   4849   4848   4851   4852     1  0.0000000  0.0000000  2
   4849   4848   4851   4852     1  180.0000771  0.3347200  3
   4849   4848   4851   4853     1  180.0000771  0.0000000  2
   4850   4848   4851   4852     1  0.0000000  3.3472000  1
   4850   4848   4851   4852     1  0.0000000  0.0000000  2
   4850   4848   4851   4852     1  180.0000771  0.3347200  3
   4850   4848   4851   4853     1  180.0000771  0.0000000  2
   4852   4851   4853   4855     1  0.0000000  7.9496000  1
   4852   4851   4853   4855     1  180.0000771  9.6232000  2
   4857   4859   4861   4863     1  0.0000000  0.6508444  3
   4857   4859   4861   4864     1  0.0000000  0.6508444  3
   4858   4857   4859   4861     1  0.0000000  0.0000000  2
   4858   4857   4859   4860     1  0.0000000  0.0000000  2
   4858   4857   4859   4862     1  0.0000000  0.0000000  2
   4859   4861   4865   4886     1  0.0000000  0.6508444  3
   4860   4859   4861   4865     1  0.0000000  0.6508444  3
   4860   4859   4861   4863     1  0.0000000  0.6508444  3
   4860   4859   4861   4864     1  0.0000000  0.6508444  3
   4861   4865   4866   4876     1  0.0000000  0.6508444  3
   4861   4865   4866   4877     1  0.0000000  0.6508444  3
   4861   4865   4867   4868     1  0.0000000  0.6508444  3
   4861   4865   4867   4870     1  0.0000000  0.6508444  3
   4862   4859   4861   4865     1  0.0000000  0.6508444  3
   4862   4859   4861   4863     1  0.0000000  0.6508444  3
   4862   4859   4861   4864     1  0.0000000  0.6508444  3
   4863   4861   4865   4866     1  0.0000000  0.6508444  3
   4863   4861   4865   4867     1  0.0000000  0.6508444  3
   4863   4861   4865   4886     1  0.0000000  0.6508444  3
   4864   4861   4865   4866     1  0.0000000  0.6508444  3
   4864   4861   4865   4867     1  0.0000000  0.6508444  3
   4864   4861   4865   4886     1  0.0000000  0.6508444  3
   4865   4866   4878   4879     1  0.0000000  0.6508444  3
   4865   4866   4878   4880     1  0.0000000  0.6508444  3
   4865   4867   4869   4871     1  0.0000000  0.6508444  3
   4865   4867   4869   4872     1  0.0000000  0.6508444  3
   4866   4865   4867   4868     1  0.0000000  0.6508444  3
   4866   4865   4867   4870     1  0.0000000  0.6508444  3
   4867   4865   4866   4876     1  0.0000000  0.6508444  3
   4867   4865   4866   4877     1  0.0000000  0.6508444  3
   4868   4867   4869   4873     1  0.0000000  0.6508444  3
   4868   4867   4869   4871     1  0.0000000  0.6508444  3
   4868   4867   4869   4872     1  0.0000000  0.6508444  3
   4868   4867   4865   4886     1  0.0000000  0.6508444  3
   4869   4873   4874   4884     1  180.0000771  9.6232000  2
   4869   4867   4865   4886     1  0.0000000  0.6508444  3
   4870   4867   4869   4873     1  0.0000000  0.6508444  3
   4870   4867   4869   4871     1  0.0000000  0.6508444  3
   4870   4867   4869   4872     1  0.0000000  0.6508444  3
   4870   4867   4865   4886     1  0.0000000  0.6508444  3
   4871   4869   4873   4874     1  180.0000771  0.0000000  2
   4871   4869   4873   4875     1  0.0000000  3.3472000  1
   4871   4869   4873   4875     1  0.0000000  0.0000000  2
   4871   4869   4873   4875     1  180.0000771  0.3347200  3
   4872   4869   4873   4874     1  180.0000771  0.0000000  2
   4872   4869   4873   4875     1  0.0000000  3.3472000  1
   4872   4869   4873   4875     1  0.0000000  0.0000000  2
   4872   4869   4873   4875     1  180.0000771  0.3347200  3
   4875   4873   4874   4884     1  0.0000000  7.9496000  1
   4875   4873   4874   4884     1  180.0000771  9.6232000  2
   4876   4866   4878   4881     1  0.0000000  0.6508444  3
   4876   4866   4878   4879     1  0.0000000  0.6508444  3
   4876   4866   4878   4880     1  0.0000000  0.6508444  3
   4876   4866   4865   4886     1  0.0000000  0.6508444  3
   4877   4866   4878   4881     1  0.0000000  0.6508444  3
   4877   4866   4878   4879     1  0.0000000  0.6508444  3
   4877   4866   4878   4880     1  0.0000000  0.6508444  3
   4877   4866   4865   4886     1  0.0000000  0.6508444  3
   4878   4881   4883   4885     1  180.0000771  9.6232000  2
   4878   4866   4865   4886     1  0.0000000  0.6508444  3
   4879   4878   4881   4882     1  0.0000000  3.3472000  1
   4879   4878   4881   4882     1  0.0000000  0.0000000  2
   4879   4878   4881   4882     1  180.0000771  0.3347200  3
   4879   4878   4881   4883     1  180.0000771  0.0000000  2
   4880   4878   4881   4882     1  0.0000000  3.3472000  1
   4880   4878   4881   4882     1  0.0000000  0.0000000  2
   4880   4878   4881   4882     1  180.0000771  0.3347200  3
   4880   4878   4881   4883     1  180.0000771  0.0000000  2
   4882   4881   4883   4885     1  0.0000000  7.9496000  1
   4882   4881   4883   4885     1  180.0000771  9.6232000  2
   4887   4889   4891   4893     1  0.0000000  0.6508444  3
   4887   4889   4891   4894     1  0.0000000  0.6508444  3
   4888   4887   4889   4891     1  0.0000000  0.0000000  2
   4888   4887   4889   4890     1  0.0000000  0.0000000  2
   4888   4887   4889   4892     1  0.0000000  0.0000000  2
   4889   4891   4895   4916     1  0.0000000  0.6508444  3
   4890   4889   4891   4895     1  0.0000000  0.6508444  3
   4890   4889   4891   4893     1  0.0000000  0.6508444  3
   4890   4889   4891   4894     1  0.0000000  0.6508444  3
   4891   4895   4896   4906     1  0.0000000  0.6508444  3
   4891   4895   4896   4907     1  0.0000000  0.6508444  3
   4891   4895   4897   4898     1  0.0000000  0.6508444  3
   4891   4895   4897   4900     1  0.0000000  0.6508444  3
   4892   4889   4891   4895     1  0.0000000  0.6508444  3
   4892   4889   4891   4893     1  0.0000000  0.6508444  3
   4892   4889   4891   4894     1  0.0000000  0.6508444  3
   4893   4891   4895   4896     1  0.0000000  0.6508444  3
   4893   4891   4895   4897     1  0.0000000  0.6508444  3
   4893   4891   4895   4916     1  0.0000000  0.6508444  3
   4894   4891   4895   4896     1  0.0000000  0.6508444  3
   4894   4891   4895   4897     1  0.0000000  0.6508444  3
   4894   4891   4895   4916     1  0.0000000  0.6508444  3
   4895   4896   4908   4909     1  0.0000000  0.6508444  3
   4895   4896   4908   4910     1  0.0000000  0.6508444  3
   4895   4897   4899   4901     1  0.0000000  0.6508444  3
   4895   4897   4899   4902     1  0.0000000  0.6508444  3
   4896   4895   4897   4898     1  0.0000000  0.6508444  3
   4896   4895   4897   4900     1  0.0000000  0.6508444  3
   4897   4895   4896   4906     1  0.0000000  0.6508444  3
   4897   4895   4896   4907     1  0.0000000  0.6508444  3
   4898   4897   4895   4916     1  0.0000000  0.6508444  3
   4898   4897   4899   4903     1  0.0000000  0.6508444  3
   4898   4897   4899   4901     1  0.0000000  0.6508444  3
   4898   4897   4899   4902     1  0.0000000  0.6508444  3
   4899   4897   4895   4916     1  0.0000000  0.6508444  3
   4899   4903   4904   4914     1  180.0000771  9.6232000  2
   4900   4897   4895   4916     1  0.0000000  0.6508444  3
   4900   4897   4899   4903     1  0.0000000  0.6508444  3
   4900   4897   4899   4901     1  0.0000000  0.6508444  3
   4900   4897   4899   4902     1  0.0000000  0.6508444  3
   4901   4899   4903   4904     1  180.0000771  0.0000000  2
   4901   4899   4903   4905     1  0.0000000  3.3472000  1
   4901   4899   4903   4905     1  0.0000000  0.0000000  2
   4901   4899   4903   4905     1  180.0000771  0.3347200  3
   4902   4899   4903   4904     1  180.0000771  0.0000000  2
   4902   4899   4903   4905     1  0.0000000  3.3472000  1
   4902   4899   4903   4905     1  0.0000000  0.0000000  2
   4902   4899   4903   4905     1  180.0000771  0.3347200  3
   4905   4903   4904   4914     1  0.0000000  7.9496000  1
   4905   4903   4904   4914     1  180.0000771  9.6232000  2
   4906   4896   4895   4916     1  0.0000000  0.6508444  3
   4906   4896   4908   4911     1  0.0000000  0.6508444  3
   4906   4896   4908   4909     1  0.0000000  0.6508444  3
   4906   4896   4908   4910     1  0.0000000  0.6508444  3
   4907   4896   4895   4916     1  0.0000000  0.6508444  3
   4907   4896   4908   4911     1  0.0000000  0.6508444  3
   4907   4896   4908   4909     1  0.0000000  0.6508444  3
   4907   4896   4908   4910     1  0.0000000  0.6508444  3
   4908   4896   4895   4916     1  0.0000000  0.6508444  3
   4908   4911   4913   4915     1  180.0000771  9.6232000  2
   4909   4908   4911   4912     1  0.0000000  3.3472000  1
   4909   4908   4911   4912     1  0.0000000  0.0000000  2
   4909   4908   4911   4912     1  180.0000771  0.3347200  3
   4909   4908   4911   4913     1  180.0000771  0.0000000  2
   4910   4908   4911   4912     1  0.0000000  3.3472000  1
   4910   4908   4911   4912     1  0.0000000  0.0000000  2
   4910   4908   4911   4912     1  180.0000771  0.3347200  3
   4910   4908   4911   4913     1  180.0000771  0.0000000  2
   4912   4911   4913   4915     1  0.0000000  7.9496000  1
   4912   4911   4913   4915     1  180.0000771  9.6232000  2
   4917   4919   4921   4923     1  0.0000000  0.6508444  3
   4917   4919   4921   4924     1  0.0000000  0.6508444  3
   4918   4917   4919   4921     1  0.0000000  0.0000000  2
   4918   4917   4919   4920     1  0.0000000  0.0000000  2
   4918   4917   4919   4922     1  0.0000000  0.0000000  2
   4919   4921   4925   4946     1  0.0000000  0.6508444  3
   4920   4919   4921   4925     1  0.0000000  0.6508444  3
   4920   4919   4921   4923     1  0.0000000  0.6508444  3
   4920   4919   4921   4924     1  0.0000000  0.6508444  3
   4921   4925   4926   4936     1  0.0000000  0.6508444  3
   4921   4925   4926   4937     1  0.0000000  0.6508444  3
   4921   4925   4927   4928     1  0.0000000  0.6508444  3
   4921   4925   4927   4930     1  0.0000000  0.6508444  3
   4922   4919   4921   4925     1  0.0000000  0.6508444  3
   4922   4919   4921   4923     1  0.0000000  0.6508444  3
   4922   4919   4921   4924     1  0.0000000  0.6508444  3
   4923   4921   4925   4926     1  0.0000000  0.6508444  3
   4923   4921   4925   4927     1  0.0000000  0.6508444  3
   4923   4921   4925   4946     1  0.0000000  0.6508444  3
   4924   4921   4925   4926     1  0.0000000  0.6508444  3
   4924   4921   4925   4927     1  0.0000000  0.6508444  3
   4924   4921   4925   4946     1  0.0000000  0.6508444  3
   4925   4926   4938   4939     1  0.0000000  0.6508444  3
   4925   4926   4938   4940     1  0.0000000  0.6508444  3
   4925   4927   4929   4931     1  0.0000000  0.6508444  3
   4925   4927   4929   4932     1  0.0000000  0.6508444  3
   4926   4925   4927   4928     1  0.0000000  0.6508444  3
   4926   4925   4927   4930     1  0.0000000  0.6508444  3
   4927   4925   4926   4936     1  0.0000000  0.6508444  3
   4927   4925   4926   4937     1  0.0000000  0.6508444  3
   4928   4927   4929   4933     1  0.0000000  0.6508444  3
   4928   4927   4929   4931     1  0.0000000  0.6508444  3
   4928   4927   4929   4932     1  0.0000000  0.6508444  3
   4928   4927   4925   4946     1  0.0000000  0.6508444  3
   4929   4933   4934   4944     1  180.0000771  9.6232000  2
   4929   4927   4925   4946     1  0.0000000  0.6508444  3
   4930   4927   4929   4933     1  0.0000000  0.6508444  3
   4930   4927   4929   4931     1  0.0000000  0.6508444  3
   4930   4927   4929   4932     1  0.0000000  0.6508444  3
   4930   4927   4925   4946     1  0.0000000  0.6508444  3
   4931   4929   4933   4934     1  180.0000771  0.0000000  2
   4931   4929   4933   4935     1  0.0000000  3.3472000  1
   4931   4929   4933   4935     1  0.0000000  0.0000000  2
   4931   4929   4933   4935     1  180.0000771  0.3347200  3
   4932   4929   4933   4934     1  180.0000771  0.0000000  2
   4932   4929   4933   4935     1  0.0000000  3.3472000  1
   4932   4929   4933   4935     1  0.0000000  0.0000000  2
   4932   4929   4933   4935     1  180.0000771  0.3347200  3
   4935   4933   4934   4944     1  0.0000000  7.9496000  1
   4935   4933   4934   4944     1  180.0000771  9.6232000  2
   4936   4926   4938   4941     1  0.0000000  0.6508444  3
   4936   4926   4938   4939     1  0.0000000  0.6508444  3
   4936   4926   4938   4940     1  0.0000000  0.6508444  3
   4936   4926   4925   4946     1  0.0000000  0.6508444  3
   4937   4926   4938   4941     1  0.0000000  0.6508444  3
   4937   4926   4938   4939     1  0.0000000  0.6508444  3
   4937   4926   4938   4940     1  0.0000000  0.6508444  3
   4937   4926   4925   4946     1  0.0000000  0.6508444  3
   4938   4941   4943   4945     1  180.0000771  9.6232000  2
   4938   4926   4925   4946     1  0.0000000  0.6508444  3
   4939   4938   4941   4942     1  0.0000000  3.3472000  1
   4939   4938   4941   4942     1  0.0000000  0.0000000  2
   4939   4938   4941   4942     1  180.0000771  0.3347200  3
   4939   4938   4941   4943     1  180.0000771  0.0000000  2
   4940   4938   4941   4942     1  0.0000000  3.3472000  1
   4940   4938   4941   4942     1  0.0000000  0.0000000  2
   4940   4938   4941   4942     1  180.0000771  0.3347200  3
   4940   4938   4941   4943     1  180.0000771  0.0000000  2
   4942   4941   4943   4945     1  0.0000000  7.9496000  1
   4942   4941   4943   4945     1  180.0000771  9.6232000  2
   4947   4949   4951   4953     1  0.0000000  0.6508444  3
   4947   4949   4951   4954     1  0.0000000  0.6508444  3
   4948   4947   4949   4951     1  0.0000000  0.0000000  2
   4948   4947   4949   4950     1  0.0000000  0.0000000  2
   4948   4947   4949   4952     1  0.0000000  0.0000000  2
   4949   4951   4955   4976     1  0.0000000  0.6508444  3
   4950   4949   4951   4955     1  0.0000000  0.6508444  3
   4950   4949   4951   4953     1  0.0000000  0.6508444  3
   4950   4949   4951   4954     1  0.0000000  0.6508444  3
   4951   4955   4956   4966     1  0.0000000  0.6508444  3
   4951   4955   4956   4967     1  0.0000000  0.6508444  3
   4951   4955   4957   4958     1  0.0000000  0.6508444  3
   4951   4955   4957   4960     1  0.0000000  0.6508444  3
   4952   4949   4951   4955     1  0.0000000  0.6508444  3
   4952   4949   4951   4953     1  0.0000000  0.6508444  3
   4952   4949   4951   4954     1  0.0000000  0.6508444  3
   4953   4951   4955   4956     1  0.0000000  0.6508444  3
   4953   4951   4955   4957     1  0.0000000  0.6508444  3
   4953   4951   4955   4976     1  0.0000000  0.6508444  3
   4954   4951   4955   4956     1  0.0000000  0.6508444  3
   4954   4951   4955   4957     1  0.0000000  0.6508444  3
   4954   4951   4955   4976     1  0.0000000  0.6508444  3
   4955   4956   4968   4969     1  0.0000000  0.6508444  3
   4955   4956   4968   4970     1  0.0000000  0.6508444  3
   4955   4957   4959   4961     1  0.0000000  0.6508444  3
   4955   4957   4959   4962     1  0.0000000  0.6508444  3
   4956   4955   4957   4958     1  0.0000000  0.6508444  3
   4956   4955   4957   4960     1  0.0000000  0.6508444  3
   4957   4955   4956   4966     1  0.0000000  0.6508444  3
   4957   4955   4956   4967     1  0.0000000  0.6508444  3
   4958   4957   4955   4976     1  0.0000000  0.6508444  3
   4958   4957   4959   4963     1  0.0000000  0.6508444  3
   4958   4957   4959   4961     1  0.0000000  0.6508444  3
   4958   4957   4959   4962     1  0.0000000  0.6508444  3
   4959   4957   4955   4976     1  0.0000000  0.6508444  3
   4959   4963   4964   4974     1  180.0000771  9.6232000  2
   4960   4957   4955   4976     1  0.0000000  0.6508444  3
   4960   4957   4959   4963     1  0.0000000  0.6508444  3
   4960   4957   4959   4961     1  0.0000000  0.6508444  3
   4960   4957   4959   4962     1  0.0000000  0.6508444  3
   4961   4959   4963   4964     1  180.0000771  0.0000000  2
   4961   4959   4963   4965     1  0.0000000  3.3472000  1
   4961   4959   4963   4965     1  0.0000000  0.0000000  2
   4961   4959   4963   4965     1  180.0000771  0.3347200  3
   4962   4959   4963   4964     1  180.0000771  0.0000000  2
   4962   4959   4963   4965     1  0.0000000  3.3472000  1
   4962   4959   4963   4965     1  0.0000000  0.0000000  2
   4962   4959   4963   4965     1  180.0000771  0.3347200  3
   4965   4963   4964   4974     1  0.0000000  7.9496000  1
   4965   4963   4964   4974     1  180.0000771  9.6232000  2
   4966   4956   4955   4976     1  0.0000000  0.6508444  3
   4966   4956   4968   4971     1  0.0000000  0.6508444  3
   4966   4956   4968   4969     1  0.0000000  0.6508444  3
   4966   4956   4968   4970     1  0.0000000  0.6508444  3
   4967   4956   4955   4976     1  0.0000000  0.6508444  3
   4967   4956   4968   4971     1  0.0000000  0.6508444  3
   4967   4956   4968   4969     1  0.0000000  0.6508444  3
   4967   4956   4968   4970     1  0.0000000  0.6508444  3
   4968   4956   4955   4976     1  0.0000000  0.6508444  3
   4968   4971   4973   4975     1  180.0000771  9.6232000  2
   4969   4968   4971   4972     1  0.0000000  3.3472000  1
   4969   4968   4971   4972     1  0.0000000  0.0000000  2
   4969   4968   4971   4972     1  180.0000771  0.3347200  3
   4969   4968   4971   4973     1  180.0000771  0.0000000  2
   4970   4968   4971   4972     1  0.0000000  3.3472000  1
   4970   4968   4971   4972     1  0.0000000  0.0000000  2
   4970   4968   4971   4972     1  180.0000771  0.3347200  3
   4970   4968   4971   4973     1  180.0000771  0.0000000  2
   4972   4971   4973   4975     1  0.0000000  7.9496000  1
   4972   4971   4973   4975     1  180.0000771  9.6232000  2
   4977   4979   4981   4983     1  0.0000000  0.6508444  3
   4977   4979   4981   4984     1  0.0000000  0.6508444  3
   4978   4977   4979   4981     1  0.0000000  0.0000000  2
   4978   4977   4979   4980     1  0.0000000  0.0000000  2
   4978   4977   4979   4982     1  0.0000000  0.0000000  2
   4979   4981   4985   5006     1  0.0000000  0.6508444  3
   4980   4979   4981   4985     1  0.0000000  0.6508444  3
   4980   4979   4981   4983     1  0.0000000  0.6508444  3
   4980   4979   4981   4984     1  0.0000000  0.6508444  3
   4981   4985   4986   4996     1  0.0000000  0.6508444  3
   4981   4985   4986   4997     1  0.0000000  0.6508444  3
   4981   4985   4987   4988     1  0.0000000  0.6508444  3
   4981   4985   4987   4990     1  0.0000000  0.6508444  3
   4982   4979   4981   4985     1  0.0000000  0.6508444  3
   4982   4979   4981   4983     1  0.0000000  0.6508444  3
   4982   4979   4981   4984     1  0.0000000  0.6508444  3
   4983   4981   4985   4986     1  0.0000000  0.6508444  3
   4983   4981   4985   4987     1  0.0000000  0.6508444  3
   4983   4981   4985   5006     1  0.0000000  0.6508444  3
   4984   4981   4985   4986     1  0.0000000  0.6508444  3
   4984   4981   4985   4987     1  0.0000000  0.6508444  3
   4984   4981   4985   5006     1  0.0000000  0.6508444  3
   4985   4986   4998   4999     1  0.0000000  0.6508444  3
   4985   4986   4998   5000     1  0.0000000  0.6508444  3
   4985   4987   4989   4991     1  0.0000000  0.6508444  3
   4985   4987   4989   4992     1  0.0000000  0.6508444  3
   4986   4985   4987   4988     1  0.0000000  0.6508444  3
   4986   4985   4987   4990     1  0.0000000  0.6508444  3
   4987   4985   4986   4996     1  0.0000000  0.6508444  3
   4987   4985   4986   4997     1  0.0000000  0.6508444  3
   4988   4987   4989   4993     1  0.0000000  0.6508444  3
   4988   4987   4989   4991     1  0.0000000  0.6508444  3
   4988   4987   4989   4992     1  0.0000000  0.6508444  3
   4988   4987   4985   5006     1  0.0000000  0.6508444  3
   4989   4993   4994   5004     1  180.0000771  9.6232000  2
   4989   4987   4985   5006     1  0.0000000  0.6508444  3
   4990   4987   4989   4993     1  0.0000000  0.6508444  3
   4990   4987   4989   4991     1  0.0000000  0.6508444  3
   4990   4987   4989   4992     1  0.0000000  0.6508444  3
   4990   4987   4985   5006     1  0.0000000  0.6508444  3
   4991   4989   4993   4994     1  180.0000771  0.0000000  2
   4991   4989   4993   4995     1  0.0000000  3.3472000  1
   4991   4989   4993   4995     1  0.0000000  0.0000000  2
   4991   4989   4993   4995     1  180.0000771  0.3347200  3
   4992   4989   4993   4994     1  180.0000771  0.0000000  2
   4992   4989   4993   4995     1  0.0000000  3.3472000  1
   4992   4989   4993   4995     1  0.0000000  0.0000000  2
   4992   4989   4993   4995     1  180.0000771  0.3347200  3
   4995   4993   4994   5004     1  0.0000000  7.9496000  1
   4995   4993   4994   5004     1  180.0000771  9.6232000  2
   4996   4986   4998   5001     1  0.0000000  0.6508444  3
   4996   4986   4998   4999     1  0.0000000  0.6508444  3
   4996   4986   4998   5000     1  0.0000000  0.6508444  3
   4996   4986   4985   5006     1  0.0000000  0.6508444  3
   4997   4986   4998   5001     1  0.0000000  0.6508444  3
   4997   4986   4998   4999     1  0.0000000  0.6508444  3
   4997   4986   4998   5000     1  0.0000000  0.6508444  3
   4997   4986   4985   5006     1  0.0000000  0.6508444  3
   4998   5001   5003   5005     1  180.0000771  9.6232000  2
   4998   4986   4985   5006     1  0.0000000  0.6508444  3
   4999   4998   5001   5002     1  0.0000000  3.3472000  1
   4999   4998   5001   5002     1  0.0000000  0.0000000  2
   4999   4998   5001   5002     1  180.0000771  0.3347200  3
   4999   4998   5001   5003     1  180.0000771  0.0000000  2
   5000   4998   5001   5002     1  0.0000000  3.3472000  1
   5000   4998   5001   5002     1  0.0000000  0.0000000  2
   5000   4998   5001   5002     1  180.0000771  0.3347200  3
   5000   4998   5001   5003     1  180.0000771  0.0000000  2
   5002   5001   5003   5005     1  0.0000000  7.9496000  1
   5002   5001   5003   5005     1  180.0000771  9.6232000  2
   5007   5009   5011   5013     1  0.0000000  0.6508444  3
   5007   5009   5011   5014     1  0.0000000  0.6508444  3
   5008   5007   5009   5011     1  0.0000000  0.0000000  2
   5008   5007   5009   5010     1  0.0000000  0.0000000  2
   5008   5007   5009   5012     1  0.0000000  0.0000000  2
   5009   5011   5015   5036     1  0.0000000  0.6508444  3
   5010   5009   5011   5015     1  0.0000000  0.6508444  3
   5010   5009   5011   5013     1  0.0000000  0.6508444  3
   5010   5009   5011   5014     1  0.0000000  0.6508444  3
   5011   5015   5016   5026     1  0.0000000  0.6508444  3
   5011   5015   5016   5027     1  0.0000000  0.6508444  3
   5011   5015   5017   5018     1  0.0000000  0.6508444  3
   5011   5015   5017   5020     1  0.0000000  0.6508444  3
   5012   5009   5011   5015     1  0.0000000  0.6508444  3
   5012   5009   5011   5013     1  0.0000000  0.6508444  3
   5012   5009   5011   5014     1  0.0000000  0.6508444  3
   5013   5011   5015   5016     1  0.0000000  0.6508444  3
   5013   5011   5015   5017     1  0.0000000  0.6508444  3
   5013   5011   5015   5036     1  0.0000000  0.6508444  3
   5014   5011   5015   5016     1  0.0000000  0.6508444  3
   5014   5011   5015   5017     1  0.0000000  0.6508444  3
   5014   5011   5015   5036     1  0.0000000  0.6508444  3
   5015   5016   5028   5029     1  0.0000000  0.6508444  3
   5015   5016   5028   5030     1  0.0000000  0.6508444  3
   5015   5017   5019   5021     1  0.0000000  0.6508444  3
   5015   5017   5019   5022     1  0.0000000  0.6508444  3
   5016   5015   5017   5018     1  0.0000000  0.6508444  3
   5016   5015   5017   5020     1  0.0000000  0.6508444  3
   5017   5015   5016   5026     1  0.0000000  0.6508444  3
   5017   5015   5016   5027     1  0.0000000  0.6508444  3
   5018   5017   5015   5036     1  0.0000000  0.6508444  3
   5018   5017   5019   5023     1  0.0000000  0.6508444  3
   5018   5017   5019   5021     1  0.0000000  0.6508444  3
   5018   5017   5019   5022     1  0.0000000  0.6508444  3
   5019   5017   5015   5036     1  0.0000000  0.6508444  3
   5019   5023   5024   5034     1  180.0000771  9.6232000  2
   5020   5017   5015   5036     1  0.0000000  0.6508444  3
   5020   5017   5019   5023     1  0.0000000  0.6508444  3
   5020   5017   5019   5021     1  0.0000000  0.6508444  3
   5020   5017   5019   5022     1  0.0000000  0.6508444  3
   5021   5019   5023   5024     1  180.0000771  0.0000000  2
   5021   5019   5023   5025     1  0.0000000  3.3472000  1
   5021   5019   5023   5025     1  0.0000000  0.0000000  2
   5021   5019   5023   5025     1  180.0000771  0.3347200  3
   5022   5019   5023   5024     1  180.0000771  0.0000000  2
   5022   5019   5023   5025     1  0.0000000  3.3472000  1
   5022   5019   5023   5025     1  0.0000000  0.0000000  2
   5022   5019   5023   5025     1  180.0000771  0.3347200  3
   5025   5023   5024   5034     1  0.0000000  7.9496000  1
   5025   5023   5024   5034     1  180.0000771  9.6232000  2
   5026   5016   5015   5036     1  0.0000000  0.6508444  3
   5026   5016   5028   5031     1  0.0000000  0.6508444  3
   5026   5016   5028   5029     1  0.0000000  0.6508444  3
   5026   5016   5028   5030     1  0.0000000  0.6508444  3
   5027   5016   5015   5036     1  0.0000000  0.6508444  3
   5027   5016   5028   5031     1  0.0000000  0.6508444  3
   5027   5016   5028   5029     1  0.0000000  0.6508444  3
   5027   5016   5028   5030     1  0.0000000  0.6508444  3
   5028   5016   5015   5036     1  0.0000000  0.6508444  3
   5028   5031   5033   5035     1  180.0000771  9.6232000  2
   5029   5028   5031   5032     1  0.0000000  3.3472000  1
   5029   5028   5031   5032     1  0.0000000  0.0000000  2
   5029   5028   5031   5032     1  180.0000771  0.3347200  3
   5029   5028   5031   5033     1  180.0000771  0.0000000  2
   5030   5028   5031   5032     1  0.0000000  3.3472000  1
   5030   5028   5031   5032     1  0.0000000  0.0000000  2
   5030   5028   5031   5032     1  180.0000771  0.3347200  3
   5030   5028   5031   5033     1  180.0000771  0.0000000  2
   5032   5031   5033   5035     1  0.0000000  7.9496000  1
   5032   5031   5033   5035     1  180.0000771  9.6232000  2
   5037   5039   5041   5043     1  0.0000000  0.6508444  3
   5037   5039   5041   5044     1  0.0000000  0.6508444  3
   5038   5037   5039   5041     1  0.0000000  0.0000000  2
   5038   5037   5039   5040     1  0.0000000  0.0000000  2
   5038   5037   5039   5042     1  0.0000000  0.0000000  2
   5039   5041   5045   5066     1  0.0000000  0.6508444  3
   5040   5039   5041   5045     1  0.0000000  0.6508444  3
   5040   5039   5041   5043     1  0.0000000  0.6508444  3
   5040   5039   5041   5044     1  0.0000000  0.6508444  3
   5041   5045   5046   5056     1  0.0000000  0.6508444  3
   5041   5045   5046   5057     1  0.0000000  0.6508444  3
   5041   5045   5047   5048     1  0.0000000  0.6508444  3
   5041   5045   5047   5050     1  0.0000000  0.6508444  3
   5042   5039   5041   5045     1  0.0000000  0.6508444  3
   5042   5039   5041   5043     1  0.0000000  0.6508444  3
   5042   5039   5041   5044     1  0.0000000  0.6508444  3
   5043   5041   5045   5046     1  0.0000000  0.6508444  3
   5043   5041   5045   5047     1  0.0000000  0.6508444  3
   5043   5041   5045   5066     1  0.0000000  0.6508444  3
   5044   5041   5045   5046     1  0.0000000  0.6508444  3
   5044   5041   5045   5047     1  0.0000000  0.6508444  3
   5044   5041   5045   5066     1  0.0000000  0.6508444  3
   5045   5046   5058   5059     1  0.0000000  0.6508444  3
   5045   5046   5058   5060     1  0.0000000  0.6508444  3
   5045   5047   5049   5051     1  0.0000000  0.6508444  3
   5045   5047   5049   5052     1  0.0000000  0.6508444  3
   5046   5045   5047   5048     1  0.0000000  0.6508444  3
   5046   5045   5047   5050     1  0.0000000  0.6508444  3
   5047   5045   5046   5056     1  0.0000000  0.6508444  3
   5047   5045   5046   5057     1  0.0000000  0.6508444  3
   5048   5047   5049   5053     1  0.0000000  0.6508444  3
   5048   5047   5049   5051     1  0.0000000  0.6508444  3
   5048   5047   5049   5052     1  0.0000000  0.6508444  3
   5048   5047   5045   5066     1  0.0000000  0.6508444  3
   5049   5053   5054   5064     1  180.0000771  9.6232000  2
   5049   5047   5045   5066     1  0.0000000  0.6508444  3
   5050   5047   5049   5053     1  0.0000000  0.6508444  3
   5050   5047   5049   5051     1  0.0000000  0.6508444  3
   5050   5047   5049   5052     1  0.0000000  0.6508444  3
   5050   5047   5045   5066     1  0.0000000  0.6508444  3
   5051   5049   5053   5054     1  180.0000771  0.0000000  2
   5051   5049   5053   5055     1  0.0000000  3.3472000  1
   5051   5049   5053   5055     1  0.0000000  0.0000000  2
   5051   5049   5053   5055     1  180.0000771  0.3347200  3
   5052   5049   5053   5054     1  180.0000771  0.0000000  2
   5052   5049   5053   5055     1  0.0000000  3.3472000  1
   5052   5049   5053   5055     1  0.0000000  0.0000000  2
   5052   5049   5053   5055     1  180.0000771  0.3347200  3
   5055   5053   5054   5064     1  0.0000000  7.9496000  1
   5055   5053   5054   5064     1  180.0000771  9.6232000  2
   5056   5046   5058   5061     1  0.0000000  0.6508444  3
   5056   5046   5058   5059     1  0.0000000  0.6508444  3
   5056   5046   5058   5060     1  0.0000000  0.6508444  3
   5056   5046   5045   5066     1  0.0000000  0.6508444  3
   5057   5046   5058   5061     1  0.0000000  0.6508444  3
   5057   5046   5058   5059     1  0.0000000  0.6508444  3
   5057   5046   5058   5060     1  0.0000000  0.6508444  3
   5057   5046   5045   5066     1  0.0000000  0.6508444  3
   5058   5061   5063   5065     1  180.0000771  9.6232000  2
   5058   5046   5045   5066     1  0.0000000  0.6508444  3
   5059   5058   5061   5062     1  0.0000000  3.3472000  1
   5059   5058   5061   5062     1  0.0000000  0.0000000  2
   5059   5058   5061   5062     1  180.0000771  0.3347200  3
   5059   5058   5061   5063     1  180.0000771  0.0000000  2
   5060   5058   5061   5062     1  0.0000000  3.3472000  1
   5060   5058   5061   5062     1  0.0000000  0.0000000  2
   5060   5058   5061   5062     1  180.0000771  0.3347200  3
   5060   5058   5061   5063     1  180.0000771  0.0000000  2
   5062   5061   5063   5065     1  0.0000000  7.9496000  1
   5062   5061   5063   5065     1  180.0000771  9.6232000  2
   5067   5069   5071   5073     1  0.0000000  0.6508444  3
   5067   5069   5071   5074     1  0.0000000  0.6508444  3
   5068   5067   5069   5071     1  0.0000000  0.0000000  2
   5068   5067   5069   5070     1  0.0000000  0.0000000  2
   5068   5067   5069   5072     1  0.0000000  0.0000000  2
   5069   5071   5075   5096     1  0.0000000  0.6508444  3
   5070   5069   5071   5075     1  0.0000000  0.6508444  3
   5070   5069   5071   5073     1  0.0000000  0.6508444  3
   5070   5069   5071   5074     1  0.0000000  0.6508444  3
   5071   5075   5076   5086     1  0.0000000  0.6508444  3
   5071   5075   5076   5087     1  0.0000000  0.6508444  3
   5071   5075   5077   5078     1  0.0000000  0.6508444  3
   5071   5075   5077   5080     1  0.0000000  0.6508444  3
   5072   5069   5071   5075     1  0.0000000  0.6508444  3
   5072   5069   5071   5073     1  0.0000000  0.6508444  3
   5072   5069   5071   5074     1  0.0000000  0.6508444  3
   5073   5071   5075   5076     1  0.0000000  0.6508444  3
   5073   5071   5075   5077     1  0.0000000  0.6508444  3
   5073   5071   5075   5096     1  0.0000000  0.6508444  3
   5074   5071   5075   5076     1  0.0000000  0.6508444  3
   5074   5071   5075   5077     1  0.0000000  0.6508444  3
   5074   5071   5075   5096     1  0.0000000  0.6508444  3
   5075   5076   5088   5089     1  0.0000000  0.6508444  3
   5075   5076   5088   5090     1  0.0000000  0.6508444  3
   5075   5077   5079   5081     1  0.0000000  0.6508444  3
   5075   5077   5079   5082     1  0.0000000  0.6508444  3
   5076   5075   5077   5078     1  0.0000000  0.6508444  3
   5076   5075   5077   5080     1  0.0000000  0.6508444  3
   5077   5075   5076   5086     1  0.0000000  0.6508444  3
   5077   5075   5076   5087     1  0.0000000  0.6508444  3
   5078   5077   5075   5096     1  0.0000000  0.6508444  3
   5078   5077   5079   5083     1  0.0000000  0.6508444  3
   5078   5077   5079   5081     1  0.0000000  0.6508444  3
   5078   5077   5079   5082     1  0.0000000  0.6508444  3
   5079   5077   5075   5096     1  0.0000000  0.6508444  3
   5079   5083   5084   5094     1  180.0000771  9.6232000  2
   5080   5077   5075   5096     1  0.0000000  0.6508444  3
   5080   5077   5079   5083     1  0.0000000  0.6508444  3
   5080   5077   5079   5081     1  0.0000000  0.6508444  3
   5080   5077   5079   5082     1  0.0000000  0.6508444  3
   5081   5079   5083   5084     1  180.0000771  0.0000000  2
   5081   5079   5083   5085     1  0.0000000  3.3472000  1
   5081   5079   5083   5085     1  0.0000000  0.0000000  2
   5081   5079   5083   5085     1  180.0000771  0.3347200  3
   5082   5079   5083   5084     1  180.0000771  0.0000000  2
   5082   5079   5083   5085     1  0.0000000  3.3472000  1
   5082   5079   5083   5085     1  0.0000000  0.0000000  2
   5082   5079   5083   5085     1  180.0000771  0.3347200  3
   5085   5083   5084   5094     1  0.0000000  7.9496000  1
   5085   5083   5084   5094     1  180.0000771  9.6232000  2
   5086   5076   5075   5096     1  0.0000000  0.6508444  3
   5086   5076   5088   5091     1  0.0000000  0.6508444  3
   5086   5076   5088   5089     1  0.0000000  0.6508444  3
   5086   5076   5088   5090     1  0.0000000  0.6508444  3
   5087   5076   5075   5096     1  0.0000000  0.6508444  3
   5087   5076   5088   5091     1  0.0000000  0.6508444  3
   5087   5076   5088   5089     1  0.0000000  0.6508444  3
   5087   5076   5088   5090     1  0.0000000  0.6508444  3
   5088   5076   5075   5096     1  0.0000000  0.6508444  3
   5088   5091   5093   5095     1  180.0000771  9.6232000  2
   5089   5088   5091   5092     1  0.0000000  3.3472000  1
   5089   5088   5091   5092     1  0.0000000  0.0000000  2
   5089   5088   5091   5092     1  180.0000771  0.3347200  3
   5089   5088   5091   5093     1  180.0000771  0.0000000  2
   5090   5088   5091   5092     1  0.0000000  3.3472000  1
   5090   5088   5091   5092     1  0.0000000  0.0000000  2
   5090   5088   5091   5092     1  180.0000771  0.3347200  3
   5090   5088   5091   5093     1  180.0000771  0.0000000  2
   5092   5091   5093   5095     1  0.0000000  7.9496000  1
   5092   5091   5093   5095     1  180.0000771  9.6232000  2
   5097   5099   5101   5103     1  0.0000000  0.6508444  3
   5097   5099   5101   5104     1  0.0000000  0.6508444  3
   5098   5097   5099   5101     1  0.0000000  0.0000000  2
   5098   5097   5099   5100     1  0.0000000  0.0000000  2
   5098   5097   5099   5102     1  0.0000000  0.0000000  2
   5099   5101   5105   5126     1  0.0000000  0.6508444  3
   5100   5099   5101   5105     1  0.0000000  0.6508444  3
   5100   5099   5101   5103     1  0.0000000  0.6508444  3
   5100   5099   5101   5104     1  0.0000000  0.6508444  3
   5101   5105   5106   5116     1  0.0000000  0.6508444  3
   5101   5105   5106   5117     1  0.0000000  0.6508444  3
   5101   5105   5107   5108     1  0.0000000  0.6508444  3
   5101   5105   5107   5110     1  0.0000000  0.6508444  3
   5102   5099   5101   5105     1  0.0000000  0.6508444  3
   5102   5099   5101   5103     1  0.0000000  0.6508444  3
   5102   5099   5101   5104     1  0.0000000  0.6508444  3
   5103   5101   5105   5106     1  0.0000000  0.6508444  3
   5103   5101   5105   5107     1  0.0000000  0.6508444  3
   5103   5101   5105   5126     1  0.0000000  0.6508444  3
   5104   5101   5105   5106     1  0.0000000  0.6508444  3
   5104   5101   5105   5107     1  0.0000000  0.6508444  3
   5104   5101   5105   5126     1  0.0000000  0.6508444  3
   5105   5106   5118   5119     1  0.0000000  0.6508444  3
   5105   5106   5118   5120     1  0.0000000  0.6508444  3
   5105   5107   5109   5111     1  0.0000000  0.6508444  3
   5105   5107   5109   5112     1  0.0000000  0.6508444  3
   5106   5105   5107   5108     1  0.0000000  0.6508444  3
   5106   5105   5107   5110     1  0.0000000  0.6508444  3
   5107   5105   5106   5116     1  0.0000000  0.6508444  3
   5107   5105   5106   5117     1  0.0000000  0.6508444  3
   5108   5107   5109   5113     1  0.0000000  0.6508444  3
   5108   5107   5109   5111     1  0.0000000  0.6508444  3
   5108   5107   5109   5112     1  0.0000000  0.6508444  3
   5108   5107   5105   5126     1  0.0000000  0.6508444  3
   5109   5113   5114   5124     1  180.0000771  9.6232000  2
   5109   5107   5105   5126     1  0.0000000  0.6508444  3
   5110   5107   5109   5113     1  0.0000000  0.6508444  3
   5110   5107   5109   5111     1  0.0000000  0.6508444  3
   5110   5107   5109   5112     1  0.0000000  0.6508444  3
   5110   5107   5105   5126     1  0.0000000  0.6508444  3
   5111   5109   5113   5114     1  180.0000771  0.0000000  2
   5111   5109   5113   5115     1  0.0000000  3.3472000  1
   5111   5109   5113   5115     1  0.0000000  0.0000000  2
   5111   5109   5113   5115     1  180.0000771  0.3347200  3
   5112   5109   5113   5114     1  180.0000771  0.0000000  2
   5112   5109   5113   5115     1  0.0000000  3.3472000  1
   5112   5109   5113   5115     1  0.0000000  0.0000000  2
   5112   5109   5113   5115     1  180.0000771  0.3347200  3
   5115   5113   5114   5124     1  0.0000000  7.9496000  1
   5115   5113   5114   5124     1  180.0000771  9.6232000  2
   5116   5106   5118   5121     1  0.0000000  0.6508444  3
   5116   5106   5118   5119     1  0.0000000  0.6508444  3
   5116   5106   5118   5120     1  0.0000000  0.6508444  3
   5116   5106   5105   5126     1  0.0000000  0.6508444  3
   5117   5106   5118   5121     1  0.0000000  0.6508444  3
   5117   5106   5118   5119     1  0.0000000  0.6508444  3
   5117   5106   5118   5120     1  0.0000000  0.6508444  3
   5117   5106   5105   5126     1  0.0000000  0.6508444  3
   5118   5121   5123   5125     1  180.0000771  9.6232000  2
   5118   5106   5105   5126     1  0.0000000  0.6508444  3
   5119   5118   5121   5122     1  0.0000000  3.3472000  1
   5119   5118   5121   5122     1  0.0000000  0.0000000  2
   5119   5118   5121   5122     1  180.0000771  0.3347200  3
   5119   5118   5121   5123     1  180.0000771  0.0000000  2
   5120   5118   5121   5122     1  0.0000000  3.3472000  1
   5120   5118   5121   5122     1  0.0000000  0.0000000  2
   5120   5118   5121   5122     1  180.0000771  0.3347200  3
   5120   5118   5121   5123     1  180.0000771  0.0000000  2
   5122   5121   5123   5125     1  0.0000000  7.9496000  1
   5122   5121   5123   5125     1  180.0000771  9.6232000  2
   5127   5129   5131   5133     1  0.0000000  0.6508444  3
   5127   5129   5131   5134     1  0.0000000  0.6508444  3
   5128   5127   5129   5131     1  0.0000000  0.0000000  2
   5128   5127   5129   5130     1  0.0000000  0.0000000  2
   5128   5127   5129   5132     1  0.0000000  0.0000000  2
   5129   5131   5135   5156     1  0.0000000  0.6508444  3
   5130   5129   5131   5135     1  0.0000000  0.6508444  3
   5130   5129   5131   5133     1  0.0000000  0.6508444  3
   5130   5129   5131   5134     1  0.0000000  0.6508444  3
   5131   5135   5136   5146     1  0.0000000  0.6508444  3
   5131   5135   5136   5147     1  0.0000000  0.6508444  3
   5131   5135   5137   5138     1  0.0000000  0.6508444  3
   5131   5135   5137   5140     1  0.0000000  0.6508444  3
   5132   5129   5131   5135     1  0.0000000  0.6508444  3
   5132   5129   5131   5133     1  0.0000000  0.6508444  3
   5132   5129   5131   5134     1  0.0000000  0.6508444  3
   5133   5131   5135   5136     1  0.0000000  0.6508444  3
   5133   5131   5135   5137     1  0.0000000  0.6508444  3
   5133   5131   5135   5156     1  0.0000000  0.6508444  3
   5134   5131   5135   5136     1  0.0000000  0.6508444  3
   5134   5131   5135   5137     1  0.0000000  0.6508444  3
   5134   5131   5135   5156     1  0.0000000  0.6508444  3
   5135   5136   5148   5149     1  0.0000000  0.6508444  3
   5135   5136   5148   5150     1  0.0000000  0.6508444  3
   5135   5137   5139   5141     1  0.0000000  0.6508444  3
   5135   5137   5139   5142     1  0.0000000  0.6508444  3
   5136   5135   5137   5138     1  0.0000000  0.6508444  3
   5136   5135   5137   5140     1  0.0000000  0.6508444  3
   5137   5135   5136   5146     1  0.0000000  0.6508444  3
   5137   5135   5136   5147     1  0.0000000  0.6508444  3
   5138   5137   5135   5156     1  0.0000000  0.6508444  3
   5138   5137   5139   5143     1  0.0000000  0.6508444  3
   5138   5137   5139   5141     1  0.0000000  0.6508444  3
   5138   5137   5139   5142     1  0.0000000  0.6508444  3
   5139   5137   5135   5156     1  0.0000000  0.6508444  3
   5139   5143   5144   5154     1  180.0000771  9.6232000  2
   5140   5137   5135   5156     1  0.0000000  0.6508444  3
   5140   5137   5139   5143     1  0.0000000  0.6508444  3
   5140   5137   5139   5141     1  0.0000000  0.6508444  3
   5140   5137   5139   5142     1  0.0000000  0.6508444  3
   5141   5139   5143   5144     1  180.0000771  0.0000000  2
   5141   5139   5143   5145     1  0.0000000  3.3472000  1
   5141   5139   5143   5145     1  0.0000000  0.0000000  2
   5141   5139   5143   5145     1  180.0000771  0.3347200  3
   5142   5139   5143   5144     1  180.0000771  0.0000000  2
   5142   5139   5143   5145     1  0.0000000  3.3472000  1
   5142   5139   5143   5145     1  0.0000000  0.0000000  2
   5142   5139   5143   5145     1  180.0000771  0.3347200  3
   5145   5143   5144   5154     1  0.0000000  7.9496000  1
   5145   5143   5144   5154     1  180.0000771  9.6232000  2
   5146   5136   5135   5156     1  0.0000000  0.6508444  3
   5146   5136   5148   5151     1  0.0000000  0.6508444  3
   5146   5136   5148   5149     1  0.0000000  0.6508444  3
   5146   5136   5148   5150     1  0.0000000  0.6508444  3
   5147   5136   5135   5156     1  0.0000000  0.6508444  3
   5147   5136   5148   5151     1  0.0000000  0.6508444  3
   5147   5136   5148   5149     1  0.0000000  0.6508444  3
   5147   5136   5148   5150     1  0.0000000  0.6508444  3
   5148   5136   5135   5156     1  0.0000000  0.6508444  3
   5148   5151   5153   5155     1  180.0000771  9.6232000  2
   5149   5148   5151   5152     1  0.0000000  3.3472000  1
   5149   5148   5151   5152     1  0.0000000  0.0000000  2
   5149   5148   5151   5152     1  180.0000771  0.3347200  3
   5149   5148   5151   5153     1  180.0000771  0.0000000  2
   5150   5148   5151   5152     1  0.0000000  3.3472000  1
   5150   5148   5151   5152     1  0.0000000  0.0000000  2
   5150   5148   5151   5152     1  180.0000771  0.3347200  3
   5150   5148   5151   5153     1  180.0000771  0.0000000  2
   5152   5151   5153   5155     1  0.0000000  7.9496000  1
   5152   5151   5153   5155     1  180.0000771  9.6232000  2
   5157   5159   5161   5163     1  0.0000000  0.6508444  3
   5157   5159   5161   5164     1  0.0000000  0.6508444  3
   5158   5157   5159   5161     1  0.0000000  0.0000000  2
   5158   5157   5159   5160     1  0.0000000  0.0000000  2
   5158   5157   5159   5162     1  0.0000000  0.0000000  2
   5159   5161   5165   5186     1  0.0000000  0.6508444  3
   5160   5159   5161   5165     1  0.0000000  0.6508444  3
   5160   5159   5161   5163     1  0.0000000  0.6508444  3
   5160   5159   5161   5164     1  0.0000000  0.6508444  3
   5161   5165   5166   5176     1  0.0000000  0.6508444  3
   5161   5165   5166   5177     1  0.0000000  0.6508444  3
   5161   5165   5167   5168     1  0.0000000  0.6508444  3
   5161   5165   5167   5170     1  0.0000000  0.6508444  3
   5162   5159   5161   5165     1  0.0000000  0.6508444  3
   5162   5159   5161   5163     1  0.0000000  0.6508444  3
   5162   5159   5161   5164     1  0.0000000  0.6508444  3
   5163   5161   5165   5166     1  0.0000000  0.6508444  3
   5163   5161   5165   5167     1  0.0000000  0.6508444  3
   5163   5161   5165   5186     1  0.0000000  0.6508444  3
   5164   5161   5165   5166     1  0.0000000  0.6508444  3
   5164   5161   5165   5167     1  0.0000000  0.6508444  3
   5164   5161   5165   5186     1  0.0000000  0.6508444  3
   5165   5166   5178   5179     1  0.0000000  0.6508444  3
   5165   5166   5178   5180     1  0.0000000  0.6508444  3
   5165   5167   5169   5171     1  0.0000000  0.6508444  3
   5165   5167   5169   5172     1  0.0000000  0.6508444  3
   5166   5165   5167   5168     1  0.0000000  0.6508444  3
   5166   5165   5167   5170     1  0.0000000  0.6508444  3
   5167   5165   5166   5176     1  0.0000000  0.6508444  3
   5167   5165   5166   5177     1  0.0000000  0.6508444  3
   5168   5167   5169   5173     1  0.0000000  0.6508444  3
   5168   5167   5169   5171     1  0.0000000  0.6508444  3
   5168   5167   5169   5172     1  0.0000000  0.6508444  3
   5168   5167   5165   5186     1  0.0000000  0.6508444  3
   5169   5173   5174   5184     1  180.0000771  9.6232000  2
   5169   5167   5165   5186     1  0.0000000  0.6508444  3
   5170   5167   5169   5173     1  0.0000000  0.6508444  3
   5170   5167   5169   5171     1  0.0000000  0.6508444  3
   5170   5167   5169   5172     1  0.0000000  0.6508444  3
   5170   5167   5165   5186     1  0.0000000  0.6508444  3
   5171   5169   5173   5174     1  180.0000771  0.0000000  2
   5171   5169   5173   5175     1  0.0000000  3.3472000  1
   5171   5169   5173   5175     1  0.0000000  0.0000000  2
   5171   5169   5173   5175     1  180.0000771  0.3347200  3
   5172   5169   5173   5174     1  180.0000771  0.0000000  2
   5172   5169   5173   5175     1  0.0000000  3.3472000  1
   5172   5169   5173   5175     1  0.0000000  0.0000000  2
   5172   5169   5173   5175     1  180.0000771  0.3347200  3
   5175   5173   5174   5184     1  0.0000000  7.9496000  1
   5175   5173   5174   5184     1  180.0000771  9.6232000  2
   5176   5166   5178   5181     1  0.0000000  0.6508444  3
   5176   5166   5178   5179     1  0.0000000  0.6508444  3
   5176   5166   5178   5180     1  0.0000000  0.6508444  3
   5176   5166   5165   5186     1  0.0000000  0.6508444  3
   5177   5166   5178   5181     1  0.0000000  0.6508444  3
   5177   5166   5178   5179     1  0.0000000  0.6508444  3
   5177   5166   5178   5180     1  0.0000000  0.6508444  3
   5177   5166   5165   5186     1  0.0000000  0.6508444  3
   5178   5181   5183   5185     1  180.0000771  9.6232000  2
   5178   5166   5165   5186     1  0.0000000  0.6508444  3
   5179   5178   5181   5182     1  0.0000000  3.3472000  1
   5179   5178   5181   5182     1  0.0000000  0.0000000  2
   5179   5178   5181   5182     1  180.0000771  0.3347200  3
   5179   5178   5181   5183     1  180.0000771  0.0000000  2
   5180   5178   5181   5182     1  0.0000000  3.3472000  1
   5180   5178   5181   5182     1  0.0000000  0.0000000  2
   5180   5178   5181   5182     1  180.0000771  0.3347200  3
   5180   5178   5181   5183     1  180.0000771  0.0000000  2
   5182   5181   5183   5185     1  0.0000000  7.9496000  1
   5182   5181   5183   5185     1  180.0000771  9.6232000  2
   5187   5189   5191   5193     1  0.0000000  0.6508444  3
   5187   5189   5191   5194     1  0.0000000  0.6508444  3
   5188   5187   5189   5191     1  0.0000000  0.0000000  2
   5188   5187   5189   5190     1  0.0000000  0.0000000  2
   5188   5187   5189   5192     1  0.0000000  0.0000000  2
   5189   5191   5195   5216     1  0.0000000  0.6508444  3
   5190   5189   5191   5195     1  0.0000000  0.6508444  3
   5190   5189   5191   5193     1  0.0000000  0.6508444  3
   5190   5189   5191   5194     1  0.0000000  0.6508444  3
   5191   5195   5196   5206     1  0.0000000  0.6508444  3
   5191   5195   5196   5207     1  0.0000000  0.6508444  3
   5191   5195   5197   5198     1  0.0000000  0.6508444  3
   5191   5195   5197   5200     1  0.0000000  0.6508444  3
   5192   5189   5191   5195     1  0.0000000  0.6508444  3
   5192   5189   5191   5193     1  0.0000000  0.6508444  3
   5192   5189   5191   5194     1  0.0000000  0.6508444  3
   5193   5191   5195   5196     1  0.0000000  0.6508444  3
   5193   5191   5195   5197     1  0.0000000  0.6508444  3
   5193   5191   5195   5216     1  0.0000000  0.6508444  3
   5194   5191   5195   5196     1  0.0000000  0.6508444  3
   5194   5191   5195   5197     1  0.0000000  0.6508444  3
   5194   5191   5195   5216     1  0.0000000  0.6508444  3
   5195   5196   5208   5209     1  0.0000000  0.6508444  3
   5195   5196   5208   5210     1  0.0000000  0.6508444  3
   5195   5197   5199   5201     1  0.0000000  0.6508444  3
   5195   5197   5199   5202     1  0.0000000  0.6508444  3
   5196   5195   5197   5198     1  0.0000000  0.6508444  3
   5196   5195   5197   5200     1  0.0000000  0.6508444  3
   5197   5195   5196   5206     1  0.0000000  0.6508444  3
   5197   5195   5196   5207     1  0.0000000  0.6508444  3
   5198   5197   5195   5216     1  0.0000000  0.6508444  3
   5198   5197   5199   5203     1  0.0000000  0.6508444  3
   5198   5197   5199   5201     1  0.0000000  0.6508444  3
   5198   5197   5199   5202     1  0.0000000  0.6508444  3
   5199   5197   5195   5216     1  0.0000000  0.6508444  3
   5199   5203   5204   5214     1  180.0000771  9.6232000  2
   5200   5197   5195   5216     1  0.0000000  0.6508444  3
   5200   5197   5199   5203     1  0.0000000  0.6508444  3
   5200   5197   5199   5201     1  0.0000000  0.6508444  3
   5200   5197   5199   5202     1  0.0000000  0.6508444  3
   5201   5199   5203   5204     1  180.0000771  0.0000000  2
   5201   5199   5203   5205     1  0.0000000  3.3472000  1
   5201   5199   5203   5205     1  0.0000000  0.0000000  2
   5201   5199   5203   5205     1  180.0000771  0.3347200  3
   5202   5199   5203   5204     1  180.0000771  0.0000000  2
   5202   5199   5203   5205     1  0.0000000  3.3472000  1
   5202   5199   5203   5205     1  0.0000000  0.0000000  2
   5202   5199   5203   5205     1  180.0000771  0.3347200  3
   5205   5203   5204   5214     1  0.0000000  7.9496000  1
   5205   5203   5204   5214     1  180.0000771  9.6232000  2
   5206   5196   5195   5216     1  0.0000000  0.6508444  3
   5206   5196   5208   5211     1  0.0000000  0.6508444  3
   5206   5196   5208   5209     1  0.0000000  0.6508444  3
   5206   5196   5208   5210     1  0.0000000  0.6508444  3
   5207   5196   5195   5216     1  0.0000000  0.6508444  3
   5207   5196   5208   5211     1  0.0000000  0.6508444  3
   5207   5196   5208   5209     1  0.0000000  0.6508444  3
   5207   5196   5208   5210     1  0.0000000  0.6508444  3
   5208   5196   5195   5216     1  0.0000000  0.6508444  3
   5208   5211   5213   5215     1  180.0000771  9.6232000  2
   5209   5208   5211   5212     1  0.0000000  3.3472000  1
   5209   5208   5211   5212     1  0.0000000  0.0000000  2
   5209   5208   5211   5212     1  180.0000771  0.3347200  3
   5209   5208   5211   5213     1  180.0000771  0.0000000  2
   5210   5208   5211   5212     1  0.0000000  3.3472000  1
   5210   5208   5211   5212     1  0.0000000  0.0000000  2
   5210   5208   5211   5212     1  180.0000771  0.3347200  3
   5210   5208   5211   5213     1  180.0000771  0.0000000  2
   5212   5211   5213   5215     1  0.0000000  7.9496000  1
   5212   5211   5213   5215     1  180.0000771  9.6232000  2
   5217   5219   5221   5223     1  0.0000000  0.6508444  3
   5217   5219   5221   5224     1  0.0000000  0.6508444  3
   5218   5217   5219   5221     1  0.0000000  0.0000000  2
   5218   5217   5219   5220     1  0.0000000  0.0000000  2
   5218   5217   5219   5222     1  0.0000000  0.0000000  2
   5219   5221   5225   5246     1  0.0000000  0.6508444  3
   5220   5219   5221   5225     1  0.0000000  0.6508444  3
   5220   5219   5221   5223     1  0.0000000  0.6508444  3
   5220   5219   5221   5224     1  0.0000000  0.6508444  3
   5221   5225   5226   5236     1  0.0000000  0.6508444  3
   5221   5225   5226   5237     1  0.0000000  0.6508444  3
   5221   5225   5227   5228     1  0.0000000  0.6508444  3
   5221   5225   5227   5230     1  0.0000000  0.6508444  3
   5222   5219   5221   5225     1  0.0000000  0.6508444  3
   5222   5219   5221   5223     1  0.0000000  0.6508444  3
   5222   5219   5221   5224     1  0.0000000  0.6508444  3
   5223   5221   5225   5226     1  0.0000000  0.6508444  3
   5223   5221   5225   5227     1  0.0000000  0.6508444  3
   5223   5221   5225   5246     1  0.0000000  0.6508444  3
   5224   5221   5225   5226     1  0.0000000  0.6508444  3
   5224   5221   5225   5227     1  0.0000000  0.6508444  3
   5224   5221   5225   5246     1  0.0000000  0.6508444  3
   5225   5226   5238   5239     1  0.0000000  0.6508444  3
   5225   5226   5238   5240     1  0.0000000  0.6508444  3
   5225   5227   5229   5231     1  0.0000000  0.6508444  3
   5225   5227   5229   5232     1  0.0000000  0.6508444  3
   5226   5225   5227   5228     1  0.0000000  0.6508444  3
   5226   5225   5227   5230     1  0.0000000  0.6508444  3
   5227   5225   5226   5236     1  0.0000000  0.6508444  3
   5227   5225   5226   5237     1  0.0000000  0.6508444  3
   5228   5227   5229   5233     1  0.0000000  0.6508444  3
   5228   5227   5229   5231     1  0.0000000  0.6508444  3
   5228   5227   5229   5232     1  0.0000000  0.6508444  3
   5228   5227   5225   5246     1  0.0000000  0.6508444  3
   5229   5233   5234   5244     1  180.0000771  9.6232000  2
   5229   5227   5225   5246     1  0.0000000  0.6508444  3
   5230   5227   5229   5233     1  0.0000000  0.6508444  3
   5230   5227   5229   5231     1  0.0000000  0.6508444  3
   5230   5227   5229   5232     1  0.0000000  0.6508444  3
   5230   5227   5225   5246     1  0.0000000  0.6508444  3
   5231   5229   5233   5234     1  180.0000771  0.0000000  2
   5231   5229   5233   5235     1  0.0000000  3.3472000  1
   5231   5229   5233   5235     1  0.0000000  0.0000000  2
   5231   5229   5233   5235     1  180.0000771  0.3347200  3
   5232   5229   5233   5234     1  180.0000771  0.0000000  2
   5232   5229   5233   5235     1  0.0000000  3.3472000  1
   5232   5229   5233   5235     1  0.0000000  0.0000000  2
   5232   5229   5233   5235     1  180.0000771  0.3347200  3
   5235   5233   5234   5244     1  0.0000000  7.9496000  1
   5235   5233   5234   5244     1  180.0000771  9.6232000  2
   5236   5226   5238   5241     1  0.0000000  0.6508444  3
   5236   5226   5238   5239     1  0.0000000  0.6508444  3
   5236   5226   5238   5240     1  0.0000000  0.6508444  3
   5236   5226   5225   5246     1  0.0000000  0.6508444  3
   5237   5226   5238   5241     1  0.0000000  0.6508444  3
   5237   5226   5238   5239     1  0.0000000  0.6508444  3
   5237   5226   5238   5240     1  0.0000000  0.6508444  3
   5237   5226   5225   5246     1  0.0000000  0.6508444  3
   5238   5241   5243   5245     1  180.0000771  9.6232000  2
   5238   5226   5225   5246     1  0.0000000  0.6508444  3
   5239   5238   5241   5242     1  0.0000000  3.3472000  1
   5239   5238   5241   5242     1  0.0000000  0.0000000  2
   5239   5238   5241   5242     1  180.0000771  0.3347200  3
   5239   5238   5241   5243     1  180.0000771  0.0000000  2
   5240   5238   5241   5242     1  0.0000000  3.3472000  1
   5240   5238   5241   5242     1  0.0000000  0.0000000  2
   5240   5238   5241   5242     1  180.0000771  0.3347200  3
   5240   5238   5241   5243     1  180.0000771  0.0000000  2
   5242   5241   5243   5245     1  0.0000000  7.9496000  1
   5242   5241   5243   5245     1  180.0000771  9.6232000  2
   5247   5249   5251   5253     1  0.0000000  0.6508444  3
   5247   5249   5251   5254     1  0.0000000  0.6508444  3
   5248   5247   5249   5251     1  0.0000000  0.0000000  2
   5248   5247   5249   5250     1  0.0000000  0.0000000  2
   5248   5247   5249   5252     1  0.0000000  0.0000000  2
   5249   5251   5255   5276     1  0.0000000  0.6508444  3
   5250   5249   5251   5255     1  0.0000000  0.6508444  3
   5250   5249   5251   5253     1  0.0000000  0.6508444  3
   5250   5249   5251   5254     1  0.0000000  0.6508444  3
   5251   5255   5256   5266     1  0.0000000  0.6508444  3
   5251   5255   5256   5267     1  0.0000000  0.6508444  3
   5251   5255   5257   5258     1  0.0000000  0.6508444  3
   5251   5255   5257   5260     1  0.0000000  0.6508444  3
   5252   5249   5251   5255     1  0.0000000  0.6508444  3
   5252   5249   5251   5253     1  0.0000000  0.6508444  3
   5252   5249   5251   5254     1  0.0000000  0.6508444  3
   5253   5251   5255   5256     1  0.0000000  0.6508444  3
   5253   5251   5255   5257     1  0.0000000  0.6508444  3
   5253   5251   5255   5276     1  0.0000000  0.6508444  3
   5254   5251   5255   5256     1  0.0000000  0.6508444  3
   5254   5251   5255   5257     1  0.0000000  0.6508444  3
   5254   5251   5255   5276     1  0.0000000  0.6508444  3
   5255   5256   5268   5269     1  0.0000000  0.6508444  3
   5255   5256   5268   5270     1  0.0000000  0.6508444  3
   5255   5257   5259   5261     1  0.0000000  0.6508444  3
   5255   5257   5259   5262     1  0.0000000  0.6508444  3
   5256   5255   5257   5258     1  0.0000000  0.6508444  3
   5256   5255   5257   5260     1  0.0000000  0.6508444  3
   5257   5255   5256   5266     1  0.0000000  0.6508444  3
   5257   5255   5256   5267     1  0.0000000  0.6508444  3
   5258   5257   5255   5276     1  0.0000000  0.6508444  3
   5258   5257   5259   5263     1  0.0000000  0.6508444  3
   5258   5257   5259   5261     1  0.0000000  0.6508444  3
   5258   5257   5259   5262     1  0.0000000  0.6508444  3
   5259   5257   5255   5276     1  0.0000000  0.6508444  3
   5259   5263   5264   5274     1  180.0000771  9.6232000  2
   5260   5257   5255   5276     1  0.0000000  0.6508444  3
   5260   5257   5259   5263     1  0.0000000  0.6508444  3
   5260   5257   5259   5261     1  0.0000000  0.6508444  3
   5260   5257   5259   5262     1  0.0000000  0.6508444  3
   5261   5259   5263   5264     1  180.0000771  0.0000000  2
   5261   5259   5263   5265     1  0.0000000  3.3472000  1
   5261   5259   5263   5265     1  0.0000000  0.0000000  2
   5261   5259   5263   5265     1  180.0000771  0.3347200  3
   5262   5259   5263   5264     1  180.0000771  0.0000000  2
   5262   5259   5263   5265     1  0.0000000  3.3472000  1
   5262   5259   5263   5265     1  0.0000000  0.0000000  2
   5262   5259   5263   5265     1  180.0000771  0.3347200  3
   5265   5263   5264   5274     1  0.0000000  7.9496000  1
   5265   5263   5264   5274     1  180.0000771  9.6232000  2
   5266   5256   5255   5276     1  0.0000000  0.6508444  3
   5266   5256   5268   5271     1  0.0000000  0.6508444  3
   5266   5256   5268   5269     1  0.0000000  0.6508444  3
   5266   5256   5268   5270     1  0.0000000  0.6508444  3
   5267   5256   5255   5276     1  0.0000000  0.6508444  3
   5267   5256   5268   5271     1  0.0000000  0.6508444  3
   5267   5256   5268   5269     1  0.0000000  0.6508444  3
   5267   5256   5268   5270     1  0.0000000  0.6508444  3
   5268   5256   5255   5276     1  0.0000000  0.6508444  3
   5268   5271   5273   5275     1  180.0000771  9.6232000  2
   5269   5268   5271   5272     1  0.0000000  3.3472000  1
   5269   5268   5271   5272     1  0.0000000  0.0000000  2
   5269   5268   5271   5272     1  180.0000771  0.3347200  3
   5269   5268   5271   5273     1  180.0000771  0.0000000  2
   5270   5268   5271   5272     1  0.0000000  3.3472000  1
   5270   5268   5271   5272     1  0.0000000  0.0000000  2
   5270   5268   5271   5272     1  180.0000771  0.3347200  3
   5270   5268   5271   5273     1  180.0000771  0.0000000  2
   5272   5271   5273   5275     1  0.0000000  7.9496000  1
   5272   5271   5273   5275     1  180.0000771  9.6232000  2
   5277   5279   5281   5283     1  0.0000000  0.6508444  3
   5277   5279   5281   5284     1  0.0000000  0.6508444  3
   5278   5277   5279   5281     1  0.0000000  0.0000000  2
   5278   5277   5279   5280     1  0.0000000  0.0000000  2
   5278   5277   5279   5282     1  0.0000000  0.0000000  2
   5279   5281   5285   5306     1  0.0000000  0.6508444  3
   5280   5279   5281   5285     1  0.0000000  0.6508444  3
   5280   5279   5281   5283     1  0.0000000  0.6508444  3
   5280   5279   5281   5284     1  0.0000000  0.6508444  3
   5281   5285   5286   5296     1  0.0000000  0.6508444  3
   5281   5285   5286   5297     1  0.0000000  0.6508444  3
   5281   5285   5287   5288     1  0.0000000  0.6508444  3
   5281   5285   5287   5290     1  0.0000000  0.6508444  3
   5282   5279   5281   5285     1  0.0000000  0.6508444  3
   5282   5279   5281   5283     1  0.0000000  0.6508444  3
   5282   5279   5281   5284     1  0.0000000  0.6508444  3
   5283   5281   5285   5286     1  0.0000000  0.6508444  3
   5283   5281   5285   5287     1  0.0000000  0.6508444  3
   5283   5281   5285   5306     1  0.0000000  0.6508444  3
   5284   5281   5285   5286     1  0.0000000  0.6508444  3
   5284   5281   5285   5287     1  0.0000000  0.6508444  3
   5284   5281   5285   5306     1  0.0000000  0.6508444  3
   5285   5286   5298   5299     1  0.0000000  0.6508444  3
   5285   5286   5298   5300     1  0.0000000  0.6508444  3
   5285   5287   5289   5291     1  0.0000000  0.6508444  3
   5285   5287   5289   5292     1  0.0000000  0.6508444  3
   5286   5285   5287   5288     1  0.0000000  0.6508444  3
   5286   5285   5287   5290     1  0.0000000  0.6508444  3
   5287   5285   5286   5296     1  0.0000000  0.6508444  3
   5287   5285   5286   5297     1  0.0000000  0.6508444  3
   5288   5287   5289   5293     1  0.0000000  0.6508444  3
   5288   5287   5289   5291     1  0.0000000  0.6508444  3
   5288   5287   5289   5292     1  0.0000000  0.6508444  3
   5288   5287   5285   5306     1  0.0000000  0.6508444  3
   5289   5293   5294   5304     1  180.0000771  9.6232000  2
   5289   5287   5285   5306     1  0.0000000  0.6508444  3
   5290   5287   5289   5293     1  0.0000000  0.6508444  3
   5290   5287   5289   5291     1  0.0000000  0.6508444  3
   5290   5287   5289   5292     1  0.0000000  0.6508444  3
   5290   5287   5285   5306     1  0.0000000  0.6508444  3
   5291   5289   5293   5294     1  180.0000771  0.0000000  2
   5291   5289   5293   5295     1  0.0000000  3.3472000  1
   5291   5289   5293   5295     1  0.0000000  0.0000000  2
   5291   5289   5293   5295     1  180.0000771  0.3347200  3
   5292   5289   5293   5294     1  180.0000771  0.0000000  2
   5292   5289   5293   5295     1  0.0000000  3.3472000  1
   5292   5289   5293   5295     1  0.0000000  0.0000000  2
   5292   5289   5293   5295     1  180.0000771  0.3347200  3
   5295   5293   5294   5304     1  0.0000000  7.9496000  1
   5295   5293   5294   5304     1  180.0000771  9.6232000  2
   5296   5286   5298   5301     1  0.0000000  0.6508444  3
   5296   5286   5298   5299     1  0.0000000  0.6508444  3
   5296   5286   5298   5300     1  0.0000000  0.6508444  3
   5296   5286   5285   5306     1  0.0000000  0.6508444  3
   5297   5286   5298   5301     1  0.0000000  0.6508444  3
   5297   5286   5298   5299     1  0.0000000  0.6508444  3
   5297   5286   5298   5300     1  0.0000000  0.6508444  3
   5297   5286   5285   5306     1  0.0000000  0.6508444  3
   5298   5301   5303   5305     1  180.0000771  9.6232000  2
   5298   5286   5285   5306     1  0.0000000  0.6508444  3
   5299   5298   5301   5302     1  0.0000000  3.3472000  1
   5299   5298   5301   5302     1  0.0000000  0.0000000  2
   5299   5298   5301   5302     1  180.0000771  0.3347200  3
   5299   5298   5301   5303     1  180.0000771  0.0000000  2
   5300   5298   5301   5302     1  0.0000000  3.3472000  1
   5300   5298   5301   5302     1  0.0000000  0.0000000  2
   5300   5298   5301   5302     1  180.0000771  0.3347200  3
   5300   5298   5301   5303     1  180.0000771  0.0000000  2
   5302   5301   5303   5305     1  0.0000000  7.9496000  1
   5302   5301   5303   5305     1  180.0000771  9.6232000  2
   5307   5309   5311   5313     1  0.0000000  0.6508444  3
   5307   5309   5311   5314     1  0.0000000  0.6508444  3
   5308   5307   5309   5311     1  0.0000000  0.0000000  2
   5308   5307   5309   5310     1  0.0000000  0.0000000  2
   5308   5307   5309   5312     1  0.0000000  0.0000000  2
   5309   5311   5315   5336     1  0.0000000  0.6508444  3
   5310   5309   5311   5315     1  0.0000000  0.6508444  3
   5310   5309   5311   5313     1  0.0000000  0.6508444  3
   5310   5309   5311   5314     1  0.0000000  0.6508444  3
   5311   5315   5316   5326     1  0.0000000  0.6508444  3
   5311   5315   5316   5327     1  0.0000000  0.6508444  3
   5311   5315   5317   5318     1  0.0000000  0.6508444  3
   5311   5315   5317   5320     1  0.0000000  0.6508444  3
   5312   5309   5311   5315     1  0.0000000  0.6508444  3
   5312   5309   5311   5313     1  0.0000000  0.6508444  3
   5312   5309   5311   5314     1  0.0000000  0.6508444  3
   5313   5311   5315   5316     1  0.0000000  0.6508444  3
   5313   5311   5315   5317     1  0.0000000  0.6508444  3
   5313   5311   5315   5336     1  0.0000000  0.6508444  3
   5314   5311   5315   5316     1  0.0000000  0.6508444  3
   5314   5311   5315   5317     1  0.0000000  0.6508444  3
   5314   5311   5315   5336     1  0.0000000  0.6508444  3
   5315   5316   5328   5329     1  0.0000000  0.6508444  3
   5315   5316   5328   5330     1  0.0000000  0.6508444  3
   5315   5317   5319   5321     1  0.0000000  0.6508444  3
   5315   5317   5319   5322     1  0.0000000  0.6508444  3
   5316   5315   5317   5318     1  0.0000000  0.6508444  3
   5316   5315   5317   5320     1  0.0000000  0.6508444  3
   5317   5315   5316   5326     1  0.0000000  0.6508444  3
   5317   5315   5316   5327     1  0.0000000  0.6508444  3
   5318   5317   5315   5336     1  0.0000000  0.6508444  3
   5318   5317   5319   5323     1  0.0000000  0.6508444  3
   5318   5317   5319   5321     1  0.0000000  0.6508444  3
   5318   5317   5319   5322     1  0.0000000  0.6508444  3
   5319   5317   5315   5336     1  0.0000000  0.6508444  3
   5319   5323   5324   5334     1  180.0000771  9.6232000  2
   5320   5317   5315   5336     1  0.0000000  0.6508444  3
   5320   5317   5319   5323     1  0.0000000  0.6508444  3
   5320   5317   5319   5321     1  0.0000000  0.6508444  3
   5320   5317   5319   5322     1  0.0000000  0.6508444  3
   5321   5319   5323   5324     1  180.0000771  0.0000000  2
   5321   5319   5323   5325     1  0.0000000  3.3472000  1
   5321   5319   5323   5325     1  0.0000000  0.0000000  2
   5321   5319   5323   5325     1  180.0000771  0.3347200  3
   5322   5319   5323   5324     1  180.0000771  0.0000000  2
   5322   5319   5323   5325     1  0.0000000  3.3472000  1
   5322   5319   5323   5325     1  0.0000000  0.0000000  2
   5322   5319   5323   5325     1  180.0000771  0.3347200  3
   5325   5323   5324   5334     1  0.0000000  7.9496000  1
   5325   5323   5324   5334     1  180.0000771  9.6232000  2
   5326   5316   5315   5336     1  0.0000000  0.6508444  3
   5326   5316   5328   5331     1  0.0000000  0.6508444  3
   5326   5316   5328   5329     1  0.0000000  0.6508444  3
   5326   5316   5328   5330     1  0.0000000  0.6508444  3
   5327   5316   5315   5336     1  0.0000000  0.6508444  3
   5327   5316   5328   5331     1  0.0000000  0.6508444  3
   5327   5316   5328   5329     1  0.0000000  0.6508444  3
   5327   5316   5328   5330     1  0.0000000  0.6508444  3
   5328   5316   5315   5336     1  0.0000000  0.6508444  3
   5328   5331   5333   5335     1  180.0000771  9.6232000  2
   5329   5328   5331   5332     1  0.0000000  3.3472000  1
   5329   5328   5331   5332     1  0.0000000  0.0000000  2
   5329   5328   5331   5332     1  180.0000771  0.3347200  3
   5329   5328   5331   5333     1  180.0000771  0.0000000  2
   5330   5328   5331   5332     1  0.0000000  3.3472000  1
   5330   5328   5331   5332     1  0.0000000  0.0000000  2
   5330   5328   5331   5332     1  180.0000771  0.3347200  3
   5330   5328   5331   5333     1  180.0000771  0.0000000  2
   5332   5331   5333   5335     1  0.0000000  7.9496000  1
   5332   5331   5333   5335     1  180.0000771  9.6232000  2
   5337   5339   5341   5343     1  0.0000000  0.6508444  3
   5337   5339   5341   5344     1  0.0000000  0.6508444  3
   5338   5337   5339   5341     1  0.0000000  0.0000000  2
   5338   5337   5339   5340     1  0.0000000  0.0000000  2
   5338   5337   5339   5342     1  0.0000000  0.0000000  2
   5339   5341   5345   5366     1  0.0000000  0.6508444  3
   5340   5339   5341   5345     1  0.0000000  0.6508444  3
   5340   5339   5341   5343     1  0.0000000  0.6508444  3
   5340   5339   5341   5344     1  0.0000000  0.6508444  3
   5341   5345   5346   5356     1  0.0000000  0.6508444  3
   5341   5345   5346   5357     1  0.0000000  0.6508444  3
   5341   5345   5347   5348     1  0.0000000  0.6508444  3
   5341   5345   5347   5350     1  0.0000000  0.6508444  3
   5342   5339   5341   5345     1  0.0000000  0.6508444  3
   5342   5339   5341   5343     1  0.0000000  0.6508444  3
   5342   5339   5341   5344     1  0.0000000  0.6508444  3
   5343   5341   5345   5346     1  0.0000000  0.6508444  3
   5343   5341   5345   5347     1  0.0000000  0.6508444  3
   5343   5341   5345   5366     1  0.0000000  0.6508444  3
   5344   5341   5345   5346     1  0.0000000  0.6508444  3
   5344   5341   5345   5347     1  0.0000000  0.6508444  3
   5344   5341   5345   5366     1  0.0000000  0.6508444  3
   5345   5346   5358   5359     1  0.0000000  0.6508444  3
   5345   5346   5358   5360     1  0.0000000  0.6508444  3
   5345   5347   5349   5351     1  0.0000000  0.6508444  3
   5345   5347   5349   5352     1  0.0000000  0.6508444  3
   5346   5345   5347   5348     1  0.0000000  0.6508444  3
   5346   5345   5347   5350     1  0.0000000  0.6508444  3
   5347   5345   5346   5356     1  0.0000000  0.6508444  3
   5347   5345   5346   5357     1  0.0000000  0.6508444  3
   5348   5347   5349   5353     1  0.0000000  0.6508444  3
   5348   5347   5349   5351     1  0.0000000  0.6508444  3
   5348   5347   5349   5352     1  0.0000000  0.6508444  3
   5348   5347   5345   5366     1  0.0000000  0.6508444  3
   5349   5353   5354   5364     1  180.0000771  9.6232000  2
   5349   5347   5345   5366     1  0.0000000  0.6508444  3
   5350   5347   5349   5353     1  0.0000000  0.6508444  3
   5350   5347   5349   5351     1  0.0000000  0.6508444  3
   5350   5347   5349   5352     1  0.0000000  0.6508444  3
   5350   5347   5345   5366     1  0.0000000  0.6508444  3
   5351   5349   5353   5354     1  180.0000771  0.0000000  2
   5351   5349   5353   5355     1  0.0000000  3.3472000  1
   5351   5349   5353   5355     1  0.0000000  0.0000000  2
   5351   5349   5353   5355     1  180.0000771  0.3347200  3
   5352   5349   5353   5354     1  180.0000771  0.0000000  2
   5352   5349   5353   5355     1  0.0000000  3.3472000  1
   5352   5349   5353   5355     1  0.0000000  0.0000000  2
   5352   5349   5353   5355     1  180.0000771  0.3347200  3
   5355   5353   5354   5364     1  0.0000000  7.9496000  1
   5355   5353   5354   5364     1  180.0000771  9.6232000  2
   5356   5346   5358   5361     1  0.0000000  0.6508444  3
   5356   5346   5358   5359     1  0.0000000  0.6508444  3
   5356   5346   5358   5360     1  0.0000000  0.6508444  3
   5356   5346   5345   5366     1  0.0000000  0.6508444  3
   5357   5346   5358   5361     1  0.0000000  0.6508444  3
   5357   5346   5358   5359     1  0.0000000  0.6508444  3
   5357   5346   5358   5360     1  0.0000000  0.6508444  3
   5357   5346   5345   5366     1  0.0000000  0.6508444  3
   5358   5361   5363   5365     1  180.0000771  9.6232000  2
   5358   5346   5345   5366     1  0.0000000  0.6508444  3
   5359   5358   5361   5362     1  0.0000000  3.3472000  1
   5359   5358   5361   5362     1  0.0000000  0.0000000  2
   5359   5358   5361   5362     1  180.0000771  0.3347200  3
   5359   5358   5361   5363     1  180.0000771  0.0000000  2
   5360   5358   5361   5362     1  0.0000000  3.3472000  1
   5360   5358   5361   5362     1  0.0000000  0.0000000  2
   5360   5358   5361   5362     1  180.0000771  0.3347200  3
   5360   5358   5361   5363     1  180.0000771  0.0000000  2
   5362   5361   5363   5365     1  0.0000000  7.9496000  1
   5362   5361   5363   5365     1  180.0000771  9.6232000  2
   5367   5369   5371   5373     1  0.0000000  0.6508444  3
   5367   5369   5371   5374     1  0.0000000  0.6508444  3
   5368   5367   5369   5371     1  0.0000000  0.0000000  2
   5368   5367   5369   5370     1  0.0000000  0.0000000  2
   5368   5367   5369   5372     1  0.0000000  0.0000000  2
   5369   5371   5375   5396     1  0.0000000  0.6508444  3
   5370   5369   5371   5375     1  0.0000000  0.6508444  3
   5370   5369   5371   5373     1  0.0000000  0.6508444  3
   5370   5369   5371   5374     1  0.0000000  0.6508444  3
   5371   5375   5376   5386     1  0.0000000  0.6508444  3
   5371   5375   5376   5387     1  0.0000000  0.6508444  3
   5371   5375   5377   5378     1  0.0000000  0.6508444  3
   5371   5375   5377   5380     1  0.0000000  0.6508444  3
   5372   5369   5371   5375     1  0.0000000  0.6508444  3
   5372   5369   5371   5373     1  0.0000000  0.6508444  3
   5372   5369   5371   5374     1  0.0000000  0.6508444  3
   5373   5371   5375   5376     1  0.0000000  0.6508444  3
   5373   5371   5375   5377     1  0.0000000  0.6508444  3
   5373   5371   5375   5396     1  0.0000000  0.6508444  3
   5374   5371   5375   5376     1  0.0000000  0.6508444  3
   5374   5371   5375   5377     1  0.0000000  0.6508444  3
   5374   5371   5375   5396     1  0.0000000  0.6508444  3
   5375   5376   5388   5389     1  0.0000000  0.6508444  3
   5375   5376   5388   5390     1  0.0000000  0.6508444  3
   5375   5377   5379   5381     1  0.0000000  0.6508444  3
   5375   5377   5379   5382     1  0.0000000  0.6508444  3
   5376   5375   5377   5378     1  0.0000000  0.6508444  3
   5376   5375   5377   5380     1  0.0000000  0.6508444  3
   5377   5375   5376   5386     1  0.0000000  0.6508444  3
   5377   5375   5376   5387     1  0.0000000  0.6508444  3
   5378   5377   5375   5396     1  0.0000000  0.6508444  3
   5378   5377   5379   5383     1  0.0000000  0.6508444  3
   5378   5377   5379   5381     1  0.0000000  0.6508444  3
   5378   5377   5379   5382     1  0.0000000  0.6508444  3
   5379   5377   5375   5396     1  0.0000000  0.6508444  3
   5379   5383   5384   5394     1  180.0000771  9.6232000  2
   5380   5377   5375   5396     1  0.0000000  0.6508444  3
   5380   5377   5379   5383     1  0.0000000  0.6508444  3
   5380   5377   5379   5381     1  0.0000000  0.6508444  3
   5380   5377   5379   5382     1  0.0000000  0.6508444  3
   5381   5379   5383   5384     1  180.0000771  0.0000000  2
   5381   5379   5383   5385     1  0.0000000  3.3472000  1
   5381   5379   5383   5385     1  0.0000000  0.0000000  2
   5381   5379   5383   5385     1  180.0000771  0.3347200  3
   5382   5379   5383   5384     1  180.0000771  0.0000000  2
   5382   5379   5383   5385     1  0.0000000  3.3472000  1
   5382   5379   5383   5385     1  0.0000000  0.0000000  2
   5382   5379   5383   5385     1  180.0000771  0.3347200  3
   5385   5383   5384   5394     1  0.0000000  7.9496000  1
   5385   5383   5384   5394     1  180.0000771  9.6232000  2
   5386   5376   5375   5396     1  0.0000000  0.6508444  3
   5386   5376   5388   5391     1  0.0000000  0.6508444  3
   5386   5376   5388   5389     1  0.0000000  0.6508444  3
   5386   5376   5388   5390     1  0.0000000  0.6508444  3
   5387   5376   5375   5396     1  0.0000000  0.6508444  3
   5387   5376   5388   5391     1  0.0000000  0.6508444  3
   5387   5376   5388   5389     1  0.0000000  0.6508444  3
   5387   5376   5388   5390     1  0.0000000  0.6508444  3
   5388   5376   5375   5396     1  0.0000000  0.6508444  3
   5388   5391   5393   5395     1  180.0000771  9.6232000  2
   5389   5388   5391   5392     1  0.0000000  3.3472000  1
   5389   5388   5391   5392     1  0.0000000  0.0000000  2
   5389   5388   5391   5392     1  180.0000771  0.3347200  3
   5389   5388   5391   5393     1  180.0000771  0.0000000  2
   5390   5388   5391   5392     1  0.0000000  3.3472000  1
   5390   5388   5391   5392     1  0.0000000  0.0000000  2
   5390   5388   5391   5392     1  180.0000771  0.3347200  3
   5390   5388   5391   5393     1  180.0000771  0.0000000  2
   5392   5391   5393   5395     1  0.0000000  7.9496000  1
   5392   5391   5393   5395     1  180.0000771  9.6232000  2
   5397   5399   5401   5403     1  0.0000000  0.6508444  3
   5397   5399   5401   5404     1  0.0000000  0.6508444  3
   5398   5397   5399   5401     1  0.0000000  0.0000000  2
   5398   5397   5399   5400     1  0.0000000  0.0000000  2
   5398   5397   5399   5402     1  0.0000000  0.0000000  2
   5399   5401   5405   5426     1  0.0000000  0.6508444  3
   5400   5399   5401   5405     1  0.0000000  0.6508444  3
   5400   5399   5401   5403     1  0.0000000  0.6508444  3
   5400   5399   5401   5404     1  0.0000000  0.6508444  3
   5401   5405   5406   5416     1  0.0000000  0.6508444  3
   5401   5405   5406   5417     1  0.0000000  0.6508444  3
   5401   5405   5407   5408     1  0.0000000  0.6508444  3
   5401   5405   5407   5410     1  0.0000000  0.6508444  3
   5402   5399   5401   5405     1  0.0000000  0.6508444  3
   5402   5399   5401   5403     1  0.0000000  0.6508444  3
   5402   5399   5401   5404     1  0.0000000  0.6508444  3
   5403   5401   5405   5406     1  0.0000000  0.6508444  3
   5403   5401   5405   5407     1  0.0000000  0.6508444  3
   5403   5401   5405   5426     1  0.0000000  0.6508444  3
   5404   5401   5405   5406     1  0.0000000  0.6508444  3
   5404   5401   5405   5407     1  0.0000000  0.6508444  3
   5404   5401   5405   5426     1  0.0000000  0.6508444  3
   5405   5406   5418   5419     1  0.0000000  0.6508444  3
   5405   5406   5418   5420     1  0.0000000  0.6508444  3
   5405   5407   5409   5411     1  0.0000000  0.6508444  3
   5405   5407   5409   5412     1  0.0000000  0.6508444  3
   5406   5405   5407   5408     1  0.0000000  0.6508444  3
   5406   5405   5407   5410     1  0.0000000  0.6508444  3
   5407   5405   5406   5416     1  0.0000000  0.6508444  3
   5407   5405   5406   5417     1  0.0000000  0.6508444  3
   5408   5407   5409   5413     1  0.0000000  0.6508444  3
   5408   5407   5409   5411     1  0.0000000  0.6508444  3
   5408   5407   5409   5412     1  0.0000000  0.6508444  3
   5408   5407   5405   5426     1  0.0000000  0.6508444  3
   5409   5413   5414   5424     1  180.0000771  9.6232000  2
   5409   5407   5405   5426     1  0.0000000  0.6508444  3
   5410   5407   5409   5413     1  0.0000000  0.6508444  3
   5410   5407   5409   5411     1  0.0000000  0.6508444  3
   5410   5407   5409   5412     1  0.0000000  0.6508444  3
   5410   5407   5405   5426     1  0.0000000  0.6508444  3
   5411   5409   5413   5414     1  180.0000771  0.0000000  2
   5411   5409   5413   5415     1  0.0000000  3.3472000  1
   5411   5409   5413   5415     1  0.0000000  0.0000000  2
   5411   5409   5413   5415     1  180.0000771  0.3347200  3
   5412   5409   5413   5414     1  180.0000771  0.0000000  2
   5412   5409   5413   5415     1  0.0000000  3.3472000  1
   5412   5409   5413   5415     1  0.0000000  0.0000000  2
   5412   5409   5413   5415     1  180.0000771  0.3347200  3
   5415   5413   5414   5424     1  0.0000000  7.9496000  1
   5415   5413   5414   5424     1  180.0000771  9.6232000  2
   5416   5406   5418   5421     1  0.0000000  0.6508444  3
   5416   5406   5418   5419     1  0.0000000  0.6508444  3
   5416   5406   5418   5420     1  0.0000000  0.6508444  3
   5416   5406   5405   5426     1  0.0000000  0.6508444  3
   5417   5406   5418   5421     1  0.0000000  0.6508444  3
   5417   5406   5418   5419     1  0.0000000  0.6508444  3
   5417   5406   5418   5420     1  0.0000000  0.6508444  3
   5417   5406   5405   5426     1  0.0000000  0.6508444  3
   5418   5421   5423   5425     1  180.0000771  9.6232000  2
   5418   5406   5405   5426     1  0.0000000  0.6508444  3
   5419   5418   5421   5422     1  0.0000000  3.3472000  1
   5419   5418   5421   5422     1  0.0000000  0.0000000  2
   5419   5418   5421   5422     1  180.0000771  0.3347200  3
   5419   5418   5421   5423     1  180.0000771  0.0000000  2
   5420   5418   5421   5422     1  0.0000000  3.3472000  1
   5420   5418   5421   5422     1  0.0000000  0.0000000  2
   5420   5418   5421   5422     1  180.0000771  0.3347200  3
   5420   5418   5421   5423     1  180.0000771  0.0000000  2
   5422   5421   5423   5425     1  0.0000000  7.9496000  1
   5422   5421   5423   5425     1  180.0000771  9.6232000  2
   5427   5429   5431   5433     1  0.0000000  0.6508444  3
   5427   5429   5431   5434     1  0.0000000  0.6508444  3
   5428   5427   5429   5431     1  0.0000000  0.0000000  2
   5428   5427   5429   5430     1  0.0000000  0.0000000  2
   5428   5427   5429   5432     1  0.0000000  0.0000000  2
   5429   5431   5435   5456     1  0.0000000  0.6508444  3
   5430   5429   5431   5435     1  0.0000000  0.6508444  3
   5430   5429   5431   5433     1  0.0000000  0.6508444  3
   5430   5429   5431   5434     1  0.0000000  0.6508444  3
   5431   5435   5436   5446     1  0.0000000  0.6508444  3
   5431   5435   5436   5447     1  0.0000000  0.6508444  3
   5431   5435   5437   5438     1  0.0000000  0.6508444  3
   5431   5435   5437   5440     1  0.0000000  0.6508444  3
   5432   5429   5431   5435     1  0.0000000  0.6508444  3
   5432   5429   5431   5433     1  0.0000000  0.6508444  3
   5432   5429   5431   5434     1  0.0000000  0.6508444  3
   5433   5431   5435   5436     1  0.0000000  0.6508444  3
   5433   5431   5435   5437     1  0.0000000  0.6508444  3
   5433   5431   5435   5456     1  0.0000000  0.6508444  3
   5434   5431   5435   5436     1  0.0000000  0.6508444  3
   5434   5431   5435   5437     1  0.0000000  0.6508444  3
   5434   5431   5435   5456     1  0.0000000  0.6508444  3
   5435   5436   5448   5449     1  0.0000000  0.6508444  3
   5435   5436   5448   5450     1  0.0000000  0.6508444  3
   5435   5437   5439   5441     1  0.0000000  0.6508444  3
   5435   5437   5439   5442     1  0.0000000  0.6508444  3
   5436   5435   5437   5438     1  0.0000000  0.6508444  3
   5436   5435   5437   5440     1  0.0000000  0.6508444  3
   5437   5435   5436   5446     1  0.0000000  0.6508444  3
   5437   5435   5436   5447     1  0.0000000  0.6508444  3
   5438   5437   5435   5456     1  0.0000000  0.6508444  3
   5438   5437   5439   5443     1  0.0000000  0.6508444  3
   5438   5437   5439   5441     1  0.0000000  0.6508444  3
   5438   5437   5439   5442     1  0.0000000  0.6508444  3
   5439   5437   5435   5456     1  0.0000000  0.6508444  3
   5439   5443   5444   5454     1  180.0000771  9.6232000  2
   5440   5437   5435   5456     1  0.0000000  0.6508444  3
   5440   5437   5439   5443     1  0.0000000  0.6508444  3
   5440   5437   5439   5441     1  0.0000000  0.6508444  3
   5440   5437   5439   5442     1  0.0000000  0.6508444  3
   5441   5439   5443   5444     1  180.0000771  0.0000000  2
   5441   5439   5443   5445     1  0.0000000  3.3472000  1
   5441   5439   5443   5445     1  0.0000000  0.0000000  2
   5441   5439   5443   5445     1  180.0000771  0.3347200  3
   5442   5439   5443   5444     1  180.0000771  0.0000000  2
   5442   5439   5443   5445     1  0.0000000  3.3472000  1
   5442   5439   5443   5445     1  0.0000000  0.0000000  2
   5442   5439   5443   5445     1  180.0000771  0.3347200  3
   5445   5443   5444   5454     1  0.0000000  7.9496000  1
   5445   5443   5444   5454     1  180.0000771  9.6232000  2
   5446   5436   5435   5456     1  0.0000000  0.6508444  3
   5446   5436   5448   5451     1  0.0000000  0.6508444  3
   5446   5436   5448   5449     1  0.0000000  0.6508444  3
   5446   5436   5448   5450     1  0.0000000  0.6508444  3
   5447   5436   5435   5456     1  0.0000000  0.6508444  3
   5447   5436   5448   5451     1  0.0000000  0.6508444  3
   5447   5436   5448   5449     1  0.0000000  0.6508444  3
   5447   5436   5448   5450     1  0.0000000  0.6508444  3
   5448   5436   5435   5456     1  0.0000000  0.6508444  3
   5448   5451   5453   5455     1  180.0000771  9.6232000  2
   5449   5448   5451   5452     1  0.0000000  3.3472000  1
   5449   5448   5451   5452     1  0.0000000  0.0000000  2
   5449   5448   5451   5452     1  180.0000771  0.3347200  3
   5449   5448   5451   5453     1  180.0000771  0.0000000  2
   5450   5448   5451   5452     1  0.0000000  3.3472000  1
   5450   5448   5451   5452     1  0.0000000  0.0000000  2
   5450   5448   5451   5452     1  180.0000771  0.3347200  3
   5450   5448   5451   5453     1  180.0000771  0.0000000  2
   5452   5451   5453   5455     1  0.0000000  7.9496000  1
   5452   5451   5453   5455     1  180.0000771  9.6232000  2
   5457   5459   5461   5463     1  0.0000000  0.6508444  3
   5457   5459   5461   5464     1  0.0000000  0.6508444  3
   5458   5457   5459   5461     1  0.0000000  0.0000000  2
   5458   5457   5459   5460     1  0.0000000  0.0000000  2
   5458   5457   5459   5462     1  0.0000000  0.0000000  2
   5459   5461   5465   5486     1  0.0000000  0.6508444  3
   5460   5459   5461   5465     1  0.0000000  0.6508444  3
   5460   5459   5461   5463     1  0.0000000  0.6508444  3
   5460   5459   5461   5464     1  0.0000000  0.6508444  3
   5461   5465   5466   5476     1  0.0000000  0.6508444  3
   5461   5465   5466   5477     1  0.0000000  0.6508444  3
   5461   5465   5467   5468     1  0.0000000  0.6508444  3
   5461   5465   5467   5470     1  0.0000000  0.6508444  3
   5462   5459   5461   5465     1  0.0000000  0.6508444  3
   5462   5459   5461   5463     1  0.0000000  0.6508444  3
   5462   5459   5461   5464     1  0.0000000  0.6508444  3
   5463   5461   5465   5466     1  0.0000000  0.6508444  3
   5463   5461   5465   5467     1  0.0000000  0.6508444  3
   5463   5461   5465   5486     1  0.0000000  0.6508444  3
   5464   5461   5465   5466     1  0.0000000  0.6508444  3
   5464   5461   5465   5467     1  0.0000000  0.6508444  3
   5464   5461   5465   5486     1  0.0000000  0.6508444  3
   5465   5466   5478   5479     1  0.0000000  0.6508444  3
   5465   5466   5478   5480     1  0.0000000  0.6508444  3
   5465   5467   5469   5471     1  0.0000000  0.6508444  3
   5465   5467   5469   5472     1  0.0000000  0.6508444  3
   5466   5465   5467   5468     1  0.0000000  0.6508444  3
   5466   5465   5467   5470     1  0.0000000  0.6508444  3
   5467   5465   5466   5476     1  0.0000000  0.6508444  3
   5467   5465   5466   5477     1  0.0000000  0.6508444  3
   5468   5467   5469   5473     1  0.0000000  0.6508444  3
   5468   5467   5469   5471     1  0.0000000  0.6508444  3
   5468   5467   5469   5472     1  0.0000000  0.6508444  3
   5468   5467   5465   5486     1  0.0000000  0.6508444  3
   5469   5473   5474   5484     1  180.0000771  9.6232000  2
   5469   5467   5465   5486     1  0.0000000  0.6508444  3
   5470   5467   5469   5473     1  0.0000000  0.6508444  3
   5470   5467   5469   5471     1  0.0000000  0.6508444  3
   5470   5467   5469   5472     1  0.0000000  0.6508444  3
   5470   5467   5465   5486     1  0.0000000  0.6508444  3
   5471   5469   5473   5474     1  180.0000771  0.0000000  2
   5471   5469   5473   5475     1  0.0000000  3.3472000  1
   5471   5469   5473   5475     1  0.0000000  0.0000000  2
   5471   5469   5473   5475     1  180.0000771  0.3347200  3
   5472   5469   5473   5474     1  180.0000771  0.0000000  2
   5472   5469   5473   5475     1  0.0000000  3.3472000  1
   5472   5469   5473   5475     1  0.0000000  0.0000000  2
   5472   5469   5473   5475     1  180.0000771  0.3347200  3
   5475   5473   5474   5484     1  0.0000000  7.9496000  1
   5475   5473   5474   5484     1  180.0000771  9.6232000  2
   5476   5466   5478   5481     1  0.0000000  0.6508444  3
   5476   5466   5478   5479     1  0.0000000  0.6508444  3
   5476   5466   5478   5480     1  0.0000000  0.6508444  3
   5476   5466   5465   5486     1  0.0000000  0.6508444  3
   5477   5466   5478   5481     1  0.0000000  0.6508444  3
   5477   5466   5478   5479     1  0.0000000  0.6508444  3
   5477   5466   5478   5480     1  0.0000000  0.6508444  3
   5477   5466   5465   5486     1  0.0000000  0.6508444  3
   5478   5481   5483   5485     1  180.0000771  9.6232000  2
   5478   5466   5465   5486     1  0.0000000  0.6508444  3
   5479   5478   5481   5482     1  0.0000000  3.3472000  1
   5479   5478   5481   5482     1  0.0000000  0.0000000  2
   5479   5478   5481   5482     1  180.0000771  0.3347200  3
   5479   5478   5481   5483     1  180.0000771  0.0000000  2
   5480   5478   5481   5482     1  0.0000000  3.3472000  1
   5480   5478   5481   5482     1  0.0000000  0.0000000  2
   5480   5478   5481   5482     1  180.0000771  0.3347200  3
   5480   5478   5481   5483     1  180.0000771  0.0000000  2
   5482   5481   5483   5485     1  0.0000000  7.9496000  1
   5482   5481   5483   5485     1  180.0000771  9.6232000  2
   5487   5489   5491   5493     1  0.0000000  0.6508444  3
   5487   5489   5491   5494     1  0.0000000  0.6508444  3
   5488   5487   5489   5491     1  0.0000000  0.0000000  2
   5488   5487   5489   5490     1  0.0000000  0.0000000  2
   5488   5487   5489   5492     1  0.0000000  0.0000000  2
   5489   5491   5495   5516     1  0.0000000  0.6508444  3
   5490   5489   5491   5495     1  0.0000000  0.6508444  3
   5490   5489   5491   5493     1  0.0000000  0.6508444  3
   5490   5489   5491   5494     1  0.0000000  0.6508444  3
   5491   5495   5496   5506     1  0.0000000  0.6508444  3
   5491   5495   5496   5507     1  0.0000000  0.6508444  3
   5491   5495   5497   5498     1  0.0000000  0.6508444  3
   5491   5495   5497   5500     1  0.0000000  0.6508444  3
   5492   5489   5491   5495     1  0.0000000  0.6508444  3
   5492   5489   5491   5493     1  0.0000000  0.6508444  3
   5492   5489   5491   5494     1  0.0000000  0.6508444  3
   5493   5491   5495   5496     1  0.0000000  0.6508444  3
   5493   5491   5495   5497     1  0.0000000  0.6508444  3
   5493   5491   5495   5516     1  0.0000000  0.6508444  3
   5494   5491   5495   5496     1  0.0000000  0.6508444  3
   5494   5491   5495   5497     1  0.0000000  0.6508444  3
   5494   5491   5495   5516     1  0.0000000  0.6508444  3
   5495   5496   5508   5509     1  0.0000000  0.6508444  3
   5495   5496   5508   5510     1  0.0000000  0.6508444  3
   5495   5497   5499   5501     1  0.0000000  0.6508444  3
   5495   5497   5499   5502     1  0.0000000  0.6508444  3
   5496   5495   5497   5498     1  0.0000000  0.6508444  3
   5496   5495   5497   5500     1  0.0000000  0.6508444  3
   5497   5495   5496   5506     1  0.0000000  0.6508444  3
   5497   5495   5496   5507     1  0.0000000  0.6508444  3
   5498   5497   5495   5516     1  0.0000000  0.6508444  3
   5498   5497   5499   5503     1  0.0000000  0.6508444  3
   5498   5497   5499   5501     1  0.0000000  0.6508444  3
   5498   5497   5499   5502     1  0.0000000  0.6508444  3
   5499   5497   5495   5516     1  0.0000000  0.6508444  3
   5499   5503   5504   5514     1  180.0000771  9.6232000  2
   5500   5497   5495   5516     1  0.0000000  0.6508444  3
   5500   5497   5499   5503     1  0.0000000  0.6508444  3
   5500   5497   5499   5501     1  0.0000000  0.6508444  3
   5500   5497   5499   5502     1  0.0000000  0.6508444  3
   5501   5499   5503   5504     1  180.0000771  0.0000000  2
   5501   5499   5503   5505     1  0.0000000  3.3472000  1
   5501   5499   5503   5505     1  0.0000000  0.0000000  2
   5501   5499   5503   5505     1  180.0000771  0.3347200  3
   5502   5499   5503   5504     1  180.0000771  0.0000000  2
   5502   5499   5503   5505     1  0.0000000  3.3472000  1
   5502   5499   5503   5505     1  0.0000000  0.0000000  2
   5502   5499   5503   5505     1  180.0000771  0.3347200  3
   5505   5503   5504   5514     1  0.0000000  7.9496000  1
   5505   5503   5504   5514     1  180.0000771  9.6232000  2
   5506   5496   5495   5516     1  0.0000000  0.6508444  3
   5506   5496   5508   5511     1  0.0000000  0.6508444  3
   5506   5496   5508   5509     1  0.0000000  0.6508444  3
   5506   5496   5508   5510     1  0.0000000  0.6508444  3
   5507   5496   5495   5516     1  0.0000000  0.6508444  3
   5507   5496   5508   5511     1  0.0000000  0.6508444  3
   5507   5496   5508   5509     1  0.0000000  0.6508444  3
   5507   5496   5508   5510     1  0.0000000  0.6508444  3
   5508   5496   5495   5516     1  0.0000000  0.6508444  3
   5508   5511   5513   5515     1  180.0000771  9.6232000  2
   5509   5508   5511   5512     1  0.0000000  3.3472000  1
   5509   5508   5511   5512     1  0.0000000  0.0000000  2
   5509   5508   5511   5512     1  180.0000771  0.3347200  3
   5509   5508   5511   5513     1  180.0000771  0.0000000  2
   5510   5508   5511   5512     1  0.0000000  3.3472000  1
   5510   5508   5511   5512     1  0.0000000  0.0000000  2
   5510   5508   5511   5512     1  180.0000771  0.3347200  3
   5510   5508   5511   5513     1  180.0000771  0.0000000  2
   5512   5511   5513   5515     1  0.0000000  7.9496000  1
   5512   5511   5513   5515     1  180.0000771  9.6232000  2
   5517   5519   5521   5523     1  0.0000000  0.6508444  3
   5517   5519   5521   5524     1  0.0000000  0.6508444  3
   5518   5517   5519   5521     1  0.0000000  0.0000000  2
   5518   5517   5519   5520     1  0.0000000  0.0000000  2
   5518   5517   5519   5522     1  0.0000000  0.0000000  2
   5519   5521   5525   5546     1  0.0000000  0.6508444  3
   5520   5519   5521   5525     1  0.0000000  0.6508444  3
   5520   5519   5521   5523     1  0.0000000  0.6508444  3
   5520   5519   5521   5524     1  0.0000000  0.6508444  3
   5521   5525   5526   5536     1  0.0000000  0.6508444  3
   5521   5525   5526   5537     1  0.0000000  0.6508444  3
   5521   5525   5527   5528     1  0.0000000  0.6508444  3
   5521   5525   5527   5530     1  0.0000000  0.6508444  3
   5522   5519   5521   5525     1  0.0000000  0.6508444  3
   5522   5519   5521   5523     1  0.0000000  0.6508444  3
   5522   5519   5521   5524     1  0.0000000  0.6508444  3
   5523   5521   5525   5526     1  0.0000000  0.6508444  3
   5523   5521   5525   5527     1  0.0000000  0.6508444  3
   5523   5521   5525   5546     1  0.0000000  0.6508444  3
   5524   5521   5525   5526     1  0.0000000  0.6508444  3
   5524   5521   5525   5527     1  0.0000000  0.6508444  3
   5524   5521   5525   5546     1  0.0000000  0.6508444  3
   5525   5526   5538   5539     1  0.0000000  0.6508444  3
   5525   5526   5538   5540     1  0.0000000  0.6508444  3
   5525   5527   5529   5531     1  0.0000000  0.6508444  3
   5525   5527   5529   5532     1  0.0000000  0.6508444  3
   5526   5525   5527   5528     1  0.0000000  0.6508444  3
   5526   5525   5527   5530     1  0.0000000  0.6508444  3
   5527   5525   5526   5536     1  0.0000000  0.6508444  3
   5527   5525   5526   5537     1  0.0000000  0.6508444  3
   5528   5527   5529   5533     1  0.0000000  0.6508444  3
   5528   5527   5529   5531     1  0.0000000  0.6508444  3
   5528   5527   5529   5532     1  0.0000000  0.6508444  3
   5528   5527   5525   5546     1  0.0000000  0.6508444  3
   5529   5533   5534   5544     1  180.0000771  9.6232000  2
   5529   5527   5525   5546     1  0.0000000  0.6508444  3
   5530   5527   5529   5533     1  0.0000000  0.6508444  3
   5530   5527   5529   5531     1  0.0000000  0.6508444  3
   5530   5527   5529   5532     1  0.0000000  0.6508444  3
   5530   5527   5525   5546     1  0.0000000  0.6508444  3
   5531   5529   5533   5534     1  180.0000771  0.0000000  2
   5531   5529   5533   5535     1  0.0000000  3.3472000  1
   5531   5529   5533   5535     1  0.0000000  0.0000000  2
   5531   5529   5533   5535     1  180.0000771  0.3347200  3
   5532   5529   5533   5534     1  180.0000771  0.0000000  2
   5532   5529   5533   5535     1  0.0000000  3.3472000  1
   5532   5529   5533   5535     1  0.0000000  0.0000000  2
   5532   5529   5533   5535     1  180.0000771  0.3347200  3
   5535   5533   5534   5544     1  0.0000000  7.9496000  1
   5535   5533   5534   5544     1  180.0000771  9.6232000  2
   5536   5526   5538   5541     1  0.0000000  0.6508444  3
   5536   5526   5538   5539     1  0.0000000  0.6508444  3
   5536   5526   5538   5540     1  0.0000000  0.6508444  3
   5536   5526   5525   5546     1  0.0000000  0.6508444  3
   5537   5526   5538   5541     1  0.0000000  0.6508444  3
   5537   5526   5538   5539     1  0.0000000  0.6508444  3
   5537   5526   5538   5540     1  0.0000000  0.6508444  3
   5537   5526   5525   5546     1  0.0000000  0.6508444  3
   5538   5541   5543   5545     1  180.0000771  9.6232000  2
   5538   5526   5525   5546     1  0.0000000  0.6508444  3
   5539   5538   5541   5542     1  0.0000000  3.3472000  1
   5539   5538   5541   5542     1  0.0000000  0.0000000  2
   5539   5538   5541   5542     1  180.0000771  0.3347200  3
   5539   5538   5541   5543     1  180.0000771  0.0000000  2
   5540   5538   5541   5542     1  0.0000000  3.3472000  1
   5540   5538   5541   5542     1  0.0000000  0.0000000  2
   5540   5538   5541   5542     1  180.0000771  0.3347200  3
   5540   5538   5541   5543     1  180.0000771  0.0000000  2
   5542   5541   5543   5545     1  0.0000000  7.9496000  1
   5542   5541   5543   5545     1  180.0000771  9.6232000  2
   5547   5549   5551   5553     1  0.0000000  0.6508444  3
   5547   5549   5551   5554     1  0.0000000  0.6508444  3
   5548   5547   5549   5551     1  0.0000000  0.0000000  2
   5548   5547   5549   5550     1  0.0000000  0.0000000  2
   5548   5547   5549   5552     1  0.0000000  0.0000000  2
   5549   5551   5555   5576     1  0.0000000  0.6508444  3
   5550   5549   5551   5555     1  0.0000000  0.6508444  3
   5550   5549   5551   5553     1  0.0000000  0.6508444  3
   5550   5549   5551   5554     1  0.0000000  0.6508444  3
   5551   5555   5556   5566     1  0.0000000  0.6508444  3
   5551   5555   5556   5567     1  0.0000000  0.6508444  3
   5551   5555   5557   5558     1  0.0000000  0.6508444  3
   5551   5555   5557   5560     1  0.0000000  0.6508444  3
   5552   5549   5551   5555     1  0.0000000  0.6508444  3
   5552   5549   5551   5553     1  0.0000000  0.6508444  3
   5552   5549   5551   5554     1  0.0000000  0.6508444  3
   5553   5551   5555   5556     1  0.0000000  0.6508444  3
   5553   5551   5555   5557     1  0.0000000  0.6508444  3
   5553   5551   5555   5576     1  0.0000000  0.6508444  3
   5554   5551   5555   5556     1  0.0000000  0.6508444  3
   5554   5551   5555   5557     1  0.0000000  0.6508444  3
   5554   5551   5555   5576     1  0.0000000  0.6508444  3
   5555   5556   5568   5569     1  0.0000000  0.6508444  3
   5555   5556   5568   5570     1  0.0000000  0.6508444  3
   5555   5557   5559   5561     1  0.0000000  0.6508444  3
   5555   5557   5559   5562     1  0.0000000  0.6508444  3
   5556   5555   5557   5558     1  0.0000000  0.6508444  3
   5556   5555   5557   5560     1  0.0000000  0.6508444  3
   5557   5555   5556   5566     1  0.0000000  0.6508444  3
   5557   5555   5556   5567     1  0.0000000  0.6508444  3
   5558   5557   5555   5576     1  0.0000000  0.6508444  3
   5558   5557   5559   5563     1  0.0000000  0.6508444  3
   5558   5557   5559   5561     1  0.0000000  0.6508444  3
   5558   5557   5559   5562     1  0.0000000  0.6508444  3
   5559   5557   5555   5576     1  0.0000000  0.6508444  3
   5559   5563   5564   5574     1  180.0000771  9.6232000  2
   5560   5557   5555   5576     1  0.0000000  0.6508444  3
   5560   5557   5559   5563     1  0.0000000  0.6508444  3
   5560   5557   5559   5561     1  0.0000000  0.6508444  3
   5560   5557   5559   5562     1  0.0000000  0.6508444  3
   5561   5559   5563   5564     1  180.0000771  0.0000000  2
   5561   5559   5563   5565     1  0.0000000  3.3472000  1
   5561   5559   5563   5565     1  0.0000000  0.0000000  2
   5561   5559   5563   5565     1  180.0000771  0.3347200  3
   5562   5559   5563   5564     1  180.0000771  0.0000000  2
   5562   5559   5563   5565     1  0.0000000  3.3472000  1
   5562   5559   5563   5565     1  0.0000000  0.0000000  2
   5562   5559   5563   5565     1  180.0000771  0.3347200  3
   5565   5563   5564   5574     1  0.0000000  7.9496000  1
   5565   5563   5564   5574     1  180.0000771  9.6232000  2
   5566   5556   5555   5576     1  0.0000000  0.6508444  3
   5566   5556   5568   5571     1  0.0000000  0.6508444  3
   5566   5556   5568   5569     1  0.0000000  0.6508444  3
   5566   5556   5568   5570     1  0.0000000  0.6508444  3
   5567   5556   5555   5576     1  0.0000000  0.6508444  3
   5567   5556   5568   5571     1  0.0000000  0.6508444  3
   5567   5556   5568   5569     1  0.0000000  0.6508444  3
   5567   5556   5568   5570     1  0.0000000  0.6508444  3
   5568   5556   5555   5576     1  0.0000000  0.6508444  3
   5568   5571   5573   5575     1  180.0000771  9.6232000  2
   5569   5568   5571   5572     1  0.0000000  3.3472000  1
   5569   5568   5571   5572     1  0.0000000  0.0000000  2
   5569   5568   5571   5572     1  180.0000771  0.3347200  3
   5569   5568   5571   5573     1  180.0000771  0.0000000  2
   5570   5568   5571   5572     1  0.0000000  3.3472000  1
   5570   5568   5571   5572     1  0.0000000  0.0000000  2
   5570   5568   5571   5572     1  180.0000771  0.3347200  3
   5570   5568   5571   5573     1  180.0000771  0.0000000  2
   5572   5571   5573   5575     1  0.0000000  7.9496000  1
   5572   5571   5573   5575     1  180.0000771  9.6232000  2
   5577   5579   5581   5583     1  0.0000000  0.6508444  3
   5577   5579   5581   5584     1  0.0000000  0.6508444  3
   5578   5577   5579   5581     1  0.0000000  0.0000000  2
   5578   5577   5579   5580     1  0.0000000  0.0000000  2
   5578   5577   5579   5582     1  0.0000000  0.0000000  2
   5579   5581   5585   5606     1  0.0000000  0.6508444  3
   5580   5579   5581   5585     1  0.0000000  0.6508444  3
   5580   5579   5581   5583     1  0.0000000  0.6508444  3
   5580   5579   5581   5584     1  0.0000000  0.6508444  3
   5581   5585   5586   5596     1  0.0000000  0.6508444  3
   5581   5585   5586   5597     1  0.0000000  0.6508444  3
   5581   5585   5587   5588     1  0.0000000  0.6508444  3
   5581   5585   5587   5590     1  0.0000000  0.6508444  3
   5582   5579   5581   5585     1  0.0000000  0.6508444  3
   5582   5579   5581   5583     1  0.0000000  0.6508444  3
   5582   5579   5581   5584     1  0.0000000  0.6508444  3
   5583   5581   5585   5586     1  0.0000000  0.6508444  3
   5583   5581   5585   5587     1  0.0000000  0.6508444  3
   5583   5581   5585   5606     1  0.0000000  0.6508444  3
   5584   5581   5585   5586     1  0.0000000  0.6508444  3
   5584   5581   5585   5587     1  0.0000000  0.6508444  3
   5584   5581   5585   5606     1  0.0000000  0.6508444  3
   5585   5586   5598   5599     1  0.0000000  0.6508444  3
   5585   5586   5598   5600     1  0.0000000  0.6508444  3
   5585   5587   5589   5591     1  0.0000000  0.6508444  3
   5585   5587   5589   5592     1  0.0000000  0.6508444  3
   5586   5585   5587   5588     1  0.0000000  0.6508444  3
   5586   5585   5587   5590     1  0.0000000  0.6508444  3
   5587   5585   5586   5596     1  0.0000000  0.6508444  3
   5587   5585   5586   5597     1  0.0000000  0.6508444  3
   5588   5587   5589   5593     1  0.0000000  0.6508444  3
   5588   5587   5589   5591     1  0.0000000  0.6508444  3
   5588   5587   5589   5592     1  0.0000000  0.6508444  3
   5588   5587   5585   5606     1  0.0000000  0.6508444  3
   5589   5593   5594   5604     1  180.0000771  9.6232000  2
   5589   5587   5585   5606     1  0.0000000  0.6508444  3
   5590   5587   5589   5593     1  0.0000000  0.6508444  3
   5590   5587   5589   5591     1  0.0000000  0.6508444  3
   5590   5587   5589   5592     1  0.0000000  0.6508444  3
   5590   5587   5585   5606     1  0.0000000  0.6508444  3
   5591   5589   5593   5594     1  180.0000771  0.0000000  2
   5591   5589   5593   5595     1  0.0000000  3.3472000  1
   5591   5589   5593   5595     1  0.0000000  0.0000000  2
   5591   5589   5593   5595     1  180.0000771  0.3347200  3
   5592   5589   5593   5594     1  180.0000771  0.0000000  2
   5592   5589   5593   5595     1  0.0000000  3.3472000  1
   5592   5589   5593   5595     1  0.0000000  0.0000000  2
   5592   5589   5593   5595     1  180.0000771  0.3347200  3
   5595   5593   5594   5604     1  0.0000000  7.9496000  1
   5595   5593   5594   5604     1  180.0000771  9.6232000  2
   5596   5586   5598   5601     1  0.0000000  0.6508444  3
   5596   5586   5598   5599     1  0.0000000  0.6508444  3
   5596   5586   5598   5600     1  0.0000000  0.6508444  3
   5596   5586   5585   5606     1  0.0000000  0.6508444  3
   5597   5586   5598   5601     1  0.0000000  0.6508444  3
   5597   5586   5598   5599     1  0.0000000  0.6508444  3
   5597   5586   5598   5600     1  0.0000000  0.6508444  3
   5597   5586   5585   5606     1  0.0000000  0.6508444  3
   5598   5601   5603   5605     1  180.0000771  9.6232000  2
   5598   5586   5585   5606     1  0.0000000  0.6508444  3
   5599   5598   5601   5602     1  0.0000000  3.3472000  1
   5599   5598   5601   5602     1  0.0000000  0.0000000  2
   5599   5598   5601   5602     1  180.0000771  0.3347200  3
   5599   5598   5601   5603     1  180.0000771  0.0000000  2
   5600   5598   5601   5602     1  0.0000000  3.3472000  1
   5600   5598   5601   5602     1  0.0000000  0.0000000  2
   5600   5598   5601   5602     1  180.0000771  0.3347200  3
   5600   5598   5601   5603     1  180.0000771  0.0000000  2
   5602   5601   5603   5605     1  0.0000000  7.9496000  1
   5602   5601   5603   5605     1  180.0000771  9.6232000  2
   5607   5609   5611   5613     1  0.0000000  0.6508444  3
   5607   5609   5611   5614     1  0.0000000  0.6508444  3
   5608   5607   5609   5611     1  0.0000000  0.0000000  2
   5608   5607   5609   5610     1  0.0000000  0.0000000  2
   5608   5607   5609   5612     1  0.0000000  0.0000000  2
   5609   5611   5615   5636     1  0.0000000  0.6508444  3
   5610   5609   5611   5615     1  0.0000000  0.6508444  3
   5610   5609   5611   5613     1  0.0000000  0.6508444  3
   5610   5609   5611   5614     1  0.0000000  0.6508444  3
   5611   5615   5616   5626     1  0.0000000  0.6508444  3
   5611   5615   5616   5627     1  0.0000000  0.6508444  3
   5611   5615   5617   5618     1  0.0000000  0.6508444  3
   5611   5615   5617   5620     1  0.0000000  0.6508444  3
   5612   5609   5611   5615     1  0.0000000  0.6508444  3
   5612   5609   5611   5613     1  0.0000000  0.6508444  3
   5612   5609   5611   5614     1  0.0000000  0.6508444  3
   5613   5611   5615   5616     1  0.0000000  0.6508444  3
   5613   5611   5615   5617     1  0.0000000  0.6508444  3
   5613   5611   5615   5636     1  0.0000000  0.6508444  3
   5614   5611   5615   5616     1  0.0000000  0.6508444  3
   5614   5611   5615   5617     1  0.0000000  0.6508444  3
   5614   5611   5615   5636     1  0.0000000  0.6508444  3
   5615   5616   5628   5629     1  0.0000000  0.6508444  3
   5615   5616   5628   5630     1  0.0000000  0.6508444  3
   5615   5617   5619   5621     1  0.0000000  0.6508444  3
   5615   5617   5619   5622     1  0.0000000  0.6508444  3
   5616   5615   5617   5618     1  0.0000000  0.6508444  3
   5616   5615   5617   5620     1  0.0000000  0.6508444  3
   5617   5615   5616   5626     1  0.0000000  0.6508444  3
   5617   5615   5616   5627     1  0.0000000  0.6508444  3
   5618   5617   5615   5636     1  0.0000000  0.6508444  3
   5618   5617   5619   5623     1  0.0000000  0.6508444  3
   5618   5617   5619   5621     1  0.0000000  0.6508444  3
   5618   5617   5619   5622     1  0.0000000  0.6508444  3
   5619   5617   5615   5636     1  0.0000000  0.6508444  3
   5619   5623   5624   5634     1  180.0000771  9.6232000  2
   5620   5617   5615   5636     1  0.0000000  0.6508444  3
   5620   5617   5619   5623     1  0.0000000  0.6508444  3
   5620   5617   5619   5621     1  0.0000000  0.6508444  3
   5620   5617   5619   5622     1  0.0000000  0.6508444  3
   5621   5619   5623   5624     1  180.0000771  0.0000000  2
   5621   5619   5623   5625     1  0.0000000  3.3472000  1
   5621   5619   5623   5625     1  0.0000000  0.0000000  2
   5621   5619   5623   5625     1  180.0000771  0.3347200  3
   5622   5619   5623   5624     1  180.0000771  0.0000000  2
   5622   5619   5623   5625     1  0.0000000  3.3472000  1
   5622   5619   5623   5625     1  0.0000000  0.0000000  2
   5622   5619   5623   5625     1  180.0000771  0.3347200  3
   5625   5623   5624   5634     1  0.0000000  7.9496000  1
   5625   5623   5624   5634     1  180.0000771  9.6232000  2
   5626   5616   5615   5636     1  0.0000000  0.6508444  3
   5626   5616   5628   5631     1  0.0000000  0.6508444  3
   5626   5616   5628   5629     1  0.0000000  0.6508444  3
   5626   5616   5628   5630     1  0.0000000  0.6508444  3
   5627   5616   5615   5636     1  0.0000000  0.6508444  3
   5627   5616   5628   5631     1  0.0000000  0.6508444  3
   5627   5616   5628   5629     1  0.0000000  0.6508444  3
   5627   5616   5628   5630     1  0.0000000  0.6508444  3
   5628   5616   5615   5636     1  0.0000000  0.6508444  3
   5628   5631   5633   5635     1  180.0000771  9.6232000  2
   5629   5628   5631   5632     1  0.0000000  3.3472000  1
   5629   5628   5631   5632     1  0.0000000  0.0000000  2
   5629   5628   5631   5632     1  180.0000771  0.3347200  3
   5629   5628   5631   5633     1  180.0000771  0.0000000  2
   5630   5628   5631   5632     1  0.0000000  3.3472000  1
   5630   5628   5631   5632     1  0.0000000  0.0000000  2
   5630   5628   5631   5632     1  180.0000771  0.3347200  3
   5630   5628   5631   5633     1  180.0000771  0.0000000  2
   5632   5631   5633   5635     1  0.0000000  7.9496000  1
   5632   5631   5633   5635     1  180.0000771  9.6232000  2
   5637   5639   5641   5643     1  0.0000000  0.6508444  3
   5637   5639   5641   5644     1  0.0000000  0.6508444  3
   5638   5637   5639   5641     1  0.0000000  0.0000000  2
   5638   5637   5639   5640     1  0.0000000  0.0000000  2
   5638   5637   5639   5642     1  0.0000000  0.0000000  2
   5639   5641   5645   5666     1  0.0000000  0.6508444  3
   5640   5639   5641   5645     1  0.0000000  0.6508444  3
   5640   5639   5641   5643     1  0.0000000  0.6508444  3
   5640   5639   5641   5644     1  0.0000000  0.6508444  3
   5641   5645   5646   5656     1  0.0000000  0.6508444  3
   5641   5645   5646   5657     1  0.0000000  0.6508444  3
   5641   5645   5647   5648     1  0.0000000  0.6508444  3
   5641   5645   5647   5650     1  0.0000000  0.6508444  3
   5642   5639   5641   5645     1  0.0000000  0.6508444  3
   5642   5639   5641   5643     1  0.0000000  0.6508444  3
   5642   5639   5641   5644     1  0.0000000  0.6508444  3
   5643   5641   5645   5646     1  0.0000000  0.6508444  3
   5643   5641   5645   5647     1  0.0000000  0.6508444  3
   5643   5641   5645   5666     1  0.0000000  0.6508444  3
   5644   5641   5645   5646     1  0.0000000  0.6508444  3
   5644   5641   5645   5647     1  0.0000000  0.6508444  3
   5644   5641   5645   5666     1  0.0000000  0.6508444  3
   5645   5646   5658   5659     1  0.0000000  0.6508444  3
   5645   5646   5658   5660     1  0.0000000  0.6508444  3
   5645   5647   5649   5651     1  0.0000000  0.6508444  3
   5645   5647   5649   5652     1  0.0000000  0.6508444  3
   5646   5645   5647   5648     1  0.0000000  0.6508444  3
   5646   5645   5647   5650     1  0.0000000  0.6508444  3
   5647   5645   5646   5656     1  0.0000000  0.6508444  3
   5647   5645   5646   5657     1  0.0000000  0.6508444  3
   5648   5647   5649   5653     1  0.0000000  0.6508444  3
   5648   5647   5649   5651     1  0.0000000  0.6508444  3
   5648   5647   5649   5652     1  0.0000000  0.6508444  3
   5648   5647   5645   5666     1  0.0000000  0.6508444  3
   5649   5653   5654   5664     1  180.0000771  9.6232000  2
   5649   5647   5645   5666     1  0.0000000  0.6508444  3
   5650   5647   5649   5653     1  0.0000000  0.6508444  3
   5650   5647   5649   5651     1  0.0000000  0.6508444  3
   5650   5647   5649   5652     1  0.0000000  0.6508444  3
   5650   5647   5645   5666     1  0.0000000  0.6508444  3
   5651   5649   5653   5654     1  180.0000771  0.0000000  2
   5651   5649   5653   5655     1  0.0000000  3.3472000  1
   5651   5649   5653   5655     1  0.0000000  0.0000000  2
   5651   5649   5653   5655     1  180.0000771  0.3347200  3
   5652   5649   5653   5654     1  180.0000771  0.0000000  2
   5652   5649   5653   5655     1  0.0000000  3.3472000  1
   5652   5649   5653   5655     1  0.0000000  0.0000000  2
   5652   5649   5653   5655     1  180.0000771  0.3347200  3
   5655   5653   5654   5664     1  0.0000000  7.9496000  1
   5655   5653   5654   5664     1  180.0000771  9.6232000  2
   5656   5646   5658   5661     1  0.0000000  0.6508444  3
   5656   5646   5658   5659     1  0.0000000  0.6508444  3
   5656   5646   5658   5660     1  0.0000000  0.6508444  3
   5656   5646   5645   5666     1  0.0000000  0.6508444  3
   5657   5646   5658   5661     1  0.0000000  0.6508444  3
   5657   5646   5658   5659     1  0.0000000  0.6508444  3
   5657   5646   5658   5660     1  0.0000000  0.6508444  3
   5657   5646   5645   5666     1  0.0000000  0.6508444  3
   5658   5661   5663   5665     1  180.0000771  9.6232000  2
   5658   5646   5645   5666     1  0.0000000  0.6508444  3
   5659   5658   5661   5662     1  0.0000000  3.3472000  1
   5659   5658   5661   5662     1  0.0000000  0.0000000  2
   5659   5658   5661   5662     1  180.0000771  0.3347200  3
   5659   5658   5661   5663     1  180.0000771  0.0000000  2
   5660   5658   5661   5662     1  0.0000000  3.3472000  1
   5660   5658   5661   5662     1  0.0000000  0.0000000  2
   5660   5658   5661   5662     1  180.0000771  0.3347200  3
   5660   5658   5661   5663     1  180.0000771  0.0000000  2
   5662   5661   5663   5665     1  0.0000000  7.9496000  1
   5662   5661   5663   5665     1  180.0000771  9.6232000  2
   5667   5669   5671   5673     1  0.0000000  0.6508444  3
   5667   5669   5671   5674     1  0.0000000  0.6508444  3
   5668   5667   5669   5671     1  0.0000000  0.0000000  2
   5668   5667   5669   5670     1  0.0000000  0.0000000  2
   5668   5667   5669   5672     1  0.0000000  0.0000000  2
   5669   5671   5675   5696     1  0.0000000  0.6508444  3
   5670   5669   5671   5675     1  0.0000000  0.6508444  3
   5670   5669   5671   5673     1  0.0000000  0.6508444  3
   5670   5669   5671   5674     1  0.0000000  0.6508444  3
   5671   5675   5676   5686     1  0.0000000  0.6508444  3
   5671   5675   5676   5687     1  0.0000000  0.6508444  3
   5671   5675   5677   5678     1  0.0000000  0.6508444  3
   5671   5675   5677   5680     1  0.0000000  0.6508444  3
   5672   5669   5671   5675     1  0.0000000  0.6508444  3
   5672   5669   5671   5673     1  0.0000000  0.6508444  3
   5672   5669   5671   5674     1  0.0000000  0.6508444  3
   5673   5671   5675   5676     1  0.0000000  0.6508444  3
   5673   5671   5675   5677     1  0.0000000  0.6508444  3
   5673   5671   5675   5696     1  0.0000000  0.6508444  3
   5674   5671   5675   5676     1  0.0000000  0.6508444  3
   5674   5671   5675   5677     1  0.0000000  0.6508444  3
   5674   5671   5675   5696     1  0.0000000  0.6508444  3
   5675   5676   5688   5689     1  0.0000000  0.6508444  3
   5675   5676   5688   5690     1  0.0000000  0.6508444  3
   5675   5677   5679   5681     1  0.0000000  0.6508444  3
   5675   5677   5679   5682     1  0.0000000  0.6508444  3
   5676   5675   5677   5678     1  0.0000000  0.6508444  3
   5676   5675   5677   5680     1  0.0000000  0.6508444  3
   5677   5675   5676   5686     1  0.0000000  0.6508444  3
   5677   5675   5676   5687     1  0.0000000  0.6508444  3
   5678   5677   5675   5696     1  0.0000000  0.6508444  3
   5678   5677   5679   5683     1  0.0000000  0.6508444  3
   5678   5677   5679   5681     1  0.0000000  0.6508444  3
   5678   5677   5679   5682     1  0.0000000  0.6508444  3
   5679   5677   5675   5696     1  0.0000000  0.6508444  3
   5679   5683   5684   5694     1  180.0000771  9.6232000  2
   5680   5677   5675   5696     1  0.0000000  0.6508444  3
   5680   5677   5679   5683     1  0.0000000  0.6508444  3
   5680   5677   5679   5681     1  0.0000000  0.6508444  3
   5680   5677   5679   5682     1  0.0000000  0.6508444  3
   5681   5679   5683   5684     1  180.0000771  0.0000000  2
   5681   5679   5683   5685     1  0.0000000  3.3472000  1
   5681   5679   5683   5685     1  0.0000000  0.0000000  2
   5681   5679   5683   5685     1  180.0000771  0.3347200  3
   5682   5679   5683   5684     1  180.0000771  0.0000000  2
   5682   5679   5683   5685     1  0.0000000  3.3472000  1
   5682   5679   5683   5685     1  0.0000000  0.0000000  2
   5682   5679   5683   5685     1  180.0000771  0.3347200  3
   5685   5683   5684   5694     1  0.0000000  7.9496000  1
   5685   5683   5684   5694     1  180.0000771  9.6232000  2
   5686   5676   5675   5696     1  0.0000000  0.6508444  3
   5686   5676   5688   5691     1  0.0000000  0.6508444  3
   5686   5676   5688   5689     1  0.0000000  0.6508444  3
   5686   5676   5688   5690     1  0.0000000  0.6508444  3
   5687   5676   5675   5696     1  0.0000000  0.6508444  3
   5687   5676   5688   5691     1  0.0000000  0.6508444  3
   5687   5676   5688   5689     1  0.0000000  0.6508444  3
   5687   5676   5688   5690     1  0.0000000  0.6508444  3
   5688   5676   5675   5696     1  0.0000000  0.6508444  3
   5688   5691   5693   5695     1  180.0000771  9.6232000  2
   5689   5688   5691   5692     1  0.0000000  3.3472000  1
   5689   5688   5691   5692     1  0.0000000  0.0000000  2
   5689   5688   5691   5692     1  180.0000771  0.3347200  3
   5689   5688   5691   5693     1  180.0000771  0.0000000  2
   5690   5688   5691   5692     1  0.0000000  3.3472000  1
   5690   5688   5691   5692     1  0.0000000  0.0000000  2
   5690   5688   5691   5692     1  180.0000771  0.3347200  3
   5690   5688   5691   5693     1  180.0000771  0.0000000  2
   5692   5691   5693   5695     1  0.0000000  7.9496000  1
   5692   5691   5693   5695     1  180.0000771  9.6232000  2
   5697   5699   5701   5703     1  0.0000000  0.6508444  3
   5697   5699   5701   5704     1  0.0000000  0.6508444  3
   5698   5697   5699   5701     1  0.0000000  0.0000000  2
   5698   5697   5699   5700     1  0.0000000  0.0000000  2
   5698   5697   5699   5702     1  0.0000000  0.0000000  2
   5699   5701   5705   5726     1  0.0000000  0.6508444  3
   5700   5699   5701   5705     1  0.0000000  0.6508444  3
   5700   5699   5701   5703     1  0.0000000  0.6508444  3
   5700   5699   5701   5704     1  0.0000000  0.6508444  3
   5701   5705   5706   5716     1  0.0000000  0.6508444  3
   5701   5705   5706   5717     1  0.0000000  0.6508444  3
   5701   5705   5707   5708     1  0.0000000  0.6508444  3
   5701   5705   5707   5710     1  0.0000000  0.6508444  3
   5702   5699   5701   5705     1  0.0000000  0.6508444  3
   5702   5699   5701   5703     1  0.0000000  0.6508444  3
   5702   5699   5701   5704     1  0.0000000  0.6508444  3
   5703   5701   5705   5706     1  0.0000000  0.6508444  3
   5703   5701   5705   5707     1  0.0000000  0.6508444  3
   5703   5701   5705   5726     1  0.0000000  0.6508444  3
   5704   5701   5705   5706     1  0.0000000  0.6508444  3
   5704   5701   5705   5707     1  0.0000000  0.6508444  3
   5704   5701   5705   5726     1  0.0000000  0.6508444  3
   5705   5706   5718   5719     1  0.0000000  0.6508444  3
   5705   5706   5718   5720     1  0.0000000  0.6508444  3
   5705   5707   5709   5711     1  0.0000000  0.6508444  3
   5705   5707   5709   5712     1  0.0000000  0.6508444  3
   5706   5705   5707   5708     1  0.0000000  0.6508444  3
   5706   5705   5707   5710     1  0.0000000  0.6508444  3
   5707   5705   5706   5716     1  0.0000000  0.6508444  3
   5707   5705   5706   5717     1  0.0000000  0.6508444  3
   5708   5707   5709   5713     1  0.0000000  0.6508444  3
   5708   5707   5709   5711     1  0.0000000  0.6508444  3
   5708   5707   5709   5712     1  0.0000000  0.6508444  3
   5708   5707   5705   5726     1  0.0000000  0.6508444  3
   5709   5713   5714   5724     1  180.0000771  9.6232000  2
   5709   5707   5705   5726     1  0.0000000  0.6508444  3
   5710   5707   5709   5713     1  0.0000000  0.6508444  3
   5710   5707   5709   5711     1  0.0000000  0.6508444  3
   5710   5707   5709   5712     1  0.0000000  0.6508444  3
   5710   5707   5705   5726     1  0.0000000  0.6508444  3
   5711   5709   5713   5714     1  180.0000771  0.0000000  2
   5711   5709   5713   5715     1  0.0000000  3.3472000  1
   5711   5709   5713   5715     1  0.0000000  0.0000000  2
   5711   5709   5713   5715     1  180.0000771  0.3347200  3
   5712   5709   5713   5714     1  180.0000771  0.0000000  2
   5712   5709   5713   5715     1  0.0000000  3.3472000  1
   5712   5709   5713   5715     1  0.0000000  0.0000000  2
   5712   5709   5713   5715     1  180.0000771  0.3347200  3
   5715   5713   5714   5724     1  0.0000000  7.9496000  1
   5715   5713   5714   5724     1  180.0000771  9.6232000  2
   5716   5706   5718   5721     1  0.0000000  0.6508444  3
   5716   5706   5718   5719     1  0.0000000  0.6508444  3
   5716   5706   5718   5720     1  0.0000000  0.6508444  3
   5716   5706   5705   5726     1  0.0000000  0.6508444  3
   5717   5706   5718   5721     1  0.0000000  0.6508444  3
   5717   5706   5718   5719     1  0.0000000  0.6508444  3
   5717   5706   5718   5720     1  0.0000000  0.6508444  3
   5717   5706   5705   5726     1  0.0000000  0.6508444  3
   5718   5721   5723   5725     1  180.0000771  9.6232000  2
   5718   5706   5705   5726     1  0.0000000  0.6508444  3
   5719   5718   5721   5722     1  0.0000000  3.3472000  1
   5719   5718   5721   5722     1  0.0000000  0.0000000  2
   5719   5718   5721   5722     1  180.0000771  0.3347200  3
   5719   5718   5721   5723     1  180.0000771  0.0000000  2
   5720   5718   5721   5722     1  0.0000000  3.3472000  1
   5720   5718   5721   5722     1  0.0000000  0.0000000  2
   5720   5718   5721   5722     1  180.0000771  0.3347200  3
   5720   5718   5721   5723     1  180.0000771  0.0000000  2
   5722   5721   5723   5725     1  0.0000000  7.9496000  1
   5722   5721   5723   5725     1  180.0000771  9.6232000  2
   5727   5729   5731   5733     1  0.0000000  0.6508444  3
   5727   5729   5731   5734     1  0.0000000  0.6508444  3
   5728   5727   5729   5731     1  0.0000000  0.0000000  2
   5728   5727   5729   5730     1  0.0000000  0.0000000  2
   5728   5727   5729   5732     1  0.0000000  0.0000000  2
   5729   5731   5735   5756     1  0.0000000  0.6508444  3
   5730   5729   5731   5735     1  0.0000000  0.6508444  3
   5730   5729   5731   5733     1  0.0000000  0.6508444  3
   5730   5729   5731   5734     1  0.0000000  0.6508444  3
   5731   5735   5736   5746     1  0.0000000  0.6508444  3
   5731   5735   5736   5747     1  0.0000000  0.6508444  3
   5731   5735   5737   5738     1  0.0000000  0.6508444  3
   5731   5735   5737   5740     1  0.0000000  0.6508444  3
   5732   5729   5731   5735     1  0.0000000  0.6508444  3
   5732   5729   5731   5733     1  0.0000000  0.6508444  3
   5732   5729   5731   5734     1  0.0000000  0.6508444  3
   5733   5731   5735   5736     1  0.0000000  0.6508444  3
   5733   5731   5735   5737     1  0.0000000  0.6508444  3
   5733   5731   5735   5756     1  0.0000000  0.6508444  3
   5734   5731   5735   5736     1  0.0000000  0.6508444  3
   5734   5731   5735   5737     1  0.0000000  0.6508444  3
   5734   5731   5735   5756     1  0.0000000  0.6508444  3
   5735   5736   5748   5749     1  0.0000000  0.6508444  3
   5735   5736   5748   5750     1  0.0000000  0.6508444  3
   5735   5737   5739   5741     1  0.0000000  0.6508444  3
   5735   5737   5739   5742     1  0.0000000  0.6508444  3
   5736   5735   5737   5738     1  0.0000000  0.6508444  3
   5736   5735   5737   5740     1  0.0000000  0.6508444  3
   5737   5735   5736   5746     1  0.0000000  0.6508444  3
   5737   5735   5736   5747     1  0.0000000  0.6508444  3
   5738   5737   5735   5756     1  0.0000000  0.6508444  3
   5738   5737   5739   5743     1  0.0000000  0.6508444  3
   5738   5737   5739   5741     1  0.0000000  0.6508444  3
   5738   5737   5739   5742     1  0.0000000  0.6508444  3
   5739   5737   5735   5756     1  0.0000000  0.6508444  3
   5739   5743   5744   5754     1  180.0000771  9.6232000  2
   5740   5737   5735   5756     1  0.0000000  0.6508444  3
   5740   5737   5739   5743     1  0.0000000  0.6508444  3
   5740   5737   5739   5741     1  0.0000000  0.6508444  3
   5740   5737   5739   5742     1  0.0000000  0.6508444  3
   5741   5739   5743   5744     1  180.0000771  0.0000000  2
   5741   5739   5743   5745     1  0.0000000  3.3472000  1
   5741   5739   5743   5745     1  0.0000000  0.0000000  2
   5741   5739   5743   5745     1  180.0000771  0.3347200  3
   5742   5739   5743   5744     1  180.0000771  0.0000000  2
   5742   5739   5743   5745     1  0.0000000  3.3472000  1
   5742   5739   5743   5745     1  0.0000000  0.0000000  2
   5742   5739   5743   5745     1  180.0000771  0.3347200  3
   5745   5743   5744   5754     1  0.0000000  7.9496000  1
   5745   5743   5744   5754     1  180.0000771  9.6232000  2
   5746   5736   5735   5756     1  0.0000000  0.6508444  3
   5746   5736   5748   5751     1  0.0000000  0.6508444  3
   5746   5736   5748   5749     1  0.0000000  0.6508444  3
   5746   5736   5748   5750     1  0.0000000  0.6508444  3
   5747   5736   5735   5756     1  0.0000000  0.6508444  3
   5747   5736   5748   5751     1  0.0000000  0.6508444  3
   5747   5736   5748   5749     1  0.0000000  0.6508444  3
   5747   5736   5748   5750     1  0.0000000  0.6508444  3
   5748   5736   5735   5756     1  0.0000000  0.6508444  3
   5748   5751   5753   5755     1  180.0000771  9.6232000  2
   5749   5748   5751   5752     1  0.0000000  3.3472000  1
   5749   5748   5751   5752     1  0.0000000  0.0000000  2
   5749   5748   5751   5752     1  180.0000771  0.3347200  3
   5749   5748   5751   5753     1  180.0000771  0.0000000  2
   5750   5748   5751   5752     1  0.0000000  3.3472000  1
   5750   5748   5751   5752     1  0.0000000  0.0000000  2
   5750   5748   5751   5752     1  180.0000771  0.3347200  3
   5750   5748   5751   5753     1  180.0000771  0.0000000  2
   5752   5751   5753   5755     1  0.0000000  7.9496000  1
   5752   5751   5753   5755     1  180.0000771  9.6232000  2
   5757   5759   5761   5763     1  0.0000000  0.6508444  3
   5757   5759   5761   5764     1  0.0000000  0.6508444  3
   5758   5757   5759   5761     1  0.0000000  0.0000000  2
   5758   5757   5759   5760     1  0.0000000  0.0000000  2
   5758   5757   5759   5762     1  0.0000000  0.0000000  2
   5759   5761   5765   5786     1  0.0000000  0.6508444  3
   5760   5759   5761   5765     1  0.0000000  0.6508444  3
   5760   5759   5761   5763     1  0.0000000  0.6508444  3
   5760   5759   5761   5764     1  0.0000000  0.6508444  3
   5761   5765   5766   5776     1  0.0000000  0.6508444  3
   5761   5765   5766   5777     1  0.0000000  0.6508444  3
   5761   5765   5767   5768     1  0.0000000  0.6508444  3
   5761   5765   5767   5770     1  0.0000000  0.6508444  3
   5762   5759   5761   5765     1  0.0000000  0.6508444  3
   5762   5759   5761   5763     1  0.0000000  0.6508444  3
   5762   5759   5761   5764     1  0.0000000  0.6508444  3
   5763   5761   5765   5766     1  0.0000000  0.6508444  3
   5763   5761   5765   5767     1  0.0000000  0.6508444  3
   5763   5761   5765   5786     1  0.0000000  0.6508444  3
   5764   5761   5765   5766     1  0.0000000  0.6508444  3
   5764   5761   5765   5767     1  0.0000000  0.6508444  3
   5764   5761   5765   5786     1  0.0000000  0.6508444  3
   5765   5766   5778   5779     1  0.0000000  0.6508444  3
   5765   5766   5778   5780     1  0.0000000  0.6508444  3
   5765   5767   5769   5771     1  0.0000000  0.6508444  3
   5765   5767   5769   5772     1  0.0000000  0.6508444  3
   5766   5765   5767   5768     1  0.0000000  0.6508444  3
   5766   5765   5767   5770     1  0.0000000  0.6508444  3
   5767   5765   5766   5776     1  0.0000000  0.6508444  3
   5767   5765   5766   5777     1  0.0000000  0.6508444  3
   5768   5767   5769   5773     1  0.0000000  0.6508444  3
   5768   5767   5769   5771     1  0.0000000  0.6508444  3
   5768   5767   5769   5772     1  0.0000000  0.6508444  3
   5768   5767   5765   5786     1  0.0000000  0.6508444  3
   5769   5773   5774   5784     1  180.0000771  9.6232000  2
   5769   5767   5765   5786     1  0.0000000  0.6508444  3
   5770   5767   5769   5773     1  0.0000000  0.6508444  3
   5770   5767   5769   5771     1  0.0000000  0.6508444  3
   5770   5767   5769   5772     1  0.0000000  0.6508444  3
   5770   5767   5765   5786     1  0.0000000  0.6508444  3
   5771   5769   5773   5774     1  180.0000771  0.0000000  2
   5771   5769   5773   5775     1  0.0000000  3.3472000  1
   5771   5769   5773   5775     1  0.0000000  0.0000000  2
   5771   5769   5773   5775     1  180.0000771  0.3347200  3
   5772   5769   5773   5774     1  180.0000771  0.0000000  2
   5772   5769   5773   5775     1  0.0000000  3.3472000  1
   5772   5769   5773   5775     1  0.0000000  0.0000000  2
   5772   5769   5773   5775     1  180.0000771  0.3347200  3
   5775   5773   5774   5784     1  0.0000000  7.9496000  1
   5775   5773   5774   5784     1  180.0000771  9.6232000  2
   5776   5766   5778   5781     1  0.0000000  0.6508444  3
   5776   5766   5778   5779     1  0.0000000  0.6508444  3
   5776   5766   5778   5780     1  0.0000000  0.6508444  3
   5776   5766   5765   5786     1  0.0000000  0.6508444  3
   5777   5766   5778   5781     1  0.0000000  0.6508444  3
   5777   5766   5778   5779     1  0.0000000  0.6508444  3
   5777   5766   5778   5780     1  0.0000000  0.6508444  3
   5777   5766   5765   5786     1  0.0000000  0.6508444  3
   5778   5781   5783   5785     1  180.0000771  9.6232000  2
   5778   5766   5765   5786     1  0.0000000  0.6508444  3
   5779   5778   5781   5782     1  0.0000000  3.3472000  1
   5779   5778   5781   5782     1  0.0000000  0.0000000  2
   5779   5778   5781   5782     1  180.0000771  0.3347200  3
   5779   5778   5781   5783     1  180.0000771  0.0000000  2
   5780   5778   5781   5782     1  0.0000000  3.3472000  1
   5780   5778   5781   5782     1  0.0000000  0.0000000  2
   5780   5778   5781   5782     1  180.0000771  0.3347200  3
   5780   5778   5781   5783     1  180.0000771  0.0000000  2
   5782   5781   5783   5785     1  0.0000000  7.9496000  1
   5782   5781   5783   5785     1  180.0000771  9.6232000  2
   5787   5789   5791   5793     1  0.0000000  0.6508444  3
   5787   5789   5791   5794     1  0.0000000  0.6508444  3
   5788   5787   5789   5791     1  0.0000000  0.0000000  2
   5788   5787   5789   5790     1  0.0000000  0.0000000  2
   5788   5787   5789   5792     1  0.0000000  0.0000000  2
   5789   5791   5795   5816     1  0.0000000  0.6508444  3
   5790   5789   5791   5795     1  0.0000000  0.6508444  3
   5790   5789   5791   5793     1  0.0000000  0.6508444  3
   5790   5789   5791   5794     1  0.0000000  0.6508444  3
   5791   5795   5796   5806     1  0.0000000  0.6508444  3
   5791   5795   5796   5807     1  0.0000000  0.6508444  3
   5791   5795   5797   5798     1  0.0000000  0.6508444  3
   5791   5795   5797   5800     1  0.0000000  0.6508444  3
   5792   5789   5791   5795     1  0.0000000  0.6508444  3
   5792   5789   5791   5793     1  0.0000000  0.6508444  3
   5792   5789   5791   5794     1  0.0000000  0.6508444  3
   5793   5791   5795   5796     1  0.0000000  0.6508444  3
   5793   5791   5795   5797     1  0.0000000  0.6508444  3
   5793   5791   5795   5816     1  0.0000000  0.6508444  3
   5794   5791   5795   5796     1  0.0000000  0.6508444  3
   5794   5791   5795   5797     1  0.0000000  0.6508444  3
   5794   5791   5795   5816     1  0.0000000  0.6508444  3
   5795   5796   5808   5809     1  0.0000000  0.6508444  3
   5795   5796   5808   5810     1  0.0000000  0.6508444  3
   5795   5797   5799   5801     1  0.0000000  0.6508444  3
   5795   5797   5799   5802     1  0.0000000  0.6508444  3
   5796   5795   5797   5798     1  0.0000000  0.6508444  3
   5796   5795   5797   5800     1  0.0000000  0.6508444  3
   5797   5795   5796   5806     1  0.0000000  0.6508444  3
   5797   5795   5796   5807     1  0.0000000  0.6508444  3
   5798   5797   5795   5816     1  0.0000000  0.6508444  3
   5798   5797   5799   5803     1  0.0000000  0.6508444  3
   5798   5797   5799   5801     1  0.0000000  0.6508444  3
   5798   5797   5799   5802     1  0.0000000  0.6508444  3
   5799   5797   5795   5816     1  0.0000000  0.6508444  3
   5799   5803   5804   5814     1  180.0000771  9.6232000  2
   5800   5797   5795   5816     1  0.0000000  0.6508444  3
   5800   5797   5799   5803     1  0.0000000  0.6508444  3
   5800   5797   5799   5801     1  0.0000000  0.6508444  3
   5800   5797   5799   5802     1  0.0000000  0.6508444  3
   5801   5799   5803   5804     1  180.0000771  0.0000000  2
   5801   5799   5803   5805     1  0.0000000  3.3472000  1
   5801   5799   5803   5805     1  0.0000000  0.0000000  2
   5801   5799   5803   5805     1  180.0000771  0.3347200  3
   5802   5799   5803   5804     1  180.0000771  0.0000000  2
   5802   5799   5803   5805     1  0.0000000  3.3472000  1
   5802   5799   5803   5805     1  0.0000000  0.0000000  2
   5802   5799   5803   5805     1  180.0000771  0.3347200  3
   5805   5803   5804   5814     1  0.0000000  7.9496000  1
   5805   5803   5804   5814     1  180.0000771  9.6232000  2
   5806   5796   5795   5816     1  0.0000000  0.6508444  3
   5806   5796   5808   5811     1  0.0000000  0.6508444  3
   5806   5796   5808   5809     1  0.0000000  0.6508444  3
   5806   5796   5808   5810     1  0.0000000  0.6508444  3
   5807   5796   5795   5816     1  0.0000000  0.6508444  3
   5807   5796   5808   5811     1  0.0000000  0.6508444  3
   5807   5796   5808   5809     1  0.0000000  0.6508444  3
   5807   5796   5808   5810     1  0.0000000  0.6508444  3
   5808   5796   5795   5816     1  0.0000000  0.6508444  3
   5808   5811   5813   5815     1  180.0000771  9.6232000  2
   5809   5808   5811   5812     1  0.0000000  3.3472000  1
   5809   5808   5811   5812     1  0.0000000  0.0000000  2
   5809   5808   5811   5812     1  180.0000771  0.3347200  3
   5809   5808   5811   5813     1  180.0000771  0.0000000  2
   5810   5808   5811   5812     1  0.0000000  3.3472000  1
   5810   5808   5811   5812     1  0.0000000  0.0000000  2
   5810   5808   5811   5812     1  180.0000771  0.3347200  3
   5810   5808   5811   5813     1  180.0000771  0.0000000  2
   5812   5811   5813   5815     1  0.0000000  7.9496000  1
   5812   5811   5813   5815     1  180.0000771  9.6232000  2
   5817   5819   5821   5823     1  0.0000000  0.6508444  3
   5817   5819   5821   5824     1  0.0000000  0.6508444  3
   5818   5817   5819   5821     1  0.0000000  0.0000000  2
   5818   5817   5819   5820     1  0.0000000  0.0000000  2
   5818   5817   5819   5822     1  0.0000000  0.0000000  2
   5819   5821   5825   5846     1  0.0000000  0.6508444  3
   5820   5819   5821   5825     1  0.0000000  0.6508444  3
   5820   5819   5821   5823     1  0.0000000  0.6508444  3
   5820   5819   5821   5824     1  0.0000000  0.6508444  3
   5821   5825   5826   5836     1  0.0000000  0.6508444  3
   5821   5825   5826   5837     1  0.0000000  0.6508444  3
   5821   5825   5827   5828     1  0.0000000  0.6508444  3
   5821   5825   5827   5830     1  0.0000000  0.6508444  3
   5822   5819   5821   5825     1  0.0000000  0.6508444  3
   5822   5819   5821   5823     1  0.0000000  0.6508444  3
   5822   5819   5821   5824     1  0.0000000  0.6508444  3
   5823   5821   5825   5826     1  0.0000000  0.6508444  3
   5823   5821   5825   5827     1  0.0000000  0.6508444  3
   5823   5821   5825   5846     1  0.0000000  0.6508444  3
   5824   5821   5825   5826     1  0.0000000  0.6508444  3
   5824   5821   5825   5827     1  0.0000000  0.6508444  3
   5824   5821   5825   5846     1  0.0000000  0.6508444  3
   5825   5826   5838   5839     1  0.0000000  0.6508444  3
   5825   5826   5838   5840     1  0.0000000  0.6508444  3
   5825   5827   5829   5831     1  0.0000000  0.6508444  3
   5825   5827   5829   5832     1  0.0000000  0.6508444  3
   5826   5825   5827   5828     1  0.0000000  0.6508444  3
   5826   5825   5827   5830     1  0.0000000  0.6508444  3
   5827   5825   5826   5836     1  0.0000000  0.6508444  3
   5827   5825   5826   5837     1  0.0000000  0.6508444  3
   5828   5827   5829   5833     1  0.0000000  0.6508444  3
   5828   5827   5829   5831     1  0.0000000  0.6508444  3
   5828   5827   5829   5832     1  0.0000000  0.6508444  3
   5828   5827   5825   5846     1  0.0000000  0.6508444  3
   5829   5833   5834   5844     1  180.0000771  9.6232000  2
   5829   5827   5825   5846     1  0.0000000  0.6508444  3
   5830   5827   5829   5833     1  0.0000000  0.6508444  3
   5830   5827   5829   5831     1  0.0000000  0.6508444  3
   5830   5827   5829   5832     1  0.0000000  0.6508444  3
   5830   5827   5825   5846     1  0.0000000  0.6508444  3
   5831   5829   5833   5834     1  180.0000771  0.0000000  2
   5831   5829   5833   5835     1  0.0000000  3.3472000  1
   5831   5829   5833   5835     1  0.0000000  0.0000000  2
   5831   5829   5833   5835     1  180.0000771  0.3347200  3
   5832   5829   5833   5834     1  180.0000771  0.0000000  2
   5832   5829   5833   5835     1  0.0000000  3.3472000  1
   5832   5829   5833   5835     1  0.0000000  0.0000000  2
   5832   5829   5833   5835     1  180.0000771  0.3347200  3
   5835   5833   5834   5844     1  0.0000000  7.9496000  1
   5835   5833   5834   5844     1  180.0000771  9.6232000  2
   5836   5826   5838   5841     1  0.0000000  0.6508444  3
   5836   5826   5838   5839     1  0.0000000  0.6508444  3
   5836   5826   5838   5840     1  0.0000000  0.6508444  3
   5836   5826   5825   5846     1  0.0000000  0.6508444  3
   5837   5826   5838   5841     1  0.0000000  0.6508444  3
   5837   5826   5838   5839     1  0.0000000  0.6508444  3
   5837   5826   5838   5840     1  0.0000000  0.6508444  3
   5837   5826   5825   5846     1  0.0000000  0.6508444  3
   5838   5841   5843   5845     1  180.0000771  9.6232000  2
   5838   5826   5825   5846     1  0.0000000  0.6508444  3
   5839   5838   5841   5842     1  0.0000000  3.3472000  1
   5839   5838   5841   5842     1  0.0000000  0.0000000  2
   5839   5838   5841   5842     1  180.0000771  0.3347200  3
   5839   5838   5841   5843     1  180.0000771  0.0000000  2
   5840   5838   5841   5842     1  0.0000000  3.3472000  1
   5840   5838   5841   5842     1  0.0000000  0.0000000  2
   5840   5838   5841   5842     1  180.0000771  0.3347200  3
   5840   5838   5841   5843     1  180.0000771  0.0000000  2
   5842   5841   5843   5845     1  0.0000000  7.9496000  1
   5842   5841   5843   5845     1  180.0000771  9.6232000  2
   5847   5849   5851   5853     1  0.0000000  0.6508444  3
   5847   5849   5851   5854     1  0.0000000  0.6508444  3
   5848   5847   5849   5851     1  0.0000000  0.0000000  2
   5848   5847   5849   5850     1  0.0000000  0.0000000  2
   5848   5847   5849   5852     1  0.0000000  0.0000000  2
   5849   5851   5855   5876     1  0.0000000  0.6508444  3
   5850   5849   5851   5855     1  0.0000000  0.6508444  3
   5850   5849   5851   5853     1  0.0000000  0.6508444  3
   5850   5849   5851   5854     1  0.0000000  0.6508444  3
   5851   5855   5856   5866     1  0.0000000  0.6508444  3
   5851   5855   5856   5867     1  0.0000000  0.6508444  3
   5851   5855   5857   5858     1  0.0000000  0.6508444  3
   5851   5855   5857   5860     1  0.0000000  0.6508444  3
   5852   5849   5851   5855     1  0.0000000  0.6508444  3
   5852   5849   5851   5853     1  0.0000000  0.6508444  3
   5852   5849   5851   5854     1  0.0000000  0.6508444  3
   5853   5851   5855   5856     1  0.0000000  0.6508444  3
   5853   5851   5855   5857     1  0.0000000  0.6508444  3
   5853   5851   5855   5876     1  0.0000000  0.6508444  3
   5854   5851   5855   5856     1  0.0000000  0.6508444  3
   5854   5851   5855   5857     1  0.0000000  0.6508444  3
   5854   5851   5855   5876     1  0.0000000  0.6508444  3
   5855   5856   5868   5869     1  0.0000000  0.6508444  3
   5855   5856   5868   5870     1  0.0000000  0.6508444  3
   5855   5857   5859   5861     1  0.0000000  0.6508444  3
   5855   5857   5859   5862     1  0.0000000  0.6508444  3
   5856   5855   5857   5858     1  0.0000000  0.6508444  3
   5856   5855   5857   5860     1  0.0000000  0.6508444  3
   5857   5855   5856   5866     1  0.0000000  0.6508444  3
   5857   5855   5856   5867     1  0.0000000  0.6508444  3
   5858   5857   5855   5876     1  0.0000000  0.6508444  3
   5858   5857   5859   5863     1  0.0000000  0.6508444  3
   5858   5857   5859   5861     1  0.0000000  0.6508444  3
   5858   5857   5859   5862     1  0.0000000  0.6508444  3
   5859   5857   5855   5876     1  0.0000000  0.6508444  3
   5859   5863   5864   5874     1  180.0000771  9.6232000  2
   5860   5857   5855   5876     1  0.0000000  0.6508444  3
   5860   5857   5859   5863     1  0.0000000  0.6508444  3
   5860   5857   5859   5861     1  0.0000000  0.6508444  3
   5860   5857   5859   5862     1  0.0000000  0.6508444  3
   5861   5859   5863   5864     1  180.0000771  0.0000000  2
   5861   5859   5863   5865     1  0.0000000  3.3472000  1
   5861   5859   5863   5865     1  0.0000000  0.0000000  2
   5861   5859   5863   5865     1  180.0000771  0.3347200  3
   5862   5859   5863   5864     1  180.0000771  0.0000000  2
   5862   5859   5863   5865     1  0.0000000  3.3472000  1
   5862   5859   5863   5865     1  0.0000000  0.0000000  2
   5862   5859   5863   5865     1  180.0000771  0.3347200  3
   5865   5863   5864   5874     1  0.0000000  7.9496000  1
   5865   5863   5864   5874     1  180.0000771  9.6232000  2
   5866   5856   5855   5876     1  0.0000000  0.6508444  3
   5866   5856   5868   5871     1  0.0000000  0.6508444  3
   5866   5856   5868   5869     1  0.0000000  0.6508444  3
   5866   5856   5868   5870     1  0.0000000  0.6508444  3
   5867   5856   5855   5876     1  0.0000000  0.6508444  3
   5867   5856   5868   5871     1  0.0000000  0.6508444  3
   5867   5856   5868   5869     1  0.0000000  0.6508444  3
   5867   5856   5868   5870     1  0.0000000  0.6508444  3
   5868   5856   5855   5876     1  0.0000000  0.6508444  3
   5868   5871   5873   5875     1  180.0000771  9.6232000  2
   5869   5868   5871   5872     1  0.0000000  3.3472000  1
   5869   5868   5871   5872     1  0.0000000  0.0000000  2
   5869   5868   5871   5872     1  180.0000771  0.3347200  3
   5869   5868   5871   5873     1  180.0000771  0.0000000  2
   5870   5868   5871   5872     1  0.0000000  3.3472000  1
   5870   5868   5871   5872     1  0.0000000  0.0000000  2
   5870   5868   5871   5872     1  180.0000771  0.3347200  3
   5870   5868   5871   5873     1  180.0000771  0.0000000  2
   5872   5871   5873   5875     1  0.0000000  7.9496000  1
   5872   5871   5873   5875     1  180.0000771  9.6232000  2
   5877   5879   5881   5883     1  0.0000000  0.6508444  3
   5877   5879   5881   5884     1  0.0000000  0.6508444  3
   5878   5877   5879   5881     1  0.0000000  0.0000000  2
   5878   5877   5879   5880     1  0.0000000  0.0000000  2
   5878   5877   5879   5882     1  0.0000000  0.0000000  2
   5879   5881   5885   5906     1  0.0000000  0.6508444  3
   5880   5879   5881   5885     1  0.0000000  0.6508444  3
   5880   5879   5881   5883     1  0.0000000  0.6508444  3
   5880   5879   5881   5884     1  0.0000000  0.6508444  3
   5881   5885   5886   5896     1  0.0000000  0.6508444  3
   5881   5885   5886   5897     1  0.0000000  0.6508444  3
   5881   5885   5887   5888     1  0.0000000  0.6508444  3
   5881   5885   5887   5890     1  0.0000000  0.6508444  3
   5882   5879   5881   5885     1  0.0000000  0.6508444  3
   5882   5879   5881   5883     1  0.0000000  0.6508444  3
   5882   5879   5881   5884     1  0.0000000  0.6508444  3
   5883   5881   5885   5886     1  0.0000000  0.6508444  3
   5883   5881   5885   5887     1  0.0000000  0.6508444  3
   5883   5881   5885   5906     1  0.0000000  0.6508444  3
   5884   5881   5885   5886     1  0.0000000  0.6508444  3
   5884   5881   5885   5887     1  0.0000000  0.6508444  3
   5884   5881   5885   5906     1  0.0000000  0.6508444  3
   5885   5886   5898   5899     1  0.0000000  0.6508444  3
   5885   5886   5898   5900     1  0.0000000  0.6508444  3
   5885   5887   5889   5891     1  0.0000000  0.6508444  3
   5885   5887   5889   5892     1  0.0000000  0.6508444  3
   5886   5885   5887   5888     1  0.0000000  0.6508444  3
   5886   5885   5887   5890     1  0.0000000  0.6508444  3
   5887   5885   5886   5896     1  0.0000000  0.6508444  3
   5887   5885   5886   5897     1  0.0000000  0.6508444  3
   5888   5887   5889   5893     1  0.0000000  0.6508444  3
   5888   5887   5889   5891     1  0.0000000  0.6508444  3
   5888   5887   5889   5892     1  0.0000000  0.6508444  3
   5888   5887   5885   5906     1  0.0000000  0.6508444  3
   5889   5893   5894   5904     1  180.0000771  9.6232000  2
   5889   5887   5885   5906     1  0.0000000  0.6508444  3
   5890   5887   5889   5893     1  0.0000000  0.6508444  3
   5890   5887   5889   5891     1  0.0000000  0.6508444  3
   5890   5887   5889   5892     1  0.0000000  0.6508444  3
   5890   5887   5885   5906     1  0.0000000  0.6508444  3
   5891   5889   5893   5894     1  180.0000771  0.0000000  2
   5891   5889   5893   5895     1  0.0000000  3.3472000  1
   5891   5889   5893   5895     1  0.0000000  0.0000000  2
   5891   5889   5893   5895     1  180.0000771  0.3347200  3
   5892   5889   5893   5894     1  180.0000771  0.0000000  2
   5892   5889   5893   5895     1  0.0000000  3.3472000  1
   5892   5889   5893   5895     1  0.0000000  0.0000000  2
   5892   5889   5893   5895     1  180.0000771  0.3347200  3
   5895   5893   5894   5904     1  0.0000000  7.9496000  1
   5895   5893   5894   5904     1  180.0000771  9.6232000  2
   5896   5886   5898   5901     1  0.0000000  0.6508444  3
   5896   5886   5898   5899     1  0.0000000  0.6508444  3
   5896   5886   5898   5900     1  0.0000000  0.6508444  3
   5896   5886   5885   5906     1  0.0000000  0.6508444  3
   5897   5886   5898   5901     1  0.0000000  0.6508444  3
   5897   5886   5898   5899     1  0.0000000  0.6508444  3
   5897   5886   5898   5900     1  0.0000000  0.6508444  3
   5897   5886   5885   5906     1  0.0000000  0.6508444  3
   5898   5901   5903   5905     1  180.0000771  9.6232000  2
   5898   5886   5885   5906     1  0.0000000  0.6508444  3
   5899   5898   5901   5902     1  0.0000000  3.3472000  1
   5899   5898   5901   5902     1  0.0000000  0.0000000  2
   5899   5898   5901   5902     1  180.0000771  0.3347200  3
   5899   5898   5901   5903     1  180.0000771  0.0000000  2
   5900   5898   5901   5902     1  0.0000000  3.3472000  1
   5900   5898   5901   5902     1  0.0000000  0.0000000  2
   5900   5898   5901   5902     1  180.0000771  0.3347200  3
   5900   5898   5901   5903     1  180.0000771  0.0000000  2
   5902   5901   5903   5905     1  0.0000000  7.9496000  1
   5902   5901   5903   5905     1  180.0000771  9.6232000  2
   5907   5909   5911   5913     1  0.0000000  0.6508444  3
   5907   5909   5911   5914     1  0.0000000  0.6508444  3
   5908   5907   5909   5911     1  0.0000000  0.0000000  2
   5908   5907   5909   5910     1  0.0000000  0.0000000  2
   5908   5907   5909   5912     1  0.0000000  0.0000000  2
   5909   5911   5915   5936     1  0.0000000  0.6508444  3
   5910   5909   5911   5915     1  0.0000000  0.6508444  3
   5910   5909   5911   5913     1  0.0000000  0.6508444  3
   5910   5909   5911   5914     1  0.0000000  0.6508444  3
   5911   5915   5916   5926     1  0.0000000  0.6508444  3
   5911   5915   5916   5927     1  0.0000000  0.6508444  3
   5911   5915   5917   5918     1  0.0000000  0.6508444  3
   5911   5915   5917   5920     1  0.0000000  0.6508444  3
   5912   5909   5911   5915     1  0.0000000  0.6508444  3
   5912   5909   5911   5913     1  0.0000000  0.6508444  3
   5912   5909   5911   5914     1  0.0000000  0.6508444  3
   5913   5911   5915   5916     1  0.0000000  0.6508444  3
   5913   5911   5915   5917     1  0.0000000  0.6508444  3
   5913   5911   5915   5936     1  0.0000000  0.6508444  3
   5914   5911   5915   5916     1  0.0000000  0.6508444  3
   5914   5911   5915   5917     1  0.0000000  0.6508444  3
   5914   5911   5915   5936     1  0.0000000  0.6508444  3
   5915   5916   5928   5929     1  0.0000000  0.6508444  3
   5915   5916   5928   5930     1  0.0000000  0.6508444  3
   5915   5917   5919   5921     1  0.0000000  0.6508444  3
   5915   5917   5919   5922     1  0.0000000  0.6508444  3
   5916   5915   5917   5918     1  0.0000000  0.6508444  3
   5916   5915   5917   5920     1  0.0000000  0.6508444  3
   5917   5915   5916   5926     1  0.0000000  0.6508444  3
   5917   5915   5916   5927     1  0.0000000  0.6508444  3
   5918   5917   5915   5936     1  0.0000000  0.6508444  3
   5918   5917   5919   5923     1  0.0000000  0.6508444  3
   5918   5917   5919   5921     1  0.0000000  0.6508444  3
   5918   5917   5919   5922     1  0.0000000  0.6508444  3
   5919   5917   5915   5936     1  0.0000000  0.6508444  3
   5919   5923   5924   5934     1  180.0000771  9.6232000  2
   5920   5917   5915   5936     1  0.0000000  0.6508444  3
   5920   5917   5919   5923     1  0.0000000  0.6508444  3
   5920   5917   5919   5921     1  0.0000000  0.6508444  3
   5920   5917   5919   5922     1  0.0000000  0.6508444  3
   5921   5919   5923   5924     1  180.0000771  0.0000000  2
   5921   5919   5923   5925     1  0.0000000  3.3472000  1
   5921   5919   5923   5925     1  0.0000000  0.0000000  2
   5921   5919   5923   5925     1  180.0000771  0.3347200  3
   5922   5919   5923   5924     1  180.0000771  0.0000000  2
   5922   5919   5923   5925     1  0.0000000  3.3472000  1
   5922   5919   5923   5925     1  0.0000000  0.0000000  2
   5922   5919   5923   5925     1  180.0000771  0.3347200  3
   5925   5923   5924   5934     1  0.0000000  7.9496000  1
   5925   5923   5924   5934     1  180.0000771  9.6232000  2
   5926   5916   5915   5936     1  0.0000000  0.6508444  3
   5926   5916   5928   5931     1  0.0000000  0.6508444  3
   5926   5916   5928   5929     1  0.0000000  0.6508444  3
   5926   5916   5928   5930     1  0.0000000  0.6508444  3
   5927   5916   5915   5936     1  0.0000000  0.6508444  3
   5927   5916   5928   5931     1  0.0000000  0.6508444  3
   5927   5916   5928   5929     1  0.0000000  0.6508444  3
   5927   5916   5928   5930     1  0.0000000  0.6508444  3
   5928   5916   5915   5936     1  0.0000000  0.6508444  3
   5928   5931   5933   5935     1  180.0000771  9.6232000  2
   5929   5928   5931   5932     1  0.0000000  3.3472000  1
   5929   5928   5931   5932     1  0.0000000  0.0000000  2
   5929   5928   5931   5932     1  180.0000771  0.3347200  3
   5929   5928   5931   5933     1  180.0000771  0.0000000  2
   5930   5928   5931   5932     1  0.0000000  3.3472000  1
   5930   5928   5931   5932     1  0.0000000  0.0000000  2
   5930   5928   5931   5932     1  180.0000771  0.3347200  3
   5930   5928   5931   5933     1  180.0000771  0.0000000  2
   5932   5931   5933   5935     1  0.0000000  7.9496000  1
   5932   5931   5933   5935     1  180.0000771  9.6232000  2
   5937   5939   5941   5943     1  0.0000000  0.6508444  3
   5937   5939   5941   5944     1  0.0000000  0.6508444  3
   5938   5937   5939   5941     1  0.0000000  0.0000000  2
   5938   5937   5939   5940     1  0.0000000  0.0000000  2
   5938   5937   5939   5942     1  0.0000000  0.0000000  2
   5939   5941   5945   5966     1  0.0000000  0.6508444  3
   5940   5939   5941   5945     1  0.0000000  0.6508444  3
   5940   5939   5941   5943     1  0.0000000  0.6508444  3
   5940   5939   5941   5944     1  0.0000000  0.6508444  3
   5941   5945   5946   5956     1  0.0000000  0.6508444  3
   5941   5945   5946   5957     1  0.0000000  0.6508444  3
   5941   5945   5947   5948     1  0.0000000  0.6508444  3
   5941   5945   5947   5950     1  0.0000000  0.6508444  3
   5942   5939   5941   5945     1  0.0000000  0.6508444  3
   5942   5939   5941   5943     1  0.0000000  0.6508444  3
   5942   5939   5941   5944     1  0.0000000  0.6508444  3
   5943   5941   5945   5946     1  0.0000000  0.6508444  3
   5943   5941   5945   5947     1  0.0000000  0.6508444  3
   5943   5941   5945   5966     1  0.0000000  0.6508444  3
   5944   5941   5945   5946     1  0.0000000  0.6508444  3
   5944   5941   5945   5947     1  0.0000000  0.6508444  3
   5944   5941   5945   5966     1  0.0000000  0.6508444  3
   5945   5946   5958   5959     1  0.0000000  0.6508444  3
   5945   5946   5958   5960     1  0.0000000  0.6508444  3
   5945   5947   5949   5951     1  0.0000000  0.6508444  3
   5945   5947   5949   5952     1  0.0000000  0.6508444  3
   5946   5945   5947   5948     1  0.0000000  0.6508444  3
   5946   5945   5947   5950     1  0.0000000  0.6508444  3
   5947   5945   5946   5956     1  0.0000000  0.6508444  3
   5947   5945   5946   5957     1  0.0000000  0.6508444  3
   5948   5947   5949   5953     1  0.0000000  0.6508444  3
   5948   5947   5949   5951     1  0.0000000  0.6508444  3
   5948   5947   5949   5952     1  0.0000000  0.6508444  3
   5948   5947   5945   5966     1  0.0000000  0.6508444  3
   5949   5953   5954   5964     1  180.0000771  9.6232000  2
   5949   5947   5945   5966     1  0.0000000  0.6508444  3
   5950   5947   5949   5953     1  0.0000000  0.6508444  3
   5950   5947   5949   5951     1  0.0000000  0.6508444  3
   5950   5947   5949   5952     1  0.0000000  0.6508444  3
   5950   5947   5945   5966     1  0.0000000  0.6508444  3
   5951   5949   5953   5954     1  180.0000771  0.0000000  2
   5951   5949   5953   5955     1  0.0000000  3.3472000  1
   5951   5949   5953   5955     1  0.0000000  0.0000000  2
   5951   5949   5953   5955     1  180.0000771  0.3347200  3
   5952   5949   5953   5954     1  180.0000771  0.0000000  2
   5952   5949   5953   5955     1  0.0000000  3.3472000  1
   5952   5949   5953   5955     1  0.0000000  0.0000000  2
   5952   5949   5953   5955     1  180.0000771  0.3347200  3
   5955   5953   5954   5964     1  0.0000000  7.9496000  1
   5955   5953   5954   5964     1  180.0000771  9.6232000  2
   5956   5946   5958   5961     1  0.0000000  0.6508444  3
   5956   5946   5958   5959     1  0.0000000  0.6508444  3
   5956   5946   5958   5960     1  0.0000000  0.6508444  3
   5956   5946   5945   5966     1  0.0000000  0.6508444  3
   5957   5946   5958   5961     1  0.0000000  0.6508444  3
   5957   5946   5958   5959     1  0.0000000  0.6508444  3
   5957   5946   5958   5960     1  0.0000000  0.6508444  3
   5957   5946   5945   5966     1  0.0000000  0.6508444  3
   5958   5961   5963   5965     1  180.0000771  9.6232000  2
   5958   5946   5945   5966     1  0.0000000  0.6508444  3
   5959   5958   5961   5962     1  0.0000000  3.3472000  1
   5959   5958   5961   5962     1  0.0000000  0.0000000  2
   5959   5958   5961   5962     1  180.0000771  0.3347200  3
   5959   5958   5961   5963     1  180.0000771  0.0000000  2
   5960   5958   5961   5962     1  0.0000000  3.3472000  1
   5960   5958   5961   5962     1  0.0000000  0.0000000  2
   5960   5958   5961   5962     1  180.0000771  0.3347200  3
   5960   5958   5961   5963     1  180.0000771  0.0000000  2
   5962   5961   5963   5965     1  0.0000000  7.9496000  1
   5962   5961   5963   5965     1  180.0000771  9.6232000  2
   5967   5969   5971   5973     1  0.0000000  0.6508444  3
   5967   5969   5971   5974     1  0.0000000  0.6508444  3
   5968   5967   5969   5971     1  0.0000000  0.0000000  2
   5968   5967   5969   5970     1  0.0000000  0.0000000  2
   5968   5967   5969   5972     1  0.0000000  0.0000000  2
   5969   5971   5975   5996     1  0.0000000  0.6508444  3
   5970   5969   5971   5975     1  0.0000000  0.6508444  3
   5970   5969   5971   5973     1  0.0000000  0.6508444  3
   5970   5969   5971   5974     1  0.0000000  0.6508444  3
   5971   5975   5976   5986     1  0.0000000  0.6508444  3
   5971   5975   5976   5987     1  0.0000000  0.6508444  3
   5971   5975   5977   5978     1  0.0000000  0.6508444  3
   5971   5975   5977   5980     1  0.0000000  0.6508444  3
   5972   5969   5971   5975     1  0.0000000  0.6508444  3
   5972   5969   5971   5973     1  0.0000000  0.6508444  3
   5972   5969   5971   5974     1  0.0000000  0.6508444  3
   5973   5971   5975   5976     1  0.0000000  0.6508444  3
   5973   5971   5975   5977     1  0.0000000  0.6508444  3
   5973   5971   5975   5996     1  0.0000000  0.6508444  3
   5974   5971   5975   5976     1  0.0000000  0.6508444  3
   5974   5971   5975   5977     1  0.0000000  0.6508444  3
   5974   5971   5975   5996     1  0.0000000  0.6508444  3
   5975   5976   5988   5989     1  0.0000000  0.6508444  3
   5975   5976   5988   5990     1  0.0000000  0.6508444  3
   5975   5977   5979   5981     1  0.0000000  0.6508444  3
   5975   5977   5979   5982     1  0.0000000  0.6508444  3
   5976   5975   5977   5978     1  0.0000000  0.6508444  3
   5976   5975   5977   5980     1  0.0000000  0.6508444  3
   5977   5975   5976   5986     1  0.0000000  0.6508444  3
   5977   5975   5976   5987     1  0.0000000  0.6508444  3
   5978   5977   5975   5996     1  0.0000000  0.6508444  3
   5978   5977   5979   5983     1  0.0000000  0.6508444  3
   5978   5977   5979   5981     1  0.0000000  0.6508444  3
   5978   5977   5979   5982     1  0.0000000  0.6508444  3
   5979   5977   5975   5996     1  0.0000000  0.6508444  3
   5979   5983   5984   5994     1  180.0000771  9.6232000  2
   5980   5977   5975   5996     1  0.0000000  0.6508444  3
   5980   5977   5979   5983     1  0.0000000  0.6508444  3
   5980   5977   5979   5981     1  0.0000000  0.6508444  3
   5980   5977   5979   5982     1  0.0000000  0.6508444  3
   5981   5979   5983   5984     1  180.0000771  0.0000000  2
   5981   5979   5983   5985     1  0.0000000  3.3472000  1
   5981   5979   5983   5985     1  0.0000000  0.0000000  2
   5981   5979   5983   5985     1  180.0000771  0.3347200  3
   5982   5979   5983   5984     1  180.0000771  0.0000000  2
   5982   5979   5983   5985     1  0.0000000  3.3472000  1
   5982   5979   5983   5985     1  0.0000000  0.0000000  2
   5982   5979   5983   5985     1  180.0000771  0.3347200  3
   5985   5983   5984   5994     1  0.0000000  7.9496000  1
   5985   5983   5984   5994     1  180.0000771  9.6232000  2
   5986   5976   5975   5996     1  0.0000000  0.6508444  3
   5986   5976   5988   5991     1  0.0000000  0.6508444  3
   5986   5976   5988   5989     1  0.0000000  0.6508444  3
   5986   5976   5988   5990     1  0.0000000  0.6508444  3
   5987   5976   5975   5996     1  0.0000000  0.6508444  3
   5987   5976   5988   5991     1  0.0000000  0.6508444  3
   5987   5976   5988   5989     1  0.0000000  0.6508444  3
   5987   5976   5988   5990     1  0.0000000  0.6508444  3
   5988   5976   5975   5996     1  0.0000000  0.6508444  3
   5988   5991   5993   5995     1  180.0000771  9.6232000  2
   5989   5988   5991   5992     1  0.0000000  3.3472000  1
   5989   5988   5991   5992     1  0.0000000  0.0000000  2
   5989   5988   5991   5992     1  180.0000771  0.3347200  3
   5989   5988   5991   5993     1  180.0000771  0.0000000  2
   5990   5988   5991   5992     1  0.0000000  3.3472000  1
   5990   5988   5991   5992     1  0.0000000  0.0000000  2
   5990   5988   5991   5992     1  180.0000771  0.3347200  3
   5990   5988   5991   5993     1  180.0000771  0.0000000  2
   5992   5991   5993   5995     1  0.0000000  7.9496000  1
   5992   5991   5993   5995     1  180.0000771  9.6232000  2
   5997   5999   6001   6003     1  0.0000000  0.6508444  3
   5997   5999   6001   6004     1  0.0000000  0.6508444  3
   5998   5997   5999   6001     1  0.0000000  0.0000000  2
   5998   5997   5999   6000     1  0.0000000  0.0000000  2
   5998   5997   5999   6002     1  0.0000000  0.0000000  2
   5999   6001   6005   6026     1  0.0000000  0.6508444  3
   6000   5999   6001   6005     1  0.0000000  0.6508444  3
   6000   5999   6001   6003     1  0.0000000  0.6508444  3
   6000   5999   6001   6004     1  0.0000000  0.6508444  3
   6001   6005   6006   6016     1  0.0000000  0.6508444  3
   6001   6005   6006   6017     1  0.0000000  0.6508444  3
   6001   6005   6007   6008     1  0.0000000  0.6508444  3
   6001   6005   6007   6010     1  0.0000000  0.6508444  3
   6002   5999   6001   6005     1  0.0000000  0.6508444  3
   6002   5999   6001   6003     1  0.0000000  0.6508444  3
   6002   5999   6001   6004     1  0.0000000  0.6508444  3
   6003   6001   6005   6006     1  0.0000000  0.6508444  3
   6003   6001   6005   6007     1  0.0000000  0.6508444  3
   6003   6001   6005   6026     1  0.0000000  0.6508444  3
   6004   6001   6005   6006     1  0.0000000  0.6508444  3
   6004   6001   6005   6007     1  0.0000000  0.6508444  3
   6004   6001   6005   6026     1  0.0000000  0.6508444  3
   6005   6006   6018   6019     1  0.0000000  0.6508444  3
   6005   6006   6018   6020     1  0.0000000  0.6508444  3
   6005   6007   6009   6011     1  0.0000000  0.6508444  3
   6005   6007   6009   6012     1  0.0000000  0.6508444  3
   6006   6005   6007   6008     1  0.0000000  0.6508444  3
   6006   6005   6007   6010     1  0.0000000  0.6508444  3
   6007   6005   6006   6016     1  0.0000000  0.6508444  3
   6007   6005   6006   6017     1  0.0000000  0.6508444  3
   6008   6007   6009   6013     1  0.0000000  0.6508444  3
   6008   6007   6009   6011     1  0.0000000  0.6508444  3
   6008   6007   6009   6012     1  0.0000000  0.6508444  3
   6008   6007   6005   6026     1  0.0000000  0.6508444  3
   6009   6013   6014   6024     1  180.0000771  9.6232000  2
   6009   6007   6005   6026     1  0.0000000  0.6508444  3
   6010   6007   6009   6013     1  0.0000000  0.6508444  3
   6010   6007   6009   6011     1  0.0000000  0.6508444  3
   6010   6007   6009   6012     1  0.0000000  0.6508444  3
   6010   6007   6005   6026     1  0.0000000  0.6508444  3
   6011   6009   6013   6014     1  180.0000771  0.0000000  2
   6011   6009   6013   6015     1  0.0000000  3.3472000  1
   6011   6009   6013   6015     1  0.0000000  0.0000000  2
   6011   6009   6013   6015     1  180.0000771  0.3347200  3
   6012   6009   6013   6014     1  180.0000771  0.0000000  2
   6012   6009   6013   6015     1  0.0000000  3.3472000  1
   6012   6009   6013   6015     1  0.0000000  0.0000000  2
   6012   6009   6013   6015     1  180.0000771  0.3347200  3
   6015   6013   6014   6024     1  0.0000000  7.9496000  1
   6015   6013   6014   6024     1  180.0000771  9.6232000  2
   6016   6006   6018   6021     1  0.0000000  0.6508444  3
   6016   6006   6018   6019     1  0.0000000  0.6508444  3
   6016   6006   6018   6020     1  0.0000000  0.6508444  3
   6016   6006   6005   6026     1  0.0000000  0.6508444  3
   6017   6006   6018   6021     1  0.0000000  0.6508444  3
   6017   6006   6018   6019     1  0.0000000  0.6508444  3
   6017   6006   6018   6020     1  0.0000000  0.6508444  3
   6017   6006   6005   6026     1  0.0000000  0.6508444  3
   6018   6021   6023   6025     1  180.0000771  9.6232000  2
   6018   6006   6005   6026     1  0.0000000  0.6508444  3
   6019   6018   6021   6022     1  0.0000000  3.3472000  1
   6019   6018   6021   6022     1  0.0000000  0.0000000  2
   6019   6018   6021   6022     1  180.0000771  0.3347200  3
   6019   6018   6021   6023     1  180.0000771  0.0000000  2
   6020   6018   6021   6022     1  0.0000000  3.3472000  1
   6020   6018   6021   6022     1  0.0000000  0.0000000  2
   6020   6018   6021   6022     1  180.0000771  0.3347200  3
   6020   6018   6021   6023     1  180.0000771  0.0000000  2
   6022   6021   6023   6025     1  0.0000000  7.9496000  1
   6022   6021   6023   6025     1  180.0000771  9.6232000  2
   6027   6029   6031   6033     1  0.0000000  0.6508444  3
   6027   6029   6031   6034     1  0.0000000  0.6508444  3
   6028   6027   6029   6031     1  0.0000000  0.0000000  2
   6028   6027   6029   6030     1  0.0000000  0.0000000  2
   6028   6027   6029   6032     1  0.0000000  0.0000000  2
   6029   6031   6035   6056     1  0.0000000  0.6508444  3
   6030   6029   6031   6035     1  0.0000000  0.6508444  3
   6030   6029   6031   6033     1  0.0000000  0.6508444  3
   6030   6029   6031   6034     1  0.0000000  0.6508444  3
   6031   6035   6036   6046     1  0.0000000  0.6508444  3
   6031   6035   6036   6047     1  0.0000000  0.6508444  3
   6031   6035   6037   6038     1  0.0000000  0.6508444  3
   6031   6035   6037   6040     1  0.0000000  0.6508444  3
   6032   6029   6031   6035     1  0.0000000  0.6508444  3
   6032   6029   6031   6033     1  0.0000000  0.6508444  3
   6032   6029   6031   6034     1  0.0000000  0.6508444  3
   6033   6031   6035   6036     1  0.0000000  0.6508444  3
   6033   6031   6035   6037     1  0.0000000  0.6508444  3
   6033   6031   6035   6056     1  0.0000000  0.6508444  3
   6034   6031   6035   6036     1  0.0000000  0.6508444  3
   6034   6031   6035   6037     1  0.0000000  0.6508444  3
   6034   6031   6035   6056     1  0.0000000  0.6508444  3
   6035   6036   6048   6049     1  0.0000000  0.6508444  3
   6035   6036   6048   6050     1  0.0000000  0.6508444  3
   6035   6037   6039   6041     1  0.0000000  0.6508444  3
   6035   6037   6039   6042     1  0.0000000  0.6508444  3
   6036   6035   6037   6038     1  0.0000000  0.6508444  3
   6036   6035   6037   6040     1  0.0000000  0.6508444  3
   6037   6035   6036   6046     1  0.0000000  0.6508444  3
   6037   6035   6036   6047     1  0.0000000  0.6508444  3
   6038   6037   6035   6056     1  0.0000000  0.6508444  3
   6038   6037   6039   6043     1  0.0000000  0.6508444  3
   6038   6037   6039   6041     1  0.0000000  0.6508444  3
   6038   6037   6039   6042     1  0.0000000  0.6508444  3
   6039   6037   6035   6056     1  0.0000000  0.6508444  3
   6039   6043   6044   6054     1  180.0000771  9.6232000  2
   6040   6037   6035   6056     1  0.0000000  0.6508444  3
   6040   6037   6039   6043     1  0.0000000  0.6508444  3
   6040   6037   6039   6041     1  0.0000000  0.6508444  3
   6040   6037   6039   6042     1  0.0000000  0.6508444  3
   6041   6039   6043   6044     1  180.0000771  0.0000000  2
   6041   6039   6043   6045     1  0.0000000  3.3472000  1
   6041   6039   6043   6045     1  0.0000000  0.0000000  2
   6041   6039   6043   6045     1  180.0000771  0.3347200  3
   6042   6039   6043   6044     1  180.0000771  0.0000000  2
   6042   6039   6043   6045     1  0.0000000  3.3472000  1
   6042   6039   6043   6045     1  0.0000000  0.0000000  2
   6042   6039   6043   6045     1  180.0000771  0.3347200  3
   6045   6043   6044   6054     1  0.0000000  7.9496000  1
   6045   6043   6044   6054     1  180.0000771  9.6232000  2
   6046   6036   6035   6056     1  0.0000000  0.6508444  3
   6046   6036   6048   6051     1  0.0000000  0.6508444  3
   6046   6036   6048   6049     1  0.0000000  0.6508444  3
   6046   6036   6048   6050     1  0.0000000  0.6508444  3
   6047   6036   6035   6056     1  0.0000000  0.6508444  3
   6047   6036   6048   6051     1  0.0000000  0.6508444  3
   6047   6036   6048   6049     1  0.0000000  0.6508444  3
   6047   6036   6048   6050     1  0.0000000  0.6508444  3
   6048   6036   6035   6056     1  0.0000000  0.6508444  3
   6048   6051   6053   6055     1  180.0000771  9.6232000  2
   6049   6048   6051   6052     1  0.0000000  3.3472000  1
   6049   6048   6051   6052     1  0.0000000  0.0000000  2
   6049   6048   6051   6052     1  180.0000771  0.3347200  3
   6049   6048   6051   6053     1  180.0000771  0.0000000  2
   6050   6048   6051   6052     1  0.0000000  3.3472000  1
   6050   6048   6051   6052     1  0.0000000  0.0000000  2
   6050   6048   6051   6052     1  180.0000771  0.3347200  3
   6050   6048   6051   6053     1  180.0000771  0.0000000  2
   6052   6051   6053   6055     1  0.0000000  7.9496000  1
   6052   6051   6053   6055     1  180.0000771  9.6232000  2
   6057   6059   6061   6063     1  0.0000000  0.6508444  3
   6057   6059   6061   6064     1  0.0000000  0.6508444  3
   6058   6057   6059   6061     1  0.0000000  0.0000000  2
   6058   6057   6059   6060     1  0.0000000  0.0000000  2
   6058   6057   6059   6062     1  0.0000000  0.0000000  2
   6059   6061   6065   6086     1  0.0000000  0.6508444  3
   6060   6059   6061   6065     1  0.0000000  0.6508444  3
   6060   6059   6061   6063     1  0.0000000  0.6508444  3
   6060   6059   6061   6064     1  0.0000000  0.6508444  3
   6061   6065   6066   6076     1  0.0000000  0.6508444  3
   6061   6065   6066   6077     1  0.0000000  0.6508444  3
   6061   6065   6067   6068     1  0.0000000  0.6508444  3
   6061   6065   6067   6070     1  0.0000000  0.6508444  3
   6062   6059   6061   6065     1  0.0000000  0.6508444  3
   6062   6059   6061   6063     1  0.0000000  0.6508444  3
   6062   6059   6061   6064     1  0.0000000  0.6508444  3
   6063   6061   6065   6066     1  0.0000000  0.6508444  3
   6063   6061   6065   6067     1  0.0000000  0.6508444  3
   6063   6061   6065   6086     1  0.0000000  0.6508444  3
   6064   6061   6065   6066     1  0.0000000  0.6508444  3
   6064   6061   6065   6067     1  0.0000000  0.6508444  3
   6064   6061   6065   6086     1  0.0000000  0.6508444  3
   6065   6066   6078   6079     1  0.0000000  0.6508444  3
   6065   6066   6078   6080     1  0.0000000  0.6508444  3
   6065   6067   6069   6071     1  0.0000000  0.6508444  3
   6065   6067   6069   6072     1  0.0000000  0.6508444  3
   6066   6065   6067   6068     1  0.0000000  0.6508444  3
   6066   6065   6067   6070     1  0.0000000  0.6508444  3
   6067   6065   6066   6076     1  0.0000000  0.6508444  3
   6067   6065   6066   6077     1  0.0000000  0.6508444  3
   6068   6067   6069   6073     1  0.0000000  0.6508444  3
   6068   6067   6069   6071     1  0.0000000  0.6508444  3
   6068   6067   6069   6072     1  0.0000000  0.6508444  3
   6068   6067   6065   6086     1  0.0000000  0.6508444  3
   6069   6073   6074   6084     1  180.0000771  9.6232000  2
   6069   6067   6065   6086     1  0.0000000  0.6508444  3
   6070   6067   6069   6073     1  0.0000000  0.6508444  3
   6070   6067   6069   6071     1  0.0000000  0.6508444  3
   6070   6067   6069   6072     1  0.0000000  0.6508444  3
   6070   6067   6065   6086     1  0.0000000  0.6508444  3
   6071   6069   6073   6074     1  180.0000771  0.0000000  2
   6071   6069   6073   6075     1  0.0000000  3.3472000  1
   6071   6069   6073   6075     1  0.0000000  0.0000000  2
   6071   6069   6073   6075     1  180.0000771  0.3347200  3
   6072   6069   6073   6074     1  180.0000771  0.0000000  2
   6072   6069   6073   6075     1  0.0000000  3.3472000  1
   6072   6069   6073   6075     1  0.0000000  0.0000000  2
   6072   6069   6073   6075     1  180.0000771  0.3347200  3
   6075   6073   6074   6084     1  0.0000000  7.9496000  1
   6075   6073   6074   6084     1  180.0000771  9.6232000  2
   6076   6066   6078   6081     1  0.0000000  0.6508444  3
   6076   6066   6078   6079     1  0.0000000  0.6508444  3
   6076   6066   6078   6080     1  0.0000000  0.6508444  3
   6076   6066   6065   6086     1  0.0000000  0.6508444  3
   6077   6066   6078   6081     1  0.0000000  0.6508444  3
   6077   6066   6078   6079     1  0.0000000  0.6508444  3
   6077   6066   6078   6080     1  0.0000000  0.6508444  3
   6077   6066   6065   6086     1  0.0000000  0.6508444  3
   6078   6081   6083   6085     1  180.0000771  9.6232000  2
   6078   6066   6065   6086     1  0.0000000  0.6508444  3
   6079   6078   6081   6082     1  0.0000000  3.3472000  1
   6079   6078   6081   6082     1  0.0000000  0.0000000  2
   6079   6078   6081   6082     1  180.0000771  0.3347200  3
   6079   6078   6081   6083     1  180.0000771  0.0000000  2
   6080   6078   6081   6082     1  0.0000000  3.3472000  1
   6080   6078   6081   6082     1  0.0000000  0.0000000  2
   6080   6078   6081   6082     1  180.0000771  0.3347200  3
   6080   6078   6081   6083     1  180.0000771  0.0000000  2
   6082   6081   6083   6085     1  0.0000000  7.9496000  1
   6082   6081   6083   6085     1  180.0000771  9.6232000  2
   6087   6089   6091   6093     1  0.0000000  0.6508444  3
   6087   6089   6091   6094     1  0.0000000  0.6508444  3
   6088   6087   6089   6091     1  0.0000000  0.0000000  2
   6088   6087   6089   6090     1  0.0000000  0.0000000  2
   6088   6087   6089   6092     1  0.0000000  0.0000000  2
   6089   6091   6095   6116     1  0.0000000  0.6508444  3
   6090   6089   6091   6095     1  0.0000000  0.6508444  3
   6090   6089   6091   6093     1  0.0000000  0.6508444  3
   6090   6089   6091   6094     1  0.0000000  0.6508444  3
   6091   6095   6096   6106     1  0.0000000  0.6508444  3
   6091   6095   6096   6107     1  0.0000000  0.6508444  3
   6091   6095   6097   6098     1  0.0000000  0.6508444  3
   6091   6095   6097   6100     1  0.0000000  0.6508444  3
   6092   6089   6091   6095     1  0.0000000  0.6508444  3
   6092   6089   6091   6093     1  0.0000000  0.6508444  3
   6092   6089   6091   6094     1  0.0000000  0.6508444  3
   6093   6091   6095   6096     1  0.0000000  0.6508444  3
   6093   6091   6095   6097     1  0.0000000  0.6508444  3
   6093   6091   6095   6116     1  0.0000000  0.6508444  3
   6094   6091   6095   6096     1  0.0000000  0.6508444  3
   6094   6091   6095   6097     1  0.0000000  0.6508444  3
   6094   6091   6095   6116     1  0.0000000  0.6508444  3
   6095   6096   6108   6109     1  0.0000000  0.6508444  3
   6095   6096   6108   6110     1  0.0000000  0.6508444  3
   6095   6097   6099   6101     1  0.0000000  0.6508444  3
   6095   6097   6099   6102     1  0.0000000  0.6508444  3
   6096   6095   6097   6098     1  0.0000000  0.6508444  3
   6096   6095   6097   6100     1  0.0000000  0.6508444  3
   6097   6095   6096   6106     1  0.0000000  0.6508444  3
   6097   6095   6096   6107     1  0.0000000  0.6508444  3
   6098   6097   6095   6116     1  0.0000000  0.6508444  3
   6098   6097   6099   6103     1  0.0000000  0.6508444  3
   6098   6097   6099   6101     1  0.0000000  0.6508444  3
   6098   6097   6099   6102     1  0.0000000  0.6508444  3
   6099   6097   6095   6116     1  0.0000000  0.6508444  3
   6099   6103   6104   6114     1  180.0000771  9.6232000  2
   6100   6097   6095   6116     1  0.0000000  0.6508444  3
   6100   6097   6099   6103     1  0.0000000  0.6508444  3
   6100   6097   6099   6101     1  0.0000000  0.6508444  3
   6100   6097   6099   6102     1  0.0000000  0.6508444  3
   6101   6099   6103   6104     1  180.0000771  0.0000000  2
   6101   6099   6103   6105     1  0.0000000  3.3472000  1
   6101   6099   6103   6105     1  0.0000000  0.0000000  2
   6101   6099   6103   6105     1  180.0000771  0.3347200  3
   6102   6099   6103   6104     1  180.0000771  0.0000000  2
   6102   6099   6103   6105     1  0.0000000  3.3472000  1
   6102   6099   6103   6105     1  0.0000000  0.0000000  2
   6102   6099   6103   6105     1  180.0000771  0.3347200  3
   6105   6103   6104   6114     1  0.0000000  7.9496000  1
   6105   6103   6104   6114     1  180.0000771  9.6232000  2
   6106   6096   6095   6116     1  0.0000000  0.6508444  3
   6106   6096   6108   6111     1  0.0000000  0.6508444  3
   6106   6096   6108   6109     1  0.0000000  0.6508444  3
   6106   6096   6108   6110     1  0.0000000  0.6508444  3
   6107   6096   6095   6116     1  0.0000000  0.6508444  3
   6107   6096   6108   6111     1  0.0000000  0.6508444  3
   6107   6096   6108   6109     1  0.0000000  0.6508444  3
   6107   6096   6108   6110     1  0.0000000  0.6508444  3
   6108   6096   6095   6116     1  0.0000000  0.6508444  3
   6108   6111   6113   6115     1  180.0000771  9.6232000  2
   6109   6108   6111   6112     1  0.0000000  3.3472000  1
   6109   6108   6111   6112     1  0.0000000  0.0000000  2
   6109   6108   6111   6112     1  180.0000771  0.3347200  3
   6109   6108   6111   6113     1  180.0000771  0.0000000  2
   6110   6108   6111   6112     1  0.0000000  3.3472000  1
   6110   6108   6111   6112     1  0.0000000  0.0000000  2
   6110   6108   6111   6112     1  180.0000771  0.3347200  3
   6110   6108   6111   6113     1  180.0000771  0.0000000  2
   6112   6111   6113   6115     1  0.0000000  7.9496000  1
   6112   6111   6113   6115     1  180.0000771  9.6232000  2
   6117   6119   6121   6123     1  0.0000000  0.6508444  3
   6117   6119   6121   6124     1  0.0000000  0.6508444  3
   6118   6117   6119   6121     1  0.0000000  0.0000000  2
   6118   6117   6119   6120     1  0.0000000  0.0000000  2
   6118   6117   6119   6122     1  0.0000000  0.0000000  2
   6119   6121   6125   6146     1  0.0000000  0.6508444  3
   6120   6119   6121   6125     1  0.0000000  0.6508444  3
   6120   6119   6121   6123     1  0.0000000  0.6508444  3
   6120   6119   6121   6124     1  0.0000000  0.6508444  3
   6121   6125   6126   6136     1  0.0000000  0.6508444  3
   6121   6125   6126   6137     1  0.0000000  0.6508444  3
   6121   6125   6127   6128     1  0.0000000  0.6508444  3
   6121   6125   6127   6130     1  0.0000000  0.6508444  3
   6122   6119   6121   6125     1  0.0000000  0.6508444  3
   6122   6119   6121   6123     1  0.0000000  0.6508444  3
   6122   6119   6121   6124     1  0.0000000  0.6508444  3
   6123   6121   6125   6126     1  0.0000000  0.6508444  3
   6123   6121   6125   6127     1  0.0000000  0.6508444  3
   6123   6121   6125   6146     1  0.0000000  0.6508444  3
   6124   6121   6125   6126     1  0.0000000  0.6508444  3
   6124   6121   6125   6127     1  0.0000000  0.6508444  3
   6124   6121   6125   6146     1  0.0000000  0.6508444  3
   6125   6126   6138   6139     1  0.0000000  0.6508444  3
   6125   6126   6138   6140     1  0.0000000  0.6508444  3
   6125   6127   6129   6131     1  0.0000000  0.6508444  3
   6125   6127   6129   6132     1  0.0000000  0.6508444  3
   6126   6125   6127   6128     1  0.0000000  0.6508444  3
   6126   6125   6127   6130     1  0.0000000  0.6508444  3
   6127   6125   6126   6136     1  0.0000000  0.6508444  3
   6127   6125   6126   6137     1  0.0000000  0.6508444  3
   6128   6127   6129   6133     1  0.0000000  0.6508444  3
   6128   6127   6129   6131     1  0.0000000  0.6508444  3
   6128   6127   6129   6132     1  0.0000000  0.6508444  3
   6128   6127   6125   6146     1  0.0000000  0.6508444  3
   6129   6133   6134   6144     1  180.0000771  9.6232000  2
   6129   6127   6125   6146     1  0.0000000  0.6508444  3
   6130   6127   6129   6133     1  0.0000000  0.6508444  3
   6130   6127   6129   6131     1  0.0000000  0.6508444  3
   6130   6127   6129   6132     1  0.0000000  0.6508444  3
   6130   6127   6125   6146     1  0.0000000  0.6508444  3
   6131   6129   6133   6134     1  180.0000771  0.0000000  2
   6131   6129   6133   6135     1  0.0000000  3.3472000  1
   6131   6129   6133   6135     1  0.0000000  0.0000000  2
   6131   6129   6133   6135     1  180.0000771  0.3347200  3
   6132   6129   6133   6134     1  180.0000771  0.0000000  2
   6132   6129   6133   6135     1  0.0000000  3.3472000  1
   6132   6129   6133   6135     1  0.0000000  0.0000000  2
   6132   6129   6133   6135     1  180.0000771  0.3347200  3
   6135   6133   6134   6144     1  0.0000000  7.9496000  1
   6135   6133   6134   6144     1  180.0000771  9.6232000  2
   6136   6126   6138   6141     1  0.0000000  0.6508444  3
   6136   6126   6138   6139     1  0.0000000  0.6508444  3
   6136   6126   6138   6140     1  0.0000000  0.6508444  3
   6136   6126   6125   6146     1  0.0000000  0.6508444  3
   6137   6126   6138   6141     1  0.0000000  0.6508444  3
   6137   6126   6138   6139     1  0.0000000  0.6508444  3
   6137   6126   6138   6140     1  0.0000000  0.6508444  3
   6137   6126   6125   6146     1  0.0000000  0.6508444  3
   6138   6141   6143   6145     1  180.0000771  9.6232000  2
   6138   6126   6125   6146     1  0.0000000  0.6508444  3
   6139   6138   6141   6142     1  0.0000000  3.3472000  1
   6139   6138   6141   6142     1  0.0000000  0.0000000  2
   6139   6138   6141   6142     1  180.0000771  0.3347200  3
   6139   6138   6141   6143     1  180.0000771  0.0000000  2
   6140   6138   6141   6142     1  0.0000000  3.3472000  1
   6140   6138   6141   6142     1  0.0000000  0.0000000  2
   6140   6138   6141   6142     1  180.0000771  0.3347200  3
   6140   6138   6141   6143     1  180.0000771  0.0000000  2
   6142   6141   6143   6145     1  0.0000000  7.9496000  1
   6142   6141   6143   6145     1  180.0000771  9.6232000  2
   6147   6149   6151   6153     1  0.0000000  0.6508444  3
   6147   6149   6151   6154     1  0.0000000  0.6508444  3
   6148   6147   6149   6151     1  0.0000000  0.0000000  2
   6148   6147   6149   6150     1  0.0000000  0.0000000  2
   6148   6147   6149   6152     1  0.0000000  0.0000000  2
   6149   6151   6155   6176     1  0.0000000  0.6508444  3
   6150   6149   6151   6155     1  0.0000000  0.6508444  3
   6150   6149   6151   6153     1  0.0000000  0.6508444  3
   6150   6149   6151   6154     1  0.0000000  0.6508444  3
   6151   6155   6156   6166     1  0.0000000  0.6508444  3
   6151   6155   6156   6167     1  0.0000000  0.6508444  3
   6151   6155   6157   6158     1  0.0000000  0.6508444  3
   6151   6155   6157   6160     1  0.0000000  0.6508444  3
   6152   6149   6151   6155     1  0.0000000  0.6508444  3
   6152   6149   6151   6153     1  0.0000000  0.6508444  3
   6152   6149   6151   6154     1  0.0000000  0.6508444  3
   6153   6151   6155   6156     1  0.0000000  0.6508444  3
   6153   6151   6155   6157     1  0.0000000  0.6508444  3
   6153   6151   6155   6176     1  0.0000000  0.6508444  3
   6154   6151   6155   6156     1  0.0000000  0.6508444  3
   6154   6151   6155   6157     1  0.0000000  0.6508444  3
   6154   6151   6155   6176     1  0.0000000  0.6508444  3
   6155   6156   6168   6169     1  0.0000000  0.6508444  3
   6155   6156   6168   6170     1  0.0000000  0.6508444  3
   6155   6157   6159   6161     1  0.0000000  0.6508444  3
   6155   6157   6159   6162     1  0.0000000  0.6508444  3
   6156   6155   6157   6158     1  0.0000000  0.6508444  3
   6156   6155   6157   6160     1  0.0000000  0.6508444  3
   6157   6155   6156   6166     1  0.0000000  0.6508444  3
   6157   6155   6156   6167     1  0.0000000  0.6508444  3
   6158   6157   6155   6176     1  0.0000000  0.6508444  3
   6158   6157   6159   6163     1  0.0000000  0.6508444  3
   6158   6157   6159   6161     1  0.0000000  0.6508444  3
   6158   6157   6159   6162     1  0.0000000  0.6508444  3
   6159   6157   6155   6176     1  0.0000000  0.6508444  3
   6159   6163   6164   6174     1  180.0000771  9.6232000  2
   6160   6157   6155   6176     1  0.0000000  0.6508444  3
   6160   6157   6159   6163     1  0.0000000  0.6508444  3
   6160   6157   6159   6161     1  0.0000000  0.6508444  3
   6160   6157   6159   6162     1  0.0000000  0.6508444  3
   6161   6159   6163   6164     1  180.0000771  0.0000000  2
   6161   6159   6163   6165     1  0.0000000  3.3472000  1
   6161   6159   6163   6165     1  0.0000000  0.0000000  2
   6161   6159   6163   6165     1  180.0000771  0.3347200  3
   6162   6159   6163   6164     1  180.0000771  0.0000000  2
   6162   6159   6163   6165     1  0.0000000  3.3472000  1
   6162   6159   6163   6165     1  0.0000000  0.0000000  2
   6162   6159   6163   6165     1  180.0000771  0.3347200  3
   6165   6163   6164   6174     1  0.0000000  7.9496000  1
   6165   6163   6164   6174     1  180.0000771  9.6232000  2
   6166   6156   6155   6176     1  0.0000000  0.6508444  3
   6166   6156   6168   6171     1  0.0000000  0.6508444  3
   6166   6156   6168   6169     1  0.0000000  0.6508444  3
   6166   6156   6168   6170     1  0.0000000  0.6508444  3
   6167   6156   6155   6176     1  0.0000000  0.6508444  3
   6167   6156   6168   6171     1  0.0000000  0.6508444  3
   6167   6156   6168   6169     1  0.0000000  0.6508444  3
   6167   6156   6168   6170     1  0.0000000  0.6508444  3
   6168   6156   6155   6176     1  0.0000000  0.6508444  3
   6168   6171   6173   6175     1  180.0000771  9.6232000  2
   6169   6168   6171   6172     1  0.0000000  3.3472000  1
   6169   6168   6171   6172     1  0.0000000  0.0000000  2
   6169   6168   6171   6172     1  180.0000771  0.3347200  3
   6169   6168   6171   6173     1  180.0000771  0.0000000  2
   6170   6168   6171   6172     1  0.0000000  3.3472000  1
   6170   6168   6171   6172     1  0.0000000  0.0000000  2
   6170   6168   6171   6172     1  180.0000771  0.3347200  3
   6170   6168   6171   6173     1  180.0000771  0.0000000  2
   6172   6171   6173   6175     1  0.0000000  7.9496000  1
   6172   6171   6173   6175     1  180.0000771  9.6232000  2
   6177   6179   6181   6183     1  0.0000000  0.6508444  3
   6177   6179   6181   6184     1  0.0000000  0.6508444  3
   6178   6177   6179   6181     1  0.0000000  0.0000000  2
   6178   6177   6179   6180     1  0.0000000  0.0000000  2
   6178   6177   6179   6182     1  0.0000000  0.0000000  2
   6179   6181   6185   6206     1  0.0000000  0.6508444  3
   6180   6179   6181   6185     1  0.0000000  0.6508444  3
   6180   6179   6181   6183     1  0.0000000  0.6508444  3
   6180   6179   6181   6184     1  0.0000000  0.6508444  3
   6181   6185   6186   6196     1  0.0000000  0.6508444  3
   6181   6185   6186   6197     1  0.0000000  0.6508444  3
   6181   6185   6187   6188     1  0.0000000  0.6508444  3
   6181   6185   6187   6190     1  0.0000000  0.6508444  3
   6182   6179   6181   6185     1  0.0000000  0.6508444  3
   6182   6179   6181   6183     1  0.0000000  0.6508444  3
   6182   6179   6181   6184     1  0.0000000  0.6508444  3
   6183   6181   6185   6186     1  0.0000000  0.6508444  3
   6183   6181   6185   6187     1  0.0000000  0.6508444  3
   6183   6181   6185   6206     1  0.0000000  0.6508444  3
   6184   6181   6185   6186     1  0.0000000  0.6508444  3
   6184   6181   6185   6187     1  0.0000000  0.6508444  3
   6184   6181   6185   6206     1  0.0000000  0.6508444  3
   6185   6186   6198   6199     1  0.0000000  0.6508444  3
   6185   6186   6198   6200     1  0.0000000  0.6508444  3
   6185   6187   6189   6191     1  0.0000000  0.6508444  3
   6185   6187   6189   6192     1  0.0000000  0.6508444  3
   6186   6185   6187   6188     1  0.0000000  0.6508444  3
   6186   6185   6187   6190     1  0.0000000  0.6508444  3
   6187   6185   6186   6196     1  0.0000000  0.6508444  3
   6187   6185   6186   6197     1  0.0000000  0.6508444  3
   6188   6187   6189   6193     1  0.0000000  0.6508444  3
   6188   6187   6189   6191     1  0.0000000  0.6508444  3
   6188   6187   6189   6192     1  0.0000000  0.6508444  3
   6188   6187   6185   6206     1  0.0000000  0.6508444  3
   6189   6193   6194   6204     1  180.0000771  9.6232000  2
   6189   6187   6185   6206     1  0.0000000  0.6508444  3
   6190   6187   6189   6193     1  0.0000000  0.6508444  3
   6190   6187   6189   6191     1  0.0000000  0.6508444  3
   6190   6187   6189   6192     1  0.0000000  0.6508444  3
   6190   6187   6185   6206     1  0.0000000  0.6508444  3
   6191   6189   6193   6194     1  180.0000771  0.0000000  2
   6191   6189   6193   6195     1  0.0000000  3.3472000  1
   6191   6189   6193   6195     1  0.0000000  0.0000000  2
   6191   6189   6193   6195     1  180.0000771  0.3347200  3
   6192   6189   6193   6194     1  180.0000771  0.0000000  2
   6192   6189   6193   6195     1  0.0000000  3.3472000  1
   6192   6189   6193   6195     1  0.0000000  0.0000000  2
   6192   6189   6193   6195     1  180.0000771  0.3347200  3
   6195   6193   6194   6204     1  0.0000000  7.9496000  1
   6195   6193   6194   6204     1  180.0000771  9.6232000  2
   6196   6186   6198   6201     1  0.0000000  0.6508444  3
   6196   6186   6198   6199     1  0.0000000  0.6508444  3
   6196   6186   6198   6200     1  0.0000000  0.6508444  3
   6196   6186   6185   6206     1  0.0000000  0.6508444  3
   6197   6186   6198   6201     1  0.0000000  0.6508444  3
   6197   6186   6198   6199     1  0.0000000  0.6508444  3
   6197   6186   6198   6200     1  0.0000000  0.6508444  3
   6197   6186   6185   6206     1  0.0000000  0.6508444  3
   6198   6201   6203   6205     1  180.0000771  9.6232000  2
   6198   6186   6185   6206     1  0.0000000  0.6508444  3
   6199   6198   6201   6202     1  0.0000000  3.3472000  1
   6199   6198   6201   6202     1  0.0000000  0.0000000  2
   6199   6198   6201   6202     1  180.0000771  0.3347200  3
   6199   6198   6201   6203     1  180.0000771  0.0000000  2
   6200   6198   6201   6202     1  0.0000000  3.3472000  1
   6200   6198   6201   6202     1  0.0000000  0.0000000  2
   6200   6198   6201   6202     1  180.0000771  0.3347200  3
   6200   6198   6201   6203     1  180.0000771  0.0000000  2
   6202   6201   6203   6205     1  0.0000000  7.9496000  1
   6202   6201   6203   6205     1  180.0000771  9.6232000  2
   6207   6209   6211   6213     1  0.0000000  0.6508444  3
   6207   6209   6211   6214     1  0.0000000  0.6508444  3
   6208   6207   6209   6211     1  0.0000000  0.0000000  2
   6208   6207   6209   6210     1  0.0000000  0.0000000  2
   6208   6207   6209   6212     1  0.0000000  0.0000000  2
   6209   6211   6215   6236     1  0.0000000  0.6508444  3
   6210   6209   6211   6215     1  0.0000000  0.6508444  3
   6210   6209   6211   6213     1  0.0000000  0.6508444  3
   6210   6209   6211   6214     1  0.0000000  0.6508444  3
   6211   6215   6216   6226     1  0.0000000  0.6508444  3
   6211   6215   6216   6227     1  0.0000000  0.6508444  3
   6211   6215   6217   6218     1  0.0000000  0.6508444  3
   6211   6215   6217   6220     1  0.0000000  0.6508444  3
   6212   6209   6211   6215     1  0.0000000  0.6508444  3
   6212   6209   6211   6213     1  0.0000000  0.6508444  3
   6212   6209   6211   6214     1  0.0000000  0.6508444  3
   6213   6211   6215   6216     1  0.0000000  0.6508444  3
   6213   6211   6215   6217     1  0.0000000  0.6508444  3
   6213   6211   6215   6236     1  0.0000000  0.6508444  3
   6214   6211   6215   6216     1  0.0000000  0.6508444  3
   6214   6211   6215   6217     1  0.0000000  0.6508444  3
   6214   6211   6215   6236     1  0.0000000  0.6508444  3
   6215   6216   6228   6229     1  0.0000000  0.6508444  3
   6215   6216   6228   6230     1  0.0000000  0.6508444  3
   6215   6217   6219   6221     1  0.0000000  0.6508444  3
   6215   6217   6219   6222     1  0.0000000  0.6508444  3
   6216   6215   6217   6218     1  0.0000000  0.6508444  3
   6216   6215   6217   6220     1  0.0000000  0.6508444  3
   6217   6215   6216   6226     1  0.0000000  0.6508444  3
   6217   6215   6216   6227     1  0.0000000  0.6508444  3
   6218   6217   6215   6236     1  0.0000000  0.6508444  3
   6218   6217   6219   6223     1  0.0000000  0.6508444  3
   6218   6217   6219   6221     1  0.0000000  0.6508444  3
   6218   6217   6219   6222     1  0.0000000  0.6508444  3
   6219   6217   6215   6236     1  0.0000000  0.6508444  3
   6219   6223   6224   6234     1  180.0000771  9.6232000  2
   6220   6217   6215   6236     1  0.0000000  0.6508444  3
   6220   6217   6219   6223     1  0.0000000  0.6508444  3
   6220   6217   6219   6221     1  0.0000000  0.6508444  3
   6220   6217   6219   6222     1  0.0000000  0.6508444  3
   6221   6219   6223   6224     1  180.0000771  0.0000000  2
   6221   6219   6223   6225     1  0.0000000  3.3472000  1
   6221   6219   6223   6225     1  0.0000000  0.0000000  2
   6221   6219   6223   6225     1  180.0000771  0.3347200  3
   6222   6219   6223   6224     1  180.0000771  0.0000000  2
   6222   6219   6223   6225     1  0.0000000  3.3472000  1
   6222   6219   6223   6225     1  0.0000000  0.0000000  2
   6222   6219   6223   6225     1  180.0000771  0.3347200  3
   6225   6223   6224   6234     1  0.0000000  7.9496000  1
   6225   6223   6224   6234     1  180.0000771  9.6232000  2
   6226   6216   6215   6236     1  0.0000000  0.6508444  3
   6226   6216   6228   6231     1  0.0000000  0.6508444  3
   6226   6216   6228   6229     1  0.0000000  0.6508444  3
   6226   6216   6228   6230     1  0.0000000  0.6508444  3
   6227   6216   6215   6236     1  0.0000000  0.6508444  3
   6227   6216   6228   6231     1  0.0000000  0.6508444  3
   6227   6216   6228   6229     1  0.0000000  0.6508444  3
   6227   6216   6228   6230     1  0.0000000  0.6508444  3
   6228   6216   6215   6236     1  0.0000000  0.6508444  3
   6228   6231   6233   6235     1  180.0000771  9.6232000  2
   6229   6228   6231   6232     1  0.0000000  3.3472000  1
   6229   6228   6231   6232     1  0.0000000  0.0000000  2
   6229   6228   6231   6232     1  180.0000771  0.3347200  3
   6229   6228   6231   6233     1  180.0000771  0.0000000  2
   6230   6228   6231   6232     1  0.0000000  3.3472000  1
   6230   6228   6231   6232     1  0.0000000  0.0000000  2
   6230   6228   6231   6232     1  180.0000771  0.3347200  3
   6230   6228   6231   6233     1  180.0000771  0.0000000  2
   6232   6231   6233   6235     1  0.0000000  7.9496000  1
   6232   6231   6233   6235     1  180.0000771  9.6232000  2
   6237   6239   6241   6243     1  0.0000000  0.6508444  3
   6237   6239   6241   6244     1  0.0000000  0.6508444  3
   6238   6237   6239   6241     1  0.0000000  0.0000000  2
   6238   6237   6239   6240     1  0.0000000  0.0000000  2
   6238   6237   6239   6242     1  0.0000000  0.0000000  2
   6239   6241   6245   6266     1  0.0000000  0.6508444  3
   6240   6239   6241   6245     1  0.0000000  0.6508444  3
   6240   6239   6241   6243     1  0.0000000  0.6508444  3
   6240   6239   6241   6244     1  0.0000000  0.6508444  3
   6241   6245   6246   6256     1  0.0000000  0.6508444  3
   6241   6245   6246   6257     1  0.0000000  0.6508444  3
   6241   6245   6247   6248     1  0.0000000  0.6508444  3
   6241   6245   6247   6250     1  0.0000000  0.6508444  3
   6242   6239   6241   6245     1  0.0000000  0.6508444  3
   6242   6239   6241   6243     1  0.0000000  0.6508444  3
   6242   6239   6241   6244     1  0.0000000  0.6508444  3
   6243   6241   6245   6246     1  0.0000000  0.6508444  3
   6243   6241   6245   6247     1  0.0000000  0.6508444  3
   6243   6241   6245   6266     1  0.0000000  0.6508444  3
   6244   6241   6245   6246     1  0.0000000  0.6508444  3
   6244   6241   6245   6247     1  0.0000000  0.6508444  3
   6244   6241   6245   6266     1  0.0000000  0.6508444  3
   6245   6246   6258   6259     1  0.0000000  0.6508444  3
   6245   6246   6258   6260     1  0.0000000  0.6508444  3
   6245   6247   6249   6251     1  0.0000000  0.6508444  3
   6245   6247   6249   6252     1  0.0000000  0.6508444  3
   6246   6245   6247   6248     1  0.0000000  0.6508444  3
   6246   6245   6247   6250     1  0.0000000  0.6508444  3
   6247   6245   6246   6256     1  0.0000000  0.6508444  3
   6247   6245   6246   6257     1  0.0000000  0.6508444  3
   6248   6247   6249   6253     1  0.0000000  0.6508444  3
   6248   6247   6249   6251     1  0.0000000  0.6508444  3
   6248   6247   6249   6252     1  0.0000000  0.6508444  3
   6248   6247   6245   6266     1  0.0000000  0.6508444  3
   6249   6253   6254   6264     1  180.0000771  9.6232000  2
   6249   6247   6245   6266     1  0.0000000  0.6508444  3
   6250   6247   6249   6253     1  0.0000000  0.6508444  3
   6250   6247   6249   6251     1  0.0000000  0.6508444  3
   6250   6247   6249   6252     1  0.0000000  0.6508444  3
   6250   6247   6245   6266     1  0.0000000  0.6508444  3
   6251   6249   6253   6254     1  180.0000771  0.0000000  2
   6251   6249   6253   6255     1  0.0000000  3.3472000  1
   6251   6249   6253   6255     1  0.0000000  0.0000000  2
   6251   6249   6253   6255     1  180.0000771  0.3347200  3
   6252   6249   6253   6254     1  180.0000771  0.0000000  2
   6252   6249   6253   6255     1  0.0000000  3.3472000  1
   6252   6249   6253   6255     1  0.0000000  0.0000000  2
   6252   6249   6253   6255     1  180.0000771  0.3347200  3
   6255   6253   6254   6264     1  0.0000000  7.9496000  1
   6255   6253   6254   6264     1  180.0000771  9.6232000  2
   6256   6246   6258   6261     1  0.0000000  0.6508444  3
   6256   6246   6258   6259     1  0.0000000  0.6508444  3
   6256   6246   6258   6260     1  0.0000000  0.6508444  3
   6256   6246   6245   6266     1  0.0000000  0.6508444  3
   6257   6246   6258   6261     1  0.0000000  0.6508444  3
   6257   6246   6258   6259     1  0.0000000  0.6508444  3
   6257   6246   6258   6260     1  0.0000000  0.6508444  3
   6257   6246   6245   6266     1  0.0000000  0.6508444  3
   6258   6261   6263   6265     1  180.0000771  9.6232000  2
   6258   6246   6245   6266     1  0.0000000  0.6508444  3
   6259   6258   6261   6262     1  0.0000000  3.3472000  1
   6259   6258   6261   6262     1  0.0000000  0.0000000  2
   6259   6258   6261   6262     1  180.0000771  0.3347200  3
   6259   6258   6261   6263     1  180.0000771  0.0000000  2
   6260   6258   6261   6262     1  0.0000000  3.3472000  1
   6260   6258   6261   6262     1  0.0000000  0.0000000  2
   6260   6258   6261   6262     1  180.0000771  0.3347200  3
   6260   6258   6261   6263     1  180.0000771  0.0000000  2
   6262   6261   6263   6265     1  0.0000000  7.9496000  1
   6262   6261   6263   6265     1  180.0000771  9.6232000  2
   6267   6269   6271   6273     1  0.0000000  0.6508444  3
   6267   6269   6271   6274     1  0.0000000  0.6508444  3
   6268   6267   6269   6271     1  0.0000000  0.0000000  2
   6268   6267   6269   6270     1  0.0000000  0.0000000  2
   6268   6267   6269   6272     1  0.0000000  0.0000000  2
   6269   6271   6275   6296     1  0.0000000  0.6508444  3
   6270   6269   6271   6275     1  0.0000000  0.6508444  3
   6270   6269   6271   6273     1  0.0000000  0.6508444  3
   6270   6269   6271   6274     1  0.0000000  0.6508444  3
   6271   6275   6276   6286     1  0.0000000  0.6508444  3
   6271   6275   6276   6287     1  0.0000000  0.6508444  3
   6271   6275   6277   6278     1  0.0000000  0.6508444  3
   6271   6275   6277   6280     1  0.0000000  0.6508444  3
   6272   6269   6271   6275     1  0.0000000  0.6508444  3
   6272   6269   6271   6273     1  0.0000000  0.6508444  3
   6272   6269   6271   6274     1  0.0000000  0.6508444  3
   6273   6271   6275   6276     1  0.0000000  0.6508444  3
   6273   6271   6275   6277     1  0.0000000  0.6508444  3
   6273   6271   6275   6296     1  0.0000000  0.6508444  3
   6274   6271   6275   6276     1  0.0000000  0.6508444  3
   6274   6271   6275   6277     1  0.0000000  0.6508444  3
   6274   6271   6275   6296     1  0.0000000  0.6508444  3
   6275   6276   6288   6289     1  0.0000000  0.6508444  3
   6275   6276   6288   6290     1  0.0000000  0.6508444  3
   6275   6277   6279   6281     1  0.0000000  0.6508444  3
   6275   6277   6279   6282     1  0.0000000  0.6508444  3
   6276   6275   6277   6278     1  0.0000000  0.6508444  3
   6276   6275   6277   6280     1  0.0000000  0.6508444  3
   6277   6275   6276   6286     1  0.0000000  0.6508444  3
   6277   6275   6276   6287     1  0.0000000  0.6508444  3
   6278   6277   6275   6296     1  0.0000000  0.6508444  3
   6278   6277   6279   6283     1  0.0000000  0.6508444  3
   6278   6277   6279   6281     1  0.0000000  0.6508444  3
   6278   6277   6279   6282     1  0.0000000  0.6508444  3
   6279   6277   6275   6296     1  0.0000000  0.6508444  3
   6279   6283   6284   6294     1  180.0000771  9.6232000  2
   6280   6277   6275   6296     1  0.0000000  0.6508444  3
   6280   6277   6279   6283     1  0.0000000  0.6508444  3
   6280   6277   6279   6281     1  0.0000000  0.6508444  3
   6280   6277   6279   6282     1  0.0000000  0.6508444  3
   6281   6279   6283   6284     1  180.0000771  0.0000000  2
   6281   6279   6283   6285     1  0.0000000  3.3472000  1
   6281   6279   6283   6285     1  0.0000000  0.0000000  2
   6281   6279   6283   6285     1  180.0000771  0.3347200  3
   6282   6279   6283   6284     1  180.0000771  0.0000000  2
   6282   6279   6283   6285     1  0.0000000  3.3472000  1
   6282   6279   6283   6285     1  0.0000000  0.0000000  2
   6282   6279   6283   6285     1  180.0000771  0.3347200  3
   6285   6283   6284   6294     1  0.0000000  7.9496000  1
   6285   6283   6284   6294     1  180.0000771  9.6232000  2
   6286   6276   6275   6296     1  0.0000000  0.6508444  3
   6286   6276   6288   6291     1  0.0000000  0.6508444  3
   6286   6276   6288   6289     1  0.0000000  0.6508444  3
   6286   6276   6288   6290     1  0.0000000  0.6508444  3
   6287   6276   6275   6296     1  0.0000000  0.6508444  3
   6287   6276   6288   6291     1  0.0000000  0.6508444  3
   6287   6276   6288   6289     1  0.0000000  0.6508444  3
   6287   6276   6288   6290     1  0.0000000  0.6508444  3
   6288   6276   6275   6296     1  0.0000000  0.6508444  3
   6288   6291   6293   6295     1  180.0000771  9.6232000  2
   6289   6288   6291   6292     1  0.0000000  3.3472000  1
   6289   6288   6291   6292     1  0.0000000  0.0000000  2
   6289   6288   6291   6292     1  180.0000771  0.3347200  3
   6289   6288   6291   6293     1  180.0000771  0.0000000  2
   6290   6288   6291   6292     1  0.0000000  3.3472000  1
   6290   6288   6291   6292     1  0.0000000  0.0000000  2
   6290   6288   6291   6292     1  180.0000771  0.3347200  3
   6290   6288   6291   6293     1  180.0000771  0.0000000  2
   6292   6291   6293   6295     1  0.0000000  7.9496000  1
   6292   6291   6293   6295     1  180.0000771  9.6232000  2
   6297   6299   6301   6303     1  0.0000000  0.6508444  3
   6297   6299   6301   6304     1  0.0000000  0.6508444  3
   6298   6297   6299   6301     1  0.0000000  0.0000000  2
   6298   6297   6299   6300     1  0.0000000  0.0000000  2
   6298   6297   6299   6302     1  0.0000000  0.0000000  2
   6299   6301   6305   6326     1  0.0000000  0.6508444  3
   6300   6299   6301   6305     1  0.0000000  0.6508444  3
   6300   6299   6301   6303     1  0.0000000  0.6508444  3
   6300   6299   6301   6304     1  0.0000000  0.6508444  3
   6301   6305   6306   6316     1  0.0000000  0.6508444  3
   6301   6305   6306   6317     1  0.0000000  0.6508444  3
   6301   6305   6307   6308     1  0.0000000  0.6508444  3
   6301   6305   6307   6310     1  0.0000000  0.6508444  3
   6302   6299   6301   6305     1  0.0000000  0.6508444  3
   6302   6299   6301   6303     1  0.0000000  0.6508444  3
   6302   6299   6301   6304     1  0.0000000  0.6508444  3
   6303   6301   6305   6306     1  0.0000000  0.6508444  3
   6303   6301   6305   6307     1  0.0000000  0.6508444  3
   6303   6301   6305   6326     1  0.0000000  0.6508444  3
   6304   6301   6305   6306     1  0.0000000  0.6508444  3
   6304   6301   6305   6307     1  0.0000000  0.6508444  3
   6304   6301   6305   6326     1  0.0000000  0.6508444  3
   6305   6306   6318   6319     1  0.0000000  0.6508444  3
   6305   6306   6318   6320     1  0.0000000  0.6508444  3
   6305   6307   6309   6311     1  0.0000000  0.6508444  3
   6305   6307   6309   6312     1  0.0000000  0.6508444  3
   6306   6305   6307   6308     1  0.0000000  0.6508444  3
   6306   6305   6307   6310     1  0.0000000  0.6508444  3
   6307   6305   6306   6316     1  0.0000000  0.6508444  3
   6307   6305   6306   6317     1  0.0000000  0.6508444  3
   6308   6307   6309   6313     1  0.0000000  0.6508444  3
   6308   6307   6309   6311     1  0.0000000  0.6508444  3
   6308   6307   6309   6312     1  0.0000000  0.6508444  3
   6308   6307   6305   6326     1  0.0000000  0.6508444  3
   6309   6313   6314   6324     1  180.0000771  9.6232000  2
   6309   6307   6305   6326     1  0.0000000  0.6508444  3
   6310   6307   6309   6313     1  0.0000000  0.6508444  3
   6310   6307   6309   6311     1  0.0000000  0.6508444  3
   6310   6307   6309   6312     1  0.0000000  0.6508444  3
   6310   6307   6305   6326     1  0.0000000  0.6508444  3
   6311   6309   6313   6314     1  180.0000771  0.0000000  2
   6311   6309   6313   6315     1  0.0000000  3.3472000  1
   6311   6309   6313   6315     1  0.0000000  0.0000000  2
   6311   6309   6313   6315     1  180.0000771  0.3347200  3
   6312   6309   6313   6314     1  180.0000771  0.0000000  2
   6312   6309   6313   6315     1  0.0000000  3.3472000  1
   6312   6309   6313   6315     1  0.0000000  0.0000000  2
   6312   6309   6313   6315     1  180.0000771  0.3347200  3
   6315   6313   6314   6324     1  0.0000000  7.9496000  1
   6315   6313   6314   6324     1  180.0000771  9.6232000  2
   6316   6306   6318   6321     1  0.0000000  0.6508444  3
   6316   6306   6318   6319     1  0.0000000  0.6508444  3
   6316   6306   6318   6320     1  0.0000000  0.6508444  3
   6316   6306   6305   6326     1  0.0000000  0.6508444  3
   6317   6306   6318   6321     1  0.0000000  0.6508444  3
   6317   6306   6318   6319     1  0.0000000  0.6508444  3
   6317   6306   6318   6320     1  0.0000000  0.6508444  3
   6317   6306   6305   6326     1  0.0000000  0.6508444  3
   6318   6321   6323   6325     1  180.0000771  9.6232000  2
   6318   6306   6305   6326     1  0.0000000  0.6508444  3
   6319   6318   6321   6322     1  0.0000000  3.3472000  1
   6319   6318   6321   6322     1  0.0000000  0.0000000  2
   6319   6318   6321   6322     1  180.0000771  0.3347200  3
   6319   6318   6321   6323     1  180.0000771  0.0000000  2
   6320   6318   6321   6322     1  0.0000000  3.3472000  1
   6320   6318   6321   6322     1  0.0000000  0.0000000  2
   6320   6318   6321   6322     1  180.0000771  0.3347200  3
   6320   6318   6321   6323     1  180.0000771  0.0000000  2
   6322   6321   6323   6325     1  0.0000000  7.9496000  1
   6322   6321   6323   6325     1  180.0000771  9.6232000  2
   6327   6329   6331   6333     1  0.0000000  0.6508444  3
   6327   6329   6331   6334     1  0.0000000  0.6508444  3
   6328   6327   6329   6331     1  0.0000000  0.0000000  2
   6328   6327   6329   6330     1  0.0000000  0.0000000  2
   6328   6327   6329   6332     1  0.0000000  0.0000000  2
   6329   6331   6335   6356     1  0.0000000  0.6508444  3
   6330   6329   6331   6335     1  0.0000000  0.6508444  3
   6330   6329   6331   6333     1  0.0000000  0.6508444  3
   6330   6329   6331   6334     1  0.0000000  0.6508444  3
   6331   6335   6336   6346     1  0.0000000  0.6508444  3
   6331   6335   6336   6347     1  0.0000000  0.6508444  3
   6331   6335   6337   6338     1  0.0000000  0.6508444  3
   6331   6335   6337   6340     1  0.0000000  0.6508444  3
   6332   6329   6331   6335     1  0.0000000  0.6508444  3
   6332   6329   6331   6333     1  0.0000000  0.6508444  3
   6332   6329   6331   6334     1  0.0000000  0.6508444  3
   6333   6331   6335   6336     1  0.0000000  0.6508444  3
   6333   6331   6335   6337     1  0.0000000  0.6508444  3
   6333   6331   6335   6356     1  0.0000000  0.6508444  3
   6334   6331   6335   6336     1  0.0000000  0.6508444  3
   6334   6331   6335   6337     1  0.0000000  0.6508444  3
   6334   6331   6335   6356     1  0.0000000  0.6508444  3
   6335   6336   6348   6349     1  0.0000000  0.6508444  3
   6335   6336   6348   6350     1  0.0000000  0.6508444  3
   6335   6337   6339   6341     1  0.0000000  0.6508444  3
   6335   6337   6339   6342     1  0.0000000  0.6508444  3
   6336   6335   6337   6338     1  0.0000000  0.6508444  3
   6336   6335   6337   6340     1  0.0000000  0.6508444  3
   6337   6335   6336   6346     1  0.0000000  0.6508444  3
   6337   6335   6336   6347     1  0.0000000  0.6508444  3
   6338   6337   6335   6356     1  0.0000000  0.6508444  3
   6338   6337   6339   6343     1  0.0000000  0.6508444  3
   6338   6337   6339   6341     1  0.0000000  0.6508444  3
   6338   6337   6339   6342     1  0.0000000  0.6508444  3
   6339   6337   6335   6356     1  0.0000000  0.6508444  3
   6339   6343   6344   6354     1  180.0000771  9.6232000  2
   6340   6337   6335   6356     1  0.0000000  0.6508444  3
   6340   6337   6339   6343     1  0.0000000  0.6508444  3
   6340   6337   6339   6341     1  0.0000000  0.6508444  3
   6340   6337   6339   6342     1  0.0000000  0.6508444  3
   6341   6339   6343   6344     1  180.0000771  0.0000000  2
   6341   6339   6343   6345     1  0.0000000  3.3472000  1
   6341   6339   6343   6345     1  0.0000000  0.0000000  2
   6341   6339   6343   6345     1  180.0000771  0.3347200  3
   6342   6339   6343   6344     1  180.0000771  0.0000000  2
   6342   6339   6343   6345     1  0.0000000  3.3472000  1
   6342   6339   6343   6345     1  0.0000000  0.0000000  2
   6342   6339   6343   6345     1  180.0000771  0.3347200  3
   6345   6343   6344   6354     1  0.0000000  7.9496000  1
   6345   6343   6344   6354     1  180.0000771  9.6232000  2
   6346   6336   6335   6356     1  0.0000000  0.6508444  3
   6346   6336   6348   6351     1  0.0000000  0.6508444  3
   6346   6336   6348   6349     1  0.0000000  0.6508444  3
   6346   6336   6348   6350     1  0.0000000  0.6508444  3
   6347   6336   6335   6356     1  0.0000000  0.6508444  3
   6347   6336   6348   6351     1  0.0000000  0.6508444  3
   6347   6336   6348   6349     1  0.0000000  0.6508444  3
   6347   6336   6348   6350     1  0.0000000  0.6508444  3
   6348   6336   6335   6356     1  0.0000000  0.6508444  3
   6348   6351   6353   6355     1  180.0000771  9.6232000  2
   6349   6348   6351   6352     1  0.0000000  3.3472000  1
   6349   6348   6351   6352     1  0.0000000  0.0000000  2
   6349   6348   6351   6352     1  180.0000771  0.3347200  3
   6349   6348   6351   6353     1  180.0000771  0.0000000  2
   6350   6348   6351   6352     1  0.0000000  3.3472000  1
   6350   6348   6351   6352     1  0.0000000  0.0000000  2
   6350   6348   6351   6352     1  180.0000771  0.3347200  3
   6350   6348   6351   6353     1  180.0000771  0.0000000  2
   6352   6351   6353   6355     1  0.0000000  7.9496000  1
   6352   6351   6353   6355     1  180.0000771  9.6232000  2
   6357   6359   6361   6363     1  0.0000000  0.6508444  3
   6357   6359   6361   6364     1  0.0000000  0.6508444  3
   6358   6357   6359   6361     1  0.0000000  0.0000000  2
   6358   6357   6359   6360     1  0.0000000  0.0000000  2
   6358   6357   6359   6362     1  0.0000000  0.0000000  2
   6359   6361   6365   6386     1  0.0000000  0.6508444  3
   6360   6359   6361   6365     1  0.0000000  0.6508444  3
   6360   6359   6361   6363     1  0.0000000  0.6508444  3
   6360   6359   6361   6364     1  0.0000000  0.6508444  3
   6361   6365   6366   6376     1  0.0000000  0.6508444  3
   6361   6365   6366   6377     1  0.0000000  0.6508444  3
   6361   6365   6367   6368     1  0.0000000  0.6508444  3
   6361   6365   6367   6370     1  0.0000000  0.6508444  3
   6362   6359   6361   6365     1  0.0000000  0.6508444  3
   6362   6359   6361   6363     1  0.0000000  0.6508444  3
   6362   6359   6361   6364     1  0.0000000  0.6508444  3
   6363   6361   6365   6366     1  0.0000000  0.6508444  3
   6363   6361   6365   6367     1  0.0000000  0.6508444  3
   6363   6361   6365   6386     1  0.0000000  0.6508444  3
   6364   6361   6365   6366     1  0.0000000  0.6508444  3
   6364   6361   6365   6367     1  0.0000000  0.6508444  3
   6364   6361   6365   6386     1  0.0000000  0.6508444  3
   6365   6366   6378   6379     1  0.0000000  0.6508444  3
   6365   6366   6378   6380     1  0.0000000  0.6508444  3
   6365   6367   6369   6371     1  0.0000000  0.6508444  3
   6365   6367   6369   6372     1  0.0000000  0.6508444  3
   6366   6365   6367   6368     1  0.0000000  0.6508444  3
   6366   6365   6367   6370     1  0.0000000  0.6508444  3
   6367   6365   6366   6376     1  0.0000000  0.6508444  3
   6367   6365   6366   6377     1  0.0000000  0.6508444  3
   6368   6367   6369   6373     1  0.0000000  0.6508444  3
   6368   6367   6369   6371     1  0.0000000  0.6508444  3
   6368   6367   6369   6372     1  0.0000000  0.6508444  3
   6368   6367   6365   6386     1  0.0000000  0.6508444  3
   6369   6373   6374   6384     1  180.0000771  9.6232000  2
   6369   6367   6365   6386     1  0.0000000  0.6508444  3
   6370   6367   6369   6373     1  0.0000000  0.6508444  3
   6370   6367   6369   6371     1  0.0000000  0.6508444  3
   6370   6367   6369   6372     1  0.0000000  0.6508444  3
   6370   6367   6365   6386     1  0.0000000  0.6508444  3
   6371   6369   6373   6374     1  180.0000771  0.0000000  2
   6371   6369   6373   6375     1  0.0000000  3.3472000  1
   6371   6369   6373   6375     1  0.0000000  0.0000000  2
   6371   6369   6373   6375     1  180.0000771  0.3347200  3
   6372   6369   6373   6374     1  180.0000771  0.0000000  2
   6372   6369   6373   6375     1  0.0000000  3.3472000  1
   6372   6369   6373   6375     1  0.0000000  0.0000000  2
   6372   6369   6373   6375     1  180.0000771  0.3347200  3
   6375   6373   6374   6384     1  0.0000000  7.9496000  1
   6375   6373   6374   6384     1  180.0000771  9.6232000  2
   6376   6366   6378   6381     1  0.0000000  0.6508444  3
   6376   6366   6378   6379     1  0.0000000  0.6508444  3
   6376   6366   6378   6380     1  0.0000000  0.6508444  3
   6376   6366   6365   6386     1  0.0000000  0.6508444  3
   6377   6366   6378   6381     1  0.0000000  0.6508444  3
   6377   6366   6378   6379     1  0.0000000  0.6508444  3
   6377   6366   6378   6380     1  0.0000000  0.6508444  3
   6377   6366   6365   6386     1  0.0000000  0.6508444  3
   6378   6381   6383   6385     1  180.0000771  9.6232000  2
   6378   6366   6365   6386     1  0.0000000  0.6508444  3
   6379   6378   6381   6382     1  0.0000000  3.3472000  1
   6379   6378   6381   6382     1  0.0000000  0.0000000  2
   6379   6378   6381   6382     1  180.0000771  0.3347200  3
   6379   6378   6381   6383     1  180.0000771  0.0000000  2
   6380   6378   6381   6382     1  0.0000000  3.3472000  1
   6380   6378   6381   6382     1  0.0000000  0.0000000  2
   6380   6378   6381   6382     1  180.0000771  0.3347200  3
   6380   6378   6381   6383     1  180.0000771  0.0000000  2
   6382   6381   6383   6385     1  0.0000000  7.9496000  1
   6382   6381   6383   6385     1  180.0000771  9.6232000  2
   6387   6389   6391   6393     1  0.0000000  0.6508444  3
   6387   6389   6391   6394     1  0.0000000  0.6508444  3
   6388   6387   6389   6391     1  0.0000000  0.0000000  2
   6388   6387   6389   6390     1  0.0000000  0.0000000  2
   6388   6387   6389   6392     1  0.0000000  0.0000000  2
   6389   6391   6395   6416     1  0.0000000  0.6508444  3
   6390   6389   6391   6395     1  0.0000000  0.6508444  3
   6390   6389   6391   6393     1  0.0000000  0.6508444  3
   6390   6389   6391   6394     1  0.0000000  0.6508444  3
   6391   6395   6396   6406     1  0.0000000  0.6508444  3
   6391   6395   6396   6407     1  0.0000000  0.6508444  3
   6391   6395   6397   6398     1  0.0000000  0.6508444  3
   6391   6395   6397   6400     1  0.0000000  0.6508444  3
   6392   6389   6391   6395     1  0.0000000  0.6508444  3
   6392   6389   6391   6393     1  0.0000000  0.6508444  3
   6392   6389   6391   6394     1  0.0000000  0.6508444  3
   6393   6391   6395   6396     1  0.0000000  0.6508444  3
   6393   6391   6395   6397     1  0.0000000  0.6508444  3
   6393   6391   6395   6416     1  0.0000000  0.6508444  3
   6394   6391   6395   6396     1  0.0000000  0.6508444  3
   6394   6391   6395   6397     1  0.0000000  0.6508444  3
   6394   6391   6395   6416     1  0.0000000  0.6508444  3
   6395   6396   6408   6409     1  0.0000000  0.6508444  3
   6395   6396   6408   6410     1  0.0000000  0.6508444  3
   6395   6397   6399   6401     1  0.0000000  0.6508444  3
   6395   6397   6399   6402     1  0.0000000  0.6508444  3
   6396   6395   6397   6398     1  0.0000000  0.6508444  3
   6396   6395   6397   6400     1  0.0000000  0.6508444  3
   6397   6395   6396   6406     1  0.0000000  0.6508444  3
   6397   6395   6396   6407     1  0.0000000  0.6508444  3
   6398   6397   6395   6416     1  0.0000000  0.6508444  3
   6398   6397   6399   6403     1  0.0000000  0.6508444  3
   6398   6397   6399   6401     1  0.0000000  0.6508444  3
   6398   6397   6399   6402     1  0.0000000  0.6508444  3
   6399   6397   6395   6416     1  0.0000000  0.6508444  3
   6399   6403   6404   6414     1  180.0000771  9.6232000  2
   6400   6397   6395   6416     1  0.0000000  0.6508444  3
   6400   6397   6399   6403     1  0.0000000  0.6508444  3
   6400   6397   6399   6401     1  0.0000000  0.6508444  3
   6400   6397   6399   6402     1  0.0000000  0.6508444  3
   6401   6399   6403   6404     1  180.0000771  0.0000000  2
   6401   6399   6403   6405     1  0.0000000  3.3472000  1
   6401   6399   6403   6405     1  0.0000000  0.0000000  2
   6401   6399   6403   6405     1  180.0000771  0.3347200  3
   6402   6399   6403   6404     1  180.0000771  0.0000000  2
   6402   6399   6403   6405     1  0.0000000  3.3472000  1
   6402   6399   6403   6405     1  0.0000000  0.0000000  2
   6402   6399   6403   6405     1  180.0000771  0.3347200  3
   6405   6403   6404   6414     1  0.0000000  7.9496000  1
   6405   6403   6404   6414     1  180.0000771  9.6232000  2
   6406   6396   6395   6416     1  0.0000000  0.6508444  3
   6406   6396   6408   6411     1  0.0000000  0.6508444  3
   6406   6396   6408   6409     1  0.0000000  0.6508444  3
   6406   6396   6408   6410     1  0.0000000  0.6508444  3
   6407   6396   6395   6416     1  0.0000000  0.6508444  3
   6407   6396   6408   6411     1  0.0000000  0.6508444  3
   6407   6396   6408   6409     1  0.0000000  0.6508444  3
   6407   6396   6408   6410     1  0.0000000  0.6508444  3
   6408   6396   6395   6416     1  0.0000000  0.6508444  3
   6408   6411   6413   6415     1  180.0000771  9.6232000  2
   6409   6408   6411   6412     1  0.0000000  3.3472000  1
   6409   6408   6411   6412     1  0.0000000  0.0000000  2
   6409   6408   6411   6412     1  180.0000771  0.3347200  3
   6409   6408   6411   6413     1  180.0000771  0.0000000  2
   6410   6408   6411   6412     1  0.0000000  3.3472000  1
   6410   6408   6411   6412     1  0.0000000  0.0000000  2
   6410   6408   6411   6412     1  180.0000771  0.3347200  3
   6410   6408   6411   6413     1  180.0000771  0.0000000  2
   6412   6411   6413   6415     1  0.0000000  7.9496000  1
   6412   6411   6413   6415     1  180.0000771  9.6232000  2
   6417   6419   6421   6423     1  0.0000000  0.6508444  3
   6417   6419   6421   6424     1  0.0000000  0.6508444  3
   6418   6417   6419   6421     1  0.0000000  0.0000000  2
   6418   6417   6419   6420     1  0.0000000  0.0000000  2
   6418   6417   6419   6422     1  0.0000000  0.0000000  2
   6419   6421   6425   6446     1  0.0000000  0.6508444  3
   6420   6419   6421   6425     1  0.0000000  0.6508444  3
   6420   6419   6421   6423     1  0.0000000  0.6508444  3
   6420   6419   6421   6424     1  0.0000000  0.6508444  3
   6421   6425   6426   6436     1  0.0000000  0.6508444  3
   6421   6425   6426   6437     1  0.0000000  0.6508444  3
   6421   6425   6427   6428     1  0.0000000  0.6508444  3
   6421   6425   6427   6430     1  0.0000000  0.6508444  3
   6422   6419   6421   6425     1  0.0000000  0.6508444  3
   6422   6419   6421   6423     1  0.0000000  0.6508444  3
   6422   6419   6421   6424     1  0.0000000  0.6508444  3
   6423   6421   6425   6426     1  0.0000000  0.6508444  3
   6423   6421   6425   6427     1  0.0000000  0.6508444  3
   6423   6421   6425   6446     1  0.0000000  0.6508444  3
   6424   6421   6425   6426     1  0.0000000  0.6508444  3
   6424   6421   6425   6427     1  0.0000000  0.6508444  3
   6424   6421   6425   6446     1  0.0000000  0.6508444  3
   6425   6426   6438   6439     1  0.0000000  0.6508444  3
   6425   6426   6438   6440     1  0.0000000  0.6508444  3
   6425   6427   6429   6431     1  0.0000000  0.6508444  3
   6425   6427   6429   6432     1  0.0000000  0.6508444  3
   6426   6425   6427   6428     1  0.0000000  0.6508444  3
   6426   6425   6427   6430     1  0.0000000  0.6508444  3
   6427   6425   6426   6436     1  0.0000000  0.6508444  3
   6427   6425   6426   6437     1  0.0000000  0.6508444  3
   6428   6427   6429   6433     1  0.0000000  0.6508444  3
   6428   6427   6429   6431     1  0.0000000  0.6508444  3
   6428   6427   6429   6432     1  0.0000000  0.6508444  3
   6428   6427   6425   6446     1  0.0000000  0.6508444  3
   6429   6433   6434   6444     1  180.0000771  9.6232000  2
   6429   6427   6425   6446     1  0.0000000  0.6508444  3
   6430   6427   6429   6433     1  0.0000000  0.6508444  3
   6430   6427   6429   6431     1  0.0000000  0.6508444  3
   6430   6427   6429   6432     1  0.0000000  0.6508444  3
   6430   6427   6425   6446     1  0.0000000  0.6508444  3
   6431   6429   6433   6434     1  180.0000771  0.0000000  2
   6431   6429   6433   6435     1  0.0000000  3.3472000  1
   6431   6429   6433   6435     1  0.0000000  0.0000000  2
   6431   6429   6433   6435     1  180.0000771  0.3347200  3
   6432   6429   6433   6434     1  180.0000771  0.0000000  2
   6432   6429   6433   6435     1  0.0000000  3.3472000  1
   6432   6429   6433   6435     1  0.0000000  0.0000000  2
   6432   6429   6433   6435     1  180.0000771  0.3347200  3
   6435   6433   6434   6444     1  0.0000000  7.9496000  1
   6435   6433   6434   6444     1  180.0000771  9.6232000  2
   6436   6426   6438   6441     1  0.0000000  0.6508444  3
   6436   6426   6438   6439     1  0.0000000  0.6508444  3
   6436   6426   6438   6440     1  0.0000000  0.6508444  3
   6436   6426   6425   6446     1  0.0000000  0.6508444  3
   6437   6426   6438   6441     1  0.0000000  0.6508444  3
   6437   6426   6438   6439     1  0.0000000  0.6508444  3
   6437   6426   6438   6440     1  0.0000000  0.6508444  3
   6437   6426   6425   6446     1  0.0000000  0.6508444  3
   6438   6441   6443   6445     1  180.0000771  9.6232000  2
   6438   6426   6425   6446     1  0.0000000  0.6508444  3
   6439   6438   6441   6442     1  0.0000000  3.3472000  1
   6439   6438   6441   6442     1  0.0000000  0.0000000  2
   6439   6438   6441   6442     1  180.0000771  0.3347200  3
   6439   6438   6441   6443     1  180.0000771  0.0000000  2
   6440   6438   6441   6442     1  0.0000000  3.3472000  1
   6440   6438   6441   6442     1  0.0000000  0.0000000  2
   6440   6438   6441   6442     1  180.0000771  0.3347200  3
   6440   6438   6441   6443     1  180.0000771  0.0000000  2
   6442   6441   6443   6445     1  0.0000000  7.9496000  1
   6442   6441   6443   6445     1  180.0000771  9.6232000  2
   6447   6449   6451   6453     1  0.0000000  0.6508444  3
   6447   6449   6451   6454     1  0.0000000  0.6508444  3
   6448   6447   6449   6451     1  0.0000000  0.0000000  2
   6448   6447   6449   6450     1  0.0000000  0.0000000  2
   6448   6447   6449   6452     1  0.0000000  0.0000000  2
   6449   6451   6455   6476     1  0.0000000  0.6508444  3
   6450   6449   6451   6455     1  0.0000000  0.6508444  3
   6450   6449   6451   6453     1  0.0000000  0.6508444  3
   6450   6449   6451   6454     1  0.0000000  0.6508444  3
   6451   6455   6456   6466     1  0.0000000  0.6508444  3
   6451   6455   6456   6467     1  0.0000000  0.6508444  3
   6451   6455   6457   6458     1  0.0000000  0.6508444  3
   6451   6455   6457   6460     1  0.0000000  0.6508444  3
   6452   6449   6451   6455     1  0.0000000  0.6508444  3
   6452   6449   6451   6453     1  0.0000000  0.6508444  3
   6452   6449   6451   6454     1  0.0000000  0.6508444  3
   6453   6451   6455   6456     1  0.0000000  0.6508444  3
   6453   6451   6455   6457     1  0.0000000  0.6508444  3
   6453   6451   6455   6476     1  0.0000000  0.6508444  3
   6454   6451   6455   6456     1  0.0000000  0.6508444  3
   6454   6451   6455   6457     1  0.0000000  0.6508444  3
   6454   6451   6455   6476     1  0.0000000  0.6508444  3
   6455   6456   6468   6469     1  0.0000000  0.6508444  3
   6455   6456   6468   6470     1  0.0000000  0.6508444  3
   6455   6457   6459   6461     1  0.0000000  0.6508444  3
   6455   6457   6459   6462     1  0.0000000  0.6508444  3
   6456   6455   6457   6458     1  0.0000000  0.6508444  3
   6456   6455   6457   6460     1  0.0000000  0.6508444  3
   6457   6455   6456   6466     1  0.0000000  0.6508444  3
   6457   6455   6456   6467     1  0.0000000  0.6508444  3
   6458   6457   6455   6476     1  0.0000000  0.6508444  3
   6458   6457   6459   6463     1  0.0000000  0.6508444  3
   6458   6457   6459   6461     1  0.0000000  0.6508444  3
   6458   6457   6459   6462     1  0.0000000  0.6508444  3
   6459   6457   6455   6476     1  0.0000000  0.6508444  3
   6459   6463   6464   6474     1  180.0000771  9.6232000  2
   6460   6457   6455   6476     1  0.0000000  0.6508444  3
   6460   6457   6459   6463     1  0.0000000  0.6508444  3
   6460   6457   6459   6461     1  0.0000000  0.6508444  3
   6460   6457   6459   6462     1  0.0000000  0.6508444  3
   6461   6459   6463   6464     1  180.0000771  0.0000000  2
   6461   6459   6463   6465     1  0.0000000  3.3472000  1
   6461   6459   6463   6465     1  0.0000000  0.0000000  2
   6461   6459   6463   6465     1  180.0000771  0.3347200  3
   6462   6459   6463   6464     1  180.0000771  0.0000000  2
   6462   6459   6463   6465     1  0.0000000  3.3472000  1
   6462   6459   6463   6465     1  0.0000000  0.0000000  2
   6462   6459   6463   6465     1  180.0000771  0.3347200  3
   6465   6463   6464   6474     1  0.0000000  7.9496000  1
   6465   6463   6464   6474     1  180.0000771  9.6232000  2
   6466   6456   6455   6476     1  0.0000000  0.6508444  3
   6466   6456   6468   6471     1  0.0000000  0.6508444  3
   6466   6456   6468   6469     1  0.0000000  0.6508444  3
   6466   6456   6468   6470     1  0.0000000  0.6508444  3
   6467   6456   6455   6476     1  0.0000000  0.6508444  3
   6467   6456   6468   6471     1  0.0000000  0.6508444  3
   6467   6456   6468   6469     1  0.0000000  0.6508444  3
   6467   6456   6468   6470     1  0.0000000  0.6508444  3
   6468   6456   6455   6476     1  0.0000000  0.6508444  3
   6468   6471   6473   6475     1  180.0000771  9.6232000  2
   6469   6468   6471   6472     1  0.0000000  3.3472000  1
   6469   6468   6471   6472     1  0.0000000  0.0000000  2
   6469   6468   6471   6472     1  180.0000771  0.3347200  3
   6469   6468   6471   6473     1  180.0000771  0.0000000  2
   6470   6468   6471   6472     1  0.0000000  3.3472000  1
   6470   6468   6471   6472     1  0.0000000  0.0000000  2
   6470   6468   6471   6472     1  180.0000771  0.3347200  3
   6470   6468   6471   6473     1  180.0000771  0.0000000  2
   6472   6471   6473   6475     1  0.0000000  7.9496000  1
   6472   6471   6473   6475     1  180.0000771  9.6232000  2
   6477   6479   6481   6483     1  0.0000000  0.6508444  3
   6477   6479   6481   6484     1  0.0000000  0.6508444  3
   6478   6477   6479   6481     1  0.0000000  0.0000000  2
   6478   6477   6479   6480     1  0.0000000  0.0000000  2
   6478   6477   6479   6482     1  0.0000000  0.0000000  2
   6479   6481   6485   6506     1  0.0000000  0.6508444  3
   6480   6479   6481   6485     1  0.0000000  0.6508444  3
   6480   6479   6481   6483     1  0.0000000  0.6508444  3
   6480   6479   6481   6484     1  0.0000000  0.6508444  3
   6481   6485   6486   6496     1  0.0000000  0.6508444  3
   6481   6485   6486   6497     1  0.0000000  0.6508444  3
   6481   6485   6487   6488     1  0.0000000  0.6508444  3
   6481   6485   6487   6490     1  0.0000000  0.6508444  3
   6482   6479   6481   6485     1  0.0000000  0.6508444  3
   6482   6479   6481   6483     1  0.0000000  0.6508444  3
   6482   6479   6481   6484     1  0.0000000  0.6508444  3
   6483   6481   6485   6486     1  0.0000000  0.6508444  3
   6483   6481   6485   6487     1  0.0000000  0.6508444  3
   6483   6481   6485   6506     1  0.0000000  0.6508444  3
   6484   6481   6485   6486     1  0.0000000  0.6508444  3
   6484   6481   6485   6487     1  0.0000000  0.6508444  3
   6484   6481   6485   6506     1  0.0000000  0.6508444  3
   6485   6486   6498   6499     1  0.0000000  0.6508444  3
   6485   6486   6498   6500     1  0.0000000  0.6508444  3
   6485   6487   6489   6491     1  0.0000000  0.6508444  3
   6485   6487   6489   6492     1  0.0000000  0.6508444  3
   6486   6485   6487   6488     1  0.0000000  0.6508444  3
   6486   6485   6487   6490     1  0.0000000  0.6508444  3
   6487   6485   6486   6496     1  0.0000000  0.6508444  3
   6487   6485   6486   6497     1  0.0000000  0.6508444  3
   6488   6487   6489   6493     1  0.0000000  0.6508444  3
   6488   6487   6489   6491     1  0.0000000  0.6508444  3
   6488   6487   6489   6492     1  0.0000000  0.6508444  3
   6488   6487   6485   6506     1  0.0000000  0.6508444  3
   6489   6493   6494   6504     1  180.0000771  9.6232000  2
   6489   6487   6485   6506     1  0.0000000  0.6508444  3
   6490   6487   6489   6493     1  0.0000000  0.6508444  3
   6490   6487   6489   6491     1  0.0000000  0.6508444  3
   6490   6487   6489   6492     1  0.0000000  0.6508444  3
   6490   6487   6485   6506     1  0.0000000  0.6508444  3
   6491   6489   6493   6494     1  180.0000771  0.0000000  2
   6491   6489   6493   6495     1  0.0000000  3.3472000  1
   6491   6489   6493   6495     1  0.0000000  0.0000000  2
   6491   6489   6493   6495     1  180.0000771  0.3347200  3
   6492   6489   6493   6494     1  180.0000771  0.0000000  2
   6492   6489   6493   6495     1  0.0000000  3.3472000  1
   6492   6489   6493   6495     1  0.0000000  0.0000000  2
   6492   6489   6493   6495     1  180.0000771  0.3347200  3
   6495   6493   6494   6504     1  0.0000000  7.9496000  1
   6495   6493   6494   6504     1  180.0000771  9.6232000  2
   6496   6486   6498   6501     1  0.0000000  0.6508444  3
   6496   6486   6498   6499     1  0.0000000  0.6508444  3
   6496   6486   6498   6500     1  0.0000000  0.6508444  3
   6496   6486   6485   6506     1  0.0000000  0.6508444  3
   6497   6486   6498   6501     1  0.0000000  0.6508444  3
   6497   6486   6498   6499     1  0.0000000  0.6508444  3
   6497   6486   6498   6500     1  0.0000000  0.6508444  3
   6497   6486   6485   6506     1  0.0000000  0.6508444  3
   6498   6501   6503   6505     1  180.0000771  9.6232000  2
   6498   6486   6485   6506     1  0.0000000  0.6508444  3
   6499   6498   6501   6502     1  0.0000000  3.3472000  1
   6499   6498   6501   6502     1  0.0000000  0.0000000  2
   6499   6498   6501   6502     1  180.0000771  0.3347200  3
   6499   6498   6501   6503     1  180.0000771  0.0000000  2
   6500   6498   6501   6502     1  0.0000000  3.3472000  1
   6500   6498   6501   6502     1  0.0000000  0.0000000  2
   6500   6498   6501   6502     1  180.0000771  0.3347200  3
   6500   6498   6501   6503     1  180.0000771  0.0000000  2
   6502   6501   6503   6505     1  0.0000000  7.9496000  1
   6502   6501   6503   6505     1  180.0000771  9.6232000  2
   6507   6509   6511   6513     1  0.0000000  0.6508444  3
   6507   6509   6511   6514     1  0.0000000  0.6508444  3
   6508   6507   6509   6511     1  0.0000000  0.0000000  2
   6508   6507   6509   6510     1  0.0000000  0.0000000  2
   6508   6507   6509   6512     1  0.0000000  0.0000000  2
   6509   6511   6515   6536     1  0.0000000  0.6508444  3
   6510   6509   6511   6515     1  0.0000000  0.6508444  3
   6510   6509   6511   6513     1  0.0000000  0.6508444  3
   6510   6509   6511   6514     1  0.0000000  0.6508444  3
   6511   6515   6516   6526     1  0.0000000  0.6508444  3
   6511   6515   6516   6527     1  0.0000000  0.6508444  3
   6511   6515   6517   6518     1  0.0000000  0.6508444  3
   6511   6515   6517   6520     1  0.0000000  0.6508444  3
   6512   6509   6511   6515     1  0.0000000  0.6508444  3
   6512   6509   6511   6513     1  0.0000000  0.6508444  3
   6512   6509   6511   6514     1  0.0000000  0.6508444  3
   6513   6511   6515   6516     1  0.0000000  0.6508444  3
   6513   6511   6515   6517     1  0.0000000  0.6508444  3
   6513   6511   6515   6536     1  0.0000000  0.6508444  3
   6514   6511   6515   6516     1  0.0000000  0.6508444  3
   6514   6511   6515   6517     1  0.0000000  0.6508444  3
   6514   6511   6515   6536     1  0.0000000  0.6508444  3
   6515   6516   6528   6529     1  0.0000000  0.6508444  3
   6515   6516   6528   6530     1  0.0000000  0.6508444  3
   6515   6517   6519   6521     1  0.0000000  0.6508444  3
   6515   6517   6519   6522     1  0.0000000  0.6508444  3
   6516   6515   6517   6518     1  0.0000000  0.6508444  3
   6516   6515   6517   6520     1  0.0000000  0.6508444  3
   6517   6515   6516   6526     1  0.0000000  0.6508444  3
   6517   6515   6516   6527     1  0.0000000  0.6508444  3
   6518   6517   6515   6536     1  0.0000000  0.6508444  3
   6518   6517   6519   6523     1  0.0000000  0.6508444  3
   6518   6517   6519   6521     1  0.0000000  0.6508444  3
   6518   6517   6519   6522     1  0.0000000  0.6508444  3
   6519   6517   6515   6536     1  0.0000000  0.6508444  3
   6519   6523   6524   6534     1  180.0000771  9.6232000  2
   6520   6517   6515   6536     1  0.0000000  0.6508444  3
   6520   6517   6519   6523     1  0.0000000  0.6508444  3
   6520   6517   6519   6521     1  0.0000000  0.6508444  3
   6520   6517   6519   6522     1  0.0000000  0.6508444  3
   6521   6519   6523   6524     1  180.0000771  0.0000000  2
   6521   6519   6523   6525     1  0.0000000  3.3472000  1
   6521   6519   6523   6525     1  0.0000000  0.0000000  2
   6521   6519   6523   6525     1  180.0000771  0.3347200  3
   6522   6519   6523   6524     1  180.0000771  0.0000000  2
   6522   6519   6523   6525     1  0.0000000  3.3472000  1
   6522   6519   6523   6525     1  0.0000000  0.0000000  2
   6522   6519   6523   6525     1  180.0000771  0.3347200  3
   6525   6523   6524   6534     1  0.0000000  7.9496000  1
   6525   6523   6524   6534     1  180.0000771  9.6232000  2
   6526   6516   6515   6536     1  0.0000000  0.6508444  3
   6526   6516   6528   6531     1  0.0000000  0.6508444  3
   6526   6516   6528   6529     1  0.0000000  0.6508444  3
   6526   6516   6528   6530     1  0.0000000  0.6508444  3
   6527   6516   6515   6536     1  0.0000000  0.6508444  3
   6527   6516   6528   6531     1  0.0000000  0.6508444  3
   6527   6516   6528   6529     1  0.0000000  0.6508444  3
   6527   6516   6528   6530     1  0.0000000  0.6508444  3
   6528   6516   6515   6536     1  0.0000000  0.6508444  3
   6528   6531   6533   6535     1  180.0000771  9.6232000  2
   6529   6528   6531   6532     1  0.0000000  3.3472000  1
   6529   6528   6531   6532     1  0.0000000  0.0000000  2
   6529   6528   6531   6532     1  180.0000771  0.3347200  3
   6529   6528   6531   6533     1  180.0000771  0.0000000  2
   6530   6528   6531   6532     1  0.0000000  3.3472000  1
   6530   6528   6531   6532     1  0.0000000  0.0000000  2
   6530   6528   6531   6532     1  180.0000771  0.3347200  3
   6530   6528   6531   6533     1  180.0000771  0.0000000  2
   6532   6531   6533   6535     1  0.0000000  7.9496000  1
   6532   6531   6533   6535     1  180.0000771  9.6232000  2
   6537   6539   6541   6543     1  0.0000000  0.6508444  3
   6537   6539   6541   6544     1  0.0000000  0.6508444  3
   6538   6537   6539   6541     1  0.0000000  0.0000000  2
   6538   6537   6539   6540     1  0.0000000  0.0000000  2
   6538   6537   6539   6542     1  0.0000000  0.0000000  2
   6539   6541   6545   6566     1  0.0000000  0.6508444  3
   6540   6539   6541   6545     1  0.0000000  0.6508444  3
   6540   6539   6541   6543     1  0.0000000  0.6508444  3
   6540   6539   6541   6544     1  0.0000000  0.6508444  3
   6541   6545   6546   6556     1  0.0000000  0.6508444  3
   6541   6545   6546   6557     1  0.0000000  0.6508444  3
   6541   6545   6547   6548     1  0.0000000  0.6508444  3
   6541   6545   6547   6550     1  0.0000000  0.6508444  3
   6542   6539   6541   6545     1  0.0000000  0.6508444  3
   6542   6539   6541   6543     1  0.0000000  0.6508444  3
   6542   6539   6541   6544     1  0.0000000  0.6508444  3
   6543   6541   6545   6546     1  0.0000000  0.6508444  3
   6543   6541   6545   6547     1  0.0000000  0.6508444  3
   6543   6541   6545   6566     1  0.0000000  0.6508444  3
   6544   6541   6545   6546     1  0.0000000  0.6508444  3
   6544   6541   6545   6547     1  0.0000000  0.6508444  3
   6544   6541   6545   6566     1  0.0000000  0.6508444  3
   6545   6546   6558   6559     1  0.0000000  0.6508444  3
   6545   6546   6558   6560     1  0.0000000  0.6508444  3
   6545   6547   6549   6551     1  0.0000000  0.6508444  3
   6545   6547   6549   6552     1  0.0000000  0.6508444  3
   6546   6545   6547   6548     1  0.0000000  0.6508444  3
   6546   6545   6547   6550     1  0.0000000  0.6508444  3
   6547   6545   6546   6556     1  0.0000000  0.6508444  3
   6547   6545   6546   6557     1  0.0000000  0.6508444  3
   6548   6547   6549   6553     1  0.0000000  0.6508444  3
   6548   6547   6549   6551     1  0.0000000  0.6508444  3
   6548   6547   6549   6552     1  0.0000000  0.6508444  3
   6548   6547   6545   6566     1  0.0000000  0.6508444  3
   6549   6553   6554   6564     1  180.0000771  9.6232000  2
   6549   6547   6545   6566     1  0.0000000  0.6508444  3
   6550   6547   6549   6553     1  0.0000000  0.6508444  3
   6550   6547   6549   6551     1  0.0000000  0.6508444  3
   6550   6547   6549   6552     1  0.0000000  0.6508444  3
   6550   6547   6545   6566     1  0.0000000  0.6508444  3
   6551   6549   6553   6554     1  180.0000771  0.0000000  2
   6551   6549   6553   6555     1  0.0000000  3.3472000  1
   6551   6549   6553   6555     1  0.0000000  0.0000000  2
   6551   6549   6553   6555     1  180.0000771  0.3347200  3
   6552   6549   6553   6554     1  180.0000771  0.0000000  2
   6552   6549   6553   6555     1  0.0000000  3.3472000  1
   6552   6549   6553   6555     1  0.0000000  0.0000000  2
   6552   6549   6553   6555     1  180.0000771  0.3347200  3
   6555   6553   6554   6564     1  0.0000000  7.9496000  1
   6555   6553   6554   6564     1  180.0000771  9.6232000  2
   6556   6546   6558   6561     1  0.0000000  0.6508444  3
   6556   6546   6558   6559     1  0.0000000  0.6508444  3
   6556   6546   6558   6560     1  0.0000000  0.6508444  3
   6556   6546   6545   6566     1  0.0000000  0.6508444  3
   6557   6546   6558   6561     1  0.0000000  0.6508444  3
   6557   6546   6558   6559     1  0.0000000  0.6508444  3
   6557   6546   6558   6560     1  0.0000000  0.6508444  3
   6557   6546   6545   6566     1  0.0000000  0.6508444  3
   6558   6561   6563   6565     1  180.0000771  9.6232000  2
   6558   6546   6545   6566     1  0.0000000  0.6508444  3
   6559   6558   6561   6562     1  0.0000000  3.3472000  1
   6559   6558   6561   6562     1  0.0000000  0.0000000  2
   6559   6558   6561   6562     1  180.0000771  0.3347200  3
   6559   6558   6561   6563     1  180.0000771  0.0000000  2
   6560   6558   6561   6562     1  0.0000000  3.3472000  1
   6560   6558   6561   6562     1  0.0000000  0.0000000  2
   6560   6558   6561   6562     1  180.0000771  0.3347200  3
   6560   6558   6561   6563     1  180.0000771  0.0000000  2
   6562   6561   6563   6565     1  0.0000000  7.9496000  1
   6562   6561   6563   6565     1  180.0000771  9.6232000  2
   6567   6569   6571   6573     1  0.0000000  0.6508444  3
   6567   6569   6571   6574     1  0.0000000  0.6508444  3
   6568   6567   6569   6571     1  0.0000000  0.0000000  2
   6568   6567   6569   6570     1  0.0000000  0.0000000  2
   6568   6567   6569   6572     1  0.0000000  0.0000000  2
   6569   6571   6575   6596     1  0.0000000  0.6508444  3
   6570   6569   6571   6575     1  0.0000000  0.6508444  3
   6570   6569   6571   6573     1  0.0000000  0.6508444  3
   6570   6569   6571   6574     1  0.0000000  0.6508444  3
   6571   6575   6576   6586     1  0.0000000  0.6508444  3
   6571   6575   6576   6587     1  0.0000000  0.6508444  3
   6571   6575   6577   6578     1  0.0000000  0.6508444  3
   6571   6575   6577   6580     1  0.0000000  0.6508444  3
   6572   6569   6571   6575     1  0.0000000  0.6508444  3
   6572   6569   6571   6573     1  0.0000000  0.6508444  3
   6572   6569   6571   6574     1  0.0000000  0.6508444  3
   6573   6571   6575   6576     1  0.0000000  0.6508444  3
   6573   6571   6575   6577     1  0.0000000  0.6508444  3
   6573   6571   6575   6596     1  0.0000000  0.6508444  3
   6574   6571   6575   6576     1  0.0000000  0.6508444  3
   6574   6571   6575   6577     1  0.0000000  0.6508444  3
   6574   6571   6575   6596     1  0.0000000  0.6508444  3
   6575   6576   6588   6589     1  0.0000000  0.6508444  3
   6575   6576   6588   6590     1  0.0000000  0.6508444  3
   6575   6577   6579   6581     1  0.0000000  0.6508444  3
   6575   6577   6579   6582     1  0.0000000  0.6508444  3
   6576   6575   6577   6578     1  0.0000000  0.6508444  3
   6576   6575   6577   6580     1  0.0000000  0.6508444  3
   6577   6575   6576   6586     1  0.0000000  0.6508444  3
   6577   6575   6576   6587     1  0.0000000  0.6508444  3
   6578   6577   6575   6596     1  0.0000000  0.6508444  3
   6578   6577   6579   6583     1  0.0000000  0.6508444  3
   6578   6577   6579   6581     1  0.0000000  0.6508444  3
   6578   6577   6579   6582     1  0.0000000  0.6508444  3
   6579   6577   6575   6596     1  0.0000000  0.6508444  3
   6579   6583   6584   6594     1  180.0000771  9.6232000  2
   6580   6577   6575   6596     1  0.0000000  0.6508444  3
   6580   6577   6579   6583     1  0.0000000  0.6508444  3
   6580   6577   6579   6581     1  0.0000000  0.6508444  3
   6580   6577   6579   6582     1  0.0000000  0.6508444  3
   6581   6579   6583   6584     1  180.0000771  0.0000000  2
   6581   6579   6583   6585     1  0.0000000  3.3472000  1
   6581   6579   6583   6585     1  0.0000000  0.0000000  2
   6581   6579   6583   6585     1  180.0000771  0.3347200  3
   6582   6579   6583   6584     1  180.0000771  0.0000000  2
   6582   6579   6583   6585     1  0.0000000  3.3472000  1
   6582   6579   6583   6585     1  0.0000000  0.0000000  2
   6582   6579   6583   6585     1  180.0000771  0.3347200  3
   6585   6583   6584   6594     1  0.0000000  7.9496000  1
   6585   6583   6584   6594     1  180.0000771  9.6232000  2
   6586   6576   6575   6596     1  0.0000000  0.6508444  3
   6586   6576   6588   6591     1  0.0000000  0.6508444  3
   6586   6576   6588   6589     1  0.0000000  0.6508444  3
   6586   6576   6588   6590     1  0.0000000  0.6508444  3
   6587   6576   6575   6596     1  0.0000000  0.6508444  3
   6587   6576   6588   6591     1  0.0000000  0.6508444  3
   6587   6576   6588   6589     1  0.0000000  0.6508444  3
   6587   6576   6588   6590     1  0.0000000  0.6508444  3
   6588   6576   6575   6596     1  0.0000000  0.6508444  3
   6588   6591   6593   6595     1  180.0000771  9.6232000  2
   6589   6588   6591   6592     1  0.0000000  3.3472000  1
   6589   6588   6591   6592     1  0.0000000  0.0000000  2
   6589   6588   6591   6592     1  180.0000771  0.3347200  3
   6589   6588   6591   6593     1  180.0000771  0.0000000  2
   6590   6588   6591   6592     1  0.0000000  3.3472000  1
   6590   6588   6591   6592     1  0.0000000  0.0000000  2
   6590   6588   6591   6592     1  180.0000771  0.3347200  3
   6590   6588   6591   6593     1  180.0000771  0.0000000  2
   6592   6591   6593   6595     1  0.0000000  7.9496000  1
   6592   6591   6593   6595     1  180.0000771  9.6232000  2
   6597   6599   6601   6603     1  0.0000000  0.6508444  3
   6597   6599   6601   6604     1  0.0000000  0.6508444  3
   6598   6597   6599   6601     1  0.0000000  0.0000000  2
   6598   6597   6599   6600     1  0.0000000  0.0000000  2
   6598   6597   6599   6602     1  0.0000000  0.0000000  2
   6599   6601   6605   6626     1  0.0000000  0.6508444  3
   6600   6599   6601   6605     1  0.0000000  0.6508444  3
   6600   6599   6601   6603     1  0.0000000  0.6508444  3
   6600   6599   6601   6604     1  0.0000000  0.6508444  3
   6601   6605   6606   6616     1  0.0000000  0.6508444  3
   6601   6605   6606   6617     1  0.0000000  0.6508444  3
   6601   6605   6607   6608     1  0.0000000  0.6508444  3
   6601   6605   6607   6610     1  0.0000000  0.6508444  3
   6602   6599   6601   6605     1  0.0000000  0.6508444  3
   6602   6599   6601   6603     1  0.0000000  0.6508444  3
   6602   6599   6601   6604     1  0.0000000  0.6508444  3
   6603   6601   6605   6606     1  0.0000000  0.6508444  3
   6603   6601   6605   6607     1  0.0000000  0.6508444  3
   6603   6601   6605   6626     1  0.0000000  0.6508444  3
   6604   6601   6605   6606     1  0.0000000  0.6508444  3
   6604   6601   6605   6607     1  0.0000000  0.6508444  3
   6604   6601   6605   6626     1  0.0000000  0.6508444  3
   6605   6606   6618   6619     1  0.0000000  0.6508444  3
   6605   6606   6618   6620     1  0.0000000  0.6508444  3
   6605   6607   6609   6611     1  0.0000000  0.6508444  3
   6605   6607   6609   6612     1  0.0000000  0.6508444  3
   6606   6605   6607   6608     1  0.0000000  0.6508444  3
   6606   6605   6607   6610     1  0.0000000  0.6508444  3
   6607   6605   6606   6616     1  0.0000000  0.6508444  3
   6607   6605   6606   6617     1  0.0000000  0.6508444  3
   6608   6607   6609   6613     1  0.0000000  0.6508444  3
   6608   6607   6609   6611     1  0.0000000  0.6508444  3
   6608   6607   6609   6612     1  0.0000000  0.6508444  3
   6608   6607   6605   6626     1  0.0000000  0.6508444  3
   6609   6613   6614   6624     1  180.0000771  9.6232000  2
   6609   6607   6605   6626     1  0.0000000  0.6508444  3
   6610   6607   6609   6613     1  0.0000000  0.6508444  3
   6610   6607   6609   6611     1  0.0000000  0.6508444  3
   6610   6607   6609   6612     1  0.0000000  0.6508444  3
   6610   6607   6605   6626     1  0.0000000  0.6508444  3
   6611   6609   6613   6614     1  180.0000771  0.0000000  2
   6611   6609   6613   6615     1  0.0000000  3.3472000  1
   6611   6609   6613   6615     1  0.0000000  0.0000000  2
   6611   6609   6613   6615     1  180.0000771  0.3347200  3
   6612   6609   6613   6614     1  180.0000771  0.0000000  2
   6612   6609   6613   6615     1  0.0000000  3.3472000  1
   6612   6609   6613   6615     1  0.0000000  0.0000000  2
   6612   6609   6613   6615     1  180.0000771  0.3347200  3
   6615   6613   6614   6624     1  0.0000000  7.9496000  1
   6615   6613   6614   6624     1  180.0000771  9.6232000  2
   6616   6606   6618   6621     1  0.0000000  0.6508444  3
   6616   6606   6618   6619     1  0.0000000  0.6508444  3
   6616   6606   6618   6620     1  0.0000000  0.6508444  3
   6616   6606   6605   6626     1  0.0000000  0.6508444  3
   6617   6606   6618   6621     1  0.0000000  0.6508444  3
   6617   6606   6618   6619     1  0.0000000  0.6508444  3
   6617   6606   6618   6620     1  0.0000000  0.6508444  3
   6617   6606   6605   6626     1  0.0000000  0.6508444  3
   6618   6621   6623   6625     1  180.0000771  9.6232000  2
   6618   6606   6605   6626     1  0.0000000  0.6508444  3
   6619   6618   6621   6622     1  0.0000000  3.3472000  1
   6619   6618   6621   6622     1  0.0000000  0.0000000  2
   6619   6618   6621   6622     1  180.0000771  0.3347200  3
   6619   6618   6621   6623     1  180.0000771  0.0000000  2
   6620   6618   6621   6622     1  0.0000000  3.3472000  1
   6620   6618   6621   6622     1  0.0000000  0.0000000  2
   6620   6618   6621   6622     1  180.0000771  0.3347200  3
   6620   6618   6621   6623     1  180.0000771  0.0000000  2
   6622   6621   6623   6625     1  0.0000000  7.9496000  1
   6622   6621   6623   6625     1  180.0000771  9.6232000  2
   6627   6629   6631   6633     1  0.0000000  0.6508444  3
   6627   6629   6631   6634     1  0.0000000  0.6508444  3
   6628   6627   6629   6631     1  0.0000000  0.0000000  2
   6628   6627   6629   6630     1  0.0000000  0.0000000  2
   6628   6627   6629   6632     1  0.0000000  0.0000000  2
   6629   6631   6635   6656     1  0.0000000  0.6508444  3
   6630   6629   6631   6635     1  0.0000000  0.6508444  3
   6630   6629   6631   6633     1  0.0000000  0.6508444  3
   6630   6629   6631   6634     1  0.0000000  0.6508444  3
   6631   6635   6636   6646     1  0.0000000  0.6508444  3
   6631   6635   6636   6647     1  0.0000000  0.6508444  3
   6631   6635   6637   6638     1  0.0000000  0.6508444  3
   6631   6635   6637   6640     1  0.0000000  0.6508444  3
   6632   6629   6631   6635     1  0.0000000  0.6508444  3
   6632   6629   6631   6633     1  0.0000000  0.6508444  3
   6632   6629   6631   6634     1  0.0000000  0.6508444  3
   6633   6631   6635   6636     1  0.0000000  0.6508444  3
   6633   6631   6635   6637     1  0.0000000  0.6508444  3
   6633   6631   6635   6656     1  0.0000000  0.6508444  3
   6634   6631   6635   6636     1  0.0000000  0.6508444  3
   6634   6631   6635   6637     1  0.0000000  0.6508444  3
   6634   6631   6635   6656     1  0.0000000  0.6508444  3
   6635   6636   6648   6649     1  0.0000000  0.6508444  3
   6635   6636   6648   6650     1  0.0000000  0.6508444  3
   6635   6637   6639   6641     1  0.0000000  0.6508444  3
   6635   6637   6639   6642     1  0.0000000  0.6508444  3
   6636   6635   6637   6638     1  0.0000000  0.6508444  3
   6636   6635   6637   6640     1  0.0000000  0.6508444  3
   6637   6635   6636   6646     1  0.0000000  0.6508444  3
   6637   6635   6636   6647     1  0.0000000  0.6508444  3
   6638   6637   6635   6656     1  0.0000000  0.6508444  3
   6638   6637   6639   6643     1  0.0000000  0.6508444  3
   6638   6637   6639   6641     1  0.0000000  0.6508444  3
   6638   6637   6639   6642     1  0.0000000  0.6508444  3
   6639   6637   6635   6656     1  0.0000000  0.6508444  3
   6639   6643   6644   6654     1  180.0000771  9.6232000  2
   6640   6637   6635   6656     1  0.0000000  0.6508444  3
   6640   6637   6639   6643     1  0.0000000  0.6508444  3
   6640   6637   6639   6641     1  0.0000000  0.6508444  3
   6640   6637   6639   6642     1  0.0000000  0.6508444  3
   6641   6639   6643   6644     1  180.0000771  0.0000000  2
   6641   6639   6643   6645     1  0.0000000  3.3472000  1
   6641   6639   6643   6645     1  0.0000000  0.0000000  2
   6641   6639   6643   6645     1  180.0000771  0.3347200  3
   6642   6639   6643   6644     1  180.0000771  0.0000000  2
   6642   6639   6643   6645     1  0.0000000  3.3472000  1
   6642   6639   6643   6645     1  0.0000000  0.0000000  2
   6642   6639   6643   6645     1  180.0000771  0.3347200  3
   6645   6643   6644   6654     1  0.0000000  7.9496000  1
   6645   6643   6644   6654     1  180.0000771  9.6232000  2
   6646   6636   6635   6656     1  0.0000000  0.6508444  3
   6646   6636   6648   6651     1  0.0000000  0.6508444  3
   6646   6636   6648   6649     1  0.0000000  0.6508444  3
   6646   6636   6648   6650     1  0.0000000  0.6508444  3
   6647   6636   6635   6656     1  0.0000000  0.6508444  3
   6647   6636   6648   6651     1  0.0000000  0.6508444  3
   6647   6636   6648   6649     1  0.0000000  0.6508444  3
   6647   6636   6648   6650     1  0.0000000  0.6508444  3
   6648   6636   6635   6656     1  0.0000000  0.6508444  3
   6648   6651   6653   6655     1  180.0000771  9.6232000  2
   6649   6648   6651   6652     1  0.0000000  3.3472000  1
   6649   6648   6651   6652     1  0.0000000  0.0000000  2
   6649   6648   6651   6652     1  180.0000771  0.3347200  3
   6649   6648   6651   6653     1  180.0000771  0.0000000  2
   6650   6648   6651   6652     1  0.0000000  3.3472000  1
   6650   6648   6651   6652     1  0.0000000  0.0000000  2
   6650   6648   6651   6652     1  180.0000771  0.3347200  3
   6650   6648   6651   6653     1  180.0000771  0.0000000  2
   6652   6651   6653   6655     1  0.0000000  7.9496000  1
   6652   6651   6653   6655     1  180.0000771  9.6232000  2
   6657   6659   6661   6663     1  0.0000000  0.6508444  3
   6657   6659   6661   6664     1  0.0000000  0.6508444  3
   6658   6657   6659   6661     1  0.0000000  0.0000000  2
   6658   6657   6659   6660     1  0.0000000  0.0000000  2
   6658   6657   6659   6662     1  0.0000000  0.0000000  2
   6659   6661   6665   6686     1  0.0000000  0.6508444  3
   6660   6659   6661   6665     1  0.0000000  0.6508444  3
   6660   6659   6661   6663     1  0.0000000  0.6508444  3
   6660   6659   6661   6664     1  0.0000000  0.6508444  3
   6661   6665   6666   6676     1  0.0000000  0.6508444  3
   6661   6665   6666   6677     1  0.0000000  0.6508444  3
   6661   6665   6667   6668     1  0.0000000  0.6508444  3
   6661   6665   6667   6670     1  0.0000000  0.6508444  3
   6662   6659   6661   6665     1  0.0000000  0.6508444  3
   6662   6659   6661   6663     1  0.0000000  0.6508444  3
   6662   6659   6661   6664     1  0.0000000  0.6508444  3
   6663   6661   6665   6666     1  0.0000000  0.6508444  3
   6663   6661   6665   6667     1  0.0000000  0.6508444  3
   6663   6661   6665   6686     1  0.0000000  0.6508444  3
   6664   6661   6665   6666     1  0.0000000  0.6508444  3
   6664   6661   6665   6667     1  0.0000000  0.6508444  3
   6664   6661   6665   6686     1  0.0000000  0.6508444  3
   6665   6666   6678   6679     1  0.0000000  0.6508444  3
   6665   6666   6678   6680     1  0.0000000  0.6508444  3
   6665   6667   6669   6671     1  0.0000000  0.6508444  3
   6665   6667   6669   6672     1  0.0000000  0.6508444  3
   6666   6665   6667   6668     1  0.0000000  0.6508444  3
   6666   6665   6667   6670     1  0.0000000  0.6508444  3
   6667   6665   6666   6676     1  0.0000000  0.6508444  3
   6667   6665   6666   6677     1  0.0000000  0.6508444  3
   6668   6667   6669   6673     1  0.0000000  0.6508444  3
   6668   6667   6669   6671     1  0.0000000  0.6508444  3
   6668   6667   6669   6672     1  0.0000000  0.6508444  3
   6668   6667   6665   6686     1  0.0000000  0.6508444  3
   6669   6673   6674   6684     1  180.0000771  9.6232000  2
   6669   6667   6665   6686     1  0.0000000  0.6508444  3
   6670   6667   6669   6673     1  0.0000000  0.6508444  3
   6670   6667   6669   6671     1  0.0000000  0.6508444  3
   6670   6667   6669   6672     1  0.0000000  0.6508444  3
   6670   6667   6665   6686     1  0.0000000  0.6508444  3
   6671   6669   6673   6674     1  180.0000771  0.0000000  2
   6671   6669   6673   6675     1  0.0000000  3.3472000  1
   6671   6669   6673   6675     1  0.0000000  0.0000000  2
   6671   6669   6673   6675     1  180.0000771  0.3347200  3
   6672   6669   6673   6674     1  180.0000771  0.0000000  2
   6672   6669   6673   6675     1  0.0000000  3.3472000  1
   6672   6669   6673   6675     1  0.0000000  0.0000000  2
   6672   6669   6673   6675     1  180.0000771  0.3347200  3
   6675   6673   6674   6684     1  0.0000000  7.9496000  1
   6675   6673   6674   6684     1  180.0000771  9.6232000  2
   6676   6666   6678   6681     1  0.0000000  0.6508444  3
   6676   6666   6678   6679     1  0.0000000  0.6508444  3
   6676   6666   6678   6680     1  0.0000000  0.6508444  3
   6676   6666   6665   6686     1  0.0000000  0.6508444  3
   6677   6666   6678   6681     1  0.0000000  0.6508444  3
   6677   6666   6678   6679     1  0.0000000  0.6508444  3
   6677   6666   6678   6680     1  0.0000000  0.6508444  3
   6677   6666   6665   6686     1  0.0000000  0.6508444  3
   6678   6681   6683   6685     1  180.0000771  9.6232000  2
   6678   6666   6665   6686     1  0.0000000  0.6508444  3
   6679   6678   6681   6682     1  0.0000000  3.3472000  1
   6679   6678   6681   6682     1  0.0000000  0.0000000  2
   6679   6678   6681   6682     1  180.0000771  0.3347200  3
   6679   6678   6681   6683     1  180.0000771  0.0000000  2
   6680   6678   6681   6682     1  0.0000000  3.3472000  1
   6680   6678   6681   6682     1  0.0000000  0.0000000  2
   6680   6678   6681   6682     1  180.0000771  0.3347200  3
   6680   6678   6681   6683     1  180.0000771  0.0000000  2
   6682   6681   6683   6685     1  0.0000000  7.9496000  1
   6682   6681   6683   6685     1  180.0000771  9.6232000  2
   6687   6689   6691   6693     1  0.0000000  0.6508444  3
   6687   6689   6691   6694     1  0.0000000  0.6508444  3
   6688   6687   6689   6691     1  0.0000000  0.0000000  2
   6688   6687   6689   6690     1  0.0000000  0.0000000  2
   6688   6687   6689   6692     1  0.0000000  0.0000000  2
   6689   6691   6695   6716     1  0.0000000  0.6508444  3
   6690   6689   6691   6695     1  0.0000000  0.6508444  3
   6690   6689   6691   6693     1  0.0000000  0.6508444  3
   6690   6689   6691   6694     1  0.0000000  0.6508444  3
   6691   6695   6696   6706     1  0.0000000  0.6508444  3
   6691   6695   6696   6707     1  0.0000000  0.6508444  3
   6691   6695   6697   6698     1  0.0000000  0.6508444  3
   6691   6695   6697   6700     1  0.0000000  0.6508444  3
   6692   6689   6691   6695     1  0.0000000  0.6508444  3
   6692   6689   6691   6693     1  0.0000000  0.6508444  3
   6692   6689   6691   6694     1  0.0000000  0.6508444  3
   6693   6691   6695   6696     1  0.0000000  0.6508444  3
   6693   6691   6695   6697     1  0.0000000  0.6508444  3
   6693   6691   6695   6716     1  0.0000000  0.6508444  3
   6694   6691   6695   6696     1  0.0000000  0.6508444  3
   6694   6691   6695   6697     1  0.0000000  0.6508444  3
   6694   6691   6695   6716     1  0.0000000  0.6508444  3
   6695   6696   6708   6709     1  0.0000000  0.6508444  3
   6695   6696   6708   6710     1  0.0000000  0.6508444  3
   6695   6697   6699   6701     1  0.0000000  0.6508444  3
   6695   6697   6699   6702     1  0.0000000  0.6508444  3
   6696   6695   6697   6698     1  0.0000000  0.6508444  3
   6696   6695   6697   6700     1  0.0000000  0.6508444  3
   6697   6695   6696   6706     1  0.0000000  0.6508444  3
   6697   6695   6696   6707     1  0.0000000  0.6508444  3
   6698   6697   6695   6716     1  0.0000000  0.6508444  3
   6698   6697   6699   6703     1  0.0000000  0.6508444  3
   6698   6697   6699   6701     1  0.0000000  0.6508444  3
   6698   6697   6699   6702     1  0.0000000  0.6508444  3
   6699   6697   6695   6716     1  0.0000000  0.6508444  3
   6699   6703   6704   6714     1  180.0000771  9.6232000  2
   6700   6697   6695   6716     1  0.0000000  0.6508444  3
   6700   6697   6699   6703     1  0.0000000  0.6508444  3
   6700   6697   6699   6701     1  0.0000000  0.6508444  3
   6700   6697   6699   6702     1  0.0000000  0.6508444  3
   6701   6699   6703   6704     1  180.0000771  0.0000000  2
   6701   6699   6703   6705     1  0.0000000  3.3472000  1
   6701   6699   6703   6705     1  0.0000000  0.0000000  2
   6701   6699   6703   6705     1  180.0000771  0.3347200  3
   6702   6699   6703   6704     1  180.0000771  0.0000000  2
   6702   6699   6703   6705     1  0.0000000  3.3472000  1
   6702   6699   6703   6705     1  0.0000000  0.0000000  2
   6702   6699   6703   6705     1  180.0000771  0.3347200  3
   6705   6703   6704   6714     1  0.0000000  7.9496000  1
   6705   6703   6704   6714     1  180.0000771  9.6232000  2
   6706   6696   6695   6716     1  0.0000000  0.6508444  3
   6706   6696   6708   6711     1  0.0000000  0.6508444  3
   6706   6696   6708   6709     1  0.0000000  0.6508444  3
   6706   6696   6708   6710     1  0.0000000  0.6508444  3
   6707   6696   6695   6716     1  0.0000000  0.6508444  3
   6707   6696   6708   6711     1  0.0000000  0.6508444  3
   6707   6696   6708   6709     1  0.0000000  0.6508444  3
   6707   6696   6708   6710     1  0.0000000  0.6508444  3
   6708   6696   6695   6716     1  0.0000000  0.6508444  3
   6708   6711   6713   6715     1  180.0000771  9.6232000  2
   6709   6708   6711   6712     1  0.0000000  3.3472000  1
   6709   6708   6711   6712     1  0.0000000  0.0000000  2
   6709   6708   6711   6712     1  180.0000771  0.3347200  3
   6709   6708   6711   6713     1  180.0000771  0.0000000  2
   6710   6708   6711   6712     1  0.0000000  3.3472000  1
   6710   6708   6711   6712     1  0.0000000  0.0000000  2
   6710   6708   6711   6712     1  180.0000771  0.3347200  3
   6710   6708   6711   6713     1  180.0000771  0.0000000  2
   6712   6711   6713   6715     1  0.0000000  7.9496000  1
   6712   6711   6713   6715     1  180.0000771  9.6232000  2
   6717   6719   6721   6723     1  0.0000000  0.6508444  3
   6717   6719   6721   6724     1  0.0000000  0.6508444  3
   6718   6717   6719   6721     1  0.0000000  0.0000000  2
   6718   6717   6719   6720     1  0.0000000  0.0000000  2
   6718   6717   6719   6722     1  0.0000000  0.0000000  2
   6719   6721   6725   6746     1  0.0000000  0.6508444  3
   6720   6719   6721   6725     1  0.0000000  0.6508444  3
   6720   6719   6721   6723     1  0.0000000  0.6508444  3
   6720   6719   6721   6724     1  0.0000000  0.6508444  3
   6721   6725   6726   6736     1  0.0000000  0.6508444  3
   6721   6725   6726   6737     1  0.0000000  0.6508444  3
   6721   6725   6727   6728     1  0.0000000  0.6508444  3
   6721   6725   6727   6730     1  0.0000000  0.6508444  3
   6722   6719   6721   6725     1  0.0000000  0.6508444  3
   6722   6719   6721   6723     1  0.0000000  0.6508444  3
   6722   6719   6721   6724     1  0.0000000  0.6508444  3
   6723   6721   6725   6726     1  0.0000000  0.6508444  3
   6723   6721   6725   6727     1  0.0000000  0.6508444  3
   6723   6721   6725   6746     1  0.0000000  0.6508444  3
   6724   6721   6725   6726     1  0.0000000  0.6508444  3
   6724   6721   6725   6727     1  0.0000000  0.6508444  3
   6724   6721   6725   6746     1  0.0000000  0.6508444  3
   6725   6726   6738   6739     1  0.0000000  0.6508444  3
   6725   6726   6738   6740     1  0.0000000  0.6508444  3
   6725   6727   6729   6731     1  0.0000000  0.6508444  3
   6725   6727   6729   6732     1  0.0000000  0.6508444  3
   6726   6725   6727   6728     1  0.0000000  0.6508444  3
   6726   6725   6727   6730     1  0.0000000  0.6508444  3
   6727   6725   6726   6736     1  0.0000000  0.6508444  3
   6727   6725   6726   6737     1  0.0000000  0.6508444  3
   6728   6727   6729   6733     1  0.0000000  0.6508444  3
   6728   6727   6729   6731     1  0.0000000  0.6508444  3
   6728   6727   6729   6732     1  0.0000000  0.6508444  3
   6728   6727   6725   6746     1  0.0000000  0.6508444  3
   6729   6733   6734   6744     1  180.0000771  9.6232000  2
   6729   6727   6725   6746     1  0.0000000  0.6508444  3
   6730   6727   6729   6733     1  0.0000000  0.6508444  3
   6730   6727   6729   6731     1  0.0000000  0.6508444  3
   6730   6727   6729   6732     1  0.0000000  0.6508444  3
   6730   6727   6725   6746     1  0.0000000  0.6508444  3
   6731   6729   6733   6734     1  180.0000771  0.0000000  2
   6731   6729   6733   6735     1  0.0000000  3.3472000  1
   6731   6729   6733   6735     1  0.0000000  0.0000000  2
   6731   6729   6733   6735     1  180.0000771  0.3347200  3
   6732   6729   6733   6734     1  180.0000771  0.0000000  2
   6732   6729   6733   6735     1  0.0000000  3.3472000  1
   6732   6729   6733   6735     1  0.0000000  0.0000000  2
   6732   6729   6733   6735     1  180.0000771  0.3347200  3
   6735   6733   6734   6744     1  0.0000000  7.9496000  1
   6735   6733   6734   6744     1  180.0000771  9.6232000  2
   6736   6726   6738   6741     1  0.0000000  0.6508444  3
   6736   6726   6738   6739     1  0.0000000  0.6508444  3
   6736   6726   6738   6740     1  0.0000000  0.6508444  3
   6736   6726   6725   6746     1  0.0000000  0.6508444  3
   6737   6726   6738   6741     1  0.0000000  0.6508444  3
   6737   6726   6738   6739     1  0.0000000  0.6508444  3
   6737   6726   6738   6740     1  0.0000000  0.6508444  3
   6737   6726   6725   6746     1  0.0000000  0.6508444  3
   6738   6741   6743   6745     1  180.0000771  9.6232000  2
   6738   6726   6725   6746     1  0.0000000  0.6508444  3
   6739   6738   6741   6742     1  0.0000000  3.3472000  1
   6739   6738   6741   6742     1  0.0000000  0.0000000  2
   6739   6738   6741   6742     1  180.0000771  0.3347200  3
   6739   6738   6741   6743     1  180.0000771  0.0000000  2
   6740   6738   6741   6742     1  0.0000000  3.3472000  1
   6740   6738   6741   6742     1  0.0000000  0.0000000  2
   6740   6738   6741   6742     1  180.0000771  0.3347200  3
   6740   6738   6741   6743     1  180.0000771  0.0000000  2
   6742   6741   6743   6745     1  0.0000000  7.9496000  1
   6742   6741   6743   6745     1  180.0000771  9.6232000  2
   6747   6749   6751   6753     1  0.0000000  0.6508444  3
   6747   6749   6751   6754     1  0.0000000  0.6508444  3
   6748   6747   6749   6751     1  0.0000000  0.0000000  2
   6748   6747   6749   6750     1  0.0000000  0.0000000  2
   6748   6747   6749   6752     1  0.0000000  0.0000000  2
   6749   6751   6755   6776     1  0.0000000  0.6508444  3
   6750   6749   6751   6755     1  0.0000000  0.6508444  3
   6750   6749   6751   6753     1  0.0000000  0.6508444  3
   6750   6749   6751   6754     1  0.0000000  0.6508444  3
   6751   6755   6756   6766     1  0.0000000  0.6508444  3
   6751   6755   6756   6767     1  0.0000000  0.6508444  3
   6751   6755   6757   6758     1  0.0000000  0.6508444  3
   6751   6755   6757   6760     1  0.0000000  0.6508444  3
   6752   6749   6751   6755     1  0.0000000  0.6508444  3
   6752   6749   6751   6753     1  0.0000000  0.6508444  3
   6752   6749   6751   6754     1  0.0000000  0.6508444  3
   6753   6751   6755   6756     1  0.0000000  0.6508444  3
   6753   6751   6755   6757     1  0.0000000  0.6508444  3
   6753   6751   6755   6776     1  0.0000000  0.6508444  3
   6754   6751   6755   6756     1  0.0000000  0.6508444  3
   6754   6751   6755   6757     1  0.0000000  0.6508444  3
   6754   6751   6755   6776     1  0.0000000  0.6508444  3
   6755   6756   6768   6769     1  0.0000000  0.6508444  3
   6755   6756   6768   6770     1  0.0000000  0.6508444  3
   6755   6757   6759   6761     1  0.0000000  0.6508444  3
   6755   6757   6759   6762     1  0.0000000  0.6508444  3
   6756   6755   6757   6758     1  0.0000000  0.6508444  3
   6756   6755   6757   6760     1  0.0000000  0.6508444  3
   6757   6755   6756   6766     1  0.0000000  0.6508444  3
   6757   6755   6756   6767     1  0.0000000  0.6508444  3
   6758   6757   6755   6776     1  0.0000000  0.6508444  3
   6758   6757   6759   6763     1  0.0000000  0.6508444  3
   6758   6757   6759   6761     1  0.0000000  0.6508444  3
   6758   6757   6759   6762     1  0.0000000  0.6508444  3
   6759   6757   6755   6776     1  0.0000000  0.6508444  3
   6759   6763   6764   6774     1  180.0000771  9.6232000  2
   6760   6757   6755   6776     1  0.0000000  0.6508444  3
   6760   6757   6759   6763     1  0.0000000  0.6508444  3
   6760   6757   6759   6761     1  0.0000000  0.6508444  3
   6760   6757   6759   6762     1  0.0000000  0.6508444  3
   6761   6759   6763   6764     1  180.0000771  0.0000000  2
   6761   6759   6763   6765     1  0.0000000  3.3472000  1
   6761   6759   6763   6765     1  0.0000000  0.0000000  2
   6761   6759   6763   6765     1  180.0000771  0.3347200  3
   6762   6759   6763   6764     1  180.0000771  0.0000000  2
   6762   6759   6763   6765     1  0.0000000  3.3472000  1
   6762   6759   6763   6765     1  0.0000000  0.0000000  2
   6762   6759   6763   6765     1  180.0000771  0.3347200  3
   6765   6763   6764   6774     1  0.0000000  7.9496000  1
   6765   6763   6764   6774     1  180.0000771  9.6232000  2
   6766   6756   6755   6776     1  0.0000000  0.6508444  3
   6766   6756   6768   6771     1  0.0000000  0.6508444  3
   6766   6756   6768   6769     1  0.0000000  0.6508444  3
   6766   6756   6768   6770     1  0.0000000  0.6508444  3
   6767   6756   6755   6776     1  0.0000000  0.6508444  3
   6767   6756   6768   6771     1  0.0000000  0.6508444  3
   6767   6756   6768   6769     1  0.0000000  0.6508444  3
   6767   6756   6768   6770     1  0.0000000  0.6508444  3
   6768   6756   6755   6776     1  0.0000000  0.6508444  3
   6768   6771   6773   6775     1  180.0000771  9.6232000  2
   6769   6768   6771   6772     1  0.0000000  3.3472000  1
   6769   6768   6771   6772     1  0.0000000  0.0000000  2
   6769   6768   6771   6772     1  180.0000771  0.3347200  3
   6769   6768   6771   6773     1  180.0000771  0.0000000  2
   6770   6768   6771   6772     1  0.0000000  3.3472000  1
   6770   6768   6771   6772     1  0.0000000  0.0000000  2
   6770   6768   6771   6772     1  180.0000771  0.3347200  3
   6770   6768   6771   6773     1  180.0000771  0.0000000  2
   6772   6771   6773   6775     1  0.0000000  7.9496000  1
   6772   6771   6773   6775     1  180.0000771  9.6232000  2
   6777   6779   6781   6783     1  0.0000000  0.6508444  3
   6777   6779   6781   6784     1  0.0000000  0.6508444  3
   6778   6777   6779   6781     1  0.0000000  0.0000000  2
   6778   6777   6779   6780     1  0.0000000  0.0000000  2
   6778   6777   6779   6782     1  0.0000000  0.0000000  2
   6779   6781   6785   6806     1  0.0000000  0.6508444  3
   6780   6779   6781   6785     1  0.0000000  0.6508444  3
   6780   6779   6781   6783     1  0.0000000  0.6508444  3
   6780   6779   6781   6784     1  0.0000000  0.6508444  3
   6781   6785   6786   6796     1  0.0000000  0.6508444  3
   6781   6785   6786   6797     1  0.0000000  0.6508444  3
   6781   6785   6787   6788     1  0.0000000  0.6508444  3
   6781   6785   6787   6790     1  0.0000000  0.6508444  3
   6782   6779   6781   6785     1  0.0000000  0.6508444  3
   6782   6779   6781   6783     1  0.0000000  0.6508444  3
   6782   6779   6781   6784     1  0.0000000  0.6508444  3
   6783   6781   6785   6786     1  0.0000000  0.6508444  3
   6783   6781   6785   6787     1  0.0000000  0.6508444  3
   6783   6781   6785   6806     1  0.0000000  0.6508444  3
   6784   6781   6785   6786     1  0.0000000  0.6508444  3
   6784   6781   6785   6787     1  0.0000000  0.6508444  3
   6784   6781   6785   6806     1  0.0000000  0.6508444  3
   6785   6786   6798   6799     1  0.0000000  0.6508444  3
   6785   6786   6798   6800     1  0.0000000  0.6508444  3
   6785   6787   6789   6791     1  0.0000000  0.6508444  3
   6785   6787   6789   6792     1  0.0000000  0.6508444  3
   6786   6785   6787   6788     1  0.0000000  0.6508444  3
   6786   6785   6787   6790     1  0.0000000  0.6508444  3
   6787   6785   6786   6796     1  0.0000000  0.6508444  3
   6787   6785   6786   6797     1  0.0000000  0.6508444  3
   6788   6787   6789   6793     1  0.0000000  0.6508444  3
   6788   6787   6789   6791     1  0.0000000  0.6508444  3
   6788   6787   6789   6792     1  0.0000000  0.6508444  3
   6788   6787   6785   6806     1  0.0000000  0.6508444  3
   6789   6793   6794   6804     1  180.0000771  9.6232000  2
   6789   6787   6785   6806     1  0.0000000  0.6508444  3
   6790   6787   6789   6793     1  0.0000000  0.6508444  3
   6790   6787   6789   6791     1  0.0000000  0.6508444  3
   6790   6787   6789   6792     1  0.0000000  0.6508444  3
   6790   6787   6785   6806     1  0.0000000  0.6508444  3
   6791   6789   6793   6794     1  180.0000771  0.0000000  2
   6791   6789   6793   6795     1  0.0000000  3.3472000  1
   6791   6789   6793   6795     1  0.0000000  0.0000000  2
   6791   6789   6793   6795     1  180.0000771  0.3347200  3
   6792   6789   6793   6794     1  180.0000771  0.0000000  2
   6792   6789   6793   6795     1  0.0000000  3.3472000  1
   6792   6789   6793   6795     1  0.0000000  0.0000000  2
   6792   6789   6793   6795     1  180.0000771  0.3347200  3
   6795   6793   6794   6804     1  0.0000000  7.9496000  1
   6795   6793   6794   6804     1  180.0000771  9.6232000  2
   6796   6786   6798   6801     1  0.0000000  0.6508444  3
   6796   6786   6798   6799     1  0.0000000  0.6508444  3
   6796   6786   6798   6800     1  0.0000000  0.6508444  3
   6796   6786   6785   6806     1  0.0000000  0.6508444  3
   6797   6786   6798   6801     1  0.0000000  0.6508444  3
   6797   6786   6798   6799     1  0.0000000  0.6508444  3
   6797   6786   6798   6800     1  0.0000000  0.6508444  3
   6797   6786   6785   6806     1  0.0000000  0.6508444  3
   6798   6801   6803   6805     1  180.0000771  9.6232000  2
   6798   6786   6785   6806     1  0.0000000  0.6508444  3
   6799   6798   6801   6802     1  0.0000000  3.3472000  1
   6799   6798   6801   6802     1  0.0000000  0.0000000  2
   6799   6798   6801   6802     1  180.0000771  0.3347200  3
   6799   6798   6801   6803     1  180.0000771  0.0000000  2
   6800   6798   6801   6802     1  0.0000000  3.3472000  1
   6800   6798   6801   6802     1  0.0000000  0.0000000  2
   6800   6798   6801   6802     1  180.0000771  0.3347200  3
   6800   6798   6801   6803     1  180.0000771  0.0000000  2
   6802   6801   6803   6805     1  0.0000000  7.9496000  1
   6802   6801   6803   6805     1  180.0000771  9.6232000  2
   6807   6809   6811   6813     1  0.0000000  0.6508444  3
   6807   6809   6811   6814     1  0.0000000  0.6508444  3
   6808   6807   6809   6811     1  0.0000000  0.0000000  2
   6808   6807   6809   6810     1  0.0000000  0.0000000  2
   6808   6807   6809   6812     1  0.0000000  0.0000000  2
   6809   6811   6815   6836     1  0.0000000  0.6508444  3
   6810   6809   6811   6815     1  0.0000000  0.6508444  3
   6810   6809   6811   6813     1  0.0000000  0.6508444  3
   6810   6809   6811   6814     1  0.0000000  0.6508444  3
   6811   6815   6816   6826     1  0.0000000  0.6508444  3
   6811   6815   6816   6827     1  0.0000000  0.6508444  3
   6811   6815   6817   6818     1  0.0000000  0.6508444  3
   6811   6815   6817   6820     1  0.0000000  0.6508444  3
   6812   6809   6811   6815     1  0.0000000  0.6508444  3
   6812   6809   6811   6813     1  0.0000000  0.6508444  3
   6812   6809   6811   6814     1  0.0000000  0.6508444  3
   6813   6811   6815   6816     1  0.0000000  0.6508444  3
   6813   6811   6815   6817     1  0.0000000  0.6508444  3
   6813   6811   6815   6836     1  0.0000000  0.6508444  3
   6814   6811   6815   6816     1  0.0000000  0.6508444  3
   6814   6811   6815   6817     1  0.0000000  0.6508444  3
   6814   6811   6815   6836     1  0.0000000  0.6508444  3
   6815   6816   6828   6829     1  0.0000000  0.6508444  3
   6815   6816   6828   6830     1  0.0000000  0.6508444  3
   6815   6817   6819   6821     1  0.0000000  0.6508444  3
   6815   6817   6819   6822     1  0.0000000  0.6508444  3
   6816   6815   6817   6818     1  0.0000000  0.6508444  3
   6816   6815   6817   6820     1  0.0000000  0.6508444  3
   6817   6815   6816   6826     1  0.0000000  0.6508444  3
   6817   6815   6816   6827     1  0.0000000  0.6508444  3
   6818   6817   6815   6836     1  0.0000000  0.6508444  3
   6818   6817   6819   6823     1  0.0000000  0.6508444  3
   6818   6817   6819   6821     1  0.0000000  0.6508444  3
   6818   6817   6819   6822     1  0.0000000  0.6508444  3
   6819   6817   6815   6836     1  0.0000000  0.6508444  3
   6819   6823   6824   6834     1  180.0000771  9.6232000  2
   6820   6817   6815   6836     1  0.0000000  0.6508444  3
   6820   6817   6819   6823     1  0.0000000  0.6508444  3
   6820   6817   6819   6821     1  0.0000000  0.6508444  3
   6820   6817   6819   6822     1  0.0000000  0.6508444  3
   6821   6819   6823   6824     1  180.0000771  0.0000000  2
   6821   6819   6823   6825     1  0.0000000  3.3472000  1
   6821   6819   6823   6825     1  0.0000000  0.0000000  2
   6821   6819   6823   6825     1  180.0000771  0.3347200  3
   6822   6819   6823   6824     1  180.0000771  0.0000000  2
   6822   6819   6823   6825     1  0.0000000  3.3472000  1
   6822   6819   6823   6825     1  0.0000000  0.0000000  2
   6822   6819   6823   6825     1  180.0000771  0.3347200  3
   6825   6823   6824   6834     1  0.0000000  7.9496000  1
   6825   6823   6824   6834     1  180.0000771  9.6232000  2
   6826   6816   6815   6836     1  0.0000000  0.6508444  3
   6826   6816   6828   6831     1  0.0000000  0.6508444  3
   6826   6816   6828   6829     1  0.0000000  0.6508444  3
   6826   6816   6828   6830     1  0.0000000  0.6508444  3
   6827   6816   6815   6836     1  0.0000000  0.6508444  3
   6827   6816   6828   6831     1  0.0000000  0.6508444  3
   6827   6816   6828   6829     1  0.0000000  0.6508444  3
   6827   6816   6828   6830     1  0.0000000  0.6508444  3
   6828   6816   6815   6836     1  0.0000000  0.6508444  3
   6828   6831   6833   6835     1  180.0000771  9.6232000  2
   6829   6828   6831   6832     1  0.0000000  3.3472000  1
   6829   6828   6831   6832     1  0.0000000  0.0000000  2
   6829   6828   6831   6832     1  180.0000771  0.3347200  3
   6829   6828   6831   6833     1  180.0000771  0.0000000  2
   6830   6828   6831   6832     1  0.0000000  3.3472000  1
   6830   6828   6831   6832     1  0.0000000  0.0000000  2
   6830   6828   6831   6832     1  180.0000771  0.3347200  3
   6830   6828   6831   6833     1  180.0000771  0.0000000  2
   6832   6831   6833   6835     1  0.0000000  7.9496000  1
   6832   6831   6833   6835     1  180.0000771  9.6232000  2
   6837   6839   6841   6843     1  0.0000000  0.6508444  3
   6837   6839   6841   6844     1  0.0000000  0.6508444  3
   6838   6837   6839   6841     1  0.0000000  0.0000000  2
   6838   6837   6839   6840     1  0.0000000  0.0000000  2
   6838   6837   6839   6842     1  0.0000000  0.0000000  2
   6839   6841   6845   6866     1  0.0000000  0.6508444  3
   6840   6839   6841   6845     1  0.0000000  0.6508444  3
   6840   6839   6841   6843     1  0.0000000  0.6508444  3
   6840   6839   6841   6844     1  0.0000000  0.6508444  3
   6841   6845   6846   6856     1  0.0000000  0.6508444  3
   6841   6845   6846   6857     1  0.0000000  0.6508444  3
   6841   6845   6847   6848     1  0.0000000  0.6508444  3
   6841   6845   6847   6850     1  0.0000000  0.6508444  3
   6842   6839   6841   6845     1  0.0000000  0.6508444  3
   6842   6839   6841   6843     1  0.0000000  0.6508444  3
   6842   6839   6841   6844     1  0.0000000  0.6508444  3
   6843   6841   6845   6846     1  0.0000000  0.6508444  3
   6843   6841   6845   6847     1  0.0000000  0.6508444  3
   6843   6841   6845   6866     1  0.0000000  0.6508444  3
   6844   6841   6845   6846     1  0.0000000  0.6508444  3
   6844   6841   6845   6847     1  0.0000000  0.6508444  3
   6844   6841   6845   6866     1  0.0000000  0.6508444  3
   6845   6846   6858   6859     1  0.0000000  0.6508444  3
   6845   6846   6858   6860     1  0.0000000  0.6508444  3
   6845   6847   6849   6851     1  0.0000000  0.6508444  3
   6845   6847   6849   6852     1  0.0000000  0.6508444  3
   6846   6845   6847   6848     1  0.0000000  0.6508444  3
   6846   6845   6847   6850     1  0.0000000  0.6508444  3
   6847   6845   6846   6856     1  0.0000000  0.6508444  3
   6847   6845   6846   6857     1  0.0000000  0.6508444  3
   6848   6847   6849   6853     1  0.0000000  0.6508444  3
   6848   6847   6849   6851     1  0.0000000  0.6508444  3
   6848   6847   6849   6852     1  0.0000000  0.6508444  3
   6848   6847   6845   6866     1  0.0000000  0.6508444  3
   6849   6853   6854   6864     1  180.0000771  9.6232000  2
   6849   6847   6845   6866     1  0.0000000  0.6508444  3
   6850   6847   6849   6853     1  0.0000000  0.6508444  3
   6850   6847   6849   6851     1  0.0000000  0.6508444  3
   6850   6847   6849   6852     1  0.0000000  0.6508444  3
   6850   6847   6845   6866     1  0.0000000  0.6508444  3
   6851   6849   6853   6854     1  180.0000771  0.0000000  2
   6851   6849   6853   6855     1  0.0000000  3.3472000  1
   6851   6849   6853   6855     1  0.0000000  0.0000000  2
   6851   6849   6853   6855     1  180.0000771  0.3347200  3
   6852   6849   6853   6854     1  180.0000771  0.0000000  2
   6852   6849   6853   6855     1  0.0000000  3.3472000  1
   6852   6849   6853   6855     1  0.0000000  0.0000000  2
   6852   6849   6853   6855     1  180.0000771  0.3347200  3
   6855   6853   6854   6864     1  0.0000000  7.9496000  1
   6855   6853   6854   6864     1  180.0000771  9.6232000  2
   6856   6846   6858   6861     1  0.0000000  0.6508444  3
   6856   6846   6858   6859     1  0.0000000  0.6508444  3
   6856   6846   6858   6860     1  0.0000000  0.6508444  3
   6856   6846   6845   6866     1  0.0000000  0.6508444  3
   6857   6846   6858   6861     1  0.0000000  0.6508444  3
   6857   6846   6858   6859     1  0.0000000  0.6508444  3
   6857   6846   6858   6860     1  0.0000000  0.6508444  3
   6857   6846   6845   6866     1  0.0000000  0.6508444  3
   6858   6861   6863   6865     1  180.0000771  9.6232000  2
   6858   6846   6845   6866     1  0.0000000  0.6508444  3
   6859   6858   6861   6862     1  0.0000000  3.3472000  1
   6859   6858   6861   6862     1  0.0000000  0.0000000  2
   6859   6858   6861   6862     1  180.0000771  0.3347200  3
   6859   6858   6861   6863     1  180.0000771  0.0000000  2
   6860   6858   6861   6862     1  0.0000000  3.3472000  1
   6860   6858   6861   6862     1  0.0000000  0.0000000  2
   6860   6858   6861   6862     1  180.0000771  0.3347200  3
   6860   6858   6861   6863     1  180.0000771  0.0000000  2
   6862   6861   6863   6865     1  0.0000000  7.9496000  1
   6862   6861   6863   6865     1  180.0000771  9.6232000  2
   6867   6869   6871   6873     1  0.0000000  0.6508444  3
   6867   6869   6871   6874     1  0.0000000  0.6508444  3
   6868   6867   6869   6871     1  0.0000000  0.0000000  2
   6868   6867   6869   6870     1  0.0000000  0.0000000  2
   6868   6867   6869   6872     1  0.0000000  0.0000000  2
   6869   6871   6875   6896     1  0.0000000  0.6508444  3
   6870   6869   6871   6875     1  0.0000000  0.6508444  3
   6870   6869   6871   6873     1  0.0000000  0.6508444  3
   6870   6869   6871   6874     1  0.0000000  0.6508444  3
   6871   6875   6876   6886     1  0.0000000  0.6508444  3
   6871   6875   6876   6887     1  0.0000000  0.6508444  3
   6871   6875   6877   6878     1  0.0000000  0.6508444  3
   6871   6875   6877   6880     1  0.0000000  0.6508444  3
   6872   6869   6871   6875     1  0.0000000  0.6508444  3
   6872   6869   6871   6873     1  0.0000000  0.6508444  3
   6872   6869   6871   6874     1  0.0000000  0.6508444  3
   6873   6871   6875   6876     1  0.0000000  0.6508444  3
   6873   6871   6875   6877     1  0.0000000  0.6508444  3
   6873   6871   6875   6896     1  0.0000000  0.6508444  3
   6874   6871   6875   6876     1  0.0000000  0.6508444  3
   6874   6871   6875   6877     1  0.0000000  0.6508444  3
   6874   6871   6875   6896     1  0.0000000  0.6508444  3
   6875   6876   6888   6889     1  0.0000000  0.6508444  3
   6875   6876   6888   6890     1  0.0000000  0.6508444  3
   6875   6877   6879   6881     1  0.0000000  0.6508444  3
   6875   6877   6879   6882     1  0.0000000  0.6508444  3
   6876   6875   6877   6878     1  0.0000000  0.6508444  3
   6876   6875   6877   6880     1  0.0000000  0.6508444  3
   6877   6875   6876   6886     1  0.0000000  0.6508444  3
   6877   6875   6876   6887     1  0.0000000  0.6508444  3
   6878   6877   6875   6896     1  0.0000000  0.6508444  3
   6878   6877   6879   6883     1  0.0000000  0.6508444  3
   6878   6877   6879   6881     1  0.0000000  0.6508444  3
   6878   6877   6879   6882     1  0.0000000  0.6508444  3
   6879   6877   6875   6896     1  0.0000000  0.6508444  3
   6879   6883   6884   6894     1  180.0000771  9.6232000  2
   6880   6877   6875   6896     1  0.0000000  0.6508444  3
   6880   6877   6879   6883     1  0.0000000  0.6508444  3
   6880   6877   6879   6881     1  0.0000000  0.6508444  3
   6880   6877   6879   6882     1  0.0000000  0.6508444  3
   6881   6879   6883   6884     1  180.0000771  0.0000000  2
   6881   6879   6883   6885     1  0.0000000  3.3472000  1
   6881   6879   6883   6885     1  0.0000000  0.0000000  2
   6881   6879   6883   6885     1  180.0000771  0.3347200  3
   6882   6879   6883   6884     1  180.0000771  0.0000000  2
   6882   6879   6883   6885     1  0.0000000  3.3472000  1
   6882   6879   6883   6885     1  0.0000000  0.0000000  2
   6882   6879   6883   6885     1  180.0000771  0.3347200  3
   6885   6883   6884   6894     1  0.0000000  7.9496000  1
   6885   6883   6884   6894     1  180.0000771  9.6232000  2
   6886   6876   6875   6896     1  0.0000000  0.6508444  3
   6886   6876   6888   6891     1  0.0000000  0.6508444  3
   6886   6876   6888   6889     1  0.0000000  0.6508444  3
   6886   6876   6888   6890     1  0.0000000  0.6508444  3
   6887   6876   6875   6896     1  0.0000000  0.6508444  3
   6887   6876   6888   6891     1  0.0000000  0.6508444  3
   6887   6876   6888   6889     1  0.0000000  0.6508444  3
   6887   6876   6888   6890     1  0.0000000  0.6508444  3
   6888   6876   6875   6896     1  0.0000000  0.6508444  3
   6888   6891   6893   6895     1  180.0000771  9.6232000  2
   6889   6888   6891   6892     1  0.0000000  3.3472000  1
   6889   6888   6891   6892     1  0.0000000  0.0000000  2
   6889   6888   6891   6892     1  180.0000771  0.3347200  3
   6889   6888   6891   6893     1  180.0000771  0.0000000  2
   6890   6888   6891   6892     1  0.0000000  3.3472000  1
   6890   6888   6891   6892     1  0.0000000  0.0000000  2
   6890   6888   6891   6892     1  180.0000771  0.3347200  3
   6890   6888   6891   6893     1  180.0000771  0.0000000  2
   6892   6891   6893   6895     1  0.0000000  7.9496000  1
   6892   6891   6893   6895     1  180.0000771  9.6232000  2
   6897   6899   6901   6903     1  0.0000000  0.6508444  3
   6897   6899   6901   6904     1  0.0000000  0.6508444  3
   6898   6897   6899   6901     1  0.0000000  0.0000000  2
   6898   6897   6899   6900     1  0.0000000  0.0000000  2
   6898   6897   6899   6902     1  0.0000000  0.0000000  2
   6899   6901   6905   6926     1  0.0000000  0.6508444  3
   6900   6899   6901   6905     1  0.0000000  0.6508444  3
   6900   6899   6901   6903     1  0.0000000  0.6508444  3
   6900   6899   6901   6904     1  0.0000000  0.6508444  3
   6901   6905   6906   6916     1  0.0000000  0.6508444  3
   6901   6905   6906   6917     1  0.0000000  0.6508444  3
   6901   6905   6907   6908     1  0.0000000  0.6508444  3
   6901   6905   6907   6910     1  0.0000000  0.6508444  3
   6902   6899   6901   6905     1  0.0000000  0.6508444  3
   6902   6899   6901   6903     1  0.0000000  0.6508444  3
   6902   6899   6901   6904     1  0.0000000  0.6508444  3
   6903   6901   6905   6906     1  0.0000000  0.6508444  3
   6903   6901   6905   6907     1  0.0000000  0.6508444  3
   6903   6901   6905   6926     1  0.0000000  0.6508444  3
   6904   6901   6905   6906     1  0.0000000  0.6508444  3
   6904   6901   6905   6907     1  0.0000000  0.6508444  3
   6904   6901   6905   6926     1  0.0000000  0.6508444  3
   6905   6906   6918   6919     1  0.0000000  0.6508444  3
   6905   6906   6918   6920     1  0.0000000  0.6508444  3
   6905   6907   6909   6911     1  0.0000000  0.6508444  3
   6905   6907   6909   6912     1  0.0000000  0.6508444  3
   6906   6905   6907   6908     1  0.0000000  0.6508444  3
   6906   6905   6907   6910     1  0.0000000  0.6508444  3
   6907   6905   6906   6916     1  0.0000000  0.6508444  3
   6907   6905   6906   6917     1  0.0000000  0.6508444  3
   6908   6907   6909   6913     1  0.0000000  0.6508444  3
   6908   6907   6909   6911     1  0.0000000  0.6508444  3
   6908   6907   6909   6912     1  0.0000000  0.6508444  3
   6908   6907   6905   6926     1  0.0000000  0.6508444  3
   6909   6913   6914   6924     1  180.0000771  9.6232000  2
   6909   6907   6905   6926     1  0.0000000  0.6508444  3
   6910   6907   6909   6913     1  0.0000000  0.6508444  3
   6910   6907   6909   6911     1  0.0000000  0.6508444  3
   6910   6907   6909   6912     1  0.0000000  0.6508444  3
   6910   6907   6905   6926     1  0.0000000  0.6508444  3
   6911   6909   6913   6914     1  180.0000771  0.0000000  2
   6911   6909   6913   6915     1  0.0000000  3.3472000  1
   6911   6909   6913   6915     1  0.0000000  0.0000000  2
   6911   6909   6913   6915     1  180.0000771  0.3347200  3
   6912   6909   6913   6914     1  180.0000771  0.0000000  2
   6912   6909   6913   6915     1  0.0000000  3.3472000  1
   6912   6909   6913   6915     1  0.0000000  0.0000000  2
   6912   6909   6913   6915     1  180.0000771  0.3347200  3
   6915   6913   6914   6924     1  0.0000000  7.9496000  1
   6915   6913   6914   6924     1  180.0000771  9.6232000  2
   6916   6906   6918   6921     1  0.0000000  0.6508444  3
   6916   6906   6918   6919     1  0.0000000  0.6508444  3
   6916   6906   6918   6920     1  0.0000000  0.6508444  3
   6916   6906   6905   6926     1  0.0000000  0.6508444  3
   6917   6906   6918   6921     1  0.0000000  0.6508444  3
   6917   6906   6918   6919     1  0.0000000  0.6508444  3
   6917   6906   6918   6920     1  0.0000000  0.6508444  3
   6917   6906   6905   6926     1  0.0000000  0.6508444  3
   6918   6921   6923   6925     1  180.0000771  9.6232000  2
   6918   6906   6905   6926     1  0.0000000  0.6508444  3
   6919   6918   6921   6922     1  0.0000000  3.3472000  1
   6919   6918   6921   6922     1  0.0000000  0.0000000  2
   6919   6918   6921   6922     1  180.0000771  0.3347200  3
   6919   6918   6921   6923     1  180.0000771  0.0000000  2
   6920   6918   6921   6922     1  0.0000000  3.3472000  1
   6920   6918   6921   6922     1  0.0000000  0.0000000  2
   6920   6918   6921   6922     1  180.0000771  0.3347200  3
   6920   6918   6921   6923     1  180.0000771  0.0000000  2
   6922   6921   6923   6925     1  0.0000000  7.9496000  1
   6922   6921   6923   6925     1  180.0000771  9.6232000  2
   6927   6929   6931   6933     1  0.0000000  0.6508444  3
   6927   6929   6931   6934     1  0.0000000  0.6508444  3
   6928   6927   6929   6931     1  0.0000000  0.0000000  2
   6928   6927   6929   6930     1  0.0000000  0.0000000  2
   6928   6927   6929   6932     1  0.0000000  0.0000000  2
   6929   6931   6935   6956     1  0.0000000  0.6508444  3
   6930   6929   6931   6935     1  0.0000000  0.6508444  3
   6930   6929   6931   6933     1  0.0000000  0.6508444  3
   6930   6929   6931   6934     1  0.0000000  0.6508444  3
   6931   6935   6936   6946     1  0.0000000  0.6508444  3
   6931   6935   6936   6947     1  0.0000000  0.6508444  3
   6931   6935   6937   6938     1  0.0000000  0.6508444  3
   6931   6935   6937   6940     1  0.0000000  0.6508444  3
   6932   6929   6931   6935     1  0.0000000  0.6508444  3
   6932   6929   6931   6933     1  0.0000000  0.6508444  3
   6932   6929   6931   6934     1  0.0000000  0.6508444  3
   6933   6931   6935   6936     1  0.0000000  0.6508444  3
   6933   6931   6935   6937     1  0.0000000  0.6508444  3
   6933   6931   6935   6956     1  0.0000000  0.6508444  3
   6934   6931   6935   6936     1  0.0000000  0.6508444  3
   6934   6931   6935   6937     1  0.0000000  0.6508444  3
   6934   6931   6935   6956     1  0.0000000  0.6508444  3
   6935   6936   6948   6949     1  0.0000000  0.6508444  3
   6935   6936   6948   6950     1  0.0000000  0.6508444  3
   6935   6937   6939   6941     1  0.0000000  0.6508444  3
   6935   6937   6939   6942     1  0.0000000  0.6508444  3
   6936   6935   6937   6938     1  0.0000000  0.6508444  3
   6936   6935   6937   6940     1  0.0000000  0.6508444  3
   6937   6935   6936   6946     1  0.0000000  0.6508444  3
   6937   6935   6936   6947     1  0.0000000  0.6508444  3
   6938   6937   6935   6956     1  0.0000000  0.6508444  3
   6938   6937   6939   6943     1  0.0000000  0.6508444  3
   6938   6937   6939   6941     1  0.0000000  0.6508444  3
   6938   6937   6939   6942     1  0.0000000  0.6508444  3
   6939   6937   6935   6956     1  0.0000000  0.6508444  3
   6939   6943   6944   6954     1  180.0000771  9.6232000  2
   6940   6937   6935   6956     1  0.0000000  0.6508444  3
   6940   6937   6939   6943     1  0.0000000  0.6508444  3
   6940   6937   6939   6941     1  0.0000000  0.6508444  3
   6940   6937   6939   6942     1  0.0000000  0.6508444  3
   6941   6939   6943   6944     1  180.0000771  0.0000000  2
   6941   6939   6943   6945     1  0.0000000  3.3472000  1
   6941   6939   6943   6945     1  0.0000000  0.0000000  2
   6941   6939   6943   6945     1  180.0000771  0.3347200  3
   6942   6939   6943   6944     1  180.0000771  0.0000000  2
   6942   6939   6943   6945     1  0.0000000  3.3472000  1
   6942   6939   6943   6945     1  0.0000000  0.0000000  2
   6942   6939   6943   6945     1  180.0000771  0.3347200  3
   6945   6943   6944   6954     1  0.0000000  7.9496000  1
   6945   6943   6944   6954     1  180.0000771  9.6232000  2
   6946   6936   6935   6956     1  0.0000000  0.6508444  3
   6946   6936   6948   6951     1  0.0000000  0.6508444  3
   6946   6936   6948   6949     1  0.0000000  0.6508444  3
   6946   6936   6948   6950     1  0.0000000  0.6508444  3
   6947   6936   6935   6956     1  0.0000000  0.6508444  3
   6947   6936   6948   6951     1  0.0000000  0.6508444  3
   6947   6936   6948   6949     1  0.0000000  0.6508444  3
   6947   6936   6948   6950     1  0.0000000  0.6508444  3
   6948   6936   6935   6956     1  0.0000000  0.6508444  3
   6948   6951   6953   6955     1  180.0000771  9.6232000  2
   6949   6948   6951   6952     1  0.0000000  3.3472000  1
   6949   6948   6951   6952     1  0.0000000  0.0000000  2
   6949   6948   6951   6952     1  180.0000771  0.3347200  3
   6949   6948   6951   6953     1  180.0000771  0.0000000  2
   6950   6948   6951   6952     1  0.0000000  3.3472000  1
   6950   6948   6951   6952     1  0.0000000  0.0000000  2
   6950   6948   6951   6952     1  180.0000771  0.3347200  3
   6950   6948   6951   6953     1  180.0000771  0.0000000  2
   6952   6951   6953   6955     1  0.0000000  7.9496000  1
   6952   6951   6953   6955     1  180.0000771  9.6232000  2
   6957   6959   6961   6963     1  0.0000000  0.6508444  3
   6957   6959   6961   6964     1  0.0000000  0.6508444  3
   6958   6957   6959   6961     1  0.0000000  0.0000000  2
   6958   6957   6959   6960     1  0.0000000  0.0000000  2
   6958   6957   6959   6962     1  0.0000000  0.0000000  2
   6959   6961   6965   6986     1  0.0000000  0.6508444  3
   6960   6959   6961   6965     1  0.0000000  0.6508444  3
   6960   6959   6961   6963     1  0.0000000  0.6508444  3
   6960   6959   6961   6964     1  0.0000000  0.6508444  3
   6961   6965   6966   6976     1  0.0000000  0.6508444  3
   6961   6965   6966   6977     1  0.0000000  0.6508444  3
   6961   6965   6967   6968     1  0.0000000  0.6508444  3
   6961   6965   6967   6970     1  0.0000000  0.6508444  3
   6962   6959   6961   6965     1  0.0000000  0.6508444  3
   6962   6959   6961   6963     1  0.0000000  0.6508444  3
   6962   6959   6961   6964     1  0.0000000  0.6508444  3
   6963   6961   6965   6966     1  0.0000000  0.6508444  3
   6963   6961   6965   6967     1  0.0000000  0.6508444  3
   6963   6961   6965   6986     1  0.0000000  0.6508444  3
   6964   6961   6965   6966     1  0.0000000  0.6508444  3
   6964   6961   6965   6967     1  0.0000000  0.6508444  3
   6964   6961   6965   6986     1  0.0000000  0.6508444  3
   6965   6966   6978   6979     1  0.0000000  0.6508444  3
   6965   6966   6978   6980     1  0.0000000  0.6508444  3
   6965   6967   6969   6971     1  0.0000000  0.6508444  3
   6965   6967   6969   6972     1  0.0000000  0.6508444  3
   6966   6965   6967   6968     1  0.0000000  0.6508444  3
   6966   6965   6967   6970     1  0.0000000  0.6508444  3
   6967   6965   6966   6976     1  0.0000000  0.6508444  3
   6967   6965   6966   6977     1  0.0000000  0.6508444  3
   6968   6967   6969   6973     1  0.0000000  0.6508444  3
   6968   6967   6969   6971     1  0.0000000  0.6508444  3
   6968   6967   6969   6972     1  0.0000000  0.6508444  3
   6968   6967   6965   6986     1  0.0000000  0.6508444  3
   6969   6973   6974   6984     1  180.0000771  9.6232000  2
   6969   6967   6965   6986     1  0.0000000  0.6508444  3
   6970   6967   6969   6973     1  0.0000000  0.6508444  3
   6970   6967   6969   6971     1  0.0000000  0.6508444  3
   6970   6967   6969   6972     1  0.0000000  0.6508444  3
   6970   6967   6965   6986     1  0.0000000  0.6508444  3
   6971   6969   6973   6974     1  180.0000771  0.0000000  2
   6971   6969   6973   6975     1  0.0000000  3.3472000  1
   6971   6969   6973   6975     1  0.0000000  0.0000000  2
   6971   6969   6973   6975     1  180.0000771  0.3347200  3
   6972   6969   6973   6974     1  180.0000771  0.0000000  2
   6972   6969   6973   6975     1  0.0000000  3.3472000  1
   6972   6969   6973   6975     1  0.0000000  0.0000000  2
   6972   6969   6973   6975     1  180.0000771  0.3347200  3
   6975   6973   6974   6984     1  0.0000000  7.9496000  1
   6975   6973   6974   6984     1  180.0000771  9.6232000  2
   6976   6966   6978   6981     1  0.0000000  0.6508444  3
   6976   6966   6978   6979     1  0.0000000  0.6508444  3
   6976   6966   6978   6980     1  0.0000000  0.6508444  3
   6976   6966   6965   6986     1  0.0000000  0.6508444  3
   6977   6966   6978   6981     1  0.0000000  0.6508444  3
   6977   6966   6978   6979     1  0.0000000  0.6508444  3
   6977   6966   6978   6980     1  0.0000000  0.6508444  3
   6977   6966   6965   6986     1  0.0000000  0.6508444  3
   6978   6981   6983   6985     1  180.0000771  9.6232000  2
   6978   6966   6965   6986     1  0.0000000  0.6508444  3
   6979   6978   6981   6982     1  0.0000000  3.3472000  1
   6979   6978   6981   6982     1  0.0000000  0.0000000  2
   6979   6978   6981   6982     1  180.0000771  0.3347200  3
   6979   6978   6981   6983     1  180.0000771  0.0000000  2
   6980   6978   6981   6982     1  0.0000000  3.3472000  1
   6980   6978   6981   6982     1  0.0000000  0.0000000  2
   6980   6978   6981   6982     1  180.0000771  0.3347200  3
   6980   6978   6981   6983     1  180.0000771  0.0000000  2
   6982   6981   6983   6985     1  0.0000000  7.9496000  1
   6982   6981   6983   6985     1  180.0000771  9.6232000  2
   6987   6989   6991   6993     1  0.0000000  0.6508444  3
   6987   6989   6991   6994     1  0.0000000  0.6508444  3
   6988   6987   6989   6991     1  0.0000000  0.0000000  2
   6988   6987   6989   6990     1  0.0000000  0.0000000  2
   6988   6987   6989   6992     1  0.0000000  0.0000000  2
   6989   6991   6995   7016     1  0.0000000  0.6508444  3
   6990   6989   6991   6995     1  0.0000000  0.6508444  3
   6990   6989   6991   6993     1  0.0000000  0.6508444  3
   6990   6989   6991   6994     1  0.0000000  0.6508444  3
   6991   6995   6996   7006     1  0.0000000  0.6508444  3
   6991   6995   6996   7007     1  0.0000000  0.6508444  3
   6991   6995   6997   6998     1  0.0000000  0.6508444  3
   6991   6995   6997   7000     1  0.0000000  0.6508444  3
   6992   6989   6991   6995     1  0.0000000  0.6508444  3
   6992   6989   6991   6993     1  0.0000000  0.6508444  3
   6992   6989   6991   6994     1  0.0000000  0.6508444  3
   6993   6991   6995   6996     1  0.0000000  0.6508444  3
   6993   6991   6995   6997     1  0.0000000  0.6508444  3
   6993   6991   6995   7016     1  0.0000000  0.6508444  3
   6994   6991   6995   6996     1  0.0000000  0.6508444  3
   6994   6991   6995   6997     1  0.0000000  0.6508444  3
   6994   6991   6995   7016     1  0.0000000  0.6508444  3
   6995   6996   7008   7009     1  0.0000000  0.6508444  3
   6995   6996   7008   7010     1  0.0000000  0.6508444  3
   6995   6997   6999   7001     1  0.0000000  0.6508444  3
   6995   6997   6999   7002     1  0.0000000  0.6508444  3
   6996   6995   6997   6998     1  0.0000000  0.6508444  3
   6996   6995   6997   7000     1  0.0000000  0.6508444  3
   6997   6995   6996   7006     1  0.0000000  0.6508444  3
   6997   6995   6996   7007     1  0.0000000  0.6508444  3
   6998   6997   6995   7016     1  0.0000000  0.6508444  3
   6998   6997   6999   7003     1  0.0000000  0.6508444  3
   6998   6997   6999   7001     1  0.0000000  0.6508444  3
   6998   6997   6999   7002     1  0.0000000  0.6508444  3
   6999   6997   6995   7016     1  0.0000000  0.6508444  3
   6999   7003   7004   7014     1  180.0000771  9.6232000  2
   7000   6997   6995   7016     1  0.0000000  0.6508444  3
   7000   6997   6999   7003     1  0.0000000  0.6508444  3
   7000   6997   6999   7001     1  0.0000000  0.6508444  3
   7000   6997   6999   7002     1  0.0000000  0.6508444  3
   7001   6999   7003   7004     1  180.0000771  0.0000000  2
   7001   6999   7003   7005     1  0.0000000  3.3472000  1
   7001   6999   7003   7005     1  0.0000000  0.0000000  2
   7001   6999   7003   7005     1  180.0000771  0.3347200  3
   7002   6999   7003   7004     1  180.0000771  0.0000000  2
   7002   6999   7003   7005     1  0.0000000  3.3472000  1
   7002   6999   7003   7005     1  0.0000000  0.0000000  2
   7002   6999   7003   7005     1  180.0000771  0.3347200  3
   7005   7003   7004   7014     1  0.0000000  7.9496000  1
   7005   7003   7004   7014     1  180.0000771  9.6232000  2
   7006   6996   6995   7016     1  0.0000000  0.6508444  3
   7006   6996   7008   7011     1  0.0000000  0.6508444  3
   7006   6996   7008   7009     1  0.0000000  0.6508444  3
   7006   6996   7008   7010     1  0.0000000  0.6508444  3
   7007   6996   6995   7016     1  0.0000000  0.6508444  3
   7007   6996   7008   7011     1  0.0000000  0.6508444  3
   7007   6996   7008   7009     1  0.0000000  0.6508444  3
   7007   6996   7008   7010     1  0.0000000  0.6508444  3
   7008   6996   6995   7016     1  0.0000000  0.6508444  3
   7008   7011   7013   7015     1  180.0000771  9.6232000  2
   7009   7008   7011   7012     1  0.0000000  3.3472000  1
   7009   7008   7011   7012     1  0.0000000  0.0000000  2
   7009   7008   7011   7012     1  180.0000771  0.3347200  3
   7009   7008   7011   7013     1  180.0000771  0.0000000  2
   7010   7008   7011   7012     1  0.0000000  3.3472000  1
   7010   7008   7011   7012     1  0.0000000  0.0000000  2
   7010   7008   7011   7012     1  180.0000771  0.3347200  3
   7010   7008   7011   7013     1  180.0000771  0.0000000  2
   7012   7011   7013   7015     1  0.0000000  7.9496000  1
   7012   7011   7013   7015     1  180.0000771  9.6232000  2
   7017   7019   7021   7023     1  0.0000000  0.6508444  3
   7017   7019   7021   7024     1  0.0000000  0.6508444  3
   7018   7017   7019   7021     1  0.0000000  0.0000000  2
   7018   7017   7019   7020     1  0.0000000  0.0000000  2
   7018   7017   7019   7022     1  0.0000000  0.0000000  2
   7019   7021   7025   7046     1  0.0000000  0.6508444  3
   7020   7019   7021   7025     1  0.0000000  0.6508444  3
   7020   7019   7021   7023     1  0.0000000  0.6508444  3
   7020   7019   7021   7024     1  0.0000000  0.6508444  3
   7021   7025   7026   7036     1  0.0000000  0.6508444  3
   7021   7025   7026   7037     1  0.0000000  0.6508444  3
   7021   7025   7027   7028     1  0.0000000  0.6508444  3
   7021   7025   7027   7030     1  0.0000000  0.6508444  3
   7022   7019   7021   7025     1  0.0000000  0.6508444  3
   7022   7019   7021   7023     1  0.0000000  0.6508444  3
   7022   7019   7021   7024     1  0.0000000  0.6508444  3
   7023   7021   7025   7026     1  0.0000000  0.6508444  3
   7023   7021   7025   7027     1  0.0000000  0.6508444  3
   7023   7021   7025   7046     1  0.0000000  0.6508444  3
   7024   7021   7025   7026     1  0.0000000  0.6508444  3
   7024   7021   7025   7027     1  0.0000000  0.6508444  3
   7024   7021   7025   7046     1  0.0000000  0.6508444  3
   7025   7026   7038   7039     1  0.0000000  0.6508444  3
   7025   7026   7038   7040     1  0.0000000  0.6508444  3
   7025   7027   7029   7031     1  0.0000000  0.6508444  3
   7025   7027   7029   7032     1  0.0000000  0.6508444  3
   7026   7025   7027   7028     1  0.0000000  0.6508444  3
   7026   7025   7027   7030     1  0.0000000  0.6508444  3
   7027   7025   7026   7036     1  0.0000000  0.6508444  3
   7027   7025   7026   7037     1  0.0000000  0.6508444  3
   7028   7027   7029   7033     1  0.0000000  0.6508444  3
   7028   7027   7029   7031     1  0.0000000  0.6508444  3
   7028   7027   7029   7032     1  0.0000000  0.6508444  3
   7028   7027   7025   7046     1  0.0000000  0.6508444  3
   7029   7033   7034   7044     1  180.0000771  9.6232000  2
   7029   7027   7025   7046     1  0.0000000  0.6508444  3
   7030   7027   7029   7033     1  0.0000000  0.6508444  3
   7030   7027   7029   7031     1  0.0000000  0.6508444  3
   7030   7027   7029   7032     1  0.0000000  0.6508444  3
   7030   7027   7025   7046     1  0.0000000  0.6508444  3
   7031   7029   7033   7034     1  180.0000771  0.0000000  2
   7031   7029   7033   7035     1  0.0000000  3.3472000  1
   7031   7029   7033   7035     1  0.0000000  0.0000000  2
   7031   7029   7033   7035     1  180.0000771  0.3347200  3
   7032   7029   7033   7034     1  180.0000771  0.0000000  2
   7032   7029   7033   7035     1  0.0000000  3.3472000  1
   7032   7029   7033   7035     1  0.0000000  0.0000000  2
   7032   7029   7033   7035     1  180.0000771  0.3347200  3
   7035   7033   7034   7044     1  0.0000000  7.9496000  1
   7035   7033   7034   7044     1  180.0000771  9.6232000  2
   7036   7026   7038   7041     1  0.0000000  0.6508444  3
   7036   7026   7038   7039     1  0.0000000  0.6508444  3
   7036   7026   7038   7040     1  0.0000000  0.6508444  3
   7036   7026   7025   7046     1  0.0000000  0.6508444  3
   7037   7026   7038   7041     1  0.0000000  0.6508444  3
   7037   7026   7038   7039     1  0.0000000  0.6508444  3
   7037   7026   7038   7040     1  0.0000000  0.6508444  3
   7037   7026   7025   7046     1  0.0000000  0.6508444  3
   7038   7041   7043   7045     1  180.0000771  9.6232000  2
   7038   7026   7025   7046     1  0.0000000  0.6508444  3
   7039   7038   7041   7042     1  0.0000000  3.3472000  1
   7039   7038   7041   7042     1  0.0000000  0.0000000  2
   7039   7038   7041   7042     1  180.0000771  0.3347200  3
   7039   7038   7041   7043     1  180.0000771  0.0000000  2
   7040   7038   7041   7042     1  0.0000000  3.3472000  1
   7040   7038   7041   7042     1  0.0000000  0.0000000  2
   7040   7038   7041   7042     1  180.0000771  0.3347200  3
   7040   7038   7041   7043     1  180.0000771  0.0000000  2
   7042   7041   7043   7045     1  0.0000000  7.9496000  1
   7042   7041   7043   7045     1  180.0000771  9.6232000  2
   7047   7049   7051   7053     1  0.0000000  0.6508444  3
   7047   7049   7051   7054     1  0.0000000  0.6508444  3
   7048   7047   7049   7051     1  0.0000000  0.0000000  2
   7048   7047   7049   7050     1  0.0000000  0.0000000  2
   7048   7047   7049   7052     1  0.0000000  0.0000000  2
   7049   7051   7055   7076     1  0.0000000  0.6508444  3
   7050   7049   7051   7055     1  0.0000000  0.6508444  3
   7050   7049   7051   7053     1  0.0000000  0.6508444  3
   7050   7049   7051   7054     1  0.0000000  0.6508444  3
   7051   7055   7056   7066     1  0.0000000  0.6508444  3
   7051   7055   7056   7067     1  0.0000000  0.6508444  3
   7051   7055   7057   7058     1  0.0000000  0.6508444  3
   7051   7055   7057   7060     1  0.0000000  0.6508444  3
   7052   7049   7051   7055     1  0.0000000  0.6508444  3
   7052   7049   7051   7053     1  0.0000000  0.6508444  3
   7052   7049   7051   7054     1  0.0000000  0.6508444  3
   7053   7051   7055   7056     1  0.0000000  0.6508444  3
   7053   7051   7055   7057     1  0.0000000  0.6508444  3
   7053   7051   7055   7076     1  0.0000000  0.6508444  3
   7054   7051   7055   7056     1  0.0000000  0.6508444  3
   7054   7051   7055   7057     1  0.0000000  0.6508444  3
   7054   7051   7055   7076     1  0.0000000  0.6508444  3
   7055   7056   7068   7069     1  0.0000000  0.6508444  3
   7055   7056   7068   7070     1  0.0000000  0.6508444  3
   7055   7057   7059   7061     1  0.0000000  0.6508444  3
   7055   7057   7059   7062     1  0.0000000  0.6508444  3
   7056   7055   7057   7058     1  0.0000000  0.6508444  3
   7056   7055   7057   7060     1  0.0000000  0.6508444  3
   7057   7055   7056   7066     1  0.0000000  0.6508444  3
   7057   7055   7056   7067     1  0.0000000  0.6508444  3
   7058   7057   7055   7076     1  0.0000000  0.6508444  3
   7058   7057   7059   7063     1  0.0000000  0.6508444  3
   7058   7057   7059   7061     1  0.0000000  0.6508444  3
   7058   7057   7059   7062     1  0.0000000  0.6508444  3
   7059   7057   7055   7076     1  0.0000000  0.6508444  3
   7059   7063   7064   7074     1  180.0000771  9.6232000  2
   7060   7057   7055   7076     1  0.0000000  0.6508444  3
   7060   7057   7059   7063     1  0.0000000  0.6508444  3
   7060   7057   7059   7061     1  0.0000000  0.6508444  3
   7060   7057   7059   7062     1  0.0000000  0.6508444  3
   7061   7059   7063   7064     1  180.0000771  0.0000000  2
   7061   7059   7063   7065     1  0.0000000  3.3472000  1
   7061   7059   7063   7065     1  0.0000000  0.0000000  2
   7061   7059   7063   7065     1  180.0000771  0.3347200  3
   7062   7059   7063   7064     1  180.0000771  0.0000000  2
   7062   7059   7063   7065     1  0.0000000  3.3472000  1
   7062   7059   7063   7065     1  0.0000000  0.0000000  2
   7062   7059   7063   7065     1  180.0000771  0.3347200  3
   7065   7063   7064   7074     1  0.0000000  7.9496000  1
   7065   7063   7064   7074     1  180.0000771  9.6232000  2
   7066   7056   7055   7076     1  0.0000000  0.6508444  3
   7066   7056   7068   7071     1  0.0000000  0.6508444  3
   7066   7056   7068   7069     1  0.0000000  0.6508444  3
   7066   7056   7068   7070     1  0.0000000  0.6508444  3
   7067   7056   7055   7076     1  0.0000000  0.6508444  3
   7067   7056   7068   7071     1  0.0000000  0.6508444  3
   7067   7056   7068   7069     1  0.0000000  0.6508444  3
   7067   7056   7068   7070     1  0.0000000  0.6508444  3
   7068   7056   7055   7076     1  0.0000000  0.6508444  3
   7068   7071   7073   7075     1  180.0000771  9.6232000  2
   7069   7068   7071   7072     1  0.0000000  3.3472000  1
   7069   7068   7071   7072     1  0.0000000  0.0000000  2
   7069   7068   7071   7072     1  180.0000771  0.3347200  3
   7069   7068   7071   7073     1  180.0000771  0.0000000  2
   7070   7068   7071   7072     1  0.0000000  3.3472000  1
   7070   7068   7071   7072     1  0.0000000  0.0000000  2
   7070   7068   7071   7072     1  180.0000771  0.3347200  3
   7070   7068   7071   7073     1  180.0000771  0.0000000  2
   7072   7071   7073   7075     1  0.0000000  7.9496000  1
   7072   7071   7073   7075     1  180.0000771  9.6232000  2
   7077   7079   7081   7083     1  0.0000000  0.6508444  3
   7077   7079   7081   7084     1  0.0000000  0.6508444  3
   7078   7077   7079   7081     1  0.0000000  0.0000000  2
   7078   7077   7079   7080     1  0.0000000  0.0000000  2
   7078   7077   7079   7082     1  0.0000000  0.0000000  2
   7079   7081   7085   7106     1  0.0000000  0.6508444  3
   7080   7079   7081   7085     1  0.0000000  0.6508444  3
   7080   7079   7081   7083     1  0.0000000  0.6508444  3
   7080   7079   7081   7084     1  0.0000000  0.6508444  3
   7081   7085   7086   7096     1  0.0000000  0.6508444  3
   7081   7085   7086   7097     1  0.0000000  0.6508444  3
   7081   7085   7087   7088     1  0.0000000  0.6508444  3
   7081   7085   7087   7090     1  0.0000000  0.6508444  3
   7082   7079   7081   7085     1  0.0000000  0.6508444  3
   7082   7079   7081   7083     1  0.0000000  0.6508444  3
   7082   7079   7081   7084     1  0.0000000  0.6508444  3
   7083   7081   7085   7086     1  0.0000000  0.6508444  3
   7083   7081   7085   7087     1  0.0000000  0.6508444  3
   7083   7081   7085   7106     1  0.0000000  0.6508444  3
   7084   7081   7085   7086     1  0.0000000  0.6508444  3
   7084   7081   7085   7087     1  0.0000000  0.6508444  3
   7084   7081   7085   7106     1  0.0000000  0.6508444  3
   7085   7086   7098   7099     1  0.0000000  0.6508444  3
   7085   7086   7098   7100     1  0.0000000  0.6508444  3
   7085   7087   7089   7091     1  0.0000000  0.6508444  3
   7085   7087   7089   7092     1  0.0000000  0.6508444  3
   7086   7085   7087   7088     1  0.0000000  0.6508444  3
   7086   7085   7087   7090     1  0.0000000  0.6508444  3
   7087   7085   7086   7096     1  0.0000000  0.6508444  3
   7087   7085   7086   7097     1  0.0000000  0.6508444  3
   7088   7087   7089   7093     1  0.0000000  0.6508444  3
   7088   7087   7089   7091     1  0.0000000  0.6508444  3
   7088   7087   7089   7092     1  0.0000000  0.6508444  3
   7088   7087   7085   7106     1  0.0000000  0.6508444  3
   7089   7093   7094   7104     1  180.0000771  9.6232000  2
   7089   7087   7085   7106     1  0.0000000  0.6508444  3
   7090   7087   7089   7093     1  0.0000000  0.6508444  3
   7090   7087   7089   7091     1  0.0000000  0.6508444  3
   7090   7087   7089   7092     1  0.0000000  0.6508444  3
   7090   7087   7085   7106     1  0.0000000  0.6508444  3
   7091   7089   7093   7094     1  180.0000771  0.0000000  2
   7091   7089   7093   7095     1  0.0000000  3.3472000  1
   7091   7089   7093   7095     1  0.0000000  0.0000000  2
   7091   7089   7093   7095     1  180.0000771  0.3347200  3
   7092   7089   7093   7094     1  180.0000771  0.0000000  2
   7092   7089   7093   7095     1  0.0000000  3.3472000  1
   7092   7089   7093   7095     1  0.0000000  0.0000000  2
   7092   7089   7093   7095     1  180.0000771  0.3347200  3
   7095   7093   7094   7104     1  0.0000000  7.9496000  1
   7095   7093   7094   7104     1  180.0000771  9.6232000  2
   7096   7086   7098   7101     1  0.0000000  0.6508444  3
   7096   7086   7098   7099     1  0.0000000  0.6508444  3
   7096   7086   7098   7100     1  0.0000000  0.6508444  3
   7096   7086   7085   7106     1  0.0000000  0.6508444  3
   7097   7086   7098   7101     1  0.0000000  0.6508444  3
   7097   7086   7098   7099     1  0.0000000  0.6508444  3
   7097   7086   7098   7100     1  0.0000000  0.6508444  3
   7097   7086   7085   7106     1  0.0000000  0.6508444  3
   7098   7101   7103   7105     1  180.0000771  9.6232000  2
   7098   7086   7085   7106     1  0.0000000  0.6508444  3
   7099   7098   7101   7102     1  0.0000000  3.3472000  1
   7099   7098   7101   7102     1  0.0000000  0.0000000  2
   7099   7098   7101   7102     1  180.0000771  0.3347200  3
   7099   7098   7101   7103     1  180.0000771  0.0000000  2
   7100   7098   7101   7102     1  0.0000000  3.3472000  1
   7100   7098   7101   7102     1  0.0000000  0.0000000  2
   7100   7098   7101   7102     1  180.0000771  0.3347200  3
   7100   7098   7101   7103     1  180.0000771  0.0000000  2
   7102   7101   7103   7105     1  0.0000000  7.9496000  1
   7102   7101   7103   7105     1  180.0000771  9.6232000  2
     10     51     52     67     4  180.0000771  4.6024000  2
     12     77     78     93     4  180.0000771  4.6024000  2
     14    103    104    119     4  180.0000771  4.6024000  2
     16    129    130    145     4  180.0000771  4.6024000  2
     47    155    156    171     4  180.0000771  4.6024000  2
     49    181    182    197     4  180.0000771  4.6024000  2
     73    207    208    223     4  180.0000771  4.6024000  2
     75    233    234    249     4  180.0000771  4.6024000  2
     99    259    260    275     4  180.0000771  4.6024000  2
    101    285    286    301     4  180.0000771  4.6024000  2
    125    311    312    327     4  180.0000771  4.6024000  2
    127    337    338    353     4  180.0000771  4.6024000  2
    151    363    364    379     4  180.0000771  4.6024000  2
    153    389    390    405     4  180.0000771  4.6024000  2
    177    415    416    431     4  180.0000771  4.6024000  2
    179    441    442    457     4  180.0000771  4.6024000  2
    203    467    468    483     4  180.0000771  4.6024000  2
    205    493    494    509     4  180.0000771  4.6024000  2
    229    519    520    535     4  180.0000771  4.6024000  2
    231    545    546    561     4  180.0000771  4.6024000  2
    255    571    572    587     4  180.0000771  4.6024000  2
    257    597    598    613     4  180.0000771  4.6024000  2
    281    623    624    639     4  180.0000771  4.6024000  2
    283    649    650    665     4  180.0000771  4.6024000  2
    307    675    676    691     4  180.0000771  4.6024000  2
    309    701    702    717     4  180.0000771  4.6024000  2
    333    727    728    743     4  180.0000771  4.6024000  2
    335    753    754    769     4  180.0000771  4.6024000  2
    359    779    780    795     4  180.0000771  4.6024000  2
    361    805    806    821     4  180.0000771  4.6024000  2
    385    831    832    847     4  180.0000771  4.6024000  2
    387    857    858    873     4  180.0000771  4.6024000  2
    411    883    884    899     4  180.0000771  4.6024000  2
    413    909    910    925     4  180.0000771  4.6024000  2
    437    935    936    951     4  180.0000771  4.6024000  2
    439    961    962    977     4  180.0000771  4.6024000  2
    463    987    988   1003     4  180.0000771  4.6024000  2
    465   1013   1014   1029     4  180.0000771  4.6024000  2
    489   1039   1040   1055     4  180.0000771  4.6024000  2
    491   1065   1066   1081     4  180.0000771  4.6024000  2
    515   1091   1092   1107     4  180.0000771  4.6024000  2
    517   1117   1118   1133     4  180.0000771  4.6024000  2
    541   1143   1144   1159     4  180.0000771  4.6024000  2
    543   1169   1170   1185     4  180.0000771  4.6024000  2
    567   1195   1196   1211     4  180.0000771  4.6024000  2
    569   1221   1222   1237     4  180.0000771  4.6024000  2
    593   1247   1248   1263     4  180.0000771  4.6024000  2
    595   1273   1274   1289     4  180.0000771  4.6024000  2
    619   1299   1300   1315     4  180.0000771  4.6024000  2
    621   1325   1326   1341     4  180.0000771  4.6024000  2
    645   1351   1352   1367     4  180.0000771  4.6024000  2
    647   1377   1378   1393     4  180.0000771  4.6024000  2
    671   1403   1404   1419     4  180.0000771  4.6024000  2
    673   1429   1430   1445     4  180.0000771  4.6024000  2
    697   1455   1456   1471     4  180.0000771  4.6024000  2
    699   1481   1482   1497     4  180.0000771  4.6024000  2
    723   1507   1508   1523     4  180.0000771  4.6024000  2
    725   1533   1534   1549     4  180.0000771  4.6024000  2
    749   1559   1560   1575     4  180.0000771  4.6024000  2
    751   1585   1586   1601     4  180.0000771  4.6024000  2
    775   1611   1612   1627     4  180.0000771  4.6024000  2
    777   1637   1638   1653     4  180.0000771  4.6024000  2
    801   1663   1664   1679     4  180.0000771  4.6024000  2
    803   1689   1690   1705     4  180.0000771  4.6024000  2
    827   1715   1716   1731     4  180.0000771  4.6024000  2
    829   1741   1742   1757     4  180.0000771  4.6024000  2
    853   1767   1768   1783     4  180.0000771  4.6024000  2
    855   1793   1794   1809     4  180.0000771  4.6024000  2
    879   1819   1820   1835     4  180.0000771  4.6024000  2
    881   1845   1846   1861     4  180.0000771  4.6024000  2
    905   1871   1872   1887     4  180.0000771  4.6024000  2
    907   1897   1898   1913     4  180.0000771  4.6024000  2
    931   1923   1924   1939     4  180.0000771  4.6024000  2
    933   1949   1950   1965     4  180.0000771  4.6024000  2
    957   1975   1976   1991     4  180.0000771  4.6024000  2
    959   2001   2002   2017     4  180.0000771  4.6024000  2
    983   2027   2028   2043     4  180.0000771  4.6024000  2
    985   2053   2054   2069     4  180.0000771  4.6024000  2
   1009   2079   2080   2095     4  180.0000771  4.6024000  2
   1011   2105   2106   2121     4  180.0000771  4.6024000  2
   1035   2131   2132   2147     4  180.0000771  4.6024000  2
   1037   2157   2158   2173     4  180.0000771  4.6024000  2
   1061   2183   2184   2199     4  180.0000771  4.6024000  2
   1063   2209   2210   2225     4  180.0000771  4.6024000  2
   1087   2235   2236   2251     4  180.0000771  4.6024000  2
   1089   2261   2262   2277     4  180.0000771  4.6024000  2
   1113   2287   2288   2303     4  180.0000771  4.6024000  2
   1115   2313   2314   2329     4  180.0000771  4.6024000  2
   1139   2339   2340   2355     4  180.0000771  4.6024000  2
   1141   2365   2366   2381     4  180.0000771  4.6024000  2
   1165   2391   2392   2407     4  180.0000771  4.6024000  2
   1167   2417   2418   2433     4  180.0000771  4.6024000  2
   1191   2443   2444   2459     4  180.0000771  4.6024000  2
   1193   2469   2470   2485     4  180.0000771  4.6024000  2
   1217   2495   2496   2511     4  180.0000771  4.6024000  2
   1219   2521   2522   2537     4  180.0000771  4.6024000  2
   1243   2547   2548   2563     4  180.0000771  4.6024000  2
   1245   2573   2574   2589     4  180.0000771  4.6024000  2
   1269   2599   2600   2615     4  180.0000771  4.6024000  2
   1271   2625   2626   2641     4  180.0000771  4.6024000  2
   1295   2651   2652   2667     4  180.0000771  4.6024000  2
   1297   2677   2678   2693     4  180.0000771  4.6024000  2
   1321   2703   2704   2719     4  180.0000771  4.6024000  2
   1323   2729   2730   2745     4  180.0000771  4.6024000  2
   1347   2755   2756   2771     4  180.0000771  4.6024000  2
   1349   2781   2782   2797     4  180.0000771  4.6024000  2
   1373   2807   2808   2823     4  180.0000771  4.6024000  2
   1375   2833   2834   2849     4  180.0000771  4.6024000  2
   1399   2859   2860   2875     4  180.0000771  4.6024000  2
   1401   2885   2886   2901     4  180.0000771  4.6024000  2
   1425   2911   2912   2927     4  180.0000771  4.6024000  2
   1427   2937   2938   2953     4  180.0000771  4.6024000  2
   1451   2963   2964   2979     4  180.0000771  4.6024000  2
   1453   2989   2990   3005     4  180.0000771  4.6024000  2
   1477   3015   3016   3031     4  180.0000771  4.6024000  2
   1479   3041   3042   3057     4  180.0000771  4.6024000  2
   1503   3067   3068   3083     4  180.0000771  4.6024000  2
   1505   3093   3094   3109     4  180.0000771  4.6024000  2
   1529   3119   3120   3135     4  180.0000771  4.6024000  2
   1531   3145   3146   3161     4  180.0000771  4.6024000  2
   1555   3171   3172   3187     4  180.0000771  4.6024000  2
   1557   3197   3198   3213     4  180.0000771  4.6024000  2
   1581   3223   3224   3239     4  180.0000771  4.6024000  2
   1583   3249   3250   3265     4  180.0000771  4.6024000  2
   1607   3269   3267   3268     4  180.0000771  4.6024000  2
   1609   3299   3297   3298     4  180.0000771  4.6024000  2
   1633   3329   3327   3328     4  180.0000771  4.6024000  2
   1635   3359   3357   3358     4  180.0000771  4.6024000  2
   1659   3389   3387   3388     4  180.0000771  4.6024000  2
   1661   3419   3417   3418     4  180.0000771  4.6024000  2
   1685   3449   3447   3448     4  180.0000771  4.6024000  2
   1687   3479   3477   3478     4  180.0000771  4.6024000  2
   1711   3509   3507   3508     4  180.0000771  4.6024000  2
   1713   3539   3537   3538     4  180.0000771  4.6024000  2
   1737   3569   3567   3568     4  180.0000771  4.6024000  2
   1739   3599   3597   3598     4  180.0000771  4.6024000  2
   1763   3629   3627   3628     4  180.0000771  4.6024000  2
   1765   3659   3657   3658     4  180.0000771  4.6024000  2
   1789   3689   3687   3688     4  180.0000771  4.6024000  2
   1791   3719   3717   3718     4  180.0000771  4.6024000  2
   1815   3749   3747   3748     4  180.0000771  4.6024000  2
   1817   3779   3777   3778     4  180.0000771  4.6024000  2
   1841   3809   3807   3808     4  180.0000771  4.6024000  2
   1843   3839   3837   3838     4  180.0000771  4.6024000  2
   1867   3869   3867   3868     4  180.0000771  4.6024000  2
   1869   3899   3897   3898     4  180.0000771  4.6024000  2
   1893   3929   3927   3928     4  180.0000771  4.6024000  2
   1895   3959   3957   3958     4  180.0000771  4.6024000  2
   1919   3989   3987   3988     4  180.0000771  4.6024000  2
   1921   4019   4017   4018     4  180.0000771  4.6024000  2
   1945   4049   4047   4048     4  180.0000771  4.6024000  2
   1947   4079   4077   4078     4  180.0000771  4.6024000  2
   1971   4109   4107   4108     4  180.0000771  4.6024000  2
   1973   4139   4137   4138     4  180.0000771  4.6024000  2
   1997   4169   4167   4168     4  180.0000771  4.6024000  2
   1999   4199   4197   4198     4  180.0000771  4.6024000  2
   2023   4229   4227   4228     4  180.0000771  4.6024000  2
   2025   4259   4257   4258     4  180.0000771  4.6024000  2
   2049   4289   4287   4288     4  180.0000771  4.6024000  2
   2051   4319   4317   4318     4  180.0000771  4.6024000  2
   2075   4349   4347   4348     4  180.0000771  4.6024000  2
   2077   4379   4377   4378     4  180.0000771  4.6024000  2
   2101   4409   4407   4408     4  180.0000771  4.6024000  2
   2103   4439   4437   4438     4  180.0000771  4.6024000  2
   2127   4469   4467   4468     4  180.0000771  4.6024000  2
   2129   4499   4497   4498     4  180.0000771  4.6024000  2
   2153   4529   4527   4528     4  180.0000771  4.6024000  2
   2155   4559   4557   4558     4  180.0000771  4.6024000  2
   2179   4589   4587   4588     4  180.0000771  4.6024000  2
   2181   4619   4617   4618     4  180.0000771  4.6024000  2
   2205   4649   4647   4648     4  180.0000771  4.6024000  2
   2207   4679   4677   4678     4  180.0000771  4.6024000  2
   2231   4709   4707   4708     4  180.0000771  4.6024000  2
   2233   4739   4737   4738     4  180.0000771  4.6024000  2
   2257   4769   4767   4768     4  180.0000771  4.6024000  2
   2259   4799   4797   4798     4  180.0000771  4.6024000  2
   2283   4829   4827   4828     4  180.0000771  4.6024000  2
   2285   4859   4857   4858     4  180.0000771  4.6024000  2
   2309   4889   4887   4888     4  180.0000771  4.6024000  2
   2311   4919   4917   4918     4  180.0000771  4.6024000  2
   2335   4949   4947   4948     4  180.0000771  4.6024000  2
   2337   4979   4977   4978     4  180.0000771  4.6024000  2
   2361   5009   5007   5008     4  180.0000771  4.6024000  2
   2363   5039   5037   5038     4  180.0000771  4.6024000  2
   2387   5069   5067   5068     4  180.0000771  4.6024000  2
   2389   5099   5097   5098     4  180.0000771  4.6024000  2
   2413   5129   5127   5128     4  180.0000771  4.6024000  2
   2415   5159   5157   5158     4  180.0000771  4.6024000  2
   2439   5189   5187   5188     4  180.0000771  4.6024000  2
   2441   5219   5217   5218     4  180.0000771  4.6024000  2
   2465   5249   5247   5248     4  180.0000771  4.6024000  2
   2467   5279   5277   5278     4  180.0000771  4.6024000  2
   2491   5309   5307   5308     4  180.0000771  4.6024000  2
   2493   5339   5337   5338     4  180.0000771  4.6024000  2
   2517   5369   5367   5368     4  180.0000771  4.6024000  2
   2519   5399   5397   5398     4  180.0000771  4.6024000  2
   2543   5429   5427   5428     4  180.0000771  4.6024000  2
   2545   5459   5457   5458     4  180.0000771  4.6024000  2
   2569   5489   5487   5488     4  180.0000771  4.6024000  2
   2571   5519   5517   5518     4  180.0000771  4.6024000  2
   2595   5549   5547   5548     4  180.0000771  4.6024000  2
   2597   5579   5577   5578     4  180.0000771  4.6024000  2
   2621   5609   5607   5608     4  180.0000771  4.6024000  2
   2623   5639   5637   5638     4  180.0000771  4.6024000  2
   2647   5669   5667   5668     4  180.0000771  4.6024000  2
   2649   5699   5697   5698     4  180.0000771  4.6024000  2
   2673   5729   5727   5728     4  180.0000771  4.6024000  2
   2675   5759   5757   5758     4  180.0000771  4.6024000  2
   2699   5789   5787   5788     4  180.0000771  4.6024000  2
   2701   5819   5817   5818     4  180.0000771  4.6024000  2
   2725   5849   5847   5848     4  180.0000771  4.6024000  2
   2727   5879   5877   5878     4  180.0000771  4.6024000  2
   2751   5909   5907   5908     4  180.0000771  4.6024000  2
   2753   5939   5937   5938     4  180.0000771  4.6024000  2
   2777   5969   5967   5968     4  180.0000771  4.6024000  2
   2779   5999   5997   5998     4  180.0000771  4.6024000  2
   2803   6029   6027   6028     4  180.0000771  4.6024000  2
   2805   6059   6057   6058     4  180.0000771  4.6024000  2
   2829   6089   6087   6088     4  180.0000771  4.6024000  2
   2831   6119   6117   6118     4  180.0000771  4.6024000  2
   2855   6149   6147   6148     4  180.0000771  4.6024000  2
   2857   6179   6177   6178     4  180.0000771  4.6024000  2
   2881   6209   6207   6208     4  180.0000771  4.6024000  2
   2883   6239   6237   6238     4  180.0000771  4.6024000  2
   2907   6269   6267   6268     4  180.0000771  4.6024000  2
   2909   6299   6297   6298     4  180.0000771  4.6024000  2
   2933   6329   6327   6328     4  180.0000771  4.6024000  2
   2935   6359   6357   6358     4  180.0000771  4.6024000  2
   2959   6389   6387   6388     4  180.0000771  4.6024000  2
   2961   6419   6417   6418     4  180.0000771  4.6024000  2
   2985   6449   6447   6448     4  180.0000771  4.6024000  2
   2987   6479   6477   6478     4  180.0000771  4.6024000  2
   3011   6509   6507   6508     4  180.0000771  4.6024000  2
   3013   6539   6537   6538     4  180.0000771  4.6024000  2
   3037   6569   6567   6568     4  180.0000771  4.6024000  2
   3039   6599   6597   6598     4  180.0000771  4.6024000  2
   3063   6629   6627   6628     4  180.0000771  4.6024000  2
   3065   6659   6657   6658     4  180.0000771  4.6024000  2
   3089   6689   6687   6688     4  180.0000771  4.6024000  2
   3091   6719   6717   6718     4  180.0000771  4.6024000  2
   3115   6749   6747   6748     4  180.0000771  4.6024000  2
   3117   6779   6777   6778     4  180.0000771  4.6024000  2
   3141   6809   6807   6808     4  180.0000771  4.6024000  2
   3143   6839   6837   6838     4  180.0000771  4.6024000  2
   3167   6869   6867   6868     4  180.0000771  4.6024000  2
   3169   6899   6897   6898     4  180.0000771  4.6024000  2
   3193   6929   6927   6928     4  180.0000771  4.6024000  2
   3195   6959   6957   6958     4  180.0000771  4.6024000  2
   3219   6989   6987   6988     4  180.0000771  4.6024000  2
   3221   7019   7017   7018     4  180.0000771  4.6024000  2
   3245   7049   7047   7048     4  180.0000771  4.6024000  2
   3247   7079   7077   7078     4  180.0000771  4.6024000  2

;[ system ]
;; Name
;Generic title
;
;[ molecules ]
;; Compound       #mols
;system1              1
