G1.5cooh-PAMAM in water
79677
    1aaa     N1    1   7.008   5.961   3.349  0.3015 -0.0326 -0.3961
    1aaa     C1    2   6.973   5.861   3.236  0.1459  0.5593 -0.4687
    1aaa     C2    3   6.871   5.921   3.137  0.7406 -0.1791  0.4098
    1aaa     N2    4   6.817   5.818   3.039  0.4885 -0.2544  0.0943
    1aaa     C3    5   6.935   5.756   2.957  0.0636  0.1233  0.3927
    1aaa     C4    6   6.710   5.872   2.953  0.1346 -0.3880  0.1062
    1aaa     C5    7   7.090   6.080   3.295  0.2601 -0.1354  0.1363
    1aaa     C6    8   7.093   5.893   3.448 -0.5007  0.5397 -0.2149
    1aaa     C7    9   6.566   5.826   2.976  0.4429  0.0991 -0.3323
    1aaa     C8   10   6.490   5.878   3.097 -0.2186 -0.2594  0.5941
    1aaa     C9   11   6.904   5.644   2.856  0.1661 -0.4527 -0.2420
    1aaa    C10   12   7.036   5.593   2.799 -0.0225  0.8331  0.2504
    1aaa    C11   13   7.104   6.205   3.387 -0.3355 -0.1251 -0.3976
    1aaa    C12   14   7.194   6.314   3.331 -0.0431 -0.4320 -0.0008
    1aaa    C13   15   7.028   5.801   3.557 -0.3150  0.0286 -0.0445
    1aaa    C14   16   7.131   5.744   3.652 -0.1711  0.2339  0.0918
    1aaa     O1   17   7.142   5.645   2.828  0.2865  0.6957  0.1091
    1aaa     O2   18   6.547   5.928   3.196 -0.1995  0.5760 -0.2171
    1aaa     O3   19   7.243   5.714   3.627  0.2663 -0.6612 -0.4142
    1aaa     O4   20   7.208   6.316   3.212  0.1492 -0.8535 -0.3148
    1aaa     H1   21   6.920   5.774   3.275  1.7058  0.7844  2.3924
    1aaa     H2   22   7.066   5.832   3.187 -0.8108  0.0711 -2.0750
    1aaa     H3   23   6.900   6.012   3.084 -2.4282 -0.4276 -2.0781
    1aaa     H4   24   6.783   5.947   3.196  0.1863  2.1340 -1.2691
    1aaa     H5   25   7.005   5.705   3.024  0.4443 -1.7069 -1.3286
    1aaa     H6   26   6.980   5.843   2.909  0.3371 -0.8815 -1.2281
    1aaa     H7   27   6.716   5.980   2.961  0.8594 -0.5479  2.2875
    1aaa     H8   28   6.734   5.835   2.853 -0.8633  2.3688 -1.2338
    1aaa     H9   29   7.185   6.038   3.260  0.3667  1.6766 -1.9120
    1aaa    H10   30   7.032   6.115   3.210  2.2216  0.9461 -0.8267
    1aaa    H11   31   7.175   5.837   3.402  0.3921  1.0150  0.7745
    1aaa    H12   32   7.133   5.979   3.501  0.6573 -1.4882  2.4779
    1aaa    H13   33   6.500   5.850   2.892  1.5046 -1.5229 -1.7002
    1aaa    H14   34   6.562   5.718   2.994 -1.0009 -0.2064 -2.1884
    1aaa    H15   35   6.838   5.668   2.772  0.3449 -1.3684 -0.6585
    1aaa    H16   36   6.862   5.552   2.897 -0.1762 -0.6581 -1.0361
    1aaa    H17   37   7.002   6.237   3.411 -1.5113 -2.6299 -1.6924
    1aaa    H18   38   7.161   6.176   3.476  0.2073  1.3420 -0.2427
    1aaa    H19   39   6.940   5.847   3.605 -1.4897 -0.8945 -1.2184
    1aaa    H20   40   6.990   5.706   3.517  0.9858 -0.7669  0.5494
    1aaa    H37   41   6.924   6.005   3.389 -0.7654  0.4594 -2.9613
    1aaa    H38   42   6.783   5.743   3.102  2.1777  0.0210  1.3750
    2bbb     N1   43   6.042   6.054   3.155  0.9340 -0.7928  0.4726
    2bbb     C1   44   5.894   6.033   3.102  0.0771  0.1199 -0.1597
    2bbb     C2   45   6.106   6.173   3.086 -0.3748  0.3333 -0.0402
    2bbb     C3   46   5.874   6.003   2.953 -0.4076  0.0528  0.1881
    2bbb     C4   47   5.723   6.008   2.913 -0.9610 -0.1238 -0.0482
    2bbb     C5   48   6.059   6.311   3.139 -0.2166  0.4081 -0.0921
    2bbb     C6   49   5.977   6.392   3.041 -0.1239 -0.0733 -0.0426
    2bbb     C7   50   6.120   5.924   3.135 -0.4413  0.2284  0.1138
    2bbb     C8   51   6.266   5.914   3.193 -0.1887 -0.2305  0.4536
    2bbb     N2   52   6.353   5.857   3.090 -0.1761  0.0914  0.5220
    2bbb     O1   53   5.673   6.103   2.858 -0.8184 -0.0767  0.7871
    2bbb     O2   54   5.974   6.368   2.923  0.0570  0.0235 -0.6889
    2bbb     H1   55   5.849   5.948   3.153 -0.5970  0.2460 -0.5393
    2bbb     H2   56   5.833   6.120   3.127  1.1968  0.5409  1.2607
    2bbb     H3   57   6.072   6.161   2.983 -1.9862  0.1920  0.4840
    2bbb     H4   58   6.215   6.165   3.090 -0.1534  2.6856  0.1410
    2bbb     H5   59   5.923   6.073   2.884 -0.4326 -1.3178 -1.2575
    2bbb     H6   60   5.916   5.904   2.934  0.7926  0.4514  0.6816
    2bbb     H7   61   6.137   6.373   3.183  0.1883  0.0415 -0.2864
    2bbb     H8   62   5.984   6.287   3.216 -2.0577 -0.0845 -1.9319
    2bbb     H9   63   6.124   5.905   3.028  0.1005  1.6257 -0.1439
    2bbb    H10   64   6.065   5.842   3.181 -2.2456  0.9470 -0.6999
    2bbb    H11   65   6.271   5.849   3.281  0.6103 -0.9618 -0.1104
    2bbb    H12   66   6.308   6.013   3.212 -1.5769  1.0427 -2.5549
    2bbb    H13   67   6.319   5.801   3.013 -0.5678  0.1591  0.6448
    2bbb    H25   68   6.015   6.076   3.252  2.0015  1.8639  0.2256
    3bbb     N1   69   7.215   5.206   2.538 -0.4972 -0.1969  0.1942
    3bbb     C1   70   7.193   5.270   2.400  0.0271 -0.4874  0.2126
    3bbb     C2   71   7.192   5.058   2.538  0.1897 -0.1770 -0.3042
    3bbb     C3   72   7.273   5.210   2.285 -0.6950  0.0635  0.5651
    3bbb     C4   73   7.221   5.212   2.146 -0.0345 -0.2760  0.3935
    3bbb     C5   74   7.282   4.983   2.638  0.3485  0.7285  0.3136
    3bbb     C6   75   7.250   4.837   2.642  0.1111  0.8152 -0.0687
    3bbb     C7   76   7.116   5.270   2.629 -0.3049 -0.2820 -0.2127
    3bbb     C8   77   7.142   5.417   2.658  0.2264 -0.2164  0.3633
    3bbb     N2   78   7.027   5.476   2.723 -0.0160 -0.1336 -0.3224
    3bbb     O1   79   7.108   5.194   2.126  0.0561 -0.2815 -0.3856
    3bbb     O2   80   7.146   4.782   2.609 -0.4652 -0.2037  0.1227
    3bbb     H1   81   7.087   5.275   2.371  0.1642  1.8792 -0.0287
    3bbb     H2   82   7.229   5.372   2.404 -1.9009  0.2161  1.2899
    3bbb     H3   83   7.196   5.015   2.438 -1.5446 -0.1197 -0.4292
    3bbb     H4   84   7.091   5.036   2.572  1.3609 -2.4165  2.1195
    3bbb     H5   85   7.365   5.270   2.279 -0.4495 -0.2149  1.3120
    3bbb     H6   86   7.306   5.109   2.312 -3.5448 -0.7853  1.2245
    3bbb     H7   87   7.267   5.013   2.742 -2.3306 -1.7722  0.7946
    3bbb     H8   88   7.386   5.007   2.613  0.1558  3.1040  1.5562
    3bbb     H9   89   7.111   5.217   2.724 -3.3775 -1.2901 -0.8038
    3bbb    H10   90   7.017   5.262   2.581 -0.9151 -1.6541  1.1839
    3bbb    H11   91   7.150   5.475   2.565 -1.6858 -0.1976  0.1744
    3bbb    H12   92   7.238   5.418   2.712 -0.0573 -1.2888  0.8913
    3bbb    H13   93   6.932   5.447   2.702 -0.7005  0.7811  1.3197
    3bbb    H25   94   7.312   5.225   2.565 -0.5454 -0.1477  0.3336
    4bbb     N1   95   7.329   6.755   3.340 -0.2566 -0.7176  0.4251
    4bbb     C1   96   7.316   6.874   3.429  0.1854  0.2750  0.2561
    4bbb     C2   97   7.299   6.797   3.193  0.5648 -0.1749  0.6320
    4bbb     C3   98   7.393   6.876   3.561 -0.8676 -0.4788  0.2603
    4bbb     C4   99   7.344   6.999   3.645 -0.0775 -0.0591  0.2277
    4bbb     C5  100   7.326   6.683   3.087  0.3129 -0.4197 -0.3085
    4bbb     C6  101   7.297   6.744   2.946  0.1831  0.2006  0.8415
    4bbb     C7  102   7.253   6.637   3.401  0.0324  0.4571 -0.3823
    4bbb     C8  103   7.332   6.506   3.389 -0.0310 -0.0267  0.1309
    4bbb     N2  104   7.253   6.390   3.424 -0.2792  0.6769  0.4356
    4bbb     O1  105   7.281   7.087   3.596 -0.0892 -1.0945  0.4155
    4bbb     O2  106   7.210   6.704   2.873  0.2228 -0.5077 -0.2303
    4bbb     H1  107   7.359   6.958   3.375  0.9430  0.4570  1.1188
    4bbb     H2  108   7.208   6.887   3.443  0.2866  0.4661  0.8709
    4bbb     H3  109   7.354   6.885   3.160 -0.6169  0.7685  1.0850
    4bbb     H4  110   7.196   6.830   3.206  0.5706  0.4120 -0.6782
    4bbb     H5  111   7.378   6.785   3.619 -2.1041  0.2580  1.1541
    4bbb     H6  112   7.499   6.894   3.542 -0.2404  0.5786  3.9695
    4bbb     H7  113   7.254   6.602   3.102 -2.9833  2.3640  0.0581
    4bbb     H8  114   7.429   6.645   3.087  0.0331 -1.1757 -0.0304
    4bbb     H9  115   7.156   6.623   3.353 -0.0837 -1.4971  0.3307
    4bbb    H10  116   7.244   6.647   3.509  1.0208 -0.0488 -0.2414
    4bbb    H11  117   7.415   6.521   3.459  1.3521  1.0441 -1.6683
    4bbb    H12  118   7.374   6.496   3.288 -1.3573 -0.7321 -0.3741
    4bbb    H13  119   7.254   6.352   3.518 -1.4762  1.2008  0.6951
    4bbb    H25  120   7.430   6.734   3.342 -0.2646 -0.7272  0.7403
    5bbb     N1  121   7.177   5.673   4.162 -0.6204 -0.0225  0.4581
    5bbb     C1  122   7.206   5.522   4.183 -0.2997 -1.0024 -0.1734
    5bbb     C2  123   7.098   5.730   4.277 -0.4946  0.1148 -0.2040
    5bbb     C3  124   7.311   5.500   4.295  0.2533 -0.5893 -0.0839
    5bbb     C4  125   7.357   5.350   4.316  0.4138 -0.3461 -0.5545
    5bbb     C5  126   7.089   5.887   4.281 -0.0740  0.7651 -0.2927
    5bbb     C6  127   7.006   5.930   4.397 -0.5652 -0.0703  0.4728
    5bbb     C7  128   7.095   5.693   4.035  0.6169 -0.2635  0.2403
    5bbb     C8  129   7.174   5.691   3.899 -0.5009 -0.0828  0.3192
    5bbb     N2  130   7.095   5.734   3.782  0.6329  0.0699 -0.2160
    5bbb     O1  131   7.327   5.257   4.243  0.6612  0.2559  0.1618
    5bbb     O2  132   6.900   5.983   4.375 -0.8772  0.3970  0.7725
    5bbb     H1  133   7.109   5.476   4.205 -0.8218  0.7281  1.4516
    5bbb     H2  134   7.254   5.487   4.092  4.1247  0.1747  1.4815
    5bbb     H3  135   7.131   5.692   4.374 -0.8500 -0.3121 -0.2463
    5bbb     H4  136   6.997   5.692   4.259 -0.2145 -1.3589  1.0943
    5bbb     H5  137   7.399   5.559   4.266  1.4799 -2.7691 -1.0656
    5bbb     H6  138   7.277   5.535   4.393  1.4083  0.4848 -0.0375
    5bbb     H7  139   7.039   5.940   4.199 -0.9965  0.9763  0.3951
    5bbb     H8  140   7.193   5.920   4.282  0.3826 -0.6178  0.9576
    5bbb     H9  141   7.050   5.792   4.036 -0.6048 -0.7814 -0.3357
    5bbb    H10  142   7.019   5.614   4.034  1.6105 -1.2381 -0.5379
    5bbb    H11  143   7.204   5.589   3.871  0.2713  0.0803  0.5134
    5bbb    H12  144   7.271   5.742   3.905 -1.1613  1.1070  1.3865
    5bbb    H13  145   6.996   5.752   3.797 -0.1485 -3.5392 -0.0659
    5bbb    H25  146   7.260   5.734   4.157 -0.0155 -0.8348  0.3837
    6bbb     N1  147   5.291   5.736   2.947  0.3640 -0.3302  0.0365
    6bbb     C1  148   5.204   5.665   3.053 -0.0450 -0.9695  0.4105
    6bbb     C2  149   5.287   5.657   2.812  0.3932 -0.2775 -0.1439
    6bbb     C3  150   5.195   5.725   3.195 -0.5167  0.1233 -0.6690
    6bbb     C4  151   5.113   5.640   3.292  0.2091  0.5257  0.6436
    6bbb     C5  152   5.152   5.637   2.728 -0.1883  0.1713 -0.1913
    6bbb     C6  153   5.177   5.567   2.600 -0.6318  0.4030 -0.2165
    6bbb     C7  154   5.438   5.765   2.983 -0.3935  0.1868 -0.1658
    6bbb     C8  155   5.505   5.890   2.919 -0.2522 -0.7129 -0.8150
    6bbb     N2  156   5.654   5.902   2.950  0.4762  0.7316 -0.1338
    6bbb     O1  157   5.009   5.577   3.264 -0.1774 -0.3891 -0.2313
    6bbb     O2  158   5.238   5.617   2.514 -0.3790 -0.1906  0.0916
    6bbb     H1  159   5.105   5.649   3.009  0.3112 -1.6586 -0.1478
    6bbb     H2  160   5.247   5.565   3.059  1.6745 -0.2975 -0.1099
    6bbb     H3  161   5.334   5.561   2.834 -0.5437 -0.4749  1.1435
    6bbb     H4  162   5.348   5.709   2.738  0.1388 -0.0311 -0.1799
    6bbb     H5  163   5.295   5.736   3.238 -0.4339 -0.7914 -0.6095
    6bbb     H6  164   5.159   5.829   3.196  2.9045  1.4759 -2.4431
    6bbb     H7  165   5.109   5.734   2.699 -0.1713  0.0660 -0.5780
    6bbb     H8  166   5.080   5.583   2.790  0.5167  0.2520  0.7268
    6bbb     H9  167   5.488   5.670   2.963  0.0959  0.5451 -0.6591
    6bbb    H10  168   5.448   5.783   3.090  2.5826 -0.7479 -0.1985
    6bbb    H11  169   5.456   5.980   2.958  1.6997 -0.2278  0.7038
    6bbb    H12  170   5.486   5.890   2.811 -1.3121  1.5097 -0.6902
    6bbb    H13  171   5.698   5.833   3.010  0.4269 -0.2620 -1.2109
    6bbb    H25  172   5.240   5.823   2.926  2.3225  0.9824  0.5308
    7bbb     N1  173   5.611   6.745   3.031 -0.5138  0.0719 -0.0185
    7bbb     C1  174   5.492   6.760   3.121  0.4771 -0.1162 -0.3864
    7bbb     C2  175   5.563   6.706   2.887 -0.5430  0.6531 -0.1977
    7bbb     C3  176   5.503   6.845   3.248 -0.4539 -0.3649  0.1004
    7bbb     C4  177   5.383   6.827   3.342 -0.1649 -0.6962 -0.7543
    7bbb     C5  178   5.473   6.794   2.808 -0.3482  0.0107 -0.2369
    7bbb     C6  179   5.425   6.730   2.673 -0.6624  0.0339 -0.4767
    7bbb     C7  180   5.698   6.638   3.095  0.6056 -0.4151  0.3996
    7bbb     C8  181   5.802   6.564   3.007  0.1948  0.3829  0.0173
    7bbb     N2  182   5.893   6.486   3.091 -0.1144 -0.6805 -0.2577
    7bbb     O1  183   5.344   6.719   3.382 -0.3201 -0.0004 -0.1434
    7bbb     O2  184   5.483   6.632   2.632 -0.2630 -0.5646  0.8950
    7bbb     H1  185   5.402   6.800   3.074 -0.3562 -1.6262 -0.1516
    7bbb     H2  186   5.466   6.657   3.144  0.8415  0.3203  2.3610
    7bbb     H3  187   5.524   6.606   2.904 -0.0168  0.7101  1.5302
    7bbb     H4  188   5.655   6.701   2.829  0.0020  1.9138  0.5262
    7bbb     H5  189   5.584   6.822   3.319 -1.2886  3.5949  2.6642
    7bbb     H6  190   5.522   6.949   3.220  2.6688 -0.4612  1.3940
    7bbb     H7  191   5.528   6.887   2.793  0.9180 -0.4500  1.2874
    7bbb     H8  192   5.387   6.821   2.870 -1.0742 -2.3080 -0.1388
    7bbb     H9  193   5.625   6.569   3.138 -1.9496  3.1388  2.2908
    7bbb    H10  194   5.741   6.690   3.181 -0.0250  1.0536 -0.1367
    7bbb    H11  195   5.855   6.628   2.936 -0.7500 -0.3335 -1.3649
    7bbb    H12  196   5.755   6.494   2.937 -1.8107  0.8948  0.7883
    7bbb    H13  197   5.888   6.495   3.192 -0.2605  1.1899 -0.4016
    7bbb    H25  198   5.660   6.836   3.038 -1.0650  0.3040  1.0733
    8bbb     N1  199   7.339   5.167   1.670 -0.1337 -0.7562 -0.3135
    8bbb     C1  200   7.462   5.122   1.586 -0.4095 -0.1281  0.0792
    8bbb     C2  201   7.288   5.293   1.605  0.4779  0.0782  0.7108
    8bbb     C3  202   7.421   5.046   1.459 -0.0781  0.7161 -0.1390
    8bbb     C4  203   7.539   5.020   1.362 -0.3613 -0.2999 -0.7723
    8bbb     C5  204   7.368   5.426   1.617  0.4066  0.0179 -0.0390
    8bbb     C6  205   7.301   5.551   1.557 -0.6684  1.1090  0.0253
    8bbb     C7  206   7.382   5.185   1.813  0.3481 -0.5242  0.0311
    8bbb     C8  207   7.275   5.230   1.905 -0.4545  0.0130 -0.1705
    8bbb     N2  208   7.310   5.215   2.043 -0.6117  0.3728 -0.3725
    8bbb     O1  209   7.651   5.061   1.383 -0.5655  0.5033 -0.4164
    8bbb     O2  210   7.211   5.614   1.614  0.4864  0.2259 -0.1365
    8bbb     H1  211   7.531   5.206   1.574 -0.5628 -0.2659 -2.2707
    8bbb     H2  212   7.520   5.058   1.653 -1.8703 -0.8634  0.6655
    8bbb     H3  213   7.190   5.314   1.648 -1.0789  1.3187 -3.0543
    8bbb     H4  214   7.272   5.264   1.501 -0.3069  0.0687  0.8292
    8bbb     H5  215   7.388   4.951   1.502  1.7215  0.6389  1.1829
    8bbb     H6  216   7.343   5.109   1.416  0.1855  1.3877  0.3540
    8bbb     H7  217   7.469   5.426   1.576  0.5606  1.2761  0.2940
    8bbb     H8  218   7.397   5.451   1.720 -1.1017 -0.7112  0.5985
    8bbb     H9  219   7.474   5.244   1.817  0.5124 -0.8329  2.8799
    8bbb    H10  220   7.411   5.084   1.842 -1.2144 -1.1081 -0.3717
    8bbb    H11  221   7.184   5.171   1.887 -0.2879 -1.0078  1.9524
    8bbb    H12  222   7.254   5.336   1.890  0.3270  0.7951  3.3546
    8bbb    H13  223   7.406   5.204   2.075 -0.3033 -0.5277 -1.5370
    8bbb    H25  224   7.274   5.087   1.667 -0.7221 -0.2752 -1.9969
    9bbb     N1  225   7.498   4.403   2.772 -0.0321  0.4293  1.2981
    9bbb     C1  226   7.647   4.372   2.795 -0.0669  0.1949  0.4001
    9bbb     C2  227   7.442   4.325   2.658  0.0997  0.6270  0.4597
    9bbb     C3  228   7.759   4.396   2.690  0.4558 -0.4463  0.2838
    9bbb     C4  229   7.902   4.348   2.732  0.7610 -0.5193 -0.9304
    9bbb     C5  230   7.457   4.170   2.657  0.6694 -0.0479 -0.2265
    9bbb     C6  231   7.356   4.099   2.565 -0.3321  0.4866  0.8741
    9bbb     C7  232   7.484   4.552   2.745  0.3613 -0.3625  0.0132
    9bbb     C8  233   7.344   4.611   2.712 -0.6408  0.3553  0.0335
    9bbb     N2  234   7.346   4.759   2.705  0.2254 -0.2915 -0.7291
    9bbb     O1  235   7.932   4.313   2.849  0.6384 -0.1576  0.1568
    9bbb     O2  236   7.266   4.153   2.509  0.1510  0.0799 -0.2298
    9bbb     H1  237   7.683   4.427   2.882  0.4388 -0.4186  0.5811
    9bbb     H2  238   7.649   4.269   2.830  0.1271 -0.1548 -0.5932
    9bbb     H3  239   7.477   4.373   2.567  1.3557 -0.5288  0.3073
    9bbb     H4  240   7.335   4.347   2.652  0.1823  0.6074 -2.0113
    9bbb     H5  241   7.732   4.337   2.601 -1.3824  0.9696 -0.1647
    9bbb     H6  242   7.767   4.504   2.674  0.3439 -0.3650  0.7594
    9bbb     H7  243   7.441   4.131   2.758  1.0664  2.7980  1.0211
    9bbb     H8  244   7.558   4.143   2.625  0.0763 -0.4735 -1.8558
    9bbb     H9  245   7.555   4.579   2.667  0.3521 -1.3320 -0.3373
    9bbb    H10  246   7.519   4.601   2.837 -0.3560  2.8814 -1.3018
    9bbb    H11  247   7.272   4.584   2.791  0.3170  1.2603  1.2627
    9bbb    H12  248   7.300   4.568   2.622 -2.5766 -0.2069  1.1807
    9bbb    H13  249   7.422   4.813   2.744  0.1119 -0.7294  0.1210
    9bbb    H25  250   7.455   4.387   2.864  0.9244  1.1840  1.8929
   10bbb     N1  251   7.501   7.345   3.917  0.5811 -0.5424  0.1540
   10bbb     C1  252   7.644   7.373   3.960 -0.4923  0.0711 -0.0028
   10bbb     C2  253   7.407   7.372   4.034  0.0745 -0.8627 -0.5715
   10bbb     C3  254   7.747   7.348   3.852  0.4336 -0.4471  0.2538
   10bbb     C4  255   7.883   7.352   3.921 -0.6404 -0.5495  0.4163
   10bbb     C5  256   7.411   7.510   4.110  0.2957 -0.0810  0.3622
   10bbb     C6  257   7.318   7.510   4.230  0.7979 -0.6294 -0.4835
   10bbb     C7  258   7.498   7.200   3.854  0.5037 -0.0252 -0.2092
   10bbb     C8  259   7.362   7.126   3.853  0.4125 -0.1592 -1.0273
   10bbb     N2  260   7.391   7.011   3.774 -0.2856 -0.3667 -0.5885
   10bbb     O1  261   7.934   7.246   3.953  0.4325  0.2414 -0.2461
   10bbb     O2  262   7.254   7.411   4.257 -0.1312 -0.0209  0.0090
   10bbb     H1  263   7.659   7.471   4.005 -0.9273  0.4994 -0.7675
   10bbb     H2  264   7.672   7.298   4.034 -1.1052 -0.6948 -0.5220
   10bbb     H3  265   7.437   7.285   4.094  0.9916 -1.9464 -2.5200
   10bbb     H4  266   7.306   7.349   4.002  0.3254 -1.5441 -0.9008
   10bbb     H5  267   7.731   7.252   3.801  3.0023 -1.2919  0.8619
   10bbb     H6  268   7.740   7.424   3.774 -0.2979 -0.3510  0.4035
   10bbb     H7  269   7.389   7.590   4.039  1.8208 -0.4097 -0.5450
   10bbb     H8  270   7.511   7.547   4.137  0.5126  0.0013 -0.5121
   10bbb     H9  271   7.578   7.140   3.898  0.9536 -1.3888 -2.6858
   10bbb    H10  272   7.537   7.209   3.752  1.5441 -2.9356 -0.1431
   10bbb    H11  273   7.278   7.183   3.810 -0.7239 -0.5200  0.5936
   10bbb    H12  274   7.334   7.096   3.955  0.3182  0.7606 -0.7725
   10bbb    H13  275   7.460   6.941   3.799  0.4935  0.0947 -1.4061
   10bbb    H25  276   7.476   7.415   3.846  2.5577 -0.1984 -0.2774
   11bbb     N1  277   7.522   6.998   2.587 -0.4742  0.0225  0.2853
   11bbb     C1  278   7.405   7.045   2.506 -0.4536 -0.9961 -1.0627
   11bbb     C2  279   7.632   6.936   2.498 -0.2088  0.1805 -0.5707
   11bbb     C3  280   7.418   7.168   2.416  0.4832 -0.4379  0.1984
   11bbb     C4  281   7.281   7.213   2.365 -0.0723 -0.0225  0.4498
   11bbb     C5  282   7.754   7.029   2.472  0.2147  0.3853  0.3601
   11bbb     C6  283   7.852   6.946   2.382 -0.4063 -0.4265 -0.1589
   11bbb     C7  284   7.489   6.896   2.686  0.5767 -0.1513  0.3964
   11bbb     C8  285   7.387   6.934   2.801  0.2674  0.5774 -0.3456
   11bbb     N2  286   7.390   6.837   2.913 -0.5054  0.0304 -0.2302
   11bbb     O1  287   7.203   7.128   2.323 -0.0742  0.0393 -0.4572
   11bbb     O2  288   7.817   6.886   2.282 -0.2082 -0.0749  0.1916
   11bbb     H1  289   7.360   6.958   2.456  2.4494 -2.4655 -1.3430
   11bbb     H2  290   7.337   7.069   2.588  1.1931 -0.0945  0.1079
   11bbb     H3  291   7.585   6.928   2.400 -2.9164  1.4190  0.5221
   11bbb     H4  292   7.660   6.839   2.538 -1.0451  0.6451  1.2378
   11bbb     H5  293   7.480   7.249   2.459  0.6238  0.3478 -1.3859
   11bbb     H6  294   7.471   7.121   2.332  1.9828 -0.2389  1.0026
   11bbb     H7  295   7.799   7.064   2.566 -0.6304  0.8977  0.5901
   11bbb     H8  296   7.722   7.119   2.417 -1.7403 -1.1263 -1.1265
   11bbb     H9  297   7.577   6.854   2.736  0.6966  1.4881  1.6369
   11bbb    H10  298   7.452   6.811   2.628 -1.5078  0.4615  0.7721
   11bbb    H11  299   7.283   6.924   2.767  0.9576 -0.4140 -2.3407
   11bbb    H12  300   7.410   7.033   2.842 -0.3806  0.4611  0.3077
   11bbb    H13  301   7.472   6.836   2.972 -0.1160  1.1696 -0.7179
   11bbb    H25  302   7.566   7.078   2.635  2.1492 -0.0497 -1.7407
   12bbb     N1  303   7.793   5.184   4.480  0.0634  0.3110 -0.6183
   12bbb     C1  304   7.838   5.078   4.591 -1.2352  0.2637  0.1747
   12bbb     C2  305   7.897   5.302   4.481 -0.1003  0.5660 -0.7595
   12bbb     C3  306   7.733   4.966   4.620 -0.2192  0.2520  0.1407
   12bbb     C4  307   7.759   4.869   4.730  1.1116  0.4607 -0.2348
   12bbb     C5  308   8.044   5.262   4.436 -0.2409 -0.2207  0.1981
   12bbb     C6  309   8.136   5.384   4.451 -0.8022 -0.7002 -0.5862
   12bbb     C7  310   7.656   5.250   4.513 -0.4533  0.2706 -0.0583
   12bbb     C8  311   7.547   5.223   4.415  0.3041 -0.0212 -0.3142
   12bbb     N2  312   7.440   5.325   4.425  0.2776 -0.2895 -0.2634
   12bbb     O1  313   7.867   4.835   4.766 -0.0666  0.3370  0.3406
   12bbb     O2  314   8.100   5.483   4.519 -0.5576 -0.4525  0.2665
   12bbb     H1  315   7.936   5.035   4.570 -2.1608 -2.1929  0.4783
   12bbb     H2  316   7.835   5.133   4.685  0.1637  0.7646 -0.0540
   12bbb     H3  317   7.896   5.338   4.584 -2.3277 -1.1550 -0.0992
   12bbb     H4  318   7.854   5.375   4.411 -0.0612  1.0351 -0.3001
   12bbb     H5  319   7.633   5.010   4.629 -0.6552 -0.5950 -0.3852
   12bbb     H6  320   7.740   4.902   4.531 -1.4606 -1.0713  0.9596
   12bbb     H7  321   8.051   5.220   4.335  1.4278 -0.8823  0.5526
   12bbb     H8  322   8.092   5.182   4.494  2.1754 -0.2879 -1.7090
   12bbb     H9  323   7.685   5.356   4.513  1.6601 -0.2530 -1.0654
   12bbb    H10  324   7.627   5.219   4.613 -1.2204  0.2705 -0.2737
   12bbb    H11  325   7.501   5.124   4.430  2.0337 -0.8773 -0.3952
   12bbb    H12  326   7.594   5.226   4.315 -0.3080  0.8508 -0.5792
   12bbb    H13  327   7.453   5.408   4.482 -1.0209  1.5626 -2.5131
   12bbb    H25  328   7.780   5.127   4.396 -0.3770 -3.1916  1.6075
   13bbb     N1  329   7.158   6.077   4.799  0.3045 -0.4887 -0.3941
   13bbb     C1  330   7.277   6.052   4.889 -0.6163 -0.8393  0.1547
   13bbb     C2  331   7.075   6.192   4.852  0.1031  0.5483 -0.4521
   13bbb     C3  332   7.255   6.017   5.041 -0.1377 -0.1185 -0.0925
   13bbb     C4  333   7.300   5.874   5.072 -0.7275  0.9545  0.4479
   13bbb     C5  334   7.130   6.334   4.842 -0.3516  0.0304  0.4309
   13bbb     C6  335   7.038   6.442   4.906 -0.1961  0.4091  0.0018
   13bbb     C7  336   7.074   5.949   4.773 -0.4428 -0.6707 -0.7570
   13bbb     C8  337   6.983   5.958   4.648  0.3693 -0.2759 -0.2741
   13bbb     N2  338   7.054   5.916   4.527  0.6164  0.3579  0.4509
   13bbb     O1  339   7.292   5.783   4.987  0.9290 -0.4208  0.1511
   13bbb     O2  340   6.927   6.415   4.936  0.4201 -0.3562  0.1114
   13bbb     H1  341   7.350   5.985   4.844  1.5540  1.7029 -0.3360
   13bbb     H2  342   7.323   6.150   4.903 -2.1204  0.0743 -0.9531
   13bbb     H3  343   7.062   6.170   4.958  2.3259 -2.7388 -0.7148
   13bbb     H4  344   6.976   6.192   4.806  1.2012 -0.5945 -3.0351
   13bbb     H5  345   7.302   6.085   5.112  1.3994 -1.5943  0.3650
   13bbb     H6  346   7.150   6.021   5.071 -0.3416 -1.3586 -0.5712
   13bbb     H7  347   7.158   6.354   4.738 -2.3503 -2.2741 -0.6669
   13bbb     H8  348   7.223   6.345   4.899 -0.0185 -1.4876  0.2387
   13bbb     H9  349   7.013   5.920   4.859  1.0927 -2.7502 -0.2814
   13bbb    H10  350   7.139   5.863   4.755 -1.1648 -1.7685  1.4997
   13bbb    H11  351   6.935   6.056   4.642  0.3112 -0.3080 -0.3312
   13bbb    H12  352   6.899   5.892   4.676  1.3148 -1.1324  0.6407
   13bbb    H13  353   7.137   5.858   4.533  0.6217 -0.4306 -3.7780
   13bbb    H25  354   7.190   6.114   4.708 -0.9485  0.4243 -0.4756
   14bbb     N1  355   5.177   5.422   3.736  0.5646  0.0238  0.8283
   14bbb     C1  356   5.287   5.460   3.834 -0.0316  0.0594  0.4309
   14bbb     C2  357   5.159   5.270   3.734  0.2200  0.1606  0.1418
   14bbb     C3  358   5.261   5.427   3.984  0.9168  0.4008  0.1334
   14bbb     C4  359   5.170   5.527   4.054  0.0326  0.0237  0.7432
   14bbb     C5  360   5.050   5.205   3.645  0.2222 -0.7694 -0.3380
   14bbb     C6  361   5.031   5.058   3.667 -0.0975 -0.2377 -0.0829
   14bbb     C7  362   5.214   5.472   3.599  0.3246 -0.0021 -0.0508
   14bbb     C8  363   5.111   5.570   3.534 -0.1866  0.8437  0.1456
   14bbb     N2  364   5.168   5.643   3.420  0.1378  0.7730  0.4623
   14bbb     O1  365   5.110   5.612   3.995  0.4320  0.7297 -0.1444
   14bbb     O2  366   5.030   5.011   3.782  0.0728 -0.3927 -0.2692
   14bbb     H1  367   5.374   5.405   3.799  0.0778  1.9782 -2.6104
   14bbb     H2  368   5.301   5.567   3.819 -3.4169  0.5556  0.0898
   14bbb     H3  369   5.140   5.243   3.838  0.1908 -1.3065 -0.2333
   14bbb     H4  370   5.248   5.213   3.711 -0.8111 -1.1633 -0.7108
   14bbb     H5  371   5.210   5.332   4.006  1.5337  0.1440  0.4768
   14bbb     H6  372   5.357   5.434   4.036  0.1752  2.0335  1.3612
   14bbb     H7  373   5.063   5.234   3.540 -1.2355 -1.6414 -0.7876
   14bbb     H8  374   4.957   5.259   3.666  1.1343  1.0103 -0.6430
   14bbb     H9  375   5.235   5.389   3.532 -0.9541 -0.6228  0.2880
   14bbb    H10  376   5.305   5.532   3.606 -0.3492  1.1651 -1.0326
   14bbb    H11  377   5.096   5.646   3.612 -0.4124 -0.2333  1.1781
   14bbb    H12  378   5.020   5.519   3.499  0.0668  0.2590  0.3371
   14bbb    H13  379   5.263   5.678   3.420  0.2129  0.5607  1.1796
   14bbb    H25  380   5.086   5.467   3.755  0.2343 -0.1266 -0.3660
   15bbb     N1  381   4.884   5.462   2.274  0.2056  0.2285 -0.3653
   15bbb     C1  382   4.982   5.526   2.180  1.0382 -0.1054 -0.6445
   15bbb     C2  383   4.737   5.506   2.248 -0.1469 -0.3151  0.0948
   15bbb     C3  384   4.943   5.513   2.032  0.0417 -0.1025  0.6079
   15bbb     C4  385   5.049   5.578   1.937  0.0357  0.3633  0.0868
   15bbb     C5  386   4.626   5.488   2.355 -0.8179  0.5085 -0.1648
   15bbb     C6  387   4.480   5.485   2.306 -0.0776  0.0480 -0.0733
   15bbb     C7  388   4.931   5.480   2.417  0.1497  0.0195 -0.5399
   15bbb     C8  389   5.063   5.415   2.450 -0.9729 -0.0362 -0.5980
   15bbb     N2  390   5.110   5.453   2.578  0.5070  0.0072 -0.2726
   15bbb     O1  391   5.122   5.671   1.973  0.1021 -0.2861 -0.3191
   15bbb     O2  392   4.448   5.469   2.190  0.2460 -0.8594 -0.1773
   15bbb     H1  393   4.985   5.630   2.213  0.6412 -0.2780 -0.0613
   15bbb     H2  394   5.083   5.488   2.193  1.0747  0.6191  1.6962
   15bbb     H3  395   4.707   5.456   2.155 -1.8712  0.0695  0.4070
   15bbb     H4  396   4.744   5.609   2.212 -1.3860 -0.2551 -0.0313
   15bbb     H5  397   4.928   5.408   2.004  0.8923 -0.0234 -0.2139
   15bbb     H6  398   4.847   5.561   2.011  0.5051 -0.3047 -2.3533
   15bbb     H7  399   4.632   5.571   2.426  0.0296 -0.3613  0.8095
   15bbb     H8  400   4.643   5.393   2.408  0.6826  1.2888  0.8115
   15bbb     H9  401   4.856   5.423   2.474 -0.0060  1.6455  0.9633
   15bbb    H10  402   4.930   5.586   2.442  1.7334 -0.2572  0.8512
   15bbb    H11  403   5.144   5.447   2.383  0.4471  1.5439  1.7377
   15bbb    H12  404   5.048   5.306   2.445  2.9118 -0.7989  0.6263
   15bbb    H13  405   5.057   5.414   2.655  0.1743  2.4577  0.8399
   15bbb    H25  406   4.900   5.361   2.271 -0.7719  0.0160  0.6413
   16bbb     N1  407   5.039   7.124   3.588 -0.2101  0.3618  0.4749
   16bbb     C1  408   5.091   7.122   3.725 -0.3803  0.1102 -0.5483
   16bbb     C2  409   4.924   7.021   3.580 -0.2230  0.8972  0.5045
   16bbb     C3  410   5.007   7.205   3.830  0.4408 -0.0599 -0.1409
   16bbb     C4  411   5.061   7.202   3.971  0.0735 -0.2194 -1.1711
   16bbb     C5  412   4.853   7.014   3.444  0.5402  0.3659 -0.0546
   16bbb     C6  413   4.740   6.908   3.441  0.3250 -1.1296  0.0790
   16bbb     C7  414   5.158   7.101   3.490 -0.0958  0.2052 -0.0665
   16bbb     C8  415   5.218   6.956   3.487  0.1181 -0.6066  0.6102
   16bbb     N2  416   5.332   6.947   3.391 -0.1523  0.1303  0.4465
   16bbb     O1  417   5.173   7.156   3.999  0.3161 -0.4485 -0.1921
   16bbb     O2  418   4.738   6.823   3.522 -0.3743  0.2173 -0.2060
   16bbb     H1  419   5.082   7.017   3.751  1.8056 -0.2626 -1.0384
   16bbb     H2  420   5.197   7.145   3.739 -0.3636  0.0024 -0.5018
   16bbb     H3  421   4.844   7.038   3.653  0.0036 -1.4469  1.3696
   16bbb     H4  422   4.962   6.922   3.604 -0.6739  1.0267  1.8955
   16bbb     H5  423   4.990   7.307   3.794  1.2794 -0.3381 -1.3666
   16bbb     H6  424   4.905   7.164   3.835 -0.3358  1.8060  0.3323
   16bbb     H7  425   4.929   6.994   3.367  0.3661 -1.6805  0.2625
   16bbb     H8  426   4.796   7.102   3.414 -1.0079 -0.5529  0.1218
   16bbb     H9  427   5.233   7.179   3.499  1.2729 -1.0171 -0.5687
   16bbb    H10  428   5.114   7.120   3.392 -1.4762 -0.3939  0.4016
   16bbb    H11  429   5.149   6.878   3.452 -1.8472  0.9636  0.7811
   16bbb    H12  430   5.252   6.941   3.589 -1.0955 -1.5435  0.9146
   16bbb    H13  431   5.375   7.028   3.348  1.8015 -2.3903 -2.8018
   16bbb    H25  432   5.002   7.217   3.565 -0.9355  0.1042  0.5565
   17bbb     N1  433   5.246   6.831   2.234 -0.0510  0.5046  0.1115
   17bbb     C1  434   5.327   6.901   2.125 -0.1146  0.3344  0.9793
   17bbb     C2  435   5.101   6.862   2.217  0.2042 -0.6481 -0.7263
   17bbb     C3  436   5.295   6.855   1.989  0.4593  0.2307 -0.0204
   17bbb     C4  437   5.375   6.933   1.881  0.5874 -0.2615  0.3648
   17bbb     C5  438   5.004   6.741   2.253 -0.5465 -0.2169  0.5491
   17bbb     C6  439   4.864   6.761   2.193  0.0103  0.1450 -0.4967
   17bbb     C7  440   5.306   6.866   2.374  0.0172  0.2466  0.5812
   17bbb     C8  441   5.261   6.774   2.481 -0.1326 -0.3184  0.3005
   17bbb     N2  442   5.319   6.794   2.611  0.1813 -0.2811  0.7380
   17bbb     O1  443   5.496   6.937   1.883 -0.3241  0.1511  0.0087
   17bbb     O2  444   4.847   6.812   2.085  0.3691  0.0433  0.2707
   17bbb     H1  445   5.312   7.009   2.124  0.1376  0.5649 -4.0593
   17bbb     H2  446   5.434   6.886   2.143  0.5054 -0.4145 -2.5647
   17bbb     H3  447   5.098   6.891   2.112  2.0930  2.4288 -0.0485
   17bbb     H4  448   5.076   6.958   2.263 -0.6485 -1.1802 -0.0330
   17bbb     H5  449   5.311   6.748   1.975 -0.5917 -0.1209  1.1989
   17bbb     H6  450   5.190   6.873   1.965  1.0494  3.7451 -0.5380
   17bbb     H7  451   5.002   6.736   2.362  0.7003  1.2578  0.6666
   17bbb     H8  452   5.045   6.646   2.217  0.0834 -0.7522  2.5913
   17bbb     H9  453   5.265   6.966   2.393  2.2864  1.4583 -0.4511
   17bbb    H10  454   5.413   6.879   2.360  0.0777  0.9625  1.5929
   17bbb    H11  455   5.294   6.676   2.443 -2.4911 -0.3744 -1.9141
   17bbb    H12  456   5.152   6.776   2.494 -0.0587  2.5412  1.1488
   17bbb    H13  457   5.280   6.864   2.672 -1.1090 -0.9437  0.7046
   17bbb    H25  458   5.258   6.731   2.215  0.3169  0.4685  0.5255
   18bbb     N1  459   7.549   4.968   0.870  0.1534  0.2360 -0.0345
   18bbb     C1  460   7.434   4.985   0.769 -0.4014 -0.2598  0.5295
   18bbb     C2  461   7.635   4.853   0.832  0.0742  0.8306  0.5002
   18bbb     C3  462   7.344   5.104   0.807 -0.7251 -0.0258  0.0183
   18bbb     C4  463   7.252   5.134   0.688  0.4612  0.3469 -0.3737
   18bbb     C5  464   7.693   4.852   0.690 -0.3521  0.1625  0.0708
   18bbb     C6  465   7.798   4.740   0.657  0.7410  0.4288  0.8612
   18bbb     C7  466   7.485   4.934   1.005  0.1994 -0.3393  0.6938
   18bbb     C8  467   7.577   4.938   1.126 -0.4901 -0.1761  0.3783
   18bbb     N2  468   7.497   4.960   1.246 -0.0234  0.7409 -0.4118
   18bbb     O1  469   7.275   5.087   0.573  0.5875 -0.3237 -0.2004
   18bbb     O2  470   7.789   4.627   0.699  0.4606 -0.3510 -0.1313
   18bbb     H1  471   7.486   5.015   0.678  0.5291  1.1825  1.4794
   18bbb     H2  472   7.377   4.893   0.768  0.8432 -1.1685  3.1610
   18bbb     H3  473   7.580   4.759   0.844 -0.5036  0.8260 -1.7757
   18bbb     H4  474   7.716   4.856   0.905 -0.5914  1.7838  1.2267
   18bbb     H5  475   7.290   5.079   0.899 -0.5009 -1.6566 -0.2602
   18bbb     H6  476   7.411   5.191   0.814  0.0787 -0.4153 -2.1472
   18bbb     H7  477   7.737   4.948   0.663 -2.7695  1.0686 -0.9154
   18bbb     H8  478   7.619   4.836   0.610  0.1235  1.6316 -0.7005
   18bbb     H9  479   7.439   4.835   1.000 -0.4049 -0.1248  1.7776
   18bbb    H10  480   7.402   5.000   1.027 -0.7722 -2.1815  3.0292
   18bbb    H11  481   7.647   5.018   1.100  0.4072 -1.2975 -0.7880
   18bbb    H12  482   7.638   4.848   1.139 -0.5525 -0.5957 -1.8285
   18bbb    H13  483   7.398   4.960   1.224 -0.2151  1.6513  0.4263
   18bbb    H25  484   7.608   5.051   0.887  1.0748 -0.7533  1.9511
   19bbb     N1  485   7.397   5.710   1.118  0.2906  0.5194  0.3226
   19bbb     C1  486   7.384   5.862   1.129  0.2760 -0.3287  0.4788
   19bbb     C2  487   7.423   5.661   0.973  0.0756  0.2044 -0.4634
   19bbb     C3  488   7.265   5.938   1.065  0.0983 -0.2310 -0.1100
   19bbb     C4  489   7.249   6.090   1.110  0.2810  0.0876  0.4856
   19bbb     C5  490   7.559   5.703   0.909 -0.3783 -0.8551 -0.4874
   19bbb     C6  491   7.573   5.666   0.764  0.2525 -0.1773  0.1766
   19bbb     C7  492   7.275   5.647   1.187 -0.0627  0.0945  0.2500
   19bbb     C8  493   7.254   5.673   1.340 -0.4253 -0.2062  0.7684
   19bbb     N2  494   7.329   5.573   1.421 -0.1002 -0.0797  0.6402
   19bbb     O1  495   7.339   6.136   1.177 -0.6659 -0.3661 -0.4505
   19bbb     O2  496   7.479   5.623   0.695 -0.5817 -1.2618  0.1816
   19bbb     H1  497   7.384   5.888   1.235 -3.7373  0.4444  0.4477
   19bbb     H2  498   7.474   5.901   1.081  0.3402  2.4328  2.6114
   19bbb     H3  499   7.347   5.699   0.906 -1.3086 -1.3816  0.1548
   19bbb     H4  500   7.403   5.554   0.965  0.0168  0.1113  0.6870
   19bbb     H5  501   7.251   5.933   0.956  0.9783 -0.8831 -0.2050
   19bbb     H6  502   7.168   5.893   1.093 -0.8627  1.7347 -0.1393
   19bbb     H7  503   7.640   5.655   0.966 -0.4322  1.4094  1.6578
   19bbb     H8  504   7.582   5.808   0.928 -0.0680 -1.2130  1.3071
   19bbb     H9  505   7.284   5.539   1.177 -0.4651 -0.5267  4.6049
   19bbb    H10  506   7.196   5.682   1.121 -0.3198 -1.7590 -0.4762
   19bbb    H11  507   7.150   5.674   1.375 -0.3840 -1.1869  0.9450
   19bbb    H12  508   7.301   5.770   1.360 -0.1186  0.3381 -2.0999
   19bbb    H13  509   7.387   5.504   1.375  1.1151 -0.3970  2.5190
   19bbb    H25  510   7.475   5.677   1.177 -0.6481 -0.6069  0.9698
   20bbb     N1  511   8.279   4.091   2.642  0.3170 -0.6025 -0.7078
   20bbb     C1  512   8.328   4.081   2.788 -0.5877  0.8917  0.5034
   20bbb     C2  513   8.394   4.164   2.566  0.4071 -0.0249 -0.7007
   20bbb     C3  514   8.238   3.995   2.879  0.1709 -0.1900 -0.0776
   20bbb     C4  515   8.221   3.845   2.850  0.0093  0.0636 -0.0268
   20bbb     C5  516   8.520   4.085   2.539 -0.0477  0.3792 -0.5283
   20bbb     C6  517   8.630   4.173   2.479 -0.7873  0.9358  0.3839
   20bbb     C7  518   8.139   4.165   2.625 -0.9564  0.0312  0.3280
   20bbb     C8  519   8.132   4.316   2.657 -0.7526 -0.0050  0.6535
   20bbb     N2  520   7.995   4.362   2.633  0.4020 -0.3429  0.0923
   20bbb     O1  521   8.264   3.794   2.744  0.0198 -0.0928 -0.3981
   20bbb     O2  522   8.608   4.279   2.428 -0.6538 -0.2063  0.2296
   20bbb     H1  523   8.429   4.040   2.778 -0.7850  0.2893  0.9988
   20bbb     H2  524   8.341   4.181   2.830 -0.7610  0.2309  2.2105
   20bbb     H3  525   8.409   4.250   2.632 -0.7460 -0.4435  0.1228
   20bbb     H4  526   8.353   4.204   2.473 -1.5033 -0.9573 -0.3050
   20bbb     H5  527   8.262   4.011   2.985 -0.6821 -3.2368  0.6724
   20bbb     H6  528   8.136   4.031   2.861 -0.4063 -2.5414 -2.1104
   20bbb     H7  529   8.505   3.997   2.476 -0.7912 -0.3376  0.6187
   20bbb     H8  530   8.559   4.045   2.633 -0.8240 -0.4841 -0.5615
   20bbb     H9  531   8.055   4.128   2.683 -1.8019  3.2485  1.3874
   20bbb    H10  532   8.116   4.143   2.521  0.5788 -2.4725  0.4333
   20bbb    H11  533   8.210   4.367   2.599 -0.9574  0.6266  0.9283
   20bbb    H12  534   8.163   4.345   2.758  0.7232  0.7542  0.0103
   20bbb    H13  535   7.968   4.423   2.556 -2.3973 -0.0877  1.1535
   20bbb    H25  536   8.272   3.996   2.604  1.1984 -0.9287 -0.0838
   21bbb     N1  537   7.105   3.741   2.383 -0.6700 -0.1196 -0.0904
   21bbb     C1  538   6.975   3.725   2.448  0.8529 -0.3970 -0.1838
   21bbb     C2  539   7.165   3.607   2.342 -0.0891 -0.0225  0.2440
   21bbb     C3  540   6.885   3.859   2.426  0.0128  0.1791  0.1163
   21bbb     C4  541   6.736   3.839   2.456  0.6207  0.4678  0.4282
   21bbb     C5  542   7.086   3.542   2.224 -0.7896 -0.4652 -0.2773
   21bbb     C6  543   7.120   3.393   2.225  0.1037  0.4042 -0.6516
   21bbb     C7  544   7.190   3.820   2.493 -0.3330  0.1327  0.3161
   21bbb     C8  545   7.323   3.881   2.446  0.6599 -0.0680  0.1144
   21bbb     N2  546   7.378   3.965   2.552 -0.5694  0.2265  0.7884
   21bbb     O1  547   6.687   3.735   2.502  0.0313  0.8366  0.5267
   21bbb     O2  548   7.210   3.346   2.292 -0.6396 -0.1497 -0.1697
   21bbb     H1  549   6.926   3.639   2.402  2.5900 -0.5378 -1.9452
   21bbb     H2  550   6.989   3.700   2.553  1.0977 -0.4988 -0.2386
   21bbb     H3  551   7.171   3.542   2.430  1.1068 -1.0062 -0.5389
   21bbb     H4  552   7.265   3.631   2.305 -0.6467 -0.9984 -2.0284
   21bbb     H5  553   6.908   3.933   2.504 -0.6030 -0.2422  0.7143
   21bbb     H6  554   6.901   3.909   2.330 -3.0449 -0.6846 -0.9392
   21bbb     H7  555   7.111   3.590   2.128  1.7668  0.3402  0.7190
   21bbb     H8  556   6.979   3.556   2.244 -0.4839 -0.1589  1.1982
   21bbb     H9  557   7.213   3.756   2.579  1.3235  0.1658 -0.0804
   21bbb    H10  558   7.123   3.902   2.521 -0.9686 -0.9315  2.1213
   21bbb    H11  559   7.310   3.950   2.362  2.6548 -1.6942 -1.6682
   21bbb    H12  560   7.387   3.802   2.405  0.9307  0.3885 -0.3650
   21bbb    H13  561   7.446   3.920   2.612 -0.0028 -1.6608 -1.1494
   21bbb    H25  562   7.096   3.794   2.295  2.4861 -1.4810 -1.3868
   22bbb     N1  563   8.269   7.677   3.841 -0.0291 -0.1174  0.0717
   22bbb     C1  564   8.371   7.656   3.964  0.5493 -0.2426 -0.0792
   22bbb     C2  565   8.291   7.825   3.806 -0.1650  0.0133  0.3800
   22bbb     C3  566   8.365   7.738   4.089  0.3446 -0.2169 -0.1920
   22bbb     C4  567   8.476   7.708   4.183  0.5601 -0.2873 -0.6191
   22bbb     C5  568   8.218   7.884   3.681 -0.1946 -0.0074  0.2322
   22bbb     C6  569   8.264   8.027   3.668 -0.4270 -0.1442 -0.7135
   22bbb     C7  570   8.120   7.654   3.880 -0.5168 -0.6141  0.2747
   22bbb     C8  571   8.098   7.501   3.903  0.0303 -0.2266 -0.9442
   22bbb     N2  572   7.954   7.476   3.924 -0.2285  0.2863  1.0099
   22bbb     O1  573   8.577   7.655   4.146 -0.0578 -0.6635 -0.7557
   22bbb     O2  574   8.353   8.075   3.739  0.5612 -0.1664  0.4425
   22bbb     H1  575   8.367   7.550   3.991  1.4633 -0.2366  0.1006
   22bbb     H2  576   8.472   7.668   3.925  0.3284 -1.9457 -1.3170
   22bbb     H3  577   8.398   7.846   3.800  0.2517 -1.6463  1.3886
   22bbb     H4  578   8.260   7.886   3.891  0.7028 -1.2635  1.6614
   22bbb     H5  579   8.366   7.847   4.071  0.7029 -0.4483 -1.7573
   22bbb     H6  580   8.274   7.711   4.144  1.2064  0.7197  1.8025
   22bbb     H7  581   8.110   7.888   3.699 -0.1862 -0.7728  0.4803
   22bbb     H8  582   8.230   7.820   3.593 -1.1686  1.6808 -1.1907
   22bbb     H9  583   8.054   7.682   3.798 -1.7421 -2.6033  0.5091
   22bbb    H10  584   8.087   7.712   3.966  0.9963  0.8504 -0.0944
   22bbb    H11  585   8.147   7.465   3.995  0.4213  1.0780 -0.6201
   22bbb    H12  586   8.140   7.443   3.820  1.0219 -1.2124  0.2085
   22bbb    H13  587   7.890   7.555   3.913  0.3113  0.7190  0.9100
   22bbb    H25  588   8.298   7.615   3.764 -1.9352 -1.8511  0.6575
   23bbb     N1  589   7.135   7.847   4.383 -0.3897  0.0007 -0.0820
   23bbb     C1  590   7.156   7.920   4.514 -0.1534 -0.7715  0.6206
   23bbb     C2  591   7.003   7.894   4.316  0.4570  0.0743 -0.2135
   23bbb     C3  592   7.046   7.917   4.618  1.1213 -0.4855 -0.0476
   23bbb     C4  593   7.066   8.020   4.732 -0.1943 -0.2236 -0.1447
   23bbb     C5  594   6.988   8.026   4.242 -0.7541 -0.8642 -0.4342
   23bbb     C6  595   6.969   8.155   4.318  0.5316 -0.2566 -0.6103
   23bbb     C7  596   7.126   7.699   4.420  0.3689 -0.1051 -0.1111
   23bbb     C8  597   7.251   7.623   4.444 -0.1803 -0.3655  0.6712
   23bbb     N2  598   7.328   7.617   4.317  0.4670  0.0018  0.1475
   23bbb     O1  599   7.166   8.091   4.731 -0.0709  0.0126  0.2047
   23bbb     O2  600   6.943   8.151   4.437  0.0233  0.6165 -0.2129
   23bbb     H1  601   7.257   7.907   4.553 -0.1260  1.0940  1.2880
   23bbb     H2  602   7.158   8.024   4.482 -0.1624 -1.2487 -1.0119
   23bbb     H3  603   6.917   7.864   4.375  0.3339  0.5002 -0.1750
   23bbb     H4  604   6.982   7.824   4.235 -1.5235  1.2490 -0.7809
   23bbb     H5  605   6.951   7.944   4.571  0.8292 -2.4139 -0.6526
   23bbb     H6  606   7.018   7.819   4.658 -1.5587 -0.1397 -0.8266
   23bbb     H7  607   6.891   8.023   4.189  0.5768 -2.4807 -2.9575
   23bbb     H8  608   7.069   8.035   4.168  0.1857 -0.0676  0.6513
   23bbb     H9  609   7.078   7.644   4.339 -1.0797 -1.1325  1.3871
   23bbb    H10  610   7.063   7.679   4.506  0.9697 -0.7115  0.2007
   23bbb    H11  611   7.229   7.522   4.478  0.0177 -0.4728  0.4812
   23bbb    H12  612   7.303   7.683   4.520 -0.4219  0.1538  0.4346
   23bbb    H13  613   7.377   7.702   4.291 -0.9860  0.5679 -0.8564
   23bbb    H25  614   7.219   7.864   4.326  1.8052 -1.1385  2.5959
   24bbb     N1  615   7.040   7.619   2.212  0.3834  0.2216 -0.3345
   24bbb     C1  616   7.117   7.665   2.090  0.5220 -0.2121  0.6458
   24bbb     C2  617   6.977   7.741   2.284 -0.2613 -0.2215  0.0295
   24bbb     C3  618   7.033   7.701   1.959 -0.1332  0.0683  0.2807
   24bbb     C4  619   7.111   7.711   1.831  0.2595  0.0987 -0.1432
   24bbb     C5  620   6.853   7.716   2.376  0.4499  0.1520 -0.1303
   24bbb     C6  621   6.767   7.847   2.405 -0.1976  0.8492  0.1122
   24bbb     C7  622   7.133   7.563   2.314 -0.2621 -0.6284  0.3801
   24bbb     C8  623   7.140   7.412   2.303  0.2084  0.4101  0.3574
   24bbb     N2  624   7.268   7.350   2.345 -0.4883 -0.0725 -0.6342
   24bbb     O1  625   7.207   7.641   1.800  0.2081 -0.6332 -0.0362
   24bbb     O2  626   6.787   7.948   2.344 -0.2772 -0.0896  0.0672
   24bbb     H1  627   7.179   7.752   2.110 -0.5108  1.7746 -3.5993
   24bbb     H2  628   7.176   7.580   2.057 -1.6319 -0.7387 -2.2699
   24bbb     H3  629   6.946   7.794   2.193 -0.7877  0.1658  0.4248
   24bbb     H4  630   7.061   7.787   2.335  0.1262 -1.6995  0.7692
   24bbb     H5  631   6.956   7.624   1.948  0.6994 -0.5335 -1.6954
   24bbb     H6  632   6.984   7.799   1.971  1.4299  1.1941 -1.9460
   24bbb     H7  633   6.887   7.671   2.470  1.3191 -0.7907 -0.8705
   24bbb     H8  634   6.782   7.647   2.327 -1.4142  0.0440  2.5216
   24bbb     H9  635   7.085   7.583   2.410  1.4631  0.8459  0.9857
   24bbb    H10  636   7.227   7.618   2.308 -0.4434 -0.4682 -2.2853
   24bbb    H11  637   7.125   7.381   2.199  1.5435 -0.9531  0.5376
   24bbb    H12  638   7.058   7.373   2.365  0.6172  1.4310  1.6031
   24bbb    H13  639   7.354   7.403   2.349 -0.2235 -0.5514  1.4280
   24bbb    H25  640   6.958   7.561   2.190 -0.5809  0.7246  1.6658
   25bbb     N1  641   8.333   6.790   2.420 -0.4001 -0.0263  0.3566
   25bbb     C1  642   8.422   6.765   2.539 -0.2591  0.3393 -0.1124
   25bbb     C2  643   8.405   6.878   2.314 -0.0845 -0.6576  0.1194
   25bbb     C3  644   8.540   6.675   2.507  0.0454  0.1847  0.0699
   25bbb     C4  645   8.602   6.632   2.642 -0.4510  1.0666  0.2401
   25bbb     C5  646   8.450   7.019   2.357 -0.1212 -0.1202  0.2899
   25bbb     C6  647   8.509   7.106   2.248  0.5704  0.2352 -0.2339
   25bbb     C7  648   8.206   6.851   2.465 -0.3468  0.7762 -0.5743
   25bbb     C8  649   8.089   6.869   2.365 -0.0550 -0.0678 -0.6315
   25bbb     N2  650   7.980   6.942   2.429 -0.7607  0.1709  0.0371
   25bbb     O1  651   8.550   6.648   2.754  0.1974  0.1291  0.4271
   25bbb     O2  652   8.445   7.188   2.192  0.1291  0.5024  0.2027
   25bbb     H1  653   8.458   6.864   2.570  2.2903 -0.7182  0.5163
   25bbb     H2  654   8.362   6.719   2.618 -0.5785  0.4527 -0.2878
   25bbb     H3  655   8.330   6.895   2.237 -1.2880 -3.0535  0.6549
   25bbb     H4  656   8.483   6.817   2.268 -0.4019 -0.9111 -0.0943
   25bbb     H5  657   8.505   6.591   2.447 -0.6616  0.8438 -0.4624
   25bbb     H6  658   8.620   6.727   2.454  0.8238 -0.9090  0.1427
   25bbb     H7  659   8.531   7.002   2.430  2.0644  0.5154 -1.8586
   25bbb     H8  660   8.370   7.067   2.415 -1.7070 -2.6675  0.3883
   25bbb     H9  661   8.229   6.947   2.512  1.2187  0.1343  0.0504
   25bbb    H10  662   8.180   6.786   2.548  2.9567  0.0659  0.0387
   25bbb    H11  663   8.062   6.763   2.357  0.6363 -0.4766  1.6419
   25bbb    H12  664   8.115   6.914   2.269  0.1594  2.8166  0.6826
   25bbb    H13  665   7.994   6.990   2.517 -1.8337 -2.3563  1.7038
   25bbb    H25  666   8.307   6.702   2.373  1.1126  1.2150 -3.1179
   26bbb     N1  667   7.518   4.509   5.001  0.3634 -0.5858 -0.5240
   26bbb     C1  668   7.388   4.515   5.081  0.2285  0.1517 -0.8912
   26bbb     C2  669   7.640   4.457   5.076  0.7432 -0.2373  0.2087
   26bbb     C3  670   7.322   4.377   5.126 -0.2104 -0.2442 -0.1732
   26bbb     C4  671   7.207   4.408   5.228  0.5299 -0.4269  0.3245
   26bbb     C5  672   7.668   4.514   5.216  0.8485  0.1532  0.3496
   26bbb     C6  673   7.801   4.460   5.266 -0.3470 -0.5408 -0.7803
   26bbb     C7  674   7.531   4.652   4.954  0.1602  0.3270  0.1495
   26bbb     C8  675   7.653   4.679   4.862  0.5345 -0.6692  0.3877
   26bbb     N2  676   7.645   4.809   4.788  0.0927  0.4154  0.2308
   26bbb     O1  677   7.120   4.488   5.195 -0.0550 -0.4814 -0.1354
   26bbb     O2  678   7.913   4.486   5.220 -0.3443  0.3108 -0.1210
   26bbb     H1  679   7.402   4.576   5.171 -0.2826 -0.6378 -0.2529
   26bbb     H2  680   7.309   4.547   5.013  1.1453  1.0605 -1.5545
   26bbb     H3  681   7.728   4.479   5.015  1.4956  0.0331  1.3446
   26bbb     H4  682   7.629   4.350   5.091  0.3134 -0.1172  0.7825
   26bbb     H5  683   7.279   4.309   5.051  0.5656 -0.8376 -0.0935
   26bbb     H6  684   7.396   4.317   5.180 -0.6052 -2.2408 -1.7374
   26bbb     H7  685   7.586   4.480   5.280 -0.8584  1.6856 -0.9367
   26bbb     H8  686   7.679   4.623   5.208 -1.0967  0.2659 -1.6019
   26bbb     H9  687   7.530   4.723   5.037 -1.6372  1.0312 -0.4224
   26bbb    H10  688   7.436   4.668   4.904 -1.2593 -2.0281  1.8879
   26bbb    H11  689   7.656   4.599   4.787  0.3727  1.7559 -2.4081
   26bbb    H12  690   7.744   4.672   4.923  1.3551 -1.4432 -0.8834
   26bbb    H13  691   7.555   4.841   4.753  0.2812 -0.7954 -1.5079
   26bbb    H25  692   7.503   4.455   4.914 -0.8125 -0.6173 -0.3253
   27bbb     N1  693   8.605   5.534   4.310  0.5274  0.3166 -0.1573
   27bbb     C1  694   8.583   5.598   4.170 -0.2870 -0.0721  0.0602
   27bbb     C2  695   8.743   5.473   4.316  0.7637  0.0536 -0.0066
   27bbb     C3  696   8.678   5.710   4.126 -0.3495 -0.4341  0.8398
   27bbb     C4  697   8.649   5.773   3.992 -0.4104  0.1243  0.3368
   27bbb     C5  698   8.791   5.437   4.454 -0.2500 -0.2261  0.6461
   27bbb     C6  699   8.941   5.386   4.438 -0.5241  0.9673  0.0925
   27bbb     C7  700   8.496   5.427   4.339  0.4182  0.3124 -0.1513
   27bbb     C8  701   8.352   5.482   4.360 -0.6279  0.2748 -0.1610
   27bbb     N2  702   8.262   5.373   4.404 -0.0141  0.3192  0.3957
   27bbb     O1  703   8.625   5.890   3.984  0.2219  0.3117  0.0466
   27bbb     O2  704   8.989   5.369   4.325 -0.2253 -0.1627  0.2576
   27bbb     H1  705   8.581   5.520   4.094 -0.2930 -0.0923  0.0809
   27bbb     H2  706   8.481   5.637   4.160  0.0606  0.5883 -1.2213
   27bbb     H3  707   8.809   5.547   4.270  1.2939 -0.2496  0.2587
   27bbb     H4  708   8.729   5.385   4.253  0.4353 -0.5989  0.9559
   27bbb     H5  709   8.661   5.792   4.197 -1.4307  0.5111 -0.4665
   27bbb     H6  710   8.785   5.684   4.128 -0.0753  0.6201  2.4364
   27bbb     H7  711   8.729   5.361   4.502  0.0769 -0.8298  0.1281
   27bbb     H8  712   8.788   5.521   4.524 -1.2876 -0.4804  0.9271
   27bbb     H9  713   8.519   5.385   4.437 -1.3594 -1.7245 -0.5273
   27bbb    H10  714   8.494   5.354   4.259 -0.7586  0.9904 -0.7766
   27bbb    H11  715   8.308   5.521   4.267 -0.1962  1.1687 -0.0036
   27bbb    H12  716   8.347   5.560   4.437 -0.0022  1.3984 -1.2354
   27bbb    H13  717   8.281   5.282   4.364 -3.1891 -0.9775  1.5078
   27bbb    H25  718   8.601   5.602   4.388  5.4203 -0.1702  0.7790
   28bbb     N1  719   7.276   5.747   5.460 -0.1771 -0.2612  0.0733
   28bbb     C1  720   7.404   5.784   5.531  0.2386  0.4423  0.5127
   28bbb     C2  721   7.183   5.683   5.559 -0.5249  0.0947  0.0787
   28bbb     C3  722   7.398   5.891   5.638  0.0827 -0.2852  0.3546
   28bbb     C4  723   7.540   5.894   5.705 -0.3633 -0.6310 -0.3965
   28bbb     C5  724   7.049   5.640   5.494 -0.2775 -0.2735 -0.3251
   28bbb     C6  725   6.946   5.596   5.598  0.2895 -0.4482 -0.0215
   28bbb     C7  726   7.316   5.657   5.345  0.2871  0.5638 -0.1979
   28bbb     C8  727   7.403   5.721   5.233 -0.5233  0.0260 -0.3914
   28bbb     N2  728   7.353   5.848   5.195 -0.1603 -0.6573 -0.1344
   28bbb     O1  729   7.629   5.816   5.689  0.0237 -0.0184 -0.0981
   28bbb     O2  730   6.984   5.513   5.678  0.0708  0.2283  0.1642
   28bbb     H1  731   7.436   5.688   5.573  1.8000  0.3299 -0.8315
   28bbb     H2  732   7.467   5.809   5.446 -0.9711 -0.7416 -0.7847
   28bbb     H3  733   7.166   5.756   5.638 -0.7685 -0.4350  0.5209
   28bbb     H4  734   7.233   5.596   5.601  0.5746  0.6650 -0.0303
   28bbb     H5  735   7.377   5.994   5.608 -1.3121 -0.5573  0.3129
   28bbb     H6  736   7.330   5.871   5.722 -0.5601  0.7727  0.1073
   28bbb     H7  737   7.057   5.554   5.427 -1.4324  0.3955 -1.3733
   28bbb     H8  738   7.015   5.727   5.436 -0.1442  1.0647  1.5091
   28bbb     H9  739   7.219   5.622   5.308 -1.9848  2.9264  2.8895
   28bbb    H10  740   7.370   5.571   5.385 -0.8065 -1.7005 -3.2086
   28bbb    H11  741   7.412   5.649   5.150 -0.8988 -1.3680  0.7223
   28bbb    H12  742   7.504   5.730   5.274 -0.7216  1.5346 -0.1954
   28bbb    H13  743   7.341   5.922   5.263 -0.7851  0.4107 -1.3533
   28bbb    H25  744   7.227   5.828   5.420 -1.0194 -0.3184  0.9423
   29bbb     N1  745   6.996   6.755   5.241  0.4805 -0.4607  0.5793
   29bbb     C1  746   7.019   6.703   5.374  0.2960 -0.2885  1.1194
   29bbb     C2  747   6.844   6.790   5.224 -0.0215  0.9670 -0.5486
   29bbb     C3  748   7.154   6.730   5.437  0.1072 -0.7368  0.7020
   29bbb     C4  749   7.164   6.670   5.572  0.1753  0.5837  0.0390
   29bbb     C5  750   6.788   6.910   5.304  0.6821 -0.3923 -0.5449
   29bbb     C6  751   6.637   6.902   5.315  0.1859  0.0196  0.9063
   29bbb     C7  752   7.042   6.651   5.140  0.2691  0.1210 -0.4887
   29bbb     C8  753   7.026   6.675   4.989  0.2753  0.0331  0.6275
   29bbb     N2  754   7.096   6.564   4.924 -0.7208 -0.0562 -0.1225
   29bbb     O1  755   7.079   6.599   5.621 -0.1815 -0.3401  0.4721
   29bbb     O2  756   6.577   6.823   5.245 -0.4085 -0.7055  0.2413
   29bbb     H1  757   6.939   6.744   5.436 -1.0996 -0.7220 -0.3100
   29bbb     H2  758   7.000   6.596   5.360  0.5355 -0.0257 -1.9292
   29bbb     H3  759   6.792   6.699   5.253  1.0864  0.2114 -0.8441
   29bbb     H4  760   6.828   6.816   5.119 -0.2370  2.3140 -0.2007
   29bbb     H5  761   7.232   6.696   5.368  0.7705 -0.7570  1.4449
   29bbb     H6  762   7.171   6.838   5.446  2.4057 -0.9002 -0.8274
   29bbb     H7  763   6.804   7.008   5.257 -1.0659 -0.0309 -0.4420
   29bbb     H8  764   6.830   6.904   5.406  0.7004 -1.5879 -0.6060
   29bbb     H9  765   6.997   6.555   5.166  0.5284  0.5425  1.6910
   29bbb    H10  766   7.147   6.646   5.170 -0.0146  1.0396  0.7546
   29bbb    H11  767   7.069   6.770   4.954  3.8927 -2.2923 -1.9804
   29bbb    H12  768   6.919   6.678   4.964  0.3118 -1.7415  0.1076
   29bbb    H13  769   7.193   6.576   4.897 -0.6333 -0.7465 -0.1207
   29bbb    H25  770   7.046   6.844   5.224 -0.6301  0.0531 -0.1135
   30bbb     N1  771   4.939   5.444   4.427  0.0014  0.3721 -0.7554
   30bbb     C1  772   4.972   5.306   4.370  0.3089 -0.5625 -0.0635
   30bbb     C2  773   4.817   5.501   4.366  0.5742  0.9745 -0.1759
   30bbb     C3  774   5.065   5.221   4.465  0.1728 -0.1041  0.6775
   30bbb     C4  775   5.065   5.072   4.422  0.0973 -0.8163  0.0793
   30bbb     C5  776   4.680   5.435   4.397 -0.5305 -0.1571  0.0428
   30bbb     C6  777   4.556   5.522   4.344 -0.3326  0.2832 -0.4493
   30bbb     C7  778   5.059   5.539   4.411  0.4344 -0.1298  0.1459
   30bbb     C8  779   5.076   5.593   4.272  0.3274  0.0312 -0.4954
   30bbb     N2  780   5.168   5.513   4.190  0.1666  0.4274 -0.4841
   30bbb     O1  781   4.972   5.015   4.367  0.3251 -0.1550  0.4602
   30bbb     O2  782   4.563   5.585   4.244  0.1459  0.2365  0.3206
   30bbb     H1  783   4.884   5.243   4.355 -0.9839  1.6606 -2.8381
   30bbb     H2  784   5.012   5.336   4.273 -0.0796 -0.8390 -0.3096
   30bbb     H3  785   4.834   5.499   4.258  0.7902  2.0831 -0.1671
   30bbb     H4  786   4.810   5.599   4.411  0.4683 -0.1390  2.3815
   30bbb     H5  787   5.167   5.261   4.463  0.3363 -0.1041  3.6998
   30bbb     H6  788   5.037   5.224   4.571 -0.6239  2.5187  0.4731
   30bbb     H7  789   4.662   5.419   4.504 -2.2382 -1.6671 -0.4290
   30bbb     H8  790   4.660   5.335   4.357 -0.6318 -0.1307  0.0263
   30bbb     H9  791   5.139   5.478   4.453 -0.7850 -2.1532 -0.2922
   30bbb    H10  792   5.050   5.624   4.479  1.1871  0.6896 -0.7427
   30bbb    H11  793   5.101   5.698   4.290 -2.0561  0.3039  1.9349
   30bbb    H12  794   4.982   5.596   4.216  0.5402 -1.0460 -0.9313
   30bbb    H13  795   5.214   5.432   4.228 -0.1308  0.4402 -0.0910
   30bbb    H25  796   4.934   5.429   4.529  1.9138  1.0531 -0.5166
   31bbb     N1  797   5.196   4.639   3.560  0.1928 -0.0308  0.1787
   31bbb     C1  798   5.115   4.557   3.466  0.3219 -0.7415  0.7406
   31bbb     C2  799   5.177   4.600   3.706 -0.3598 -0.0755 -0.9062
   31bbb     C3  800   5.143   4.579   3.313  0.4398  0.1395 -0.4017
   31bbb     C4  801   5.048   4.497   3.224  0.2917 -0.5781  0.0603
   31bbb     C5  802   5.240   4.468   3.747 -0.2437  0.5273  0.0073
   31bbb     C6  803   5.207   4.437   3.889  0.1097  1.1245  0.1072
   31bbb     C7  804   5.158   4.786   3.540  0.2638 -0.4060  0.0154
   31bbb     C8  805   5.014   4.831   3.559 -0.1935  0.1146 -0.0663
   31bbb     N2  806   5.014   4.977   3.560 -0.0331  0.0032 -0.3023
   31bbb     O1  807   4.980   4.406   3.267  0.4008  0.9824 -0.6325
   31bbb     O2  808   5.141   4.509   3.962 -0.3069  0.3231  0.0494
   31bbb     H1  809   5.138   4.453   3.491 -2.1701 -1.5025  0.1915
   31bbb     H2  810   5.012   4.564   3.501  0.4472 -2.4692  1.5918
   31bbb     H3  811   5.071   4.601   3.730 -0.6862  1.4235 -2.2858
   31bbb     H4  812   5.222   4.668   3.779 -1.9868 -1.9105  2.0202
   31bbb     H5  813   5.128   4.681   3.276 -3.4936 -0.1241  0.0663
   31bbb     H6  814   5.244   4.542   3.287  1.4266  1.1034  1.8178
   31bbb     H7  815   5.349   4.468   3.732 -0.2604  1.0890 -0.1490
   31bbb     H8  816   5.199   4.389   3.682  0.5805 -1.1147  1.4009
   31bbb     H9  817   5.198   4.811   3.442 -0.3731  0.6317  0.0101
   31bbb    H10  818   5.223   4.835   3.613  0.5180 -0.0493 -0.4481
   31bbb    H11  819   4.977   4.786   3.653  1.8817 -2.9497 -0.5675
   31bbb    H12  820   4.952   4.791   3.478  0.4829  1.2348 -1.1579
   31bbb    H13  821   5.024   5.027   3.473  3.6530  1.3177  0.7205
   31bbb    H25  822   5.296   4.625   3.541  0.3364  0.0315  0.8395
   32bbb     N1  823   4.998   5.532   1.501  0.3289  0.0220  0.3604
   32bbb     C1  824   4.994   5.478   1.357 -0.1409 -0.0734 -0.3795
   32bbb     C2  825   4.950   5.672   1.480 -0.6261 -0.1524 -1.3011
   32bbb     C3  826   5.047   5.335   1.344  0.2445 -0.4539  0.4458
   32bbb     C4  827   5.026   5.266   1.210  0.1837  0.4673 -0.0469
   32bbb     C5  828   4.871   5.732   1.596 -0.6481 -0.3171  0.0557
   32bbb     C6  829   4.826   5.875   1.563  0.1870 -0.1987 -0.5060
   32bbb     C7  830   5.132   5.522   1.568 -0.0695  0.6609  0.4443
   32bbb     C8  831   5.148   5.571   1.707 -0.1797 -0.3245 -0.0947
   32bbb     N2  832   5.058   5.522   1.815 -0.3885 -0.3094 -0.2844
   32bbb     O1  833   5.019   5.333   1.111  0.3335 -0.0394  0.5383
   32bbb     O2  834   4.844   5.930   1.451 -0.0919 -0.4218  0.0126
   32bbb     H1  835   4.890   5.471   1.327 -0.2536  1.1693 -0.3245
   32bbb     H2  836   5.051   5.542   1.288  1.6146 -0.7340  0.3891
   32bbb     H3  837   4.873   5.668   1.403 -1.7494  0.6446 -0.2666
   32bbb     H4  838   5.036   5.735   1.461 -1.0558  0.2678 -1.8673
   32bbb     H5  839   5.149   5.319   1.383  0.2282 -0.3041  0.5526
   32bbb     H6  840   4.988   5.275   1.415 -2.3642  2.2635  0.7595
   32bbb     H7  841   4.927   5.741   1.690  0.4377 -0.7516 -0.5404
   32bbb     H8  842   4.782   5.671   1.618 -0.1743 -0.1829  2.6722
   32bbb     H9  843   5.206   5.568   1.502 -0.6883 -0.3709 -0.9973
   32bbb    H10  844   5.154   5.416   1.564 -0.6458  0.4979  1.3131
   32bbb    H11  845   5.164   5.679   1.719 -2.3583  0.3006 -2.1761
   32bbb    H12  846   5.252   5.546   1.734  0.3739  1.1155 -0.8070
   32bbb    H13  847   4.997   5.449   1.780 -0.8047  1.2192 -3.0144
   32bbb    H25  848   4.934   5.477   1.560  2.7069 -2.1919  1.0223
   33bbb     N1  849   4.152   5.285   2.255 -0.0879  0.5759 -0.0177
   33bbb     C1  850   4.060   5.169   2.280  0.0451 -0.2008 -0.3953
   33bbb     C2  851   4.089   5.373   2.151  0.3667 -0.7053  0.4522
   33bbb     C3  852   4.122   5.059   2.368 -0.3599 -0.0419 -0.2083
   33bbb     C4  853   4.228   4.982   2.290 -0.6866 -0.6589 -0.3533
   33bbb     C5  854   3.934   5.410   2.160 -0.0471  0.5410  0.0670
   33bbb     C6  855   3.881   5.501   2.045  0.1542 -0.1256 -0.0579
   33bbb     C7  856   4.162   5.364   2.389  0.5929  0.2714  0.0137
   33bbb     C8  857   4.232   5.500   2.381  0.1078  0.5231 -0.1381
   33bbb     N2  858   4.378   5.504   2.401 -0.5891  0.2880 -0.0138
   33bbb     O1  859   4.291   5.024   2.198 -0.3650 -0.2979 -0.0719
   33bbb     O2  860   3.962   5.548   1.965 -0.2235 -0.5018  0.2399
   33bbb     H1  861   3.962   5.202   2.315 -0.1361 -1.1371  0.0155
   33bbb     H2  862   4.039   5.131   2.180 -0.9260  1.5258 -0.8932
   33bbb     H3  863   4.095   5.321   2.055 -0.7503  1.0132 -0.5945
   33bbb     H4  864   4.142   5.468   2.145 -0.9625  0.1528  1.7910
   33bbb     H5  865   4.152   5.107   2.462 -0.6268 -0.9120  0.3357
   33bbb     H6  866   4.035   4.994   2.383 -0.5185  0.3184  0.4805
   33bbb     H7  867   3.915   5.463   2.254  2.1712  1.0453  0.3030
   33bbb     H8  868   3.872   5.322   2.140  0.2845 -0.3315  2.5784
   33bbb     H9  869   4.208   5.297   2.461 -1.9561 -1.1825  0.4241
   33bbb    H10  870   4.058   5.380   2.418  0.6454 -0.9965  0.9919
   33bbb    H11  871   4.180   5.548   2.465 -0.4975  1.5831 -1.0820
   33bbb    H12  872   4.195   5.562   2.298  0.7778 -0.2206 -1.0119
   33bbb    H13  873   4.409   5.513   2.497  0.1106 -0.6780 -0.1282
   33bbb    H25  874   4.246   5.252   2.228 -0.5853 -1.3083  0.4130
   34bbb     N1  875   4.843   7.232   4.418  0.3878 -0.8940  0.0996
   34bbb     C1  876   4.804   7.083   4.413 -0.5681  0.8452 -0.7248
   34bbb     C2  877   4.737   7.315   4.484  0.3870 -0.1858 -0.8428
   34bbb     C3  878   4.883   6.997   4.518 -0.6261  0.5167  0.4205
   34bbb     C4  879   5.034   6.988   4.506 -0.4240 -0.0332 -0.5571
   34bbb     C5  880   4.708   7.284   4.633  0.4268 -0.0091 -0.0792
   34bbb     C6  881   4.617   7.381   4.714  0.3592 -0.0662  0.5868
   34bbb     C7  882   4.871   7.287   4.287  0.6862 -0.5677 -0.6763
   34bbb     C8  883   4.985   7.226   4.210  0.5574  0.8226  0.8409
   34bbb     N2  884   4.978   7.258   4.072 -0.8011 -0.3722  0.9336
   34bbb     O1  885   5.099   7.051   4.426 -0.1317  0.1940 -0.1058
   34bbb     O2  886   4.594   7.494   4.676  0.2240  0.5211 -0.3521
   34bbb     H1  887   4.698   7.079   4.438 -0.1508  0.3286  1.1197
   34bbb     H2  888   4.820   7.064   4.307 -3.3049  1.8150 -1.3909
   34bbb     H3  889   4.647   7.307   4.423  1.5945 -0.7364 -2.6246
   34bbb     H4  890   4.770   7.418   4.465  0.4030  0.0612  0.4238
   34bbb     H5  891   4.874   7.037   4.620 -2.9603 -0.5622  0.7128
   34bbb     H6  892   4.847   6.894   4.524 -0.5597  0.5842  2.7021
   34bbb     H7  893   4.801   7.276   4.692 -1.5918 -2.7807  3.1152
   34bbb     H8  894   4.657   7.188   4.632  1.0324 -0.3767  1.3735
   34bbb     H9  895   4.896   7.393   4.292  3.0180 -1.0898  3.5097
   34bbb    H10  896   4.778   7.272   4.232  0.7197 -0.9428 -0.6361
   34bbb    H11  897   4.971   7.117   4.203 -1.6356  1.1243 -0.6017
   34bbb    H12  898   5.085   7.254   4.246  2.3161 -1.2215 -2.0498
   34bbb    H13  899   4.895   7.306   4.039 -1.2020 -1.8526 -0.3413
   34bbb    H25  900   4.930   7.246   4.471  0.1512  2.8977 -0.2608
   35bbb     N1  901   4.333   6.811   3.478 -0.0424  0.3062 -0.1238
   35bbb     C1  902   4.179   6.819   3.475  0.2166 -0.6893 -0.2380
   35bbb     C2  903   4.394   6.893   3.587 -0.0333  0.2374  0.6516
   35bbb     C3  904   4.087   6.757   3.583  0.1794 -1.0934 -0.2286
   35bbb     C4  905   3.935   6.792   3.566  0.4849 -0.1014  0.2326
   35bbb     C5  906   4.370   7.041   3.587 -0.2451  0.1495 -0.4092
   35bbb     C6  907   4.495   7.125   3.624  0.3617  0.0955 -0.0203
   35bbb     C7  908   4.387   6.841   3.336  0.4986 -0.9528  0.0965
   35bbb     C8  909   4.537   6.814   3.310 -1.0480  0.2040  0.1463
   35bbb     N2  910   4.640   6.918   3.343  0.1838  0.3904  0.0155
   35bbb     O1  911   3.891   6.841   3.463  0.3506  0.3590  0.1014
   35bbb     O2  912   4.610   7.081   3.633 -0.4004 -0.1909  0.2964
   35bbb     H1  913   4.155   6.925   3.480  3.9215  0.2613  0.4195
   35bbb     H2  914   4.150   6.767   3.383 -2.2442 -1.6996  1.0287
   35bbb     H3  915   4.501   6.871   3.576 -0.2221  0.0828 -1.3135
   35bbb     H4  916   4.362   6.841   3.677 -1.5188 -0.2582 -0.1287
   35bbb     H5  917   4.099   6.648   3.575  1.7434 -0.8941 -1.0885
   35bbb     H6  918   4.119   6.788   3.684  0.4319 -0.4296 -0.5113
   35bbb     H7  919   4.300   7.077   3.664 -0.4151  0.4793 -0.7191
   35bbb     H8  920   4.322   7.078   3.496 -0.0400 -0.5571 -0.8116
   35bbb     H9  921   4.319   6.786   3.271 -3.3627  1.9727  1.3129
   35bbb    H10  922   4.369   6.946   3.315  1.2759 -0.7191  0.5289
   35bbb    H11  923   4.559   6.795   3.205 -0.5123 -0.0937  0.3109
   35bbb    H12  924   4.565   6.722   3.362  1.2528  1.3573  1.1153
   35bbb    H13  925   4.658   6.993   3.277  0.5378 -0.4184 -0.8360
   35bbb    H25  926   4.356   6.713   3.500  1.6966  0.8503  0.6026
   36bbb     N1  927   5.367   7.214   1.482  0.0616  0.2349  0.0958
   36bbb     C1  928   5.379   7.176   1.338  0.8937  0.7335  0.2514
   36bbb     C2  929   5.487   7.293   1.525 -0.0837  0.7073 -0.3542
   36bbb     C3  930   5.346   7.291   1.239  1.3251  0.6092 -0.0748
   36bbb     C4  931   5.279   7.255   1.107 -0.9646 -0.1569  0.4134
   36bbb     C5  932   5.623   7.230   1.526 -0.0740 -0.7583 -0.0476
   36bbb     C6  933   5.728   7.332   1.574  0.0505 -0.2316 -0.4805
   36bbb     C7  934   5.360   7.091   1.570  1.2431  0.1775  0.1298
   36bbb     C8  935   5.350   7.123   1.718 -0.0437 -0.1581 -0.0045
   36bbb     N2  936   5.299   7.015   1.800  0.2365  0.2131  0.1736
   36bbb     O1  937   5.180   7.314   1.073 -0.2077 -0.1063  0.3854
   36bbb     O2  938   5.701   7.449   1.592  0.3536 -0.5531  0.1638
   36bbb     H1  939   5.479   7.138   1.318  1.2417  1.7649 -0.0554
   36bbb     H2  940   5.300   7.102   1.327  0.0794  1.4296  1.2526
   36bbb     H3  941   5.466   7.342   1.620  0.8691  1.8173 -0.6944
   36bbb     H4  942   5.484   7.376   1.453  0.2945 -1.1330 -2.6150
   36bbb     H5  943   5.273   7.356   1.289  1.0878 -0.3085  0.8251
   36bbb     H6  944   5.436   7.352   1.224  1.2959  1.1938  1.8276
   36bbb     H7  945   5.641   7.208   1.420  0.4630  0.8473 -0.3216
   36bbb     H8  946   5.621   7.142   1.591 -0.6977 -0.1048  0.8373
   36bbb     H9  947   5.451   7.032   1.563  0.6198 -0.6181 -3.7356
   36bbb    H10  948   5.273   7.038   1.531  2.1913 -0.5805 -1.0317
   36bbb    H11  949   5.289   7.209   1.745 -0.0152 -0.4596  1.0961
   36bbb    H12  950   5.453   7.147   1.747  0.6281  0.4367 -2.6578
   36bbb    H13  951   5.200   6.996   1.793  0.4381 -1.7140  1.6124
   36bbb    H25  952   5.286   7.273   1.505 -0.0547 -0.7516  2.6605
   37bbb     N1  953   4.370   6.818   2.327 -0.6382 -0.8201  0.4161
   37bbb     C1  954   4.328   6.682   2.275 -0.2007  0.7353  0.1864
   37bbb     C2  955   4.354   6.934   2.227 -0.2178  0.5184 -0.5078
   37bbb     C3  956   4.302   6.568   2.374  0.8286 -0.1098 -0.1575
   37bbb     C4  957   4.175   6.609   2.459 -0.3248 -0.1047  0.3405
   37bbb     C5  958   4.206   6.972   2.205  0.7697 -0.2337  0.0769
   37bbb     C6  959   4.140   7.057   2.311 -0.0613 -0.5686 -0.0292
   37bbb     C7  960   4.521   6.807   2.364 -0.5259  0.3611  0.3466
   37bbb     C8  961   4.620   6.780   2.240 -0.2292  0.0049 -0.3585
   37bbb     N2  962   4.760   6.746   2.280  0.0977 -0.1938  0.1801
   37bbb     O1  963   4.091   6.688   2.420  0.1380 -0.6100 -0.5130
   37bbb     O2  964   4.173   7.068   2.427  0.0651  0.3640 -0.8041
   37bbb     H1  965   4.237   6.694   2.216 -0.6000  1.2790  0.9043
   37bbb     H2  966   4.410   6.650   2.210 -0.8177  0.2478 -0.3695
   37bbb     H3  967   4.396   6.893   2.135 -0.5233 -3.1095  0.8379
   37bbb     H4  968   4.406   7.024   2.260  0.0605 -0.1090  0.8356
   37bbb     H5  969   4.277   6.466   2.341 -1.1486  1.0237 -2.5348
   37bbb     H6  970   4.392   6.568   2.437  0.6163  3.5838  0.3622
   37bbb     H7  971   4.140   6.885   2.192  0.5467 -0.3482  1.7128
   37bbb     H8  972   4.217   7.036   2.117 -0.1920  1.8678  1.4007
   37bbb     H9  973   4.525   6.730   2.441 -1.0321  0.4766  0.4904
   37bbb    H10  974   4.558   6.900   2.407  2.1476 -0.6093  0.3157
   37bbb    H11  975   4.616   6.874   2.183 -2.4806  0.2843  0.1493
   37bbb    H12  976   4.585   6.699   2.175 -0.6973 -0.4112  0.3899
   37bbb    H13  977   4.781   6.702   2.369  1.6251 -1.6475 -0.8632
   37bbb    H25  978   4.323   6.846   2.414  0.5926  5.1740 -0.4610
   38bbb     N1  979   6.824   5.098   0.536  0.1035  0.1930 -0.2833
   38bbb     C1  980   6.743   5.216   0.466 -0.2738  0.0819  0.5960
   38bbb     C2  981   6.726   4.990   0.584  0.2523  0.3825 -0.7498
   38bbb     C3  982   6.643   5.302   0.551 -0.3283  0.2345  0.1325
   38bbb     C4  983   6.562   5.414   0.479 -0.4103  0.6190  0.1459
   38bbb     C5  984   6.718   4.869   0.489  0.0217  0.1627  0.2841
   38bbb     C6  985   6.831   4.770   0.494  0.3020 -0.3322  0.5927
   38bbb     C7  986   6.909   5.132   0.659  0.3302 -0.5548 -0.2387
   38bbb     C8  987   7.020   5.228   0.632 -0.3067 -0.3018 -0.2250
   38bbb     N2  988   7.136   5.194   0.728  1.1350 -0.2971 -0.5434
   38bbb     O1  989   6.560   5.424   0.355  0.5492 -0.0381 -0.4815
   38bbb     O2  990   6.904   4.776   0.594  0.4018  0.8999 -0.0145
   38bbb     H1  991   6.812   5.292   0.428 -1.1867  1.4315  1.5285
   38bbb     H2  992   6.692   5.181   0.377 -0.0012  0.9038  0.1002
   38bbb     H3  993   6.628   5.036   0.590 -0.2114 -0.7457  1.4702
   38bbb     H4  994   6.746   4.958   0.686  0.0120  1.0135 -0.5051
   38bbb     H5  995   6.575   5.232   0.602  1.8908 -2.0916  0.1120
   38bbb     H6  996   6.702   5.345   0.633 -2.2501  1.0156  1.1567
   38bbb     H7  997   6.694   4.899   0.386 -0.1022 -0.1417  0.2246
   38bbb     H8  998   6.635   4.806   0.524  0.1235 -0.8123 -1.1620
   38bbb     H9  999   6.944   5.035   0.696 -0.7352 -0.6592  0.5626
   38bbb    H10 1000   6.846   5.174   0.737  2.7408 -0.2525  1.6436
   38bbb    H11 1001   6.989   5.333   0.642  1.5660  0.3297 -0.6602
   38bbb    H12 1002   7.066   5.215   0.533  0.6978 -1.9365  0.4217
   38bbb    H13 1003   7.124   5.215   0.826 -2.2720  0.6679 -1.0133
   38bbb    H25 1004   6.881   5.049   0.465  0.3524  0.5635 -0.3392
   39bbb     N1 1005   8.108   4.580   0.318 -0.3382  0.0319 -0.0010
   39bbb     C1 1006   8.047   4.540   0.177  0.2781  0.0224  0.4142
   39bbb     C2 1007   8.158   4.458   0.391 -0.4945 -0.3699  0.0778
   39bbb     C3 1008   8.018   4.648   0.070 -0.3333 -0.3306 -0.3844
   39bbb     C4 1009   7.968   4.606  -0.063 -0.1305  0.2726  0.0632
   39bbb     C5 1010   8.281   4.396   0.313 -0.7005 -0.3163 -0.1306
   39bbb     C6 1011   8.352   4.296   0.403 -0.2982  0.3002 -0.5427
   39bbb     C7 1012   7.987   4.632   0.400 -0.9700 -0.7469  0.5377
   39bbb     C8 1013   8.024   4.700   0.536  0.1885  0.5954 -0.2964
   39bbb     N2 1014   7.909   4.781   0.581 -0.6630 -0.6215 -0.4420
   39bbb     O1 1015   7.870   4.533  -0.077 -0.7416 -0.2995  0.3504
   39bbb     O2 1016   8.296   4.235   0.489  0.6509 -0.7872  0.1824
   39bbb     H1 1017   8.123   4.479   0.128 -0.5010  0.2941 -1.2055
   39bbb     H2 1018   7.960   4.476   0.191  0.9891 -1.3103 -0.8942
   39bbb     H3 1019   8.076   4.389   0.408 -1.3822  0.0277 -2.1988
   39bbb     H4 1020   8.200   4.495   0.484  1.4188  2.7048 -1.8003
   39bbb     H5 1021   7.945   4.717   0.115 -2.4851 -0.7993 -2.9351
   39bbb     H6 1022   8.102   4.717   0.061 -1.2661  0.9872  0.4960
   39bbb     H7 1023   8.346   4.481   0.288 -0.2114 -0.5401  0.3588
   39bbb     H8 1024   8.260   4.349   0.216 -0.0356 -0.9058 -0.0023
   39bbb     H9 1025   7.917   4.549   0.413 -0.9231 -1.0314 -0.8033
   39bbb    H10 1026   7.947   4.713   0.338 -0.5401 -0.5978  0.4574
   39bbb    H11 1027   8.100   4.780   0.532 -0.8388  1.5772 -2.8691
   39bbb    H12 1028   8.052   4.616   0.600  0.3089 -1.9389 -3.4340
   39bbb    H13 1029   7.888   4.863   0.526 -1.3569 -1.1493 -0.9914
   39bbb    H25 1030   8.181   4.653   0.313  0.4935 -0.7972 -0.1498
   40bbb     N1 1031   7.126   6.348   1.364 -0.3230  0.0132 -0.1773
   40bbb     C1 1032   7.030   6.373   1.480 -0.4687  0.4510 -1.2530
   40bbb     C2 1033   7.243   6.450   1.369  0.5803  0.4126 -0.1406
   40bbb     C3 1034   6.901   6.284   1.505 -0.2683 -0.2574  0.3915
   40bbb     C4 1035   6.832   6.324   1.631  0.5900 -0.1713 -0.0115
   40bbb     C5 1036   7.364   6.399   1.451  0.0613  0.4192  0.0690
   40bbb     C6 1037   7.442   6.503   1.530  0.1494 -0.2428 -0.1850
   40bbb     C7 1038   7.050   6.348   1.233  0.0200 -0.3673 -0.1650
   40bbb     C8 1039   7.119   6.306   1.100 -0.9977 -0.3040  0.3408
   40bbb     N2 1040   7.131   6.154   1.082 -0.1835  0.0918  0.3128
   40bbb     O1 1041   6.869   6.423   1.683 -0.2293 -0.4054  0.1620
   40bbb     O2 1042   7.471   6.603   1.469 -0.1838  0.0865 -0.0662
   40bbb     H1 1043   7.097   6.359   1.565  1.7656  0.3901 -2.9301
   40bbb     H2 1044   7.006   6.480   1.476  2.0372  1.2981  1.8419
   40bbb     H3 1045   7.207   6.540   1.420  0.4236 -1.5654  3.5500
   40bbb     H4 1046   7.276   6.464   1.266  0.2893  1.3439 -0.1214
   40bbb     H5 1047   6.826   6.286   1.425 -1.4786 -1.6016  1.4469
   40bbb     H6 1048   6.933   6.180   1.512 -1.2867 -0.6867 -0.9159
   40bbb     H7 1049   7.438   6.354   1.385  0.6834 -1.1268  1.7237
   40bbb     H8 1050   7.325   6.326   1.524 -0.5650 -1.6339 -2.2065
   40bbb     H9 1051   7.032   6.455   1.218  1.0486 -0.3032 -1.0312
   40bbb    H10 1052   6.955   6.296   1.245 -0.1927 -0.0070 -0.2821
   40bbb    H11 1053   7.216   6.358   1.102 -1.0497 -0.1308 -0.9585
   40bbb    H12 1054   7.054   6.345   1.020 -0.7566 -0.1129  0.2368
   40bbb    H13 1055   7.053   6.105   1.039  1.0976 -0.3317 -1.6955
   40bbb    H25 1056   7.178   6.260   1.376  1.5502  1.2613  1.8119
   41bbb     N1 1057   7.961   5.735   0.572  0.7189  0.0964 -0.5237
   41bbb     C1 1058   7.886   5.853   0.503  0.5859  0.8405 -0.0342
   41bbb     C2 1059   8.104   5.713   0.526  1.0804 -0.2404 -0.1044
   41bbb     C3 1060   7.864   5.844   0.349  0.0437  0.0480  0.0764
   41bbb     C4 1061   7.834   5.982   0.284 -0.1142 -0.1887 -0.7063
   41bbb     C5 1062   8.206   5.822   0.564  0.2296 -0.4189 -0.5487
   41bbb     C6 1063   8.341   5.781   0.521  0.0641 -0.7098  0.1375
   41bbb     C7 1064   7.888   5.603   0.551  0.5849  0.0309 -0.1103
   41bbb     C8 1065   7.735   5.612   0.581  0.0362  0.2523  0.1165
   41bbb     N2 1066   7.700   5.663   0.717  0.1457  0.2576  0.8487
   41bbb     O1 1067   7.763   6.063   0.346 -0.1043 -0.5346  0.2136
   41bbb     O2 1068   8.391   5.681   0.566 -0.9618 -0.2719  0.5553
   41bbb     H1 1069   7.784   5.865   0.540 -0.0395 -0.9993 -1.0193
   41bbb     H2 1070   7.961   5.930   0.521  0.1698  1.3744 -0.5558
   41bbb     H3 1071   8.093   5.701   0.418  2.3700  1.7056 -0.4960
   41bbb     H4 1072   8.149   5.622   0.566  1.9655  0.7555  1.2372
   41bbb     H5 1073   7.954   5.813   0.294  0.1190  0.2674  0.0750
   41bbb     H6 1074   7.787   5.774   0.316  1.3761 -0.7604 -1.4550
   41bbb     H7 1075   8.208   5.840   0.673  0.0833 -2.0829 -0.2448
   41bbb     H8 1076   8.175   5.918   0.521 -0.1105 -0.4906 -0.4658
   41bbb     H9 1077   7.934   5.528   0.616 -0.7584  0.2980  1.1985
   41bbb    H10 1078   7.901   5.563   0.450  1.7405  1.8870 -0.7505
   41bbb    H11 1079   7.683   5.515   0.577  0.9830 -0.2375 -1.5876
   41bbb    H12 1080   7.696   5.672   0.498 -0.8226  0.2075  0.4851
   41bbb    H13 1081   7.774   5.669   0.785  0.9794  0.2498 -0.0300
   41bbb    H25 1082   7.968   5.756   0.673  2.2681 -0.1892 -0.5468
   42bbb     N1 1083   8.096   3.393   2.970 -0.0317 -0.5635  0.1886
   42bbb     C1 1084   8.195   3.334   2.872  0.4048 -0.0614 -0.0097
   42bbb     C2 1085   7.963   3.322   2.963  0.6347 -0.4400  0.5591
   42bbb     C3 1086   8.306   3.240   2.932 -0.5035 -0.6459 -0.7716
   42bbb     C4 1087   8.401   3.306   3.044 -0.1480  1.0260 -0.0134
   42bbb     C5 1088   7.953   3.179   3.023 -0.0551  0.1054 -0.0026
   42bbb     C6 1089   7.990   3.181   3.173  0.1273  0.6395 -0.1781
   42bbb     C7 1090   8.089   3.544   2.926 -0.8054 -0.1669 -0.5731
   42bbb     C8 1091   8.204   3.631   2.979 -0.2290 -0.3376  0.6285
   42bbb     N2 1092   8.173   3.776   2.957 -0.0036 -0.2949  0.0648
   42bbb     O1 1093   8.361   3.400   3.107 -0.4015 -0.2834 -0.8306
   42bbb     O2 1094   8.102   3.152   3.206 -0.5788 -0.5107 -0.6382
   42bbb     H1 1095   8.147   3.295   2.783  0.5868  1.0557 -0.6256
   42bbb     H2 1096   8.256   3.418   2.836  0.6572  0.3001  1.2261
   42bbb     H3 1097   7.931   3.313   2.859  0.3816  0.7062  0.5182
   42bbb     H4 1098   7.893   3.391   3.009  1.8883 -0.0322  1.9329
   42bbb     H5 1099   8.255   3.152   2.972 -0.0543  0.0545  1.4726
   42bbb     H6 1100   8.373   3.205   2.852  1.1234  1.0873 -0.2520
   42bbb     H7 1101   8.015   3.111   2.963  1.2081  1.7753 -0.6872
   42bbb     H8 1102   7.852   3.138   3.015  1.2483 -3.2510 -0.9336
   42bbb     H9 1103   7.998   3.580   2.975 -0.5738 -0.1562 -0.1545
   42bbb    H10 1104   8.097   3.559   2.818  2.9968 -0.3695 -0.4301
   42bbb    H11 1105   8.295   3.603   2.924  0.0511  2.0173 -0.2341
   42bbb    H12 1106   8.236   3.615   3.082 -0.3812  0.6530  0.8391
   42bbb    H13 1107   8.150   3.836   3.035  0.7513  1.6507 -1.1373
   42bbb    H25 1108   8.131   3.392   3.067 -2.0605  0.8800  1.0126
   43bbb     N1 1109   8.937   4.288   2.207 -0.5166  0.9192  0.0110
   43bbb     C1 1110   8.905   4.273   2.056  0.3618  0.1266  0.7092
   43bbb     C2 1111   9.095   4.266   2.225 -0.0361  0.5402  0.1356
   43bbb     C3 1112   8.760   4.304   2.026  0.0232  0.0649 -0.6574
   43bbb     C4 1113   8.711   4.280   1.883 -0.4205 -0.0908  0.0012
   43bbb     C5 1114   9.193   4.362   2.167 -0.5336 -0.1102 -0.0747
   43bbb     C6 1115   9.340   4.336   2.207 -1.0804  0.1522 -0.3847
   43bbb     C7 1116   8.865   4.174   2.283 -0.8221 -0.1596  0.3088
   43bbb     C8 1117   8.869   4.178   2.432 -0.2867  0.4789 -0.2707
   43bbb     N2 1118   8.753   4.109   2.480 -0.1168 -0.1759  0.5154
   43bbb     O1 1119   8.785   4.255   1.789 -0.2811  0.2254  0.1957
   43bbb     O2 1120   9.412   4.427   2.255  0.2100  0.2977  0.2272
   43bbb     H1 1121   8.965   4.341   1.996 -0.5612  0.0395 -0.3314
   43bbb     H2 1122   8.930   4.173   2.020 -1.4483  0.4521 -1.6984
   43bbb     H3 1123   9.104   4.163   2.190 -1.3095  1.0331 -1.8028
   43bbb     H4 1124   9.105   4.265   2.334 -1.1571  0.8446  0.2558
   43bbb     H5 1125   8.698   4.230   2.078 -0.2923 -0.0393 -1.1691
   43bbb     H6 1126   8.722   4.402   2.058  0.4302 -0.3646  1.2331
   43bbb     H7 1127   9.172   4.460   2.211  0.0779 -0.0804  0.1586
   43bbb     H8 1128   9.179   4.366   2.058 -0.7246 -1.8675 -0.1306
   43bbb     H9 1129   8.909   4.079   2.252 -0.3590 -0.6100  2.2222
   43bbb    H10 1130   8.761   4.179   2.249 -0.4157  4.5260 -0.9376
   43bbb    H11 1131   8.873   4.286   2.448  0.7336  0.2470  1.2773
   43bbb    H12 1132   8.954   4.130   2.483  0.0426  0.4612 -0.8271
   43bbb    H13 1133   8.761   4.015   2.516 -0.2462 -0.3424  0.1078
   43bbb    H25 1134   8.916   4.383   2.240 -1.2328  0.5165  0.7457
   44bbb     N1 1135   6.447   3.776   2.238 -0.0697  0.1712  0.9323
   44bbb     C1 1136   6.359   3.767   2.119  0.1635 -0.0454  0.8064
   44bbb     C2 1137   6.412   3.668   2.342  0.2654  0.2498 -0.1870
   44bbb     C3 1138   6.432   3.834   1.995 -0.9804 -0.5880 -0.5938
   44bbb     C4 1139   6.390   3.981   1.960 -0.0712  0.2881  0.0136
   44bbb     C5 1140   6.263   3.666   2.391 -0.0155 -0.5948 -0.6423
   44bbb     C6 1141   6.243   3.578   2.515 -0.6526  0.7604  0.4910
   44bbb     C7 1142   6.440   3.923   2.284  0.1100  0.7383  0.1949
   44bbb     C8 1143   6.508   3.964   2.415 -0.1658  0.3786  0.2976
   44bbb     N2 1144   6.658   3.948   2.415  0.7525 -0.0431 -0.2267
   44bbb     O1 1145   6.346   4.058   2.047 -0.5310 -0.2275 -0.3881
   44bbb     O2 1146   6.339   3.526   2.567  0.0903 -0.1310 -0.5415
   44bbb     H1 1147   6.341   3.663   2.092 -0.1373  0.2781 -0.2823
   44bbb     H2 1148   6.264   3.817   2.140 -0.0709  0.8357 -1.9787
   44bbb     H3 1149   6.470   3.698   2.430 -1.7961 -0.7706  1.5955
   44bbb     H4 1150   6.445   3.569   2.310  1.8491 -0.0334  2.0918
   44bbb     H5 1151   6.540   3.830   2.010 -0.9199 -0.2705 -0.9341
   44bbb     H6 1152   6.424   3.768   1.908  0.1372 -0.9088 -0.4664
   44bbb     H7 1153   6.196   3.637   2.309  1.7748 -1.2426 -1.9344
   44bbb     H8 1154   6.238   3.770   2.416 -0.8362 -0.9261 -0.0114
   44bbb     H9 1155   6.337   3.951   2.304 -0.4741 -0.5674 -0.8751
   44bbb    H10 1156   6.489   3.989   2.213 -0.0741  0.3032 -0.3421
   44bbb    H11 1157   6.485   4.068   2.441 -0.3589  0.1132  1.2595
   44bbb    H12 1158   6.466   3.908   2.500  0.5126 -1.4985 -0.5508
   44bbb    H13 1159   6.715   4.026   2.385 -0.7336  1.1478 -0.0582
   44bbb    H25 1160   6.542   3.759   2.201 -1.3754 -0.3927 -2.4708
   45bbb     N1 1161   6.963   2.984   1.985  0.8462  0.0326 -0.3291
   45bbb     C1 1162   7.101   2.933   1.953  0.4100  0.1316 -0.4600
   45bbb     C2 1163   6.862   2.974   1.873 -0.6202  0.1409  0.4974
   45bbb     C3 1164   7.115   2.786   1.919  0.5493  0.2751  0.3771
   45bbb     C4 1165   7.240   2.775   1.828 -0.1685 -0.4935 -0.0595
   45bbb     C5 1166   6.722   2.939   1.927  0.3200 -0.0521 -0.2232
   45bbb     C6 1167   6.629   2.915   1.805 -0.4854  0.1943 -0.2665
   45bbb     C7 1168   6.968   3.131   2.021 -0.3890 -0.4259 -0.7618
   45bbb     C8 1169   7.051   3.171   2.141 -0.4261 -0.5192  0.4108
   45bbb     N2 1170   7.039   3.316   2.154  1.1043 -0.3751 -0.1797
   45bbb     O1 1171   7.254   2.831   1.725 -0.0127 -0.1828  0.0395
   45bbb     O2 1172   6.614   3.007   1.728 -0.4444  0.4307  0.4204
   45bbb     H1 1173   7.130   2.992   1.866 -0.8027  0.7638 -0.4631
   45bbb     H2 1174   7.171   2.953   2.035  0.4695  0.0989 -0.5036
   45bbb     H3 1175   6.903   2.900   1.804  2.1224  2.0792 -0.1407
   45bbb     H4 1176   6.849   3.065   1.814 -1.1312 -0.9710 -1.1780
   45bbb     H5 1177   7.112   2.712   2.001 -0.8505 -0.6146 -0.4316
   45bbb     H6 1178   7.034   2.749   1.854  0.8560 -1.2851  0.8366
   45bbb     H7 1179   6.696   3.021   1.994 -0.2645  0.2371 -0.7958
   45bbb     H8 1180   6.722   2.849   1.991  0.1173 -0.2412 -0.4860
   45bbb     H9 1181   6.865   3.153   2.050  0.3270  0.9826  0.8737
   45bbb    H10 1182   6.991   3.193   1.934 -3.3882  0.6762 -0.8680
   45bbb    H11 1183   7.153   3.138   2.118 -1.4429 -1.4248 -3.5671
   45bbb    H12 1184   7.002   3.108   2.216 -0.9318 -2.7016 -1.6029
   45bbb    H13 1185   6.970   3.367   2.100 -0.5316 -0.5239  1.6643
   45bbb    H25 1186   6.932   2.934   2.070 -0.4440  2.1788  0.5305
   46bbb     N1 1187   8.409   7.621   4.596  0.1481  0.0441  0.8137
   46bbb     C1 1188   8.322   7.660   4.713  0.0002 -0.0756 -0.0990
   46bbb     C2 1189   8.515   7.521   4.635 -0.2142 -0.6461 -0.2888
   46bbb     C3 1190   8.185   7.713   4.659  0.2726 -0.4874 -0.4125
   46bbb     C4 1191   8.072   7.696   4.761  0.4933 -0.2446 -0.0689
   46bbb     C5 1192   8.469   7.376   4.623  0.1567 -0.2391  0.2342
   46bbb     C6 1193   8.589   7.287   4.599 -0.2149  0.2888  0.2951
   46bbb     C7 1194   8.475   7.749   4.561  0.8483 -0.4761 -0.0818
   46bbb     C8 1195   8.550   7.755   4.425 -0.0107 -0.1228 -0.8951
   46bbb     N2 1196   8.453   7.751   4.312  0.1059  0.7178 -0.8541
   46bbb     O1 1197   8.079   7.634   4.865  0.0351  0.0489 -0.1875
   46bbb     O2 1198   8.671   7.316   4.511 -0.2756 -0.5997 -0.2519
   46bbb     H1 1199   8.304   7.571   4.774 -0.1921 -0.1408 -0.2473
   46bbb     H2 1200   8.371   7.739   4.769 -0.5345  0.7678 -0.8019
   46bbb     H3 1201   8.543   7.545   4.738  1.2686 -3.9982  0.2077
   46bbb     H4 1202   8.599   7.531   4.566  0.3950  2.1281  0.7025
   46bbb     H5 1203   8.187   7.817   4.623  2.2956  0.1891  1.4027
   46bbb     H6 1204   8.151   7.645   4.580 -1.1797  0.6418 -0.8151
   46bbb     H7 1205   8.402   7.358   4.538  0.7383 -1.9495  0.1002
   46bbb     H8 1206   8.422   7.340   4.716 -1.1993 -1.0572 -0.7235
   46bbb     H9 1207   8.541   7.767   4.645 -2.3776  0.0255  2.5594
   46bbb    H10 1208   8.401   7.829   4.566  1.2710 -0.0366 -0.7659
   46bbb    H11 1209   8.617   7.668   4.418 -0.5541 -0.6735  0.4725
   46bbb    H12 1210   8.617   7.841   4.412  1.7474 -0.8797  2.1800
   46bbb    H13 1211   8.366   7.799   4.327  0.9282  1.4991  2.1320
   46bbb    H25 1212   8.358   7.576   4.518 -0.9490 -1.8956  2.5754
   47bbb     N1 1213   8.179   8.448   3.442 -0.0504 -1.1337  0.1581
   47bbb     C1 1214   8.316   8.498   3.488 -0.2564 -0.0650 -0.4729
   47bbb     C2 1215   8.069   8.543   3.465  0.6588  1.1551 -0.1034
   47bbb     C3 1216   8.320   8.536   3.643  0.0545  0.9136  0.2405
   47bbb     C4 1217   8.448   8.601   3.688 -0.2576 -0.1177  0.1357
   47bbb     C5 1218   8.045   8.653   3.357  0.3214  0.0523  0.1755
   47bbb     C6 1219   7.905   8.714   3.349 -0.0643  0.1138 -0.2434
   47bbb     C7 1220   8.148   8.316   3.511 -0.1592  0.3021 -0.0012
   47bbb     C8 1221   8.261   8.208   3.495  0.5937 -0.2110  0.0982
   47bbb     N2 1222   8.208   8.092   3.559 -1.0826 -0.3016  0.4938
   47bbb     O1 1223   8.504   8.686   3.621  0.0324 -0.2244 -0.0097
   47bbb     O2 1224   7.819   8.684   3.430  0.4947  0.4070  0.0549
   47bbb     H1 1225   8.386   8.415   3.476 -2.0139 -1.5251 -1.0350
   47bbb     H2 1226   8.348   8.578   3.420  0.1023  0.7970  0.6843
   47bbb     H3 1227   8.087   8.591   3.562 -1.6823  1.2386  0.3510
   47bbb     H4 1228   7.979   8.482   3.471  2.1870 -1.6331 -2.8486
   47bbb     H5 1229   8.248   8.612   3.677  0.3506  0.3327  2.2558
   47bbb     H6 1230   8.283   8.457   3.709 -2.1610  1.1026 -0.6683
   47bbb     H7 1231   8.066   8.619   3.255 -1.3820  1.9740 -0.8675
   47bbb     H8 1232   8.117   8.733   3.374 -0.8983  0.7426  2.4489
   47bbb     H9 1233   8.056   8.281   3.461 -0.0789 -0.0353  0.0819
   47bbb    H10 1234   8.125   8.342   3.614 -1.8581 -0.6061 -0.1059
   47bbb    H11 1235   8.354   8.236   3.546  0.6344  0.8265 -0.5072
   47bbb    H12 1236   8.283   8.189   3.390  0.1042  5.4700 -1.3456
   47bbb    H13 1237   8.120   8.060   3.520  0.2616 -1.8553 -1.4087
   47bbb    H25 1238   8.187   8.430   3.341 -2.1130  1.4709 -0.5886
   48bbb     N1 1239   6.975   8.282   5.128 -0.4464 -0.0086  0.1253
   48bbb     C1 1240   6.906   8.202   5.236  0.2953 -0.2816  0.5047
   48bbb     C2 1241   6.919   8.426   5.123 -0.0009 -0.2465  0.1690
   48bbb     C3 1242   6.932   8.240   5.382 -0.3422  0.2741 -0.2007
   48bbb     C4 1243   6.832   8.189   5.484  0.3217 -0.3287  0.2552
   48bbb     C5 1244   6.977   8.510   5.011 -0.7360  0.0240 -0.0885
   48bbb     C6 1245   6.952   8.656   5.027  0.5984 -0.6228 -0.3488
   48bbb     C7 1246   6.955   8.214   4.995 -0.1995 -0.3666  0.8745
   48bbb     C8 1247   7.002   8.066   4.978  0.1522  0.3314  0.6628
   48bbb     N2 1248   6.976   8.011   4.838 -0.8520  0.1509 -0.1647
   48bbb     O1 1249   6.751   8.099   5.453  0.2184  0.2490 -0.2271
   48bbb     O2 1250   6.886   8.702   5.120 -0.0279  0.4161 -0.4497
   48bbb     H1 1251   6.800   8.198   5.212  0.5270  0.2321 -0.6478
   48bbb     H2 1252   6.943   8.099   5.229 -0.9298 -0.5889 -2.6330
   48bbb     H3 1253   6.941   8.478   5.217 -2.5243  1.1682  0.0621
   48bbb     H4 1254   6.811   8.416   5.113  0.0498  0.0546 -0.7592
   48bbb     H5 1255   7.033   8.201   5.399  0.0432  1.9104  1.6727
   48bbb     H6 1256   6.941   8.349   5.390  1.0027  0.3883 -2.4769
   48bbb     H7 1257   6.938   8.473   4.915 -0.8909 -0.2505  0.0801
   48bbb     H8 1258   7.086   8.500   5.015 -0.5372  1.4940 -1.1769
   48bbb     H9 1259   7.008   8.277   4.924  2.2971 -2.9181  0.3026
   48bbb    H10 1260   6.848   8.219   4.979 -0.1413 -2.6436 -0.7495
   48bbb    H11 1261   6.949   7.998   5.045 -0.7778  0.4082  0.0208
   48bbb    H12 1262   7.109   8.065   5.005  0.0415 -0.0165  1.0850
   48bbb    H13 1263   6.918   7.928   4.841 -1.2806  0.4491 -0.1346
   48bbb    H25 1264   7.076   8.292   5.144 -0.3826 -0.4510  0.0072
   49bbb     N1 1265   6.890   8.646   4.213 -0.2209 -0.4654 -0.4969
   49bbb     C1 1266   6.797   8.725   4.117 -0.5703 -0.0440 -0.0138
   49bbb     C2 1267   7.033   8.689   4.204  0.6359  0.1695 -0.9404
   49bbb     C3 1268   6.668   8.785   4.169  0.7905  0.1211 -0.0076
   49bbb     C4 1269   6.588   8.855   4.062  0.3238 -0.5041  0.0434
   49bbb     C5 1270   7.101   8.639   4.075  0.4271 -0.6000 -0.6236
   49bbb     C6 1271   7.221   8.722   4.047  0.5577  0.1772  0.0707
   49bbb     C7 1272   6.878   8.496   4.188  0.6780  0.1059 -0.7484
   49bbb     C8 1273   6.914   8.405   4.303  0.3169  0.6124  0.3043
   49bbb     N2 1274   6.974   8.277   4.251 -0.3267  0.0957 -0.2913
   49bbb     O1 1275   6.586   8.807   3.948 -0.0122  0.3937 -0.0898
   49bbb     O2 1276   7.293   8.756   4.138 -0.2375  0.1475 -0.2911
   49bbb     H1 1277   6.855   8.801   4.064 -1.0813 -0.3478 -1.0116
   49bbb     H2 1278   6.770   8.655   4.039  2.0230  1.8260 -2.8107
   49bbb     H3 1279   7.087   8.637   4.283  1.8668  0.9023 -1.2639
   49bbb     H4 1280   7.047   8.797   4.218  0.9230 -0.0985  1.2396
   49bbb     H5 1281   6.611   8.703   4.216  0.6600 -0.8569 -1.7765
   49bbb     H6 1282   6.690   8.853   4.252  1.8173 -0.6648  0.3835
   49bbb     H7 1283   7.045   8.640   3.981 -0.6327  2.0075 -0.0499
   49bbb     H8 1284   7.143   8.540   4.098 -0.2646 -0.3983  1.7477
   49bbb     H9 1285   6.936   8.470   4.099  0.3599 -0.5589 -0.7696
   49bbb    H10 1286   6.771   8.494   4.166 -0.1143  0.5387  2.6304
   49bbb    H11 1287   6.829   8.391   4.371 -0.9943 -0.9710 -1.5712
   49bbb    H12 1288   6.984   8.464   4.365 -2.4002  1.5385  2.7056
   49bbb    H13 1289   6.995   8.283   4.152 -0.0199 -0.0524 -0.2346
   49bbb    H25 1290   6.851   8.671   4.305 -0.2492  0.7445 -0.8219
   50bbb     N1 1291   7.123   7.759   1.355 -0.4424  0.7840 -0.5251
   50bbb     C1 1292   7.077   7.894   1.297  0.3936  0.2266 -0.7181
   50bbb     C2 1293   7.077   7.650   1.267  0.4927  0.0542 -0.3156
   50bbb     C3 1294   6.936   7.940   1.327  0.3705  0.0753 -0.2735
   50bbb     C4 1295   6.895   8.071   1.256  0.0782 -0.3309  1.2553
   50bbb     C5 1296   7.145   7.514   1.283  0.8714  0.5792  0.5468
   50bbb     C6 1297   7.096   7.400   1.188 -0.0295 -0.3178  0.1618
   50bbb     C7 1298   7.079   7.741   1.496 -0.2850  0.1764 -0.7633
   50bbb     C8 1299   7.143   7.824   1.604 -0.4062 -0.2823 -0.0405
   50bbb     N2 1300   7.077   7.807   1.735 -0.3076  0.3167 -0.0160
   50bbb     O1 1301   6.937   8.098   1.142 -0.1218 -0.5017  0.1198
   50bbb     O2 1302   7.152   7.362   1.086  0.2453  0.1988 -0.4301
   50bbb     H1 1303   7.150   7.969   1.329 -0.5829  2.4222 -3.2166
   50bbb     H2 1304   7.082   7.886   1.189 -0.4565 -0.9112 -0.6844
   50bbb     H3 1305   7.095   7.691   1.168 -3.2897 -1.9245 -2.0320
   50bbb     H4 1306   6.968   7.644   1.270  0.3254 -1.3543 -3.8632
   50bbb     H5 1307   6.862   7.864   1.299 -2.4046  1.3655  2.8660
   50bbb     H6 1308   6.926   7.954   1.435 -0.6476  2.5922 -0.6329
   50bbb     H7 1309   7.130   7.481   1.386  1.0836 -1.7942 -0.1225
   50bbb     H8 1310   7.255   7.514   1.277  0.8476  0.4534 -0.0020
   50bbb     H9 1311   7.104   7.638   1.521  0.7337  0.7965  0.9216
   50bbb    H10 1312   6.970   7.749   1.493 -0.3517 -0.2043  0.2676
   50bbb    H11 1313   7.120   7.925   1.571 -1.4710 -0.6860 -0.5769
   50bbb    H12 1314   7.252   7.815   1.620 -0.2671  0.5921 -0.4425
   50bbb    H13 1315   6.988   7.855   1.748  0.2090  1.2757  0.0948
   50bbb    H25 1316   7.226   7.768   1.345 -0.4543  2.5076  0.5890
   51bbb     N1 1317   6.628   8.150   2.734 -0.2220  0.4633  0.2022
   51bbb     C1 1318   6.741   8.236   2.798  0.0606 -0.2144  0.1848
   51bbb     C2 1319   6.522   8.094   2.820 -0.7113  1.1590 -0.1681
   51bbb     C3 1320   6.700   8.375   2.849 -0.1091 -0.3467  0.8620
   51bbb     C4 1321   6.672   8.469   2.733 -0.4937 -0.2480 -0.2930
   51bbb     C5 1322   6.566   7.978   2.926 -0.3107  1.2860 -0.2534
   51bbb     C6 1323   6.451   7.942   3.017  0.3822  1.0397  0.2674
   51bbb     C7 1324   6.692   8.041   2.652 -0.0283  0.3056  0.8040
   51bbb     C8 1325   6.608   7.957   2.557  0.5199  0.1669 -0.2395
   51bbb     N2 1326   6.681   7.836   2.511 -0.4599  0.4502 -0.4434
   51bbb     O1 1327   6.680   8.434   2.611 -0.0754 -0.3429 -0.4228
   51bbb     O2 1328   6.334   7.939   2.980  0.3760  0.0431  0.1784
   51bbb     H1 1329   6.788   8.169   2.870  3.4245  1.9638  0.2289
   51bbb     H2 1330   6.822   8.251   2.727  0.8569 -2.0728  0.6413
   51bbb     H3 1331   6.440   8.057   2.758 -0.3460 -1.2581  0.6729
   51bbb     H4 1332   6.495   8.185   2.875 -1.1017  2.0534 -1.7800
   51bbb     H5 1333   6.609   8.360   2.907  0.3649  0.4074  1.8264
   51bbb     H6 1334   6.778   8.423   2.910 -0.8045  0.7555  0.9095
   51bbb     H7 1335   6.646   8.026   2.983 -1.6899  2.3611  0.8543
   51bbb     H8 1336   6.609   7.889   2.879 -0.9489  0.5335  0.5449
   51bbb     H9 1337   6.736   7.968   2.720  1.4455 -1.9437 -2.3427
   51bbb    H10 1338   6.773   8.082   2.591 -1.8000 -0.7281 -2.4921
   51bbb    H11 1339   6.574   8.024   2.477 -2.1399 -0.3543  0.3559
   51bbb    H12 1340   6.515   7.920   2.604  0.2111  0.3172 -0.7239
   51bbb    H13 1341   6.701   7.759   2.574 -0.7474 -0.6214 -1.6049
   51bbb    H25 1342   6.581   8.214   2.668 -1.2313 -1.2180 -0.7610
   52bbb     N1 1343   8.733   6.235   2.839 -0.0495  0.4947  0.2950
   52bbb     C1 1344   8.709   6.095   2.779 -0.2139 -0.2040 -0.5989
   52bbb     C2 1345   8.607   6.273   2.925  0.0455 -0.5021 -0.3287
   52bbb     C3 1346   8.827   6.035   2.702  0.2507 -0.2757  0.5144
   52bbb     C4 1347   8.790   5.976   2.565 -0.4956 -0.2531 -0.1468
   52bbb     C5 1348   8.623   6.232   3.072  0.0626 -0.2106  0.4625
   52bbb     C6 1349   8.499   6.269   3.146  0.2823 -0.3584  0.7964
   52bbb     C7 1350   8.735   6.330   2.721 -0.6677 -0.2486 -0.1666
   52bbb     C8 1351   8.765   6.480   2.748  0.0305  0.1971  0.0322
   52bbb     N2 1352   8.723   6.563   2.636  0.4779 -0.5301 -0.2423
   52bbb     O1 1353   8.687   6.000   2.503  0.1881  0.6239 -0.8317
   52bbb     O2 1354   8.464   6.385   3.144  0.1817 -0.0962 -0.2005
   52bbb     H1 1355   8.682   6.031   2.864 -3.2208  0.3824 -0.9992
   52bbb     H2 1356   8.625   6.107   2.710  1.2040 -0.0827 -2.3432
   52bbb     H3 1357   8.521   6.232   2.872  0.0395 -1.6145  0.5326
   52bbb     H4 1358   8.596   6.382   2.931 -0.4997 -0.6467  1.9510
   52bbb     H5 1359   8.912   6.102   2.687 -1.0886  1.3834  0.0178
   52bbb     H6 1360   8.856   5.947   2.761 -1.4789  0.9786  3.4638
   52bbb     H7 1361   8.710   6.271   3.126 -0.4207  1.2593  0.2321
   52bbb     H8 1362   8.624   6.122   3.073 -1.1681 -0.2575 -0.8447
   52bbb     H9 1363   8.636   6.326   2.677 -0.8629  0.8329  0.1548
   52bbb    H10 1364   8.808   6.284   2.654  0.2928  0.3659  0.4213
   52bbb    H11 1365   8.872   6.501   2.759  0.1383  0.9014 -1.9795
   52bbb    H12 1366   8.719   6.500   2.846  1.4012 -2.6261  1.3968
   52bbb    H13 1367   8.755   6.544   2.541 -2.4933 -0.7872 -1.3266
   52bbb    H25 1368   8.825   6.230   2.885  0.7071 -0.7248 -1.2485
   53bbb     N1 1369   8.760   7.358   2.163 -0.8061 -0.1244  0.4705
   53bbb     C1 1370   8.644   7.426   2.093 -0.8322  0.4478 -0.0560
   53bbb     C2 1371   8.889   7.441   2.167  0.3460  0.3703  0.0381
   53bbb     C3 1372   8.592   7.552   2.163  0.2327 -0.1906  0.0933
   53bbb     C4 1373   8.466   7.618   2.110  0.7611 -0.0026 -0.3130
   53bbb     C5 1374   8.959   7.496   2.042  0.0700  0.0097  0.0130
   53bbb     C6 1375   9.079   7.581   2.086 -0.0265  0.1754 -0.2934
   53bbb     C7 1376   8.798   7.223   2.103 -0.2842 -0.2804 -0.2451
   53bbb     C8 1377   8.696   7.110   2.084  0.1035  0.6925  0.8048
   53bbb     N2 1378   8.637   7.066   2.210  0.6999 -0.7560 -0.8331
   53bbb     O1 1379   8.369   7.557   2.071 -0.5421  0.0014 -0.4173
   53bbb     O2 1380   9.064   7.662   2.175 -0.4707  0.4395  0.0765
   53bbb     H1 1381   8.672   7.432   1.988 -0.1820  0.2477  0.0981
   53bbb     H2 1382   8.568   7.349   2.089 -1.5679  1.0033  1.9289
   53bbb     H3 1383   8.959   7.382   2.226  0.4993  1.3476  0.8535
   53bbb     H4 1384   8.859   7.526   2.228 -0.6554  1.4123 -1.7943
   53bbb     H5 1385   8.561   7.520   2.263 -1.6102 -1.9285 -0.9539
   53bbb     H6 1386   8.670   7.629   2.172 -0.1878  0.1880  0.5869
   53bbb     H7 1387   8.901   7.572   1.988 -0.1418 -0.7122 -0.7950
   53bbb     H8 1388   8.993   7.421   1.971 -0.6330  0.3672 -0.7115
   53bbb     H9 1389   8.870   7.170   2.166  1.8812  0.4992 -1.9521
   53bbb    H10 1390   8.841   7.248   2.006 -0.9585 -3.0020 -1.3348
   53bbb    H11 1391   8.753   7.025   2.046  0.1540 -0.2118  2.7682
   53bbb    H12 1392   8.622   7.134   2.006  2.3369  2.9165 -0.8198
   53bbb    H13 1393   8.678   6.985   2.255 -1.4897 -1.0652  0.7724
   53bbb    H25 1394   8.730   7.340   2.259 -1.5044 -0.9890  0.0959
   54bbb     N1 1395   6.923   4.270   5.399 -0.5524  0.1547 -0.2239
   54bbb     C1 1396   6.803   4.352   5.441  0.5840  0.4431 -0.8534
   54bbb     C2 1397   6.875   4.129   5.373 -0.1056 -0.0506  0.2765
   54bbb     C3 1398   6.824   4.500   5.494 -0.1808 -0.1406  0.2683
   54bbb     C4 1399   6.694   4.577   5.506 -0.1976 -0.1534 -0.8087
   54bbb     C5 1400   6.990   4.035   5.331 -0.3159 -0.2199  0.0288
   54bbb     C6 1401   6.943   3.906   5.260 -0.0033 -0.2290 -0.3821
   54bbb     C7 1402   7.024   4.282   5.509 -0.0570 -0.8872  0.4034
   54bbb     C8 1403   7.132   4.383   5.464 -0.3474 -0.5724 -0.4035
   54bbb     N2 1404   7.206   4.346   5.347 -0.7154  0.3580 -0.6144
   54bbb     O1 1405   6.585   4.529   5.478  0.1207 -0.5063  0.4800
   54bbb     O2 1406   6.930   3.899   5.140 -0.0506 -0.5349  0.1005
   54bbb     H1 1407   6.733   4.355   5.357 -2.3635 -1.6633  1.3314
   54bbb     H2 1408   6.751   4.300   5.521 -0.4141 -0.8945 -2.2946
   54bbb     H3 1409   6.804   4.124   5.290  0.3023  0.4153 -0.1109
   54bbb     H4 1410   6.830   4.095   5.466  1.9274  0.5030  1.5407
   54bbb     H5 1411   6.863   4.494   5.596  1.3185 -0.8630 -0.3175
   54bbb     H6 1412   6.890   4.565   5.435  2.5142  2.3185  5.4223
   54bbb     H7 1413   7.050   4.016   5.421  1.5222  1.6784 -0.6925
   54bbb     H8 1414   7.066   4.083   5.268  0.7737 -0.9651  0.7460
   54bbb     H9 1415   7.062   4.182   5.528  0.6816 -0.0875  3.8153
   54bbb    H10 1416   6.968   4.321   5.594 -1.4675  2.1601 -1.7241
   54bbb    H11 1417   7.199   4.401   5.550 -0.0258  2.5197 -1.1658
   54bbb    H12 1418   7.095   4.483   5.439 -0.2526 -0.6226 -0.7486
   54bbb    H13 1419   7.274   4.273   5.362 -0.9650  0.5171  1.5212
   54bbb    H25 1420   6.948   4.318   5.312 -2.8337  1.4073 -0.2656
   55bbb     N1 1421   8.009   4.174   5.607  0.1396 -0.3467  0.4934
   55bbb     C1 1422   8.005   4.126   5.750 -0.4438  0.1758  0.1944
   55bbb     C2 1423   8.142   4.240   5.575 -0.2539  0.0073 -0.1651
   55bbb     C3 1424   7.882   4.055   5.808  0.8597 -0.5231 -0.0186
   55bbb     C4 1425   7.910   4.023   5.955 -0.0258 -0.3516  0.0578
   55bbb     C5 1426   8.236   4.167   5.472  0.6278 -0.8665 -0.5356
   55bbb     C6 1427   8.314   4.059   5.540  1.2872  0.4573 -0.1528
   55bbb     C7 1428   7.894   4.262   5.560 -0.1241 -0.1649  0.1073
   55bbb     C8 1429   7.892   4.276   5.407  0.1187  1.2156  0.0960
   55bbb     N2 1430   7.787   4.362   5.357 -0.3425  0.3190 -0.1052
   55bbb     O1 1431   7.917   4.110   6.040  0.5571  0.7109 -0.1160
   55bbb     O2 1432   8.281   4.009   5.641  0.0043 -0.2165  0.5091
   55bbb     H1 1433   8.091   4.064   5.775 -1.4822 -0.1008  3.4213
   55bbb     H2 1434   8.012   4.217   5.809 -1.7891 -1.8721  3.7742
   55bbb     H3 1435   8.190   4.269   5.669 -1.0477  5.1284 -1.0475
   55bbb     H4 1436   8.114   4.338   5.536 -1.4223  0.1844  1.0080
   55bbb     H5 1437   7.792   4.117   5.806  0.9979 -0.2567 -3.8692
   55bbb     H6 1438   7.855   3.964   5.753  1.9081 -0.1680 -1.1569
   55bbb     H7 1439   8.300   4.250   5.440 -1.7044  1.1093 -0.3064
   55bbb     H8 1440   8.173   4.138   5.387 -1.3606  1.7903 -0.0790
   55bbb     H9 1441   7.900   4.363   5.600 -2.2133  0.1030 -0.1672
   55bbb    H10 1442   7.796   4.225   5.591 -0.4377  0.2520 -0.3873
   55bbb    H11 1443   7.888   4.182   5.351 -1.7456 -0.1562  2.3871
   55bbb    H12 1444   7.989   4.323   5.382  1.2012  0.4201  2.4934
   55bbb    H13 1445   7.695   4.343   5.394  0.2451 -0.9639  0.7471
   55bbb    H25 1446   7.991   4.093   5.546  0.1163  0.5507 -0.7550
   56bbb     N1 1447   8.643   5.590   3.520  0.5715  0.2899 -0.5983
   56bbb     C1 1448   8.775   5.650   3.468 -0.5463  0.4031  0.3604
   56bbb     C2 1449   8.527   5.671   3.462  0.0994 -0.4431  0.0570
   56bbb     C3 1450   8.893   5.551   3.468 -0.3672  0.1011  0.6784
   56bbb     C4 1451   9.006   5.624   3.401 -1.2237 -0.4006 -0.7013
   56bbb     C5 1452   8.383   5.613   3.468 -0.0215  0.7813  0.0566
   56bbb     C6 1453   8.304   5.661   3.347  0.3194  0.1601 -0.2604
   56bbb     C7 1454   8.636   5.580   3.672  0.3935 -0.0040 -0.1040
   56bbb     C8 1455   8.642   5.720   3.746  0.5721  0.0534 -0.1292
   56bbb     N2 1456   8.656   5.687   3.888 -0.1671 -0.1288 -0.0569
   56bbb     O1 1457   8.988   5.697   3.306  0.1822 -0.1820  0.2416
   56bbb     O2 1458   8.327   5.772   3.297  0.1460 -0.0542  0.1902
   56bbb     H1 1459   8.767   5.673   3.362  1.3431  0.0863  0.1161
   56bbb     H2 1460   8.799   5.736   3.531  0.4620 -0.5536  1.3543
   56bbb     H3 1461   8.544   5.679   3.355 -2.0404 -2.6415 -0.5369
   56bbb     H4 1462   8.535   5.772   3.503  0.9752 -1.0356  1.4556
   56bbb     H5 1463   8.922   5.516   3.568  0.6131 -0.8455  0.0891
   56bbb     H6 1464   8.874   5.464   3.404 -0.5687 -0.5478  1.5943
   56bbb     H7 1465   8.325   5.658   3.550  0.5572  3.8401 -1.0917
   56bbb     H8 1466   8.364   5.505   3.471 -1.0118  0.9756  1.8493
   56bbb     H9 1467   8.722   5.524   3.708 -0.5470 -2.4351 -1.4684
   56bbb    H10 1468   8.543   5.527   3.695  1.0328 -0.4620  1.5636
   56bbb    H11 1469   8.548   5.775   3.731 -0.0191 -0.4370  1.4914
   56bbb    H12 1470   8.724   5.785   3.715  0.6010  0.7826  1.3641
   56bbb    H13 1471   8.676   5.594   3.922  0.3024  0.8720  2.6938
   56bbb    H25 1472   8.641   5.492   3.489  3.1465 -0.9805  2.6419
   57bbb     N1 1473   9.353   5.325   4.712 -0.2493 -0.0467  0.1601
   57bbb     C1 1474   9.389   5.183   4.659 -0.0947  0.1132  0.2067
   57bbb     C2 1475   9.413   5.351   4.848 -0.2068  0.6430 -0.5972
   57bbb     C3 1476   9.536   5.130   4.692  0.6840 -0.7793  0.2462
   57bbb     C4 1477   9.553   5.002   4.620 -0.5305  0.2653  0.5003
   57bbb     C5 1478   9.405   5.498   4.886 -0.1477 -0.1533 -0.1718
   57bbb     C6 1479   9.505   5.544   4.982 -0.0772  0.3986 -0.3232
   57bbb     C7 1480   9.199   5.354   4.702  0.1229 -0.0095  0.0459
   57bbb     C8 1481   9.156   5.370   4.555  0.3832  0.2859  0.0548
   57bbb     N2 1482   9.014   5.395   4.555 -0.1553  0.0104 -0.0617
   57bbb     O1 1483   9.494   4.968   4.516  0.1735  0.8261  0.0024
   57bbb     O2 1484   9.570   5.470   5.056 -0.2677  0.2084  0.0634
   57bbb     H1 1485   9.315   5.109   4.688  0.9247 -0.9773  0.0726
   57bbb     H2 1486   9.371   5.197   4.553 -3.3078  3.6313  0.9864
   57bbb     H3 1487   9.511   5.303   4.856 -0.4519  0.2436  0.0903
   57bbb     H4 1488   9.354   5.291   4.917  0.9677 -2.6962 -2.2661
   57bbb     H5 1489   9.614   5.198   4.656  0.4928 -0.3064  0.7137
   57bbb     H6 1490   9.553   5.114   4.799  0.8136 -0.9312  0.2028
   57bbb     H7 1491   9.306   5.527   4.925  0.2375  3.0063 -1.2265
   57bbb     H8 1492   9.424   5.564   4.800  2.9781 -1.0887 -0.3192
   57bbb     H9 1493   9.188   5.452   4.748 -2.1010 -0.9932  1.8086
   57bbb    H10 1494   9.144   5.274   4.753  3.6181 -3.3294 -0.8991
   57bbb    H11 1495   9.176   5.286   4.488 -1.2835 -0.5191  0.4979
   57bbb    H12 1496   9.205   5.456   4.507 -0.7009  0.6207 -0.5032
   57bbb    H13 1497   8.963   5.417   4.639  1.8612  0.2152  1.1560
   57bbb    H25 1498   9.396   5.395   4.649 -1.4662 -0.2156 -0.9165
   58bbb     N1 1499   7.826   6.227   5.961  0.1683  0.3326 -0.2254
   58bbb     C1 1500   7.808   6.361   6.036 -0.6065  0.3064  0.6741
   58bbb     C2 1501   7.949   6.234   5.866  0.0048  0.5797 -0.3750
   58bbb     C3 1502   7.749   6.339   6.178  0.6663  0.1271  0.1724
   58bbb     C4 1503   7.728   6.472   6.248 -0.1915 -0.4956  0.6202
   58bbb     C5 1504   8.034   6.109   5.888 -0.8803  0.8633 -0.6485
   58bbb     C6 1505   8.147   6.114   5.787  0.0634  0.1838 -0.3423
   58bbb     C7 1506   7.692   6.193   5.888 -0.0341  0.3429  0.7095
   58bbb     C8 1507   7.690   6.059   5.825 -0.3469  0.0674 -0.1968
   58bbb     N2 1508   7.555   6.002   5.787  0.0345 -0.0277  0.5001
   58bbb     O1 1509   7.670   6.560   6.188  0.5288 -0.5958  0.0956
   58bbb     O2 1510   8.198   6.218   5.746  0.1368  0.4716 -0.0580
   58bbb     H1 1511   7.901   6.416   6.034  1.0248 -2.3059 -0.7250
   58bbb     H2 1512   7.742   6.416   5.969  1.1505 -0.1132 -1.5184
   58bbb     H3 1513   8.002   6.328   5.879  0.2026  0.4210 -0.0079
   58bbb     H4 1514   7.916   6.239   5.762  0.3180  1.4932 -0.4412
   58bbb     H5 1515   7.652   6.289   6.166  0.2891  0.9307 -0.2472
   58bbb     H6 1516   7.807   6.271   6.241  0.4745  0.9578  1.2838
   58bbb     H7 1517   7.975   6.016   5.884  0.4946 -0.0883  0.4916
   58bbb     H8 1518   8.077   6.097   5.988  0.6588 -0.6244 -1.4389
   58bbb     H9 1519   7.680   6.277   5.819 -0.8342  0.6787  1.2434
   58bbb    H10 1520   7.622   6.197   5.970 -0.9627 -0.8303  0.0006
   58bbb    H11 1521   7.746   5.994   5.893 -2.2042 -0.1995  1.1659
   58bbb    H12 1522   7.738   6.084   5.729 -0.0763 -0.3712 -0.1772
   58bbb    H13 1523   7.475   6.056   5.818  1.0227  1.2111  0.9742
   58bbb    H25 1524   7.845   6.151   6.027  2.0429 -0.5092 -1.6464
   59bbb     N1 1525   6.498   5.493   5.746 -0.3430  0.5262  0.0210
   59bbb     C1 1526   6.400   5.422   5.646 -0.2382 -0.0932 -0.1343
   59bbb     C2 1527   6.435   5.605   5.822 -0.4223 -0.2028 -0.6256
   59bbb     C3 1528   6.277   5.349   5.705 -0.1784 -0.1736 -0.1403
   59bbb     C4 1529   6.267   5.198   5.671  0.6091 -0.1222 -0.1303
   59bbb     C5 1530   6.376   5.723   5.737 -0.1232  0.1149  0.1243
   59bbb     C6 1531   6.305   5.819   5.835  0.2608  0.1032  0.4108
   59bbb     C7 1532   6.609   5.539   5.653 -0.2363 -0.4172  0.2736
   59bbb     C8 1533   6.722   5.632   5.707  0.4758  0.3670  0.0917
   59bbb     N2 1534   6.825   5.657   5.601  0.4872  0.5105 -0.9206
   59bbb     O1 1535   6.371   5.135   5.660  0.1275 -0.3765 -0.2933
   59bbb     O2 1536   6.371   5.852   5.928  0.5454 -0.0301 -0.2866
   59bbb     H1 1537   6.363   5.499   5.578 -0.8719 -0.2532  0.0165
   59bbb     H2 1538   6.458   5.350   5.588  2.0971  0.9446  0.8076
   59bbb     H3 1539   6.506   5.651   5.891 -1.4300 -0.4841  0.6493
   59bbb     H4 1540   6.357   5.569   5.889 -0.6310  1.5590  0.1353
   59bbb     H5 1541   6.266   5.351   5.814  1.1541 -0.9165  0.0280
   59bbb     H6 1542   6.184   5.389   5.663 -1.5247 -1.6921  1.2260
   59bbb     H7 1543   6.311   5.679   5.661  0.2351  0.6103 -0.4825
   59bbb     H8 1544   6.454   5.782   5.688  1.5617 -0.6170  1.7889
   59bbb     H9 1545   6.570   5.584   5.561  0.0216  0.3397  0.5343
   59bbb    H10 1546   6.655   5.444   5.625 -0.2554 -0.9776  2.0583
   59bbb    H11 1547   6.774   5.592   5.795 -0.3438  0.8924  0.8387
   59bbb    H12 1548   6.688   5.732   5.736 -0.4593 -0.1240  0.7803
   59bbb    H13 1549   6.797   5.729   5.536 -1.5875  0.8901  0.2863
   59bbb    H25 1550   6.526   5.428   5.820  0.5924  2.7305  1.7228
   60bbb     N1 1551   7.467   6.722   5.980 -0.5258 -0.0971 -0.1556
   60bbb     C1 1552   7.348   6.722   6.071  0.3603  0.7673 -0.3888
   60bbb     C2 1553   7.582   6.814   6.026  0.2896  0.3463 -0.1617
   60bbb     C3 1554   7.360   6.668   6.215 -0.3161  0.1507  0.4766
   60bbb     C4 1555   7.225   6.677   6.281  0.5945 -0.2684 -0.2981
   60bbb     C5 1556   7.717   6.788   5.946 -0.0220  0.1658  0.2450
   60bbb     C6 1557   7.838   6.851   6.010 -0.3949  0.3314  0.0509
   60bbb     C7 1558   7.419   6.769   5.844  0.3527 -0.0080 -0.2117
   60bbb     C8 1559   7.333   6.660   5.763  0.0873 -0.1738  0.3475
   60bbb     N2 1560   7.277   6.710   5.640  0.2734  0.1302  0.1930
   60bbb     O1 1561   7.149   6.775   6.266 -0.1406  0.2558 -0.1569
   60bbb     O2 1562   7.844   6.891   6.127  0.7072 -0.1550 -0.4139
   60bbb     H1 1563   7.314   6.825   6.063 -0.6290  0.3359 -2.5277
   60bbb     H2 1564   7.273   6.666   6.014  2.3271 -3.2139  0.5947
   60bbb     H3 1565   7.609   6.791   6.129 -0.2112 -0.7075 -0.2580
   60bbb     H4 1566   7.551   6.919   6.020 -2.9313 -0.4453  0.7899
   60bbb     H5 1567   7.405   6.569   6.214  1.4327  0.9079 -0.3790
   60bbb     H6 1568   7.430   6.724   6.278 -1.5063  2.4843 -0.1327
   60bbb     H7 1569   7.705   6.817   5.841  3.2405 -1.8728 -0.8504
   60bbb     H8 1570   7.734   6.680   5.948  0.0697  0.0806 -2.0197
   60bbb     H9 1571   7.508   6.805   5.790  0.5882  0.5338  0.5260
   60bbb    H10 1572   7.350   6.853   5.856  1.0992  0.2478  3.1233
   60bbb    H11 1573   7.257   6.616   5.829  0.3007 -1.3895 -0.2015
   60bbb    H12 1574   7.395   6.582   5.718 -1.8259  0.6290 -4.1957
   60bbb    H13 1575   7.324   6.792   5.603  2.1899 -0.4773  1.1665
   60bbb    H25 1576   7.518   6.633   5.985  0.5157  0.5212  3.6519
   61bbb     N1 1577   6.234   7.184   5.468  0.2207  0.3049 -0.4922
   61bbb     C1 1578   6.219   7.141   5.609  0.0439 -0.4245 -0.3474
   61bbb     C2 1579   6.136   7.118   5.370  0.0263 -0.2298 -1.1880
   61bbb     C3 1580   6.078   7.156   5.663  0.1420  0.2090 -0.3786
   61bbb     C4 1581   6.069   7.142   5.814 -0.0121  0.0569  0.1476
   61bbb     C5 1582   6.141   7.173   5.220  0.3515  0.4602 -0.2940
   61bbb     C6 1583   6.030   7.120   5.130  0.2623  0.2938  0.2578
   61bbb     C7 1584   6.379   7.150   5.432  0.4552  0.4590 -0.6648
   61bbb     C8 1585   6.419   7.008   5.394 -0.0337  0.3091 -0.6023
   61bbb     N2 1586   6.571   7.000   5.387  0.0956  0.1116 -0.1947
   61bbb     O1 1587   6.124   7.048   5.864 -0.5937  0.1228  0.0485
   61bbb     O2 1588   5.951   7.025   5.156 -0.3371 -0.4037 -0.5352
   61bbb     H1 1589   6.238   7.034   5.613 -2.0735 -0.8371 -0.1257
   61bbb     H2 1590   6.295   7.192   5.668  2.0090 -0.2921 -2.8358
   61bbb     H3 1591   6.035   7.134   5.407  0.2483  2.1457 -1.4319
   61bbb     H4 1592   6.160   7.012   5.367  1.9114  0.1480 -4.2133
   61bbb     H5 1593   6.024   7.248   5.638  1.6319  1.0592 -0.5988
   61bbb     H6 1594   6.021   7.072   5.622 -0.8980  0.2437  0.8871
   61bbb     H7 1595   6.237   7.150   5.172 -0.3244  0.9161 -1.9471
   61bbb     H8 1596   6.136   7.283   5.220  3.0290  0.6647  1.2306
   61bbb     H9 1597   6.440   7.186   5.515 -0.2891  1.4173 -0.5164
   61bbb    H10 1598   6.394   7.209   5.342 -0.8935 -0.7663 -1.7350
   61bbb    H11 1599   6.379   6.975   5.297  0.3111 -0.2223 -0.5624
   61bbb    H12 1600   6.388   6.942   5.476  1.1753  1.6630  1.0245
   61bbb    H13 1601   6.634   7.078   5.403 -1.1898  1.0490  0.4373
   61bbb    H25 1602   6.223   7.286   5.460 -1.4221  0.1168 -1.2149
   62bbb     N1 1603   5.077   4.728   4.589  0.1495 -0.2898  0.1971
   62bbb     C1 1604   5.098   4.612   4.683  0.2040  0.6525 -0.4994
   62bbb     C2 1605   4.977   4.694   4.480  0.0663  0.0593 -0.4677
   62bbb     C3 1606   5.195   4.639   4.798  0.9690 -0.7202 -0.2492
   62bbb     C4 1607   5.202   4.519   4.893 -0.3038  0.5762 -0.1953
   62bbb     C5 1608   4.827   4.675   4.527  0.6897  0.9138  0.3240
   62bbb     C6 1609   4.725   4.697   4.415  0.4798 -0.4003 -0.1149
   62bbb     C7 1610   5.214   4.775   4.530  0.5415  0.1434 -0.8252
   62bbb     C8 1611   5.223   4.878   4.415  0.0898  0.7081  0.5436
   62bbb     N2 1612   5.182   5.012   4.450  0.1762 -0.2147 -0.2460
   62bbb     O1 1613   5.108   4.442   4.920 -0.1301  0.1771  0.4401
   62bbb     O2 1614   4.652   4.612   4.372 -0.0789  0.0129 -0.2928
   62bbb     H1 1615   5.001   4.584   4.724  1.6178 -2.1039  1.2347
   62bbb     H2 1616   5.132   4.529   4.621 -1.6076 -0.1204 -0.5128
   62bbb     H3 1617   5.013   4.616   4.413 -0.3976 -1.1757  0.6766
   62bbb     H4 1618   4.983   4.790   4.427 -0.8899  1.9103  2.5171
   62bbb     H5 1619   5.291   4.644   4.746  0.8800 -1.5353 -0.5144
   62bbb     H6 1620   5.180   4.731   4.857  0.5681 -1.6010  1.0882
   62bbb     H7 1621   4.795   4.739   4.609 -0.2892 -0.4839  1.0871
   62bbb     H8 1622   4.809   4.575   4.570  0.9321  0.9452  0.4998
   62bbb     H9 1623   5.267   4.684   4.503 -0.4573 -0.5878 -0.3933
   62bbb    H10 1624   5.270   4.819   4.613 -0.4833  0.5365 -0.3290
   62bbb    H11 1625   5.184   4.847   4.317  0.5930 -1.7739  1.0564
   62bbb    H12 1626   5.330   4.883   4.395  0.0391  1.8061  0.4907
   62bbb    H13 1627   5.259   5.064   4.491  1.6900  0.0573 -3.1185
   62bbb    H25 1628   5.032   4.805   4.640 -0.6233  0.2968 -1.3181
   63bbb     N1 1629   4.192   5.405   4.241  0.2072 -0.1237  0.1030
   63bbb     C1 1630   4.115   5.417   4.115 -0.1037  0.3826  0.2833
   63bbb     C2 1631   4.108   5.358   4.361  0.7078  0.5834  0.7208
   63bbb     C3 1632   4.182   5.467   3.986 -0.0325  0.4316  0.5650
   63bbb     C4 1633   4.100   5.472   3.858 -0.3749 -0.5104  0.0097
   63bbb     C5 1634   4.061   5.205   4.360  0.0963  0.6390  0.2207
   63bbb     C6 1635   3.950   5.180   4.462  0.4124  0.3524 -0.0484
   63bbb     C7 1636   4.253   5.546   4.258 -0.3329  0.3693 -0.1866
   63bbb     C8 1637   4.320   5.588   4.384 -0.2924 -0.4954 -0.1705
   63bbb     N2 1638   4.433   5.505   4.404 -0.5472  0.1689 -0.2456
   63bbb     O1 1639   3.982   5.436   3.856 -0.7014  0.0277 -0.6890
   63bbb     O2 1640   3.972   5.190   4.582  0.1467 -0.0992 -0.1698
   63bbb     H1 1641   4.062   5.322   4.113 -0.7664  0.7204  1.1995
   63bbb     H2 1642   4.028   5.483   4.126  0.4377  1.5352 -1.8171
   63bbb     H3 1643   4.025   5.430   4.356  0.7980  0.6112 -1.0624
   63bbb     H4 1644   4.162   5.384   4.452  0.2025  1.4469  0.7881
   63bbb     H5 1645   4.229   5.565   3.998 -2.2890  1.4437  1.8024
   63bbb     H6 1646   4.259   5.391   3.970  0.7194  0.7818  2.3354
   63bbb     H7 1647   4.146   5.142   4.387 -0.1112 -0.0145 -0.6180
   63bbb     H8 1648   4.023   5.163   4.266  1.6949  1.1289 -0.6854
   63bbb     H9 1649   4.179   5.620   4.228 -1.4190 -0.1467  1.0740
   63bbb    H10 1650   4.326   5.539   4.178 -2.2601 -0.2531 -1.9725
   63bbb    H11 1651   4.255   5.587   4.472 -1.8169 -0.2382 -1.2650
   63bbb    H12 1652   4.365   5.688   4.377 -2.1418  0.3081 -1.1758
   63bbb    H13 1653   4.431   5.440   4.482  1.0819  0.2208 -0.1206
   63bbb    H25 1654   4.273   5.342   4.232  0.6876  0.0751  2.4966
   64bbb     N1 1655   5.028   4.219   2.843 -0.0489 -0.1161 -0.3969
   64bbb     C1 1656   4.952   4.106   2.916 -0.0334  0.3392  0.9530
   64bbb     C2 1657   5.141   4.159   2.764 -0.1971  0.1839 -0.6379
   64bbb     C3 1658   4.862   4.017   2.823 -0.5619 -0.6908 -0.2665
   64bbb     C4 1659   4.792   3.910   2.905 -0.1301  0.1266  0.7176
   64bbb     C5 1660   5.188   4.251   2.654  0.0010  0.6760 -0.5871
   64bbb     C6 1661   5.164   4.180   2.523 -0.4273  0.4728  0.3834
   64bbb     C7 1662   5.094   4.318   2.941 -0.2006  0.2138  0.5478
   64bbb     C8 1663   4.990   4.421   2.989 -0.1188 -0.0918  0.2717
   64bbb     N2 1664   5.054   4.513   3.090  0.0242 -0.1692 -0.0751
   64bbb     O1 1665   4.805   3.914   3.025  0.3800 -0.0571  0.1891
   64bbb     O2 1666   5.062   4.124   2.497 -0.6915  0.6018 -0.0277
   64bbb     H1 1667   5.015   4.034   2.968 -0.7911 -1.5228 -0.5986
   64bbb     H2 1668   4.892   4.162   2.989  0.1978  1.2750  0.4445
   64bbb     H3 1669   5.108   4.061   2.730 -1.2639  0.3563 -0.1653
   64bbb     H4 1670   5.221   4.140   2.836 -1.2889 -2.4883 -0.0269
   64bbb     H5 1671   4.791   4.064   2.754 -1.6467 -1.3764  0.3467
   64bbb     H6 1672   4.929   3.963   2.755  2.6887  1.3989  1.0058
   64bbb     H7 1673   5.294   4.266   2.677  0.0648 -0.5089 -0.0352
   64bbb     H8 1674   5.134   4.346   2.650  0.3049  0.8283 -1.2275
   64bbb     H9 1675   5.169   4.364   2.877  0.4499 -1.4859  0.0106
   64bbb    H10 1676   5.147   4.268   3.022  1.8751  0.2729 -0.7134
   64bbb    H11 1677   4.904   4.369   3.032 -1.3762  1.2437 -0.5444
   64bbb    H12 1678   4.946   4.468   2.900 -0.5928 -2.4369 -0.8281
   64bbb    H13 1679   5.112   4.590   3.057 -0.5075  0.9277  1.4154
   64bbb    H25 1680   4.964   4.272   2.783 -0.3906 -0.5976 -0.4581
   65bbb     N1 1681   5.004   4.252   4.111  0.2421  0.4900  0.4077
   65bbb     C1 1682   4.986   4.291   4.257  0.1310 -0.7340  0.1783
   65bbb     C2 1683   4.881   4.172   4.060 -0.5628  0.0324 -0.5541
   65bbb     C3 1684   4.973   4.181   4.369 -0.2572 -0.2947 -0.3272
   65bbb     C4 1685   4.929   4.248   4.502  0.6006 -0.7111  0.6945
   65bbb     C5 1686   4.888   4.111   3.913  0.3110  0.1323 -1.1702
   65bbb     C6 1687   4.920   4.194   3.792 -0.3009 -0.4777  0.2052
   65bbb     C7 1688   5.131   4.178   4.093  0.0764  0.4350  0.0309
   65bbb     C8 1689   5.254   4.271   4.075  0.0166 -0.5624  0.1683
   65bbb     N2 1690   5.265   4.320   3.936 -0.1528 -0.7227 -0.5260
   65bbb     O1 1691   4.960   4.363   4.537  0.1215  0.3053  0.0092
   65bbb     O2 1692   4.959   4.309   3.807  0.0384 -0.2974 -0.0214
   65bbb     H1 1693   5.071   4.354   4.285  0.6549 -1.7987  1.0850
   65bbb     H2 1694   4.894   4.349   4.255  1.0374  0.7756  0.0500
   65bbb     H3 1695   4.793   4.237   4.065 -1.1372 -0.7921  0.3649
   65bbb     H4 1696   4.855   4.087   4.123 -0.8604  0.7393  0.2892
   65bbb     H5 1697   4.894   4.115   4.331 -1.1067  2.1219 -3.1155
   65bbb     H6 1698   5.064   4.121   4.378  0.4544  0.6019 -1.3303
   65bbb     H7 1699   4.790   4.066   3.895  0.7634  0.6429 -6.3319
   65bbb     H8 1700   4.962   4.030   3.922 -0.4443 -0.3532  2.3472
   65bbb     H9 1701   5.122   4.116   4.004 -0.3286  0.7734 -0.1661
   65bbb    H10 1702   5.141   4.125   4.188  0.7914  1.5963  0.6328
   65bbb    H11 1703   5.349   4.221   4.096  2.0115  0.8101 -4.4050
   65bbb    H12 1704   5.243   4.358   4.141  1.5509  0.3676 -0.7452
   65bbb    H13 1705   5.309   4.260   3.868 -0.1308 -0.2716 -0.9212
   65bbb    H25 1706   5.014   4.340   4.057  3.8707  0.0614  0.1579
   66bbb     N1 1707   5.026   4.806   1.017  0.3686  0.0063  0.1358
   66bbb     C1 1708   4.949   4.840   0.893  0.7275  0.0984  0.2180
   66bbb     C2 1709   5.004   4.669   1.063  0.0878  0.1288  0.4207
   66bbb     C3 1710   4.790   4.847   0.900  0.2545 -0.3928  0.5846
   66bbb     C4 1711   4.725   4.904   0.771 -0.2289 -0.2333 -0.7587
   66bbb     C5 1712   5.038   4.558   0.962  0.5819 -0.8382  0.1155
   66bbb     C6 1713   5.096   4.428   1.020 -0.0860 -0.5803 -0.1871
   66bbb     C7 1714   4.992   4.896   1.132  0.5000 -0.3550  0.3137
   66bbb     C8 1715   5.016   5.048   1.090 -0.0395  0.2188  0.6949
   66bbb     N2 1716   5.024   5.129   1.207  0.0243  0.2984 -0.5735
   66bbb     O1 1717   4.734   5.023   0.743  0.4145 -0.3073 -0.5769
   66bbb     O2 1718   5.209   4.428   1.075  0.5749  0.0326  0.7665
   66bbb     H1 1719   4.987   4.935   0.855 -0.0595  0.7385  0.9786
   66bbb     H2 1720   4.972   4.759   0.824  0.6140  1.5820 -1.6668
   66bbb     H3 1721   4.896   4.659   1.073  0.1746 -2.0566 -0.1524
   66bbb     H4 1722   5.061   4.660   1.156  0.7754  3.0760  0.3570
   66bbb     H5 1723   4.755   4.744   0.914  1.6024 -0.9528  0.0690
   66bbb     H6 1724   4.746   4.903   0.983 -3.8162 -0.3804 -1.3277
   66bbb     H7 1725   5.113   4.591   0.890  0.4019 -1.1012 -0.1952
   66bbb     H8 1726   4.948   4.532   0.905  2.3587  0.1576 -3.4096
   66bbb     H9 1727   5.050   4.867   1.220  0.9352 -2.5846 -0.6349
   66bbb    H10 1728   4.885   4.888   1.149 -0.1609  1.5094 -2.4859
   66bbb    H11 1729   4.932   5.086   1.031  0.0645 -0.0307  0.3864
   66bbb    H12 1730   5.105   5.065   1.029 -1.2582 -1.9094 -1.8593
   66bbb    H13 1731   5.034   5.085   1.297 -0.0269  1.2938 -0.0675
   66bbb    H25 1732   5.126   4.831   1.005  0.2019  0.6226 -0.0047
   67bbb     N1 1733   4.518   6.067   1.481 -0.6238 -0.0224  0.5848
   67bbb     C1 1734   4.568   6.182   1.388  0.3531 -0.2900  0.0596
   67bbb     C2 1735   4.365   6.078   1.477  1.1985 -0.4161 -0.4031
   67bbb     C3 1736   4.505   6.323   1.412 -0.5560 -0.2629 -0.0668
   67bbb     C4 1737   4.584   6.443   1.349  0.7311  0.4291  0.1167
   67bbb     C5 1738   4.298   6.048   1.344  0.4089 -0.1292  0.2539
   67bbb     C6 1739   4.164   6.126   1.321 -0.5905 -0.2744  0.4913
   67bbb     C7 1740   4.561   6.095   1.618 -0.1634 -0.6436  0.1148
   67bbb     C8 1741   4.708   6.080   1.650  0.3563 -0.0373 -0.0743
   67bbb     N2 1742   4.755   5.942   1.659  0.1312 -0.7669  0.0773
   67bbb     O1 1743   4.549   6.508   1.248  0.2976  0.2914 -0.1149
   67bbb     O2 1744   4.168   6.241   1.289  0.1419  0.0204 -0.0770
   67bbb     H1 1745   4.677   6.182   1.397  0.3060 -1.8245  1.1255
   67bbb     H2 1746   4.539   6.150   1.288 -1.9487 -0.8835  0.8520
   67bbb     H3 1747   4.335   6.178   1.507  1.5224 -0.4436  0.0182
   67bbb     H4 1748   4.317   6.013   1.550 -0.5547 -0.9340 -1.9404
   67bbb     H5 1749   4.401   6.317   1.377 -0.5941 -3.3636  0.3101
   67bbb     H6 1750   4.502   6.346   1.520 -1.1995  0.9148 -0.3105
   67bbb     H7 1751   4.280   5.941   1.335  0.8800 -0.2107  0.2614
   67bbb     H8 1752   4.364   6.073   1.260  2.6402 -0.1164  1.9150
   67bbb     H9 1753   4.505   6.021   1.676 -0.4175 -0.5869 -0.0560
   67bbb    H10 1754   4.524   6.194   1.646 -1.0650 -0.5436 -1.3426
   67bbb    H11 1755   4.725   6.132   1.745  1.4629  1.3221 -0.9751
   67bbb    H12 1756   4.768   6.132   1.574  0.8484  2.0680  1.6362
   67bbb    H13 1757   4.727   5.891   1.742 -0.4787  0.5918  0.7415
   67bbb    H25 1758   4.549   5.973   1.453 -2.0120 -0.2649 -0.2826
   68bbb     N1 1759   4.212   4.558   2.390 -0.0911  0.3845 -0.1309
   68bbb     C1 1760   4.211   4.445   2.497 -0.2628  0.4028  0.3871
   68bbb     C2 1761   4.164   4.498   2.261  0.3979 -0.0373 -0.1526
   68bbb     C3 1762   4.235   4.490   2.641  0.1369  0.6076  0.7247
   68bbb     C4 1763   4.209   4.375   2.743 -0.0046  0.3177  0.4693
   68bbb     C5 1764   4.255   4.403   2.185  0.4967 -0.4009 -0.9394
   68bbb     C6 1765   4.214   4.387   2.038  0.0692  0.0702  0.5585
   68bbb     C7 1766   4.339   4.628   2.370  0.1453 -0.3745 -0.3048
   68bbb     C8 1767   4.338   4.757   2.286 -0.4793 -0.8190 -0.0512
   68bbb     N2 1768   4.242   4.855   2.343 -0.0957 -0.0567 -0.2953
   68bbb     O1 1769   4.146   4.271   2.712  0.1935 -0.0361  0.1993
   68bbb     O2 1770   4.202   4.493   1.975  0.1208  0.1960 -0.3772
   68bbb     H1 1771   4.111   4.401   2.487  0.4876 -1.0694 -1.0951
   68bbb     H2 1772   4.279   4.368   2.461 -0.6971 -0.0703  0.5549
   68bbb     H3 1773   4.149   4.580   2.190  2.6729 -1.9196 -3.0345
   68bbb     H4 1774   4.070   4.448   2.285  1.2892 -1.2704  0.8944
   68bbb     H5 1775   4.338   4.524   2.657 -0.4658  1.3975  3.6058
   68bbb     H6 1776   4.160   4.567   2.666 -1.0661 -0.3599  0.2280
   68bbb     H7 1777   4.259   4.311   2.244 -1.6254  0.8491  1.3647
   68bbb     H8 1778   4.357   4.443   2.184  0.0288  0.9122  0.0313
   68bbb     H9 1779   4.413   4.566   2.319 -0.2228 -0.5357 -0.6442
   68bbb    H10 1780   4.374   4.659   2.469  0.6029  0.9085 -0.8427
   68bbb    H11 1781   4.312   4.739   2.181  2.2619 -1.8215 -0.6487
   68bbb    H12 1782   4.437   4.803   2.295 -0.9516  0.3860 -0.8157
   68bbb    H13 1783   4.181   4.842   2.422  0.2768 -0.1721 -0.0238
   68bbb    H25 1784   4.140   4.621   2.426 -1.1804 -0.4751 -0.7384
   69bbb     N1 1785   3.426   5.476   1.822  0.0030  0.5015  0.0152
   69bbb     C1 1786   3.287   5.509   1.867 -0.3815 -0.1023  0.5420
   69bbb     C2 1787   3.442   5.328   1.784 -0.4885 -0.3336 -0.4100
   69bbb     C3 1788   3.212   5.601   1.763  0.4759  0.3320  0.9065
   69bbb     C4 1789   3.271   5.733   1.739 -0.5159 -0.5939 -0.6197
   69bbb     C5 1790   3.346   5.270   1.686 -0.6314  0.0944  0.0903
   69bbb     C6 1791   3.380   5.124   1.658  0.2135 -0.4678  0.0446
   69bbb     C7 1792   3.518   5.491   1.946 -0.5974 -0.1451  0.3111
   69bbb     C8 1793   3.663   5.524   1.909 -0.6156  0.1673 -0.3543
   69bbb     N2 1794   3.742   5.515   2.033  0.0955 -0.3462  0.1834
   69bbb     O1 1795   3.388   5.759   1.754  0.2389  0.4660  0.1684
   69bbb     O2 1796   3.456   5.058   1.725 -0.1143 -0.3108 -0.3012
   69bbb     H1 1797   3.231   5.416   1.880 -0.7808  0.3795  2.7788
   69bbb     H2 1798   3.309   5.566   1.958  0.3771  0.9192 -0.2599
   69bbb     H3 1799   3.431   5.266   1.873  1.6096 -1.9142 -1.1640
   69bbb     H4 1800   3.546   5.307   1.758  0.2468 -0.2407  2.1633
   69bbb     H5 1801   3.195   5.543   1.671  0.0951 -0.5915  1.5399
   69bbb     H6 1802   3.116   5.625   1.810  0.3853  3.5874 -0.6508
   69bbb     H7 1803   3.347   5.334   1.597  2.2925  0.7768  0.5303
   69bbb     H8 1804   3.245   5.283   1.728 -1.4160 -1.9722 -0.9999
   69bbb     H9 1805   3.515   5.392   1.991 -0.4628 -0.5219 -0.4886
   69bbb    H10 1806   3.480   5.566   2.015 -1.0931 -0.4590  0.3804
   69bbb    H11 1807   3.655   5.630   1.881  4.2876  1.2191  1.0660
   69bbb    H12 1808   3.711   5.469   1.828 -0.5464  1.7822 -1.4639
   69bbb    H13 1809   3.684   5.502   2.115 -1.0798 -0.4578 -0.6438
   69bbb    H25 1810   3.453   5.550   1.755  0.8216  1.0843  0.9508
   70bbb     N1 1811   5.418   6.742   4.735  0.4834 -0.0475  0.0357
   70bbb     C1 1812   5.498   6.703   4.608  0.1728  0.9313 -0.3102
   70bbb     C2 1813   5.477   6.866   4.790  0.0706 -0.0479  0.5787
   70bbb     C3 1814   5.471   6.566   4.538  0.2910  0.1477 -0.2534
   70bbb     C4 1815   5.554   6.555   4.411 -0.2093 -0.0363  0.8782
   70bbb     C5 1816   5.427   6.911   4.932 -0.6528  0.0639  0.9735
   70bbb     C6 1817   5.496   7.036   4.985 -0.3260  0.0312 -0.3012
   70bbb     C7 1818   5.269   6.757   4.696 -0.3073 -0.3357 -0.3826
   70bbb     C8 1819   5.232   6.882   4.616 -0.0004  0.1431 -0.2843
   70bbb     N2 1820   5.091   6.900   4.597 -0.5822 -0.7617 -0.3337
   70bbb     O1 1821   5.607   6.650   4.354  0.5566 -0.2529 -0.6174
   70bbb     O2 1822   5.563   7.111   4.909  0.1609  0.0462 -0.2122
   70bbb     H1 1823   5.483   6.785   4.537  3.4224  2.1471  0.2597
   70bbb     H2 1824   5.604   6.704   4.631 -0.3659  0.2769  2.4801
   70bbb     H3 1825   5.461   6.946   4.717  1.4207 -2.6638 -2.8395
   70bbb     H4 1826   5.583   6.850   4.773 -0.6820 -1.3265 -4.4220
   70bbb     H5 1827   5.514   6.487   4.601 -1.3477  1.6230  2.9384
   70bbb     H6 1828   5.366   6.541   4.518  0.6417 -2.0458  0.3945
   70bbb     H7 1829   5.446   6.831   5.005 -1.2000 -1.0882 -0.1111
   70bbb     H8 1830   5.321   6.933   4.921 -0.8147 -0.5908  1.1720
   70bbb     H9 1831   5.215   6.762   4.791 -2.5272 -1.5672 -1.5053
   70bbb    H10 1832   5.225   6.669   4.651 -0.6974  0.7177 -2.1217
   70bbb    H11 1833   5.269   6.879   4.512  0.1738 -0.3805 -0.2120
   70bbb    H12 1834   5.266   6.970   4.671 -1.2368  0.0100  0.7256
   70bbb    H13 1835   5.028   6.861   4.667  1.7014 -0.5395  2.0030
   70bbb    H25 1836   5.422   6.670   4.808 -0.7157  1.0345  1.2298
   71bbb     N1 1837   4.394   7.402   5.173  0.0450 -0.5114  0.6116
   71bbb     C1 1838   4.314   7.310   5.254  0.0640  0.4179 -0.3954
   71bbb     C2 1839   4.292   7.493   5.104 -0.1734  0.3832  0.3716
   71bbb     C3 1840   4.390   7.198   5.319 -0.7409 -0.3145 -0.9338
   71bbb     C4 1841   4.485   7.250   5.426  0.2197  0.1739 -0.5889
   71bbb     C5 1842   4.207   7.578   5.196  0.6678  0.6805 -0.2957
   71bbb     C6 1843   4.129   7.693   5.133  0.3801  0.4072  0.0961
   71bbb     C7 1844   4.485   7.336   5.071  0.2335  0.0931  0.2384
   71bbb     C8 1845   4.535   7.422   4.953 -0.7798 -0.1288  0.4911
   71bbb     N2 1846   4.570   7.332   4.835  0.0057 -0.0691  0.1653
   71bbb     O1 1847   4.493   7.360   5.472 -0.3103 -0.8490  0.2205
   71bbb     O2 1848   4.111   7.692   5.014  0.4136 -0.1562 -0.2392
   71bbb     H1 1849   4.265   7.369   5.331 -0.3264  0.4579 -0.6687
   71bbb     H2 1850   4.247   7.268   5.179 -1.1108  1.7428 -0.1370
   71bbb     H3 1851   4.236   7.437   5.030  0.9495 -1.2259  0.6928
   71bbb     H4 1852   4.351   7.574   5.060  0.3392  1.6305  3.0917
   71bbb     H5 1853   4.326   7.125   5.370  0.7354 -0.3510  0.9894
   71bbb     H6 1854   4.437   7.143   5.237  0.6264 -0.5651 -0.0265
   71bbb     H7 1855   4.267   7.620   5.278  0.2363  1.9035 -0.5880
   71bbb     H8 1856   4.128   7.517   5.242  0.5369 -0.6263 -2.1512
   71bbb     H9 1857   4.420   7.255   5.040 -0.7471 -0.1267  2.6469
   71bbb    H10 1858   4.565   7.289   5.127  2.2643  1.6184 -1.2013
   71bbb    H11 1859   4.622   7.484   4.975 -2.0266  2.2676 -0.8859
   71bbb    H12 1860   4.459   7.496   4.924  0.6820  1.4421  0.5262
   71bbb    H13 1861   4.599   7.236   4.853  0.3487  0.1455  0.7693
   71bbb    H25 1862   4.448   7.456   5.242  0.2538 -1.6834  1.3923
   72bbb     N1 1863   3.529   6.832   3.855  0.0227 -0.2252 -0.2346
   72bbb     C1 1864   3.486   6.843   4.001  0.2507 -0.0516  0.2841
   72bbb     C2 1865   3.434   6.761   3.770 -0.0421  0.1953  1.0815
   72bbb     C3 1866   3.502   6.711   4.081 -0.1441 -0.0675 -0.2678
   72bbb     C4 1867   3.610   6.714   4.184  0.1743 -0.3863  0.3626
   72bbb     C5 1868   3.280   6.780   3.798  0.2869 -0.3721 -0.0744
   72bbb     C6 1869   3.192   6.753   3.672 -0.1076  0.1058 -0.2290
   72bbb     C7 1870   3.672   6.777   3.842 -0.7002  1.2589  0.6802
   72bbb     C8 1871   3.729   6.795   3.704 -0.5630 -0.2171  0.2702
   72bbb     N2 1872   3.868   6.762   3.684  0.1645 -0.1235 -0.8219
   72bbb     O1 1873   3.713   6.782   4.178  0.0230 -0.1368  0.4408
   72bbb     O2 1874   3.217   6.789   3.561  0.3364 -0.8106 -0.1530
   72bbb     H1 1875   3.543   6.919   4.054 -0.8891  0.5007  0.7539
   72bbb     H2 1876   3.384   6.881   4.006  0.6267  0.8724  1.5817
   72bbb     H3 1877   3.459   6.655   3.779 -2.2306 -0.6623 -1.4853
   72bbb     H4 1878   3.449   6.777   3.664 -1.2649  0.0525  0.8643
   72bbb     H5 1879   3.404   6.705   4.130 -0.8519 -2.1705 -1.7966
   72bbb     H6 1880   3.519   6.626   4.014 -1.0168  0.7703 -1.5964
   72bbb     H7 1881   3.243   6.878   3.830 -3.2475 -1.0066 -1.6988
   72bbb     H8 1882   3.254   6.711   3.880  1.4416  0.1486  0.7539
   72bbb     H9 1883   3.669   6.672   3.869  0.2533  0.6512 -1.3737
   72bbb    H10 1884   3.733   6.822   3.920  0.2430 -1.1196  1.3964
   72bbb    H11 1885   3.722   6.903   3.685 -1.7891 -0.5397 -1.3666
   72bbb    H12 1886   3.680   6.734   3.627 -1.5397  1.7055 -0.7129
   72bbb    H13 1887   3.912   6.717   3.763  0.1484  1.4864  0.1514
   72bbb    H25 1888   3.529   6.931   3.824 -1.1437 -0.9718 -2.9232
   73bbb     N1 1889   4.372   7.455   3.854 -0.2189 -0.0086  0.1422
   73bbb     C1 1890   4.262   7.567   3.848 -0.9621  0.7719 -0.0588
   73bbb     C2 1891   4.423   7.434   3.989  0.6621 -0.3763 -0.4115
   73bbb     C3 1892   4.124   7.515   3.899  0.1627 -1.0768  0.1804
   73bbb     C4 1893   4.096   7.534   4.049 -0.2296  0.2525 -0.3391
   73bbb     C5 1894   4.472   7.563   4.065 -0.5802  0.2577  0.1346
   73bbb     C6 1895   4.522   7.537   4.203 -0.0696 -0.2485  0.8743
   73bbb     C7 1896   4.486   7.480   3.752 -0.7404 -0.1595  0.3334
   73bbb     C8 1897   4.557   7.350   3.716  0.0193  0.3236 -0.0172
   73bbb     N2 1898   4.466   7.260   3.640 -0.7521  0.7652  0.2358
   73bbb     O1 1899   4.175   7.531   4.144  0.1114 -0.6934  0.1922
   73bbb     O2 1900   4.544   7.425   4.248 -0.1023 -0.5150  0.2961
   73bbb     H1 1901   4.301   7.655   3.898 -2.7455  1.3295  0.3958
   73bbb     H2 1902   4.251   7.586   3.741  0.7025 -1.3039 -0.6703
   73bbb     H3 1903   4.513   7.373   3.976  0.8093 -0.9884  2.7571
   73bbb     H4 1904   4.348   7.381   4.047  0.1169  0.8141 -0.0029
   73bbb     H5 1905   4.042   7.558   3.841  1.2095 -0.8561 -1.1829
   73bbb     H6 1906   4.116   7.407   3.884  1.4844 -1.4471  1.7511
   73bbb     H7 1907   4.388   7.631   4.081 -1.6546 -0.6994 -1.1419
   73bbb     H8 1908   4.537   7.626   4.003  0.4207 -1.2398 -0.3913
   73bbb     H9 1909   4.553   7.556   3.793 -0.0352  0.1680 -1.3657
   73bbb    H10 1910   4.434   7.520   3.664  0.9146 -1.3178 -1.2353
   73bbb    H11 1911   4.591   7.298   3.806 -2.3133  0.3022  0.9017
   73bbb    H12 1912   4.641   7.375   3.649 -0.9506  2.1246 -0.6288
   73bbb    H13 1913   4.371   7.294   3.633 -0.8205  0.2617 -2.3261
   73bbb    H25 1914   4.318   7.369   3.840 -0.8341  0.3367  0.3545
   74bbb     N1 1915   5.245   7.149   0.656 -0.1349 -0.4066  0.5283
   74bbb     C1 1916   5.104   7.092   0.675  0.2080 -0.3416  0.3336
   74bbb     C2 1917   5.342   7.047   0.602 -0.4405  0.5680 -0.4277
   74bbb     C3 1918   4.989   7.194   0.679  1.0605  0.2182 -0.0953
   74bbb     C4 1919   4.858   7.130   0.721 -0.5154  0.0859  0.6944
   74bbb     C5 1920   5.304   6.972   0.476  0.3897  0.0794 -0.0700
   74bbb     C6 1921   5.419   6.895   0.407 -0.1024  0.4463  0.1465
   74bbb     C7 1922   5.297   7.200   0.794 -0.1077  0.0023 -0.5800
   74bbb     C8 1923   5.289   7.106   0.920 -0.0199  0.1231 -0.3134
   74bbb     N2 1924   5.352   7.170   1.033  0.4905  0.1918  0.5791
   74bbb     O1 1925   4.864   7.021   0.778 -0.0056  0.0924 -0.4120
   74bbb     O2 1926   5.519   6.841   0.463  0.7707 -0.2325  0.2850
   74bbb     H1 1927   5.080   7.019   0.598 -0.1231  0.5529 -0.4238
   74bbb     H2 1928   5.102   7.045   0.774  0.3587  1.0788  1.0417
   74bbb     H3 1929   5.348   6.975   0.684 -0.8711 -0.9085 -1.6436
   74bbb     H4 1930   5.446   7.082   0.605  0.4727 -1.9613  0.4171
   74bbb     H5 1931   5.022   7.278   0.743  2.6670 -0.2378 -0.2774
   74bbb     H6 1932   4.970   7.245   0.584 -0.0997  0.2883  0.1665
   74bbb     H7 1933   5.265   7.048   0.407 -1.9520  0.2620  1.3310
   74bbb     H8 1934   5.220   6.902   0.493  0.3739 -0.2487 -1.3635
   74bbb     H9 1935   5.239   7.291   0.813  0.6288  0.2548  0.5359
   74bbb    H10 1936   5.398   7.227   0.761  0.1219 -1.0111 -0.7231
   74bbb    H11 1937   5.337   7.012   0.890  1.4617  0.8834 -0.3942
   74bbb    H12 1938   5.186   7.082   0.949 -0.5141  2.0679 -0.3159
   74bbb    H13 1939   5.440   7.139   1.072  2.3428  2.3387 -1.5830
   74bbb    H25 1940   5.257   7.229   0.592  1.2087  0.9904  2.4353
   75bbb     N1 1941   5.912   7.524   1.804 -0.2377  0.5497  0.1672
   75bbb     C1 1942   5.961   7.641   1.715  0.4053  0.2151 -1.2958
   75bbb     C2 1943   5.949   7.545   1.955 -0.1845  0.4671 -0.1756
   75bbb     C3 1944   5.874   7.769   1.745 -0.2893  0.0503 -0.3405
   75bbb     C4 1945   5.914   7.891   1.656 -0.4964  0.4041  0.5859
   75bbb     C5 1946   5.876   7.436   2.049  0.0520  0.0266  0.0441
   75bbb     C6 1947   5.927   7.439   2.200 -0.4506  0.4113  0.8902
   75bbb     C7 1948   5.988   7.396   1.772  0.3406  0.2750 -0.0846
   75bbb     C8 1949   5.969   7.347   1.630 -0.1678 -0.1748  0.1255
   75bbb     N2 1950   5.850   7.275   1.608  0.2847 -0.0614 -0.2372
   75bbb     O1 1951   6.029   7.899   1.614 -0.1963 -0.4215 -0.2790
   75bbb     O2 1952   5.994   7.350   2.249 -0.5276  0.1382 -0.3266
   75bbb     H1 1953   6.064   7.660   1.742 -0.3789 -0.2847  2.5699
   75bbb     H2 1954   5.954   7.609   1.611 -1.3674 -1.2550 -0.7894
   75bbb     H3 1955   5.925   7.646   1.987 -0.3406  0.3573  0.0551
   75bbb     H4 1956   6.055   7.525   1.972 -0.4215 -3.5904 -2.0730
   75bbb     H5 1957   5.768   7.747   1.726 -1.2024  1.4529  2.5570
   75bbb     H6 1958   5.876   7.795   1.852  0.1774  2.7123 -0.9456
   75bbb     H7 1959   5.886   7.333   2.015  0.7632 -0.7005  2.2660
   75bbb     H8 1960   5.769   7.461   2.044 -0.1201 -0.6023  0.4186
   75bbb     H9 1961   5.955   7.320   1.844 -2.1438  0.4266 -0.9986
   75bbb    H10 1962   6.094   7.410   1.793  0.5393 -0.6035 -0.4567
   75bbb    H11 1963   6.043   7.273   1.597 -0.8172 -0.9418  0.3768
   75bbb    H12 1964   5.975   7.430   1.558  0.5995  0.0810  0.4683
   75bbb    H13 1965   5.857   7.175   1.595  2.0728 -0.3854  2.5013
   75bbb    H25 1966   5.812   7.499   1.799 -0.1753 -0.1123  1.6440
   76bbb     N1 1967   3.848   6.617   2.775 -0.2766  0.1730 -0.5867
   76bbb     C1 1968   3.735   6.522   2.797 -0.5593 -0.3403 -0.2703
   76bbb     C2 1969   3.798   6.758   2.739  0.2407 -0.2262 -0.1055
   76bbb     C3 1970   3.771   6.393   2.880 -0.0987 -0.4326  0.2697
   76bbb     C4 1971   3.671   6.284   2.862  0.8857 -0.5869 -0.0828
   76bbb     C5 1972   3.718   6.778   2.608 -0.4501 -0.5369 -0.5024
   76bbb     C6 1973   3.584   6.717   2.617  0.2479 -0.0348  0.5926
   76bbb     C7 1974   3.943   6.559   2.680  0.1470 -0.2667  0.4062
   76bbb     C8 1975   4.085   6.617   2.687 -0.7532 -0.4803 -0.5606
   76bbb     N2 1976   4.170   6.564   2.583  0.1092 -0.6924  0.4440
   76bbb     O1 1977   3.579   6.297   2.783  0.0967  0.1086 -0.4523
   76bbb     O2 1978   3.558   6.613   2.557 -0.2986 -0.2556 -0.7746
   76bbb     H1 1979   3.652   6.576   2.842  0.6582  0.1071  1.5607
   76bbb     H2 1980   3.701   6.491   2.698  2.7793 -0.7442 -1.4164
   76bbb     H3 1981   3.884   6.824   2.746 -1.7730  2.4434  1.3777
   76bbb     H4 1982   3.731   6.785   2.821 -1.7772  1.5884 -2.2435
   76bbb     H5 1983   3.855   6.348   2.825  0.2186  3.1219 -2.4979
   76bbb     H6 1984   3.799   6.416   2.983  0.5788 -2.5863  0.6306
   76bbb     H7 1985   3.778   6.731   2.529 -0.8241 -0.3563 -0.8957
   76bbb     H8 1986   3.711   6.886   2.591 -1.1542 -0.1245  1.9933
   76bbb     H9 1987   3.905   6.567   2.578  0.3154 -0.4544  0.3284
   76bbb    H10 1988   3.953   6.452   2.697 -1.6255 -0.7268 -1.0598
   76bbb    H11 1989   4.124   6.585   2.784 -2.5577 -0.1910  0.3094
   76bbb    H12 1990   4.080   6.726   2.676 -1.1468 -0.2888  1.1301
   76bbb    H13 1991   4.249   6.508   2.615  0.4788  0.9188  2.5759
   76bbb    H25 1992   3.901   6.625   2.863 -0.2079 -0.1865 -0.5933
   77bbb     N1 1993   3.746   7.184   2.179  0.2629 -0.1509  0.3653
   77bbb     C1 1994   3.650   7.280   2.112 -0.2526 -0.2812  0.0543
   77bbb     C2 1995   3.671   7.062   2.242 -0.4132 -0.4430  0.4760
   77bbb     C3 1996   3.599   7.245   1.970  0.4833 -0.1235  0.0715
   77bbb     C4 1997   3.536   7.367   1.903 -0.4007 -0.2149 -0.2973
   77bbb     C5 1998   3.620   6.944   2.152 -0.2809  0.0386  0.2751
   77bbb     C6 1999   3.556   6.836   2.234  0.0144 -0.4193 -0.3162
   77bbb     C7 2000   3.809   7.252   2.295  0.2905 -0.3988 -0.1155
   77bbb     C8 2001   3.929   7.188   2.359  0.0763 -0.0474 -0.2682
   77bbb     N2 2002   4.019   7.114   2.269  0.0091  0.3292 -0.3457
   77bbb     O1 2003   3.560   7.479   1.947 -0.4234 -0.0261  0.8344
   77bbb     O2 2004   3.534   6.848   2.354 -0.4220 -0.5954  0.7568
   77bbb     H1 2005   3.574   7.303   2.187 -1.5736 -3.8249 -0.0096
   77bbb     H2 2006   3.713   7.369   2.104  0.7897 -0.9602  0.4978
   77bbb     H3 2007   3.582   7.100   2.292 -0.9704  0.6221 -1.2471
   77bbb     H4 2008   3.737   7.026   2.320 -0.4346 -1.7190 -0.0624
   77bbb     H5 2009   3.682   7.225   1.901 -1.4618 -3.0741 -1.6170
   77bbb     H6 2010   3.535   7.157   1.965  1.8204 -1.2279  1.4449
   77bbb     H7 2011   3.700   6.912   2.084 -1.3846  1.2234 -1.7062
   77bbb     H8 2012   3.551   6.986   2.077  1.1631  2.3135  0.1341
   77bbb     H9 2013   3.730   7.269   2.368  0.6723 -0.9833  0.4488
   77bbb    H10 2014   3.836   7.351   2.257 -2.1899 -0.0871 -1.2730
   77bbb    H11 2015   3.894   7.123   2.440 -0.5708 -2.4837 -2.3405
   77bbb    H12 2016   3.987   7.268   2.407 -0.6612  1.5509 -1.9090
   77bbb    H13 2017   3.989   7.089   2.176 -0.4105 -1.0367  0.1405
   77bbb    H25 2018   3.818   7.150   2.114  0.7059 -1.1747  1.3534
   78bbb     N1 2019   6.209   5.623   0.671  0.4246 -0.5749 -0.0416
   78bbb     C1 2020   6.118   5.723   0.743 -0.3693  0.2338  0.3110
   78bbb     C2 2021   6.229   5.497   0.755  0.0429  0.4652 -0.5920
   78bbb     C3 2022   6.051   5.834   0.664 -0.5134  0.4785 -0.0341
   78bbb     C4 2023   5.954   5.780   0.563 -0.2296 -0.2372  0.6357
   78bbb     C5 2024   6.092   5.416   0.765  0.3298 -0.6007 -0.2461
   78bbb     C6 2025   6.124   5.272   0.792 -0.2493  0.7887 -0.2527
   78bbb     C7 2026   6.334   5.685   0.620  0.0315  0.7435  0.4967
   78bbb     C8 2027   6.407   5.608   0.502  0.1652  0.6784 -0.3830
   78bbb     N2 2028   6.491   5.501   0.560  0.1905  0.2871  0.4525
   78bbb     O1 2029   5.931   5.664   0.539 -0.6417 -0.0799 -0.3258
   78bbb     O2 2030   6.232   5.227   0.769 -0.5866  0.0479 -0.6889
   78bbb     H1 2031   6.038   5.671   0.796  0.3004  0.7170  1.8554
   78bbb     H2 2032   6.175   5.767   0.825 -1.4116  0.9904  0.6467
   78bbb     H3 2033   6.272   5.510   0.854  0.2867  2.7152 -0.9559
   78bbb     H4 2034   6.295   5.432   0.699  0.1103 -1.6334  1.7247
   78bbb     H5 2035   5.997   5.908   0.724  0.7547  2.1755 -0.9221
   78bbb     H6 2036   6.128   5.889   0.609 -0.0006  0.2478  0.4541
   78bbb     H7 2037   6.027   5.407   0.677 -0.6418  0.8965  0.2797
   78bbb     H8 2038   6.027   5.458   0.843 -0.2672 -1.4597 -0.2657
   78bbb     H9 2039   6.400   5.688   0.707 -0.6333  1.4615  0.9932
   78bbb    H10 2040   6.311   5.783   0.580 -2.0852  0.4169  0.8112
   78bbb    H11 2041   6.482   5.682   0.470  1.9492 -1.7475 -2.1657
   78bbb    H12 2042   6.346   5.569   0.421 -2.7829  2.5544  0.7901
   78bbb    H13 2043   6.507   5.498   0.660 -0.8631  0.5147  0.6389
   78bbb    H25 2044   6.160   5.600   0.584 -0.1826  1.2340 -0.2127
   79bbb     N1 2045   7.092   4.462   0.199 -0.4314 -0.2656 -0.1101
   79bbb     C1 2046   7.178   4.581   0.154  0.3467 -0.1714 -0.5683
   79bbb     C2 2047   7.064   4.373   0.077 -0.3548  0.0613  0.4904
   79bbb     C3 2048   7.119   4.679   0.051  1.0292  0.3820  0.0158
   79bbb     C4 2049   7.117   4.632  -0.091  0.4565  0.4206  0.1287
   79bbb     C5 2050   7.035   4.228   0.119  0.0401  0.5951  0.7518
   79bbb     C6 2051   7.048   4.136  -0.000  0.6688 -0.3326  0.3892
   79bbb     C7 2052   6.950   4.500   0.248 -0.4395 -0.2533  0.3480
   79bbb     C8 2053   6.963   4.590   0.377  0.2822  0.1688  0.1022
   79bbb     N2 2054   6.855   4.686   0.386 -0.1260 -0.5200  0.4242
   79bbb     O1 2055   7.025   4.574  -0.148  0.5224  0.1685 -0.3247
   79bbb     O2 2056   7.104   4.174  -0.101 -0.1520  0.3106 -0.3930
   79bbb     H1 2057   7.182   4.636   0.248 -1.0518 -0.5224 -0.2718
   79bbb     H2 2058   7.272   4.534   0.125 -0.3458 -0.6466 -2.1587
   79bbb     H3 2059   7.152   4.373   0.013 -0.5812 -3.1781  0.0115
   79bbb     H4 2060   6.982   4.415   0.018  1.5157  0.8576 -1.7236
   79bbb     H5 2061   7.018   4.712   0.078  0.6737 -0.0524 -0.7339
   79bbb     H6 2062   7.177   4.771   0.062  1.3595  0.2468 -0.6020
   79bbb     H7 2063   6.936   4.221   0.166 -1.1799  2.4088 -1.3771
   79bbb     H8 2064   7.106   4.198   0.198 -0.8611  0.6679  1.6017
   79bbb     H9 2065   6.892   4.410   0.271 -0.7372 -0.2965 -0.5369
   79bbb    H10 2066   6.900   4.560   0.172  0.9036  1.5473  0.8136
   79bbb    H11 2067   7.053   4.652   0.367 -1.0280  2.2506  0.4955
   79bbb    H12 2068   6.961   4.537   0.473 -0.8476 -1.2532 -0.6736
   79bbb    H13 2069   6.791   4.694   0.308  0.6073 -1.7431 -0.3292
   79bbb    H25 2070   7.136   4.400   0.269 -0.3591  0.5471  0.5757
   80bbb     N1 2071   8.136   4.482  -0.378  0.7329 -0.4707 -0.6805
   80bbb     C1 2072   8.212   4.565  -0.473  0.3742  0.2538  0.8700
   80bbb     C2 2073   8.146   4.337  -0.416 -0.3491 -0.1939  0.1310
   80bbb     C3 2074   8.359   4.539  -0.477  0.8132 -0.0730 -0.3984
   80bbb     C4 2075   8.429   4.608  -0.596  0.2120 -0.1413  0.4003
   80bbb     C5 2076   8.090   4.293  -0.557  0.3949 -0.1294 -0.1139
   80bbb     C6 2077   8.093   4.138  -0.568  0.7588 -0.7862  0.4127
   80bbb     C7 2078   7.987   4.528  -0.386 -0.7092  0.3541  0.6095
   80bbb     C8 2079   7.961   4.659  -0.316 -0.2883  0.1953  0.3220
   80bbb     N2 2080   8.021   4.666  -0.178 -0.0430 -0.0299  0.0204
   80bbb     O1 2081   8.369   4.647  -0.697  0.0255  0.0342 -0.1059
   80bbb     O2 2082   8.099   4.063  -0.477 -0.5532 -0.4162  0.1333
   80bbb     H1 2083   8.191   4.531  -0.574  1.5893  1.9277  0.0044
   80bbb     H2 2084   8.179   4.668  -0.461 -0.6061 -0.1277  1.6498
   80bbb     H3 2085   8.076   4.280  -0.354 -1.6418  1.1305 -0.0407
   80bbb     H4 2086   8.241   4.293  -0.386 -0.5784  0.6255  2.2308
   80bbb     H5 2087   8.402   4.568  -0.380 -2.4403  1.6404  0.6990
   80bbb     H6 2088   8.374   4.432  -0.494  1.2329  0.0485 -0.7981
   80bbb     H7 2089   8.141   4.341  -0.641 -0.8901 -0.1906 -0.9767
   80bbb     H8 2090   7.985   4.324  -0.563  0.6237  0.7092  0.2184
   80bbb     H9 2091   7.924   4.452  -0.339  0.5127 -0.9859  0.1449
   80bbb    H10 2092   7.955   4.535  -0.490 -2.3936  1.5412  1.1530
   80bbb    H11 2093   7.855   4.686  -0.312  0.1039  1.6847  1.3406
   80bbb    H12 2094   8.010   4.730  -0.382  0.4247 -3.2483 -3.2345
   80bbb    H13 2095   8.104   4.721  -0.162 -0.5105  1.6854 -2.7864
   80bbb    H25 2096   8.172   4.503  -0.284  0.0144 -1.2965 -0.2115
   81bbb     N1 2097   8.700   4.314   0.727 -0.4399  0.0819  0.3229
   81bbb     C1 2098   8.754   4.431   0.804  0.0398  0.1470  0.0383
   81bbb     C2 2099   8.806   4.213   0.693  0.3263  0.5650  0.6598
   81bbb     C3 2100   8.640   4.527   0.857  0.7350 -0.3148 -0.2116
   81bbb     C4 2101   8.697   4.626   0.955  0.0252  0.3142  0.5296
   81bbb     C5 2102   8.865   4.139   0.813 -0.0376 -0.8388 -1.1362
   81bbb     C6 2103   8.767   4.040   0.875  1.0730  0.2028 -1.2868
   81bbb     C7 2104   8.624   4.356   0.596 -0.3421  0.4565  0.3064
   81bbb     C8 2105   8.594   4.249   0.487 -0.3779 -0.3289 -0.5365
   81bbb     N2 2106   8.495   4.291   0.383 -0.4313  0.6267 -0.8766
   81bbb     O1 2107   8.812   4.665   0.940  0.4159  0.3315 -0.1875
   81bbb     O2 2108   8.663   4.012   0.828  1.0298 -0.8184  0.9698
   81bbb     H1 2109   8.819   4.396   0.884  0.3263  0.6314  0.0222
   81bbb     H2 2110   8.807   4.484   0.725  0.2173  1.4333  0.9852
   81bbb     H3 2111   8.880   4.272   0.639 -1.3643  2.0862 -0.1365
   81bbb     H4 2112   8.750   4.142   0.633  0.4299  0.6260  0.4916
   81bbb     H5 2113   8.591   4.579   0.773 -0.1919 -0.4825  0.2111
   81bbb     H6 2114   8.554   4.477   0.904  0.8824  0.9646  1.5175
   81bbb     H7 2115   8.905   4.208   0.888 -0.4329  0.3787 -1.9963
   81bbb     H8 2116   8.956   4.082   0.792  2.2323  2.5770 -1.3120
   81bbb     H9 2117   8.676   4.441   0.551  0.9251  0.5124  1.7883
   81bbb    H10 2118   8.524   4.386   0.629 -0.6760 -0.9758  0.6809
   81bbb    H11 2119   8.568   4.154   0.535  0.0375 -0.7041 -1.0538
   81bbb    H12 2120   8.691   4.232   0.440  1.0103 -1.6889  2.5115
   81bbb    H13 2121   8.524   4.334   0.296 -0.4881  0.6444 -0.8874
   81bbb    H25 2122   8.631   4.258   0.780 -0.6071 -1.9525 -1.8614
   82bbb     N1 2123   6.533   6.444   1.756 -0.2104 -0.3173 -0.5583
   82bbb     C1 2124   6.540   6.538   1.880 -0.3593  0.2250  0.0486
   82bbb     C2 2125   6.418   6.485   1.659  0.9659 -0.1708 -0.0720
   82bbb     C3 2126   6.435   6.529   1.991  0.0829  0.4990  0.4218
   82bbb     C4 2127   6.494   6.591   2.114  0.3688  0.1407 -0.4707
   82bbb     C5 2128   6.386   6.405   1.529 -0.1506 -0.0142 -0.2704
   82bbb     C6 2129   6.490   6.403   1.422 -0.4088  0.1851  0.4052
   82bbb     C7 2130   6.529   6.301   1.797  0.4943  0.8735  0.0972
   82bbb     C8 2131   6.670   6.234   1.808 -0.0009  0.3864  0.0599
   82bbb     N2 2132   6.738   6.240   1.675  0.4306  0.8199  0.3673
   82bbb     O1 2133   6.613   6.614   2.131 -0.2226  0.3829  0.1748
   82bbb     O2 2134   6.604   6.395   1.453  0.0554 -0.1219 -0.1942
   82bbb     H1 2135   6.640   6.527   1.922  0.5169  0.9150 -1.7533
   82bbb     H2 2136   6.532   6.643   1.853 -0.6356 -0.2588 -1.9578
   82bbb     H3 2137   6.440   6.587   1.626 -0.7054  0.3005  0.2027
   82bbb     H4 2138   6.327   6.484   1.719  0.3568 -0.4282 -0.9859
   82bbb     H5 2139   6.349   6.589   1.956 -1.2353 -1.1184  0.7308
   82bbb     H6 2140   6.398   6.427   2.008  0.4581  0.3620  0.4088
   82bbb     H7 2141   6.296   6.440   1.479  0.0770  0.5701 -0.2799
   82bbb     H8 2142   6.382   6.297   1.545 -0.3732  0.2510  1.7414
   82bbb     H9 2143   6.464   6.251   1.725 -0.4364  0.0551  1.4633
   82bbb    H10 2144   6.475   6.292   1.891 -0.7444  0.1522 -0.6668
   82bbb    H11 2145   6.660   6.128   1.834  0.8360  0.3060  0.0678
   82bbb    H12 2146   6.732   6.293   1.876  1.3169  1.4041 -1.9632
   82bbb    H13 2147   6.707   6.172   1.607  1.5698  1.4179 -0.8030
   82bbb    H25 2148   6.624   6.454   1.708  0.7211 -0.4612  1.1087
   83bbb     N1 2149   7.426   6.610   1.971 -0.6759  0.3807 -0.2693
   83bbb     C1 2150   7.454   6.622   2.122 -0.3457  0.6288 -0.1768
   83bbb     C2 2151   7.291   6.538   1.939 -0.1693  0.0265  0.5209
   83bbb     C3 2152   7.331   6.666   2.203  0.2257 -0.1249  0.7243
   83bbb     C4 2153   7.367   6.664   2.348 -0.4550 -0.2067 -0.0536
   83bbb     C5 2154   7.287   6.388   1.985  0.1057  0.2720 -0.4354
   83bbb     C6 2155   7.172   6.308   1.909  0.1402 -0.5565 -0.1484
   83bbb     C7 2156   7.546   6.546   1.904  0.0353 -0.0154 -0.4654
   83bbb     C8 2157   7.563   6.562   1.754 -0.3196 -0.2908  0.1115
   83bbb     N2 2158   7.475   6.483   1.661  0.5291  0.1746 -0.4975
   83bbb     O1 2159   7.467   6.707   2.397 -0.0362  0.0393 -0.3908
   83bbb     O2 2160   7.154   6.315   1.787  0.0720 -0.9122  0.0076
   83bbb     H1 2161   7.485   6.525   2.162  0.0578  1.5166  1.8126
   83bbb     H2 2162   7.542   6.684   2.139 -0.2555  0.0390  1.8488
   83bbb     H3 2163   7.284   6.538   1.830 -0.4877 -2.9305  0.4798
   83bbb     H4 2164   7.204   6.596   1.972 -0.8517 -0.2945 -0.6670
   83bbb     H5 2165   7.299   6.768   2.181  2.1852  0.0635 -1.6909
   83bbb     H6 2166   7.247   6.599   2.180  0.8174 -1.5321  2.4345
   83bbb     H7 2167   7.264   6.381   2.092 -2.4649 -2.3102 -1.0089
   83bbb     H8 2168   7.378   6.333   1.956 -0.0624 -0.3997  0.2656
   83bbb     H9 2169   7.532   6.439   1.916 -1.6781  0.2867  0.6385
   83bbb    H10 2170   7.633   6.573   1.963  0.1244  2.0527 -1.4429
   83bbb    H11 2171   7.668   6.534   1.735  0.0982  0.6624  0.9315
   83bbb    H12 2172   7.548   6.668   1.728 -0.3357 -0.5270 -0.8853
   83bbb    H13 2173   7.452   6.393   1.702 -1.5523  0.1189 -1.6562
   83bbb    H25 2174   7.429   6.708   1.937  0.7453 -0.0871 -1.6108
   84bbb     N1 2175   7.660   6.226  -0.087 -0.6111 -0.2439  0.2233
   84bbb     C1 2176   7.520   6.204  -0.136 -0.3542 -0.6120  0.6888
   84bbb     C2 2177   7.757   6.261  -0.194 -0.3157 -0.0910 -0.2430
   84bbb     C3 2178   7.420   6.203  -0.017  0.3854  0.6370  0.4322
   84bbb     C4 2179   7.382   6.345   0.017 -0.0366 -0.7994  0.4153
   84bbb     C5 2180   7.781   6.412  -0.227  0.0137 -0.0869 -0.6246
   84bbb     C6 2181   7.823   6.476  -0.095  0.5601 -0.4351  0.0701
   84bbb     C7 2182   7.711   6.098  -0.011  0.2505 -0.7521  0.3269
   84bbb     C8 2183   7.838   6.126   0.079  0.2323  0.5988  0.2702
   84bbb     N2 2184   7.876   6.000   0.154 -0.1789 -0.0824 -0.0020
   84bbb     O1 2185   7.412   6.444  -0.054 -0.2345  0.1183  0.1699
   84bbb     O2 2186   7.741   6.474  -0.001 -0.4995  0.0524  0.0109
   84bbb     H1 2187   7.505   6.284  -0.209  1.3357  1.6109  2.6318
   84bbb     H2 2188   7.523   6.105  -0.182  1.6272  0.3484 -1.4642
   84bbb     H3 2189   7.725   6.202  -0.280  0.6623 -1.4926  0.3176
   84bbb     H4 2190   7.854   6.223  -0.162  0.0996  1.6545  0.6468
   84bbb     H5 2191   7.328   6.148  -0.039  1.8938 -1.9711  0.2806
   84bbb     H6 2192   7.471   6.160   0.070  2.4430 -2.4798 -2.1004
   84bbb     H7 2193   7.688   6.458  -0.261 -0.6662 -1.1201 -0.2292
   84bbb     H8 2194   7.855   6.420  -0.308 -0.7009  1.2664 -1.1603
   84bbb     H9 2195   7.746   6.040  -0.097  0.7918  0.1912 -0.1066
   84bbb    H10 2196   7.628   6.061   0.048 -0.3433  0.1212  0.0532
   84bbb    H11 2197   7.824   6.209   0.149  0.2800  1.4004 -0.6649
   84bbb    H12 2198   7.922   6.157   0.017 -0.2508 -1.0252 -1.2868
   84bbb    H13 2199   7.915   5.921   0.103 -2.2509 -0.9289 -0.3697
   84bbb    H25 2200   7.673   6.300  -0.017  0.3985 -1.1400  1.0208
   85bbb     N1 2201   8.703   5.957   0.216  0.0954 -0.3234 -0.2673
   85bbb     C1 2202   8.711   6.089   0.152  0.1303 -0.3946 -0.1669
   85bbb     C2 2203   8.725   5.843   0.119 -0.6491  0.0972  0.1702
   85bbb     C3 2204   8.843   6.137   0.092  0.2308  0.4933  0.1231
   85bbb     C4 2205   8.854   6.287   0.084 -0.6134 -0.6010 -0.6737
   85bbb     C5 2206   8.880   5.799   0.127  0.4143 -0.2475 -0.5992
   85bbb     C6 2207   8.896   5.707   0.247 -0.7180  0.1928  0.3338
   85bbb     C7 2208   8.561   5.950   0.273 -0.4694  0.0767  0.9271
   85bbb     C8 2209   8.531   5.847   0.382  0.2590 -0.2023  0.3610
   85bbb     N2 2210   8.395   5.867   0.427  0.0861  0.9665 -0.2377
   85bbb     O1 2211   8.947   6.352   0.133 -0.1756 -0.0175 -0.1612
   85bbb     O2 2212   8.808   5.699   0.332 -0.7327  0.1631  0.0869
   85bbb     H1 2213   8.636   6.086   0.074 -0.6612 -0.3023  0.5823
   85bbb     H2 2214   8.671   6.163   0.221  1.3825  0.7811 -0.6535
   85bbb     H3 2215   8.703   5.874   0.017  2.1671  1.7798 -0.0208
   85bbb     H4 2216   8.661   5.762   0.155 -0.0872 -0.4238  0.0106
   85bbb     H5 2217   8.928   6.093   0.146 -0.1411  1.4273  1.5393
   85bbb     H6 2218   8.852   6.094  -0.008 -0.1112  1.5572 -0.3822
   85bbb     H7 2219   8.948   5.883   0.143 -0.9157  1.0433 -1.4225
   85bbb     H8 2220   8.926   5.755   0.038  4.0056  3.0912 -0.6851
   85bbb     H9 2221   8.506   5.929   0.182 -0.7724  1.1631  0.8472
   85bbb    H10 2222   8.542   6.052   0.307 -2.6152 -0.9795  3.2036
   85bbb    H11 2223   8.595   5.872   0.467  0.6784  0.9598 -0.2769
   85bbb    H12 2224   8.548   5.743   0.350 -2.6310 -0.4437 -0.7316
   85bbb    H13 2225   8.334   5.932   0.379 -0.0052 -0.4664 -2.1791
   85bbb    H25 2226   8.769   5.943   0.293  1.5250 -0.7329 -1.5200
   86bbb     N1 2227   8.781   3.178   3.347 -0.0991  0.0830  0.5703
   86bbb     C1 2228   8.867   3.308   3.337  0.4979  0.1997 -0.8584
   86bbb     C2 2229   8.880   3.065   3.381  0.2270 -0.1272  0.2824
   86bbb     C3 2230   8.965   3.333   3.220  0.1289  0.3978 -0.1568
   86bbb     C4 2231   9.059   3.455   3.240  0.4563 -1.2079 -0.1311
   86bbb     C5 2232   8.804   2.935   3.428 -0.2374  0.1672 -0.3771
   86bbb     C6 2233   8.897   2.819   3.431  0.1986  0.1740  0.0384
   86bbb     C7 2234   8.704   3.160   3.221 -0.4822 -0.1628 -1.1361
   86bbb     C8 2235   8.600   3.273   3.184  0.1203 -0.3830 -0.2442
   86bbb     N2 2236   8.516   3.238   3.072 -0.0622  0.3212  0.4970
   86bbb     O1 2237   9.087   3.507   3.345  0.0685 -0.0452 -0.2628
   86bbb     O2 2238   8.993   2.812   3.355  0.3814  0.3622  0.2017
   86bbb     H1 2239   8.792   3.386   3.323 -0.6726 -0.6902  0.1866
   86bbb     H2 2240   8.914   3.331   3.433 -0.5854 -0.7267 -0.0676
   86bbb     H3 2241   8.946   3.109   3.455  0.4387 -0.6029  0.3798
   86bbb     H4 2242   8.938   3.043   3.291 -1.8848 -0.9002 -0.9869
   86bbb     H5 2243   9.029   3.248   3.195 -0.2185  0.5735 -1.7084
   86bbb     H6 2244   8.913   3.344   3.124  2.4776  0.7449 -1.4705
   86bbb     H7 2245   8.719   2.917   3.362 -4.1159 -0.2239  4.1633
   86bbb     H8 2246   8.751   2.949   3.523 -0.4178  3.3679 -0.8406
   86bbb     H9 2247   8.652   3.065   3.235 -0.7662 -0.1623 -2.1086
   86bbb    H10 2248   8.778   3.161   3.141  0.8883  1.0979  0.1003
   86bbb    H11 2249   8.652   3.367   3.163  1.6179 -1.6585 -2.8262
   86bbb    H12 2250   8.536   3.301   3.268  1.4096  0.5047  0.4807
   86bbb    H13 2251   8.537   3.156   3.017  3.0644  2.4470 -1.7970
   86bbb    H25 2252   8.722   3.194   3.430  1.2407  0.3768  1.5013
   87bbb     N1 2253   7.740   3.180   3.621 -0.1543 -0.0184  0.2555
   87bbb     C1 2254   7.631   3.266   3.691 -0.2943  0.1471  0.3849
   87bbb     C2 2255   7.867   3.179   3.699  0.0650 -0.0654  0.5735
   87bbb     C3 2256   7.507   3.182   3.741 -0.2776  0.2462 -0.2310
   87bbb     C4 2257   7.390   3.270   3.775 -0.8095  0.7430  0.2862
   87bbb     C5 2258   7.863   3.109   3.834 -0.0769  0.2386  0.1207
   87bbb     C6 2259   7.999   3.106   3.893 -0.1662 -0.0444  0.1286
   87bbb     C7 2260   7.750   3.230   3.474 -0.5631 -0.0266  0.3836
   87bbb     C8 2261   7.889   3.197   3.405  0.8757 -0.1709  0.1319
   87bbb     N2 2262   7.888   3.215   3.258 -0.0230  0.1970  0.5086
   87bbb     O1 2263   7.383   3.344   3.866 -0.0160  0.4599 -0.3303
   87bbb     O2 2264   8.092   3.172   3.854 -0.3409 -0.0533 -0.3743
   87bbb     H1 2265   7.683   3.322   3.768 -0.1867  0.2113  0.2657
   87bbb     H2 2266   7.596   3.338   3.617 -1.3478  0.7901  1.4792
   87bbb     H3 2267   7.910   3.279   3.711  1.0975 -0.3232 -0.7137
   87bbb     H4 2268   7.944   3.118   3.652 -0.5188 -1.0228  0.8216
   87bbb     H5 2269   7.480   3.101   3.671 -0.9756 -1.5565  1.9853
   87bbb     H6 2270   7.528   3.125   3.833 -0.9992  0.0113 -0.2085
   87bbb     H7 2271   7.808   3.015   3.822  1.3845 -0.9035  1.9942
   87bbb     H8 2272   7.804   3.174   3.901 -1.4556  0.1288 -0.9243
   87bbb     H9 2273   7.732   3.337   3.480 -1.6690 -0.2186  0.8428
   87bbb    H10 2274   7.664   3.189   3.421  0.5703  0.6112 -2.0566
   87bbb    H11 2275   7.902   3.088   3.416  3.5393  0.0909  0.1836
   87bbb    H12 2276   7.974   3.244   3.456  0.7479 -0.2582  0.4251
   87bbb    H13 2277   7.799   3.227   3.211 -0.2924  1.3357  1.2472
   87bbb    H25 2278   7.703   3.084   3.620 -1.1671  0.3495 -1.1854
   88bbb     N1 2279   8.326   4.130   1.831  0.2687  0.1578  0.1480
   88bbb     C1 2280   8.392   3.999   1.782 -0.2367 -0.3330 -0.6091
   88bbb     C2 2281   8.175   4.115   1.838  0.1483 -0.6273 -0.0298
   88bbb     C3 2282   8.346   3.944   1.646 -0.4244 -0.3265 -0.2089
   88bbb     C4 2283   8.392   3.797   1.638 -0.2817  0.0386 -0.6739
   88bbb     C5 2284   8.114   4.238   1.916  0.1626 -0.0289 -0.1211
   88bbb     C6 2285   7.982   4.203   1.975  0.9587 -1.0128 -0.6292
   88bbb     C7 2286   8.361   4.254   1.744 -0.7071  0.3572  0.3875
   88bbb     C8 2287   8.509   4.288   1.735 -0.2202  0.2564 -0.8133
   88bbb     N2 2288   8.576   4.282   1.870 -0.4028  0.3213  0.7918
   88bbb     O1 2289   8.490   3.754   1.574  0.3019 -0.4809  0.2498
   88bbb     O2 2290   7.965   4.114   2.062  0.0867 -0.0692  0.4175
   88bbb     H1 2291   8.500   4.004   1.787 -0.2658 -0.2498  0.0441
   88bbb     H2 2292   8.367   3.927   1.860  2.1686 -0.4974  0.0805
   88bbb     H3 2293   8.163   4.020   1.889 -1.5553 -0.1459  0.4979
   88bbb     H4 2294   8.130   4.100   1.739  1.4583 -3.4411 -0.3193
   88bbb     H5 2295   8.236   3.946   1.637 -0.2787  1.4416 -2.4315
   88bbb     H6 2296   8.386   4.011   1.569  4.8024 -1.1610  1.4343
   88bbb     H7 2297   8.102   4.329   1.855 -0.5396  0.5453  0.8306
   88bbb     H8 2298   8.177   4.269   2.001  0.0029  0.2919 -0.1147
   88bbb     H9 2299   8.295   4.333   1.781 -1.2656  0.7582 -1.4089
   88bbb    H10 2300   8.336   4.232   1.640  0.2432  5.9766 -1.3489
   88bbb    H11 2301   8.518   4.391   1.698  0.8532  0.4362 -0.0892
   88bbb    H12 2302   8.562   4.224   1.662  0.0969  0.0809 -0.4340
   88bbb    H13 2303   8.531   4.321   1.953 -0.1877  2.9926 -0.2669
   88bbb    H25 2304   8.364   4.157   1.923  1.7990  1.8345 -0.9042
   89bbb     N1 2305   9.691   4.080   2.358  0.7319 -0.3504 -0.1443
   89bbb     C1 2306   9.708   3.933   2.314  0.6600 -0.0482  0.4408
   89bbb     C2 2307   9.713   4.089   2.512 -0.1401  0.0585  0.0106
   89bbb     C3 2308   9.848   3.877   2.306 -0.1365 -1.1848 -0.5140
   89bbb     C4 2309   9.841   3.737   2.241  0.0009  0.2759  0.7185
   89bbb     C5 2310   9.753   4.231   2.563 -0.1046 -0.0007 -1.5158
   89bbb     C6 2311   9.884   4.281   2.510  0.6934 -0.6728 -0.1969
   89bbb     C7 2312   9.548   4.137   2.332 -0.5381  0.2916  0.1470
   89bbb     C8 2313   9.522   4.163   2.186  0.4016 -0.1083 -0.0862
   89bbb     N2 2314   9.387   4.212   2.176  0.0580  0.3510  0.2541
   89bbb     O1 2315   9.751   3.707   2.166 -0.1305  0.3881  0.2602
   89bbb     O2 2316   9.961   4.232   2.427  0.0880 -0.1403  0.4244
   89bbb     H1 2317   9.638   3.871   2.370  0.4617 -1.6504 -1.4753
   89bbb     H2 2318   9.664   3.936   2.214  1.6190 -1.1899 -0.0358
   89bbb     H3 2319   9.788   4.018   2.547 -0.0310  0.3718  0.4281
   89bbb     H4 2320   9.619   4.065   2.563 -0.2009  1.9812  0.8843
   89bbb     H5 2321   9.918   3.938   2.249  0.6682  0.3555  1.9484
   89bbb     H6 2322   9.882   3.876   2.411  0.4761  1.9192 -0.6159
   89bbb     H7 2323   9.772   4.224   2.670 -2.3609 -0.5459 -1.0976
   89bbb     H8 2324   9.677   4.309   2.548 -1.3439 -0.6291  0.9974
   89bbb     H9 2325   9.555   4.231   2.386  0.6697  1.2549 -1.5713
   89bbb    H10 2326   9.468   4.077   2.374  0.4891 -0.3152  1.3224
   89bbb    H11 2327   9.533   4.074   2.124 -1.3742  0.4647 -1.3183
   89bbb    H12 2328   9.587   4.246   2.155 -0.9704  1.2204  0.4898
   89bbb    H13 2329   9.318   4.152   2.132 -0.9299  1.6777 -0.0389
   89bbb    H25 2330   9.752   4.148   2.311  0.0892  1.0437  0.9580
   90bbb     N1 2331   6.344   4.336   1.643  1.0569 -0.3949  0.2463
   90bbb     C1 2332   6.214   4.404   1.606 -0.0536 -0.0435 -0.1398
   90bbb     C2 2333   6.411   4.306   1.510  0.4916  0.2237 -0.2400
   90bbb     C3 2334   6.128   4.445   1.724  0.1542 -0.0128  0.3254
   90bbb     C4 2335   6.198   4.529   1.830  0.5686  0.2250  0.3468
   90bbb     C5 2336   6.557   4.351   1.503 -0.5714 -0.6432  0.2541
   90bbb     C6 2337   6.572   4.502   1.479  0.0048  0.0828 -0.9318
   90bbb     C7 2338   6.337   4.202   1.707  0.1242  0.6069  0.1389
   90bbb     C8 2339   6.455   4.153   1.792 -0.4028  0.4656  0.5598
   90bbb     N2 2340   6.441   4.013   1.833  0.5621  0.2211  0.3548
   90bbb     O1 2341   6.317   4.545   1.830 -0.0518 -0.8470  0.7413
   90bbb     O2 2342   6.481   4.583   1.492 -0.1442 -0.5770 -0.2203
   90bbb     H1 2343   6.253   4.489   1.549  2.2429  0.9427  2.6609
   90bbb     H2 2344   6.162   4.329   1.546  0.5546 -2.1127  1.7870
   90bbb     H3 2345   6.358   4.352   1.425  0.6450  1.3975  0.2834
   90bbb     H4 2346   6.402   4.199   1.493 -0.5976 -0.0398  1.7398
   90bbb     H5 2347   6.045   4.505   1.683 -0.6779 -0.5374  1.2059
   90bbb     H6 2348   6.070   4.360   1.762  0.4771  0.3781  1.7546
   90bbb     H7 2349   6.607   4.301   1.419 -2.1479  0.6651 -1.5602
   90bbb     H8 2350   6.612   4.319   1.593 -0.3649 -2.4314 -0.4720
   90bbb     H9 2351   6.307   4.134   1.628 -0.0140  1.3738 -0.4837
   90bbb    H10 2352   6.254   4.206   1.778 -0.9435 -2.0768 -0.8404
   90bbb    H11 2353   6.444   4.214   1.883  0.5262 -2.4043  2.7508
   90bbb    H12 2354   6.551   4.177   1.745  1.0905 -0.6365  2.8694
   90bbb    H13 2355   6.472   3.938   1.773  1.3893  1.1209 -0.3634
   90bbb    H25 2356   6.405   4.403   1.693  0.8767  1.8019 -2.2491
   91bbb     N1 2357   6.088   3.340   2.874 -0.1738 -0.2112 -0.4801
   91bbb     C1 2358   6.108   3.190   2.876  0.3438 -0.2399 -0.2517
   91bbb     C2 2359   5.965   3.380   2.953 -0.1918  0.7674 -0.0207
   91bbb     C3 2360   6.243   3.124   2.872 -0.7320  0.7927  0.3413
   91bbb     C4 2361   6.349   3.194   2.967  0.3787  0.5898  0.5442
   91bbb     C5 2362   5.955   3.337   3.105  0.0572 -0.1955 -0.2126
   91bbb     C6 2363   6.056   3.408   3.203 -0.1459  0.3892  0.4458
   91bbb     C7 2364   6.063   3.387   2.732  0.6027  0.4134 -0.2855
   91bbb     C8 2365   6.087   3.544   2.713  0.2807  0.6802 -0.4596
   91bbb     N2 2366   6.115   3.576   2.574 -0.0175 -0.0788 -0.1148
   91bbb     O1 2367   6.310   3.237   3.075 -0.3385  0.7489 -0.2211
   91bbb     O2 2368   6.101   3.522   3.176 -0.2148  0.0134  0.1364
   91bbb     H1 2369   6.067   3.158   2.972 -0.3338  2.0789  0.3113
   91bbb     H2 2370   6.049   3.147   2.795  0.1024 -1.6515  0.6499
   91bbb     H3 2371   5.886   3.328   2.900 -0.2891 -0.4291  1.2549
   91bbb     H4 2372   5.958   3.488   2.944  3.0156  1.1660  1.0578
   91bbb     H5 2373   6.235   3.021   2.910  0.3968  0.7510  0.5217
   91bbb     H6 2374   6.282   3.117   2.770 -0.2127  0.0992  0.5794
   91bbb     H7 2375   5.964   3.228   3.110  1.4053 -0.0370  1.7360
   91bbb     H8 2376   5.852   3.351   3.142 -0.0410  0.1983 -0.6204
   91bbb     H9 2377   5.959   3.362   2.708  0.7154 -0.6800  0.3164
   91bbb    H10 2378   6.128   3.329   2.665  2.0239 -1.1057  2.2715
   91bbb    H11 2379   6.157   3.579   2.789 -1.1781 -1.4095  1.9722
   91bbb    H12 2380   5.989   3.587   2.738  0.7315  0.5435  1.6889
   91bbb    H13 2381   6.042   3.621   2.521  2.4530  2.0519 -1.9557
   91bbb    H25 2382   6.177   3.371   2.915 -0.4413 -1.1119  0.8609
   92bbb     N1 2383   7.663   2.497   1.821  0.2624  0.0552 -0.5934
   92bbb     C1 2384   7.650   2.438   1.681  0.5120 -0.5800  0.1313
   92bbb     C2 2385   7.731   2.400   1.918 -0.3306  0.0576  0.2712
   92bbb     C3 2386   7.584   2.304   1.668 -0.7613  0.2089  0.0483
   92bbb     C4 2387   7.553   2.265   1.521  0.1333 -0.0827 -0.5900
   92bbb     C5 2388   7.874   2.350   1.879 -0.3495 -0.2219  0.1420
   92bbb     C6 2389   7.956   2.312   1.999 -0.3802  0.0809 -0.3193
   92bbb     C7 2390   7.521   2.537   1.872  0.4892  0.4568  0.5098
   92bbb     C8 2391   7.459   2.653   1.808 -0.1188  0.0779  0.4354
   92bbb     N2 2392   7.334   2.682   1.872 -0.8702  0.4895  0.2204
   92bbb     O1 2393   7.443   2.234   1.492  0.1925  0.0526 -0.7484
   92bbb     O2 2394   7.991   2.390   2.085  0.4701 -0.4143 -0.2781
   92bbb     H1 2395   7.598   2.508   1.616  0.2773  0.1491  1.0743
   92bbb     H2 2396   7.756   2.440   1.652  0.7445 -2.0516  0.7934
   92bbb     H3 2397   7.673   2.309   1.938 -0.5448  0.6588  2.7402
   92bbb     H4 2398   7.731   2.447   2.016 -0.1405 -1.5795  1.0988
   92bbb     H5 2399   7.651   2.237   1.722 -0.8612 -0.3787 -0.5485
   92bbb     H6 2400   7.488   2.298   1.721 -0.3380  0.2187  0.8293
   92bbb     H7 2401   7.944   2.417   1.828  2.2911 -1.4898  1.8172
   92bbb     H8 2402   7.863   2.263   1.812 -0.4765 -0.7157  0.7917
   92bbb     H9 2403   7.531   2.562   1.978 -0.0466  1.6816  0.2801
   92bbb    H10 2404   7.460   2.446   1.871  1.5897 -0.3108 -0.9732
   92bbb    H11 2405   7.445   2.622   1.704 -0.1460  0.6100  0.2831
   92bbb    H12 2406   7.529   2.735   1.825  1.7275 -1.6084  1.4210
   92bbb    H13 2407   7.308   2.633   1.957 -1.3471  0.3357 -0.0108
   92bbb    H25 2408   7.723   2.580   1.816 -0.2486  0.4739  0.2519
   93bbb     N1 2409   6.596   2.726   1.508  0.2327 -0.1338 -0.0476
   93bbb     C1 2410   6.555   2.858   1.440  0.2830  0.1415  0.0979
   93bbb     C2 2411   6.622   2.626   1.391 -0.1134 -0.7910 -0.2664
   93bbb     C3 2412   6.660   2.946   1.373  0.0921  0.5007  0.2178
   93bbb     C4 2413   6.791   2.978   1.445  0.2795 -0.2521 -0.5505
   93bbb     C5 2414   6.666   2.487   1.444  0.2164 -0.2174 -0.0016
   93bbb     C6 2415   6.734   2.407   1.337 -0.1867 -0.0044 -0.4615
   93bbb     C7 2416   6.485   2.667   1.592 -0.0545 -0.1102  0.0537
   93bbb     C8 2417   6.449   2.772   1.698  0.2740 -0.0881  0.6073
   93bbb     N2 2418   6.552   2.800   1.799  0.0457 -0.2734  0.9227
   93bbb     O1 2419   6.842   2.896   1.524  0.7166 -0.2406 -0.0130
   93bbb     O2 2420   6.789   2.452   1.239 -0.4614 -0.6703 -0.5157
   93bbb     H1 2421   6.480   2.823   1.369 -0.3167  2.6848 -0.6156
   93bbb     H2 2422   6.494   2.911   1.514  1.9390  1.2641  0.7136
   93bbb     H3 2423   6.700   2.671   1.330  0.6262  0.1361  1.2831
   93bbb     H4 2424   6.531   2.616   1.332  0.4201  2.6578 -1.9321
   93bbb     H5 2425   6.690   2.894   1.281  0.6537  2.8495 -1.0164
   93bbb     H6 2426   6.606   3.034   1.335  0.4246  0.2762 -0.7869
   93bbb     H7 2427   6.582   2.430   1.486  0.1884  0.0537  0.3173
   93bbb     H8 2428   6.745   2.500   1.520  2.0108  2.3022 -2.0764
   93bbb     H9 2429   6.522   2.576   1.639  0.0283  0.0475  0.2985
   93bbb    H10 2430   6.401   2.645   1.527 -0.8976  0.7859  0.8179
   93bbb    H11 2431   6.364   2.732   1.755  0.2848 -0.5229  0.3240
   93bbb    H12 2432   6.399   2.861   1.658  2.6131  1.6709  1.4000
   93bbb    H13 2433   6.559   2.738   1.879  2.6121 -0.8951  0.2947
   93bbb    H25 2434   6.686   2.745   1.556 -0.1166  0.4750  0.3747
   94bbb     N1 2435   7.810   8.001   4.822  0.7100  0.2541 -0.5512
   94bbb     C1 2436   7.783   7.993   4.971 -0.5783  0.6450  0.1914
   94bbb     C2 2437   7.758   8.124   4.759 -0.1308 -0.1892 -0.0363
   94bbb     C3 2438   7.903   8.029   5.061 -0.0158  0.8099  0.6360
   94bbb     C4 2439   7.902   7.969   5.202  0.5151 -0.0029  1.1263
   94bbb     C5 2440   7.784   8.145   4.613 -0.1220  0.1606 -0.0764
   94bbb     C6 2441   7.723   8.272   4.559 -0.0234 -0.2442  0.1139
   94bbb     C7 2442   7.752   7.875   4.762  0.4184  0.3549  0.0299
   94bbb     C8 2443   7.829   7.751   4.788 -0.2856 -0.4489 -0.3665
   94bbb     N2 2444   7.958   7.764   4.729 -0.2199  0.5203  0.2692
   94bbb     O1 2445   7.830   7.877   5.241 -0.0846 -0.0304  0.3686
   94bbb     O2 2446   7.629   8.336   4.609  0.2462  0.1450 -0.2144
   94bbb     H1 2447   7.692   8.040   5.009  1.0321  1.4218  3.4064
   94bbb     H2 2448   7.766   7.886   4.985 -1.3988  0.7930  0.3328
   94bbb     H3 2449   7.801   8.205   4.818  1.7384 -1.5048  0.5076
   94bbb     H4 2450   7.650   8.128   4.773 -0.1569  1.0517 -0.4573
   94bbb     H5 2451   7.986   7.984   5.004 -0.4581  0.2258  0.4424
   94bbb     H6 2452   7.914   8.137   5.051 -1.2804  0.8452 -0.7644
   94bbb     H7 2453   7.743   8.058   4.560 -1.9836  0.2450  1.1244
   94bbb     H8 2454   7.891   8.150   4.592 -0.1568 -0.5104 -0.4333
   94bbb     H9 2455   7.747   7.879   4.653  2.4734  1.5224 -0.0632
   94bbb    H10 2456   7.649   7.868   4.797 -0.3353  2.7266 -1.4689
   94bbb    H11 2457   7.780   7.657   4.761 -1.2496 -0.6910  1.9246
   94bbb    H12 2458   7.839   7.740   4.897 -1.2188 -0.3455 -0.2646
   94bbb    H13 2459   7.962   7.818   4.643  0.6809 -0.7188 -0.5003
   94bbb    H25 2460   7.911   7.988   4.804  0.7835 -1.3352  0.7004
   95bbb     N1 2461   8.583   6.948   4.456 -0.0167 -0.3616 -0.1051
   95bbb     C1 2462   8.488   6.843   4.431  0.0334  0.6765 -0.4856
   95bbb     C2 2463   8.707   6.943   4.356 -0.5479 -0.2752  0.5003
   95bbb     C3 2464   8.368   6.818   4.535  0.4770 -0.3849 -0.2674
   95bbb     C4 2465   8.278   6.936   4.559  0.8329  0.3485  0.3916
   95bbb     C5 2466   8.663   6.991   4.215  0.1944 -0.6039 -0.8522
   95bbb     C6 2467   8.638   7.139   4.205  0.0722 -0.7907  0.2091
   95bbb     C7 2468   8.634   6.937   4.604 -0.3714  0.1621  0.3777
   95bbb     C8 2469   8.701   7.065   4.654  0.8404  0.0524 -0.8212
   95bbb     N2 2470   8.606   7.173   4.676 -0.1794  0.5567  0.3625
   95bbb     O1 2471   8.317   7.050   4.543 -0.2166  0.4384  0.0149
   95bbb     O2 2472   8.555   7.189   4.278  0.4176 -0.1909 -0.1148
   95bbb     H1 2473   8.442   6.870   4.336  0.1246  0.2866 -0.6443
   95bbb     H2 2474   8.544   6.749   4.429  0.6181  0.9452  1.4369
   95bbb     H3 2475   8.749   6.843   4.355  3.0964  1.0768  1.9316
   95bbb     H4 2476   8.780   7.008   4.404 -0.9683 -0.4748  1.4460
   95bbb     H5 2477   8.297   6.741   4.500 -1.0961  0.8864 -0.0065
   95bbb     H6 2478   8.396   6.780   4.634 -3.6432  1.2872  1.7763
   95bbb     H7 2479   8.746   6.978   4.143  0.3473  0.6035 -0.9058
   95bbb     H8 2480   8.580   6.935   4.170  0.2720 -1.6136  0.1971
   95bbb     H9 2481   8.700   6.850   4.607 -2.3057 -1.4925 -1.2775
   95bbb    H10 2482   8.546   6.916   4.665 -1.6246 -1.0934 -1.7229
   95bbb    H11 2483   8.786   7.090   4.589  0.6555 -2.1053 -1.9827
   95bbb    H12 2484   8.752   7.046   4.749  1.1872 -0.2722 -1.0678
   95bbb    H13 2485   8.544   7.154   4.754 -0.2448 -0.0715  0.1678
   95bbb    H25 2486   8.526   7.033   4.446 -1.9350 -1.6695 -0.9376
   96bbb     N1 2487   8.763   8.544   4.080  0.4806  0.6094 -0.4683
   96bbb     C1 2488   8.840   8.673   4.055 -0.2606 -0.3308  0.3083
   96bbb     C2 2489   8.836   8.423   4.011 -0.3563  1.3060  0.2319
   96bbb     C3 2490   8.786   8.770   4.166  0.4327  0.3568 -0.2994
   96bbb     C4 2491   8.838   8.913   4.161 -0.5116  0.5546  0.2932
   96bbb     C5 2492   8.984   8.385   4.053 -0.0384 -0.1908 -0.2388
   96bbb     C6 2493   9.037   8.258   3.977  0.3381 -0.5070 -0.5220
   96bbb     C7 2494   8.623   8.546   4.013  0.1293  0.1923  0.1281
   96bbb     C8 2495   8.627   8.586   3.867 -0.2151  0.7434  0.1663
   96bbb     N2 2496   8.497   8.560   3.809  0.1630  0.1118  0.4438
   96bbb     O1 2497   8.836   8.981   4.061 -0.1164 -0.2432 -0.1454
   96bbb     O2 2498   8.967   8.184   3.910  0.2992  0.3412  0.4102
   96bbb     H1 2499   8.946   8.651   4.066 -0.1396 -1.1748 -2.1206
   96bbb     H2 2500   8.831   8.708   3.953 -1.1038  0.8951  0.7830
   96bbb     H3 2501   8.842   8.438   3.903  0.2264 -1.6889 -0.2347
   96bbb     H4 2502   8.770   8.341   4.040 -0.4862  1.0931 -0.6243
   96bbb     H5 2503   8.678   8.780   4.152  0.3715  1.1468  0.6327
   96bbb     H6 2504   8.801   8.718   4.262 -2.0883 -2.4391 -1.2858
   96bbb     H7 2505   8.987   8.358   4.160  1.1386 -1.2603 -0.5226
   96bbb     H8 2506   9.054   8.467   4.030  1.1158 -1.5458 -1.7770
   96bbb     H9 2507   8.566   8.620   4.071 -1.4705  1.1830 -2.5162
   96bbb    H10 2508   8.571   8.451   4.022  0.9945 -0.3476 -0.4971
   96bbb    H11 2509   8.704   8.528   3.814  0.2364  1.9666 -0.5530
   96bbb    H12 2510   8.660   8.690   3.874 -1.1585  1.0677 -0.0925
   96bbb    H13 2511   8.435   8.493   3.854  0.3432 -1.7863 -1.9686
   96bbb    H25 2512   8.756   8.526   4.181  0.8900  0.9371 -0.3799
   97bbb     N1 2513   7.893   8.938   2.970 -0.1680  0.8462  0.3699
   97bbb     C1 2514   7.936   9.063   2.888 -0.1965 -0.3407  0.1328
   97bbb     C2 2515   7.825   8.839   2.877 -0.4148 -0.0095  0.8042
   97bbb     C3 2516   8.055   9.139   2.948  0.1251  0.1072 -0.6686
   97bbb     C4 2517   8.157   9.046   3.006 -0.5580  0.2252 -0.1423
   97bbb     C5 2518   7.915   8.746   2.803 -0.0285  0.3793 -0.1526
   97bbb     C6 2519   8.016   8.669   2.889 -0.2420 -0.5573 -1.0199
   97bbb     C7 2520   7.797   8.969   3.084 -0.2454  0.0060 -0.0265
   97bbb     C8 2521   7.773   8.853   3.188 -0.5965 -0.1038  0.0161
   97bbb     N2 2522   7.899   8.805   3.242 -0.2137  0.0937 -0.2274
   97bbb     O1 2523   8.131   8.971   3.102  0.1969  0.3499 -0.0535
   97bbb     O2 2524   8.031   8.685   3.009  0.2221 -0.6117 -0.4879
   97bbb     H1 2525   7.960   9.027   2.788 -1.0898  0.2887 -0.3257
   97bbb     H2 2526   7.859   9.139   2.871  0.8994  0.7451 -0.1848
   97bbb     H3 2527   7.773   8.904   2.806 -0.9688 -0.8568  0.4107
   97bbb     H4 2528   7.736   8.793   2.920 -0.0667 -0.6120  0.8928
   97bbb     H5 2529   8.092   9.215   2.878  1.0357  0.3032 -0.0024
   97bbb     H6 2530   8.014   9.196   3.032  0.0398  0.4538 -0.9391
   97bbb     H7 2531   7.967   8.807   2.727  0.9452  1.0206  1.0030
   97bbb     H8 2532   7.860   8.672   2.744 -0.0909  0.8064 -0.6421
   97bbb     H9 2533   7.710   9.017   3.039  2.1754  3.9039 -0.9971
   97bbb    H10 2534   7.845   9.034   3.157 -0.5115 -2.3134  2.3564
   97bbb    H11 2535   7.709   8.773   3.149 -0.6691 -1.0213  1.8981
   97bbb    H12 2536   7.708   8.896   3.266  0.9025  3.2502 -0.3845
   97bbb    H13 2537   7.983   8.838   3.197 -0.7246  1.2552 -0.3772
   97bbb    H25 2538   7.969   8.882   3.011 -1.0474 -0.6610  0.0446
   98bbb     N1 2539   6.672   8.460   5.762  0.0016  0.5571 -0.3667
   98bbb     C1 2540   6.570   8.514   5.865  0.3522 -0.1828 -0.3205
   98bbb     C2 2541   6.660   8.545   5.637 -0.2362  0.1816 -0.4300
   98bbb     C3 2542   6.618   8.629   5.960  0.3589  0.0184 -0.6517
   98bbb     C4 2543   6.741   8.595   6.041 -0.9891 -0.0528  0.1353
   98bbb     C5 2544   6.535   8.544   5.546  0.1317 -0.2086 -0.3970
   98bbb     C6 2545   6.548   8.458   5.424  0.5203 -0.3063  0.4571
   98bbb     C7 2546   6.635   8.310   5.741 -0.9212  0.5212  0.0923
   98bbb     C8 2547   6.754   8.209   5.730  0.0205  0.0199  0.0349
   98bbb     N2 2548   6.831   8.248   5.610 -0.1004 -0.1106  0.0554
   98bbb     O1 2549   6.821   8.518   5.993 -0.4601 -0.0346 -0.3404
   98bbb     O2 2550   6.641   8.473   5.350  1.0372  0.4078 -0.6248
   98bbb     H1 2551   6.485   8.548   5.806  1.2449  2.1101 -0.3824
   98bbb     H2 2552   6.541   8.432   5.930 -0.5195  0.6601  0.3940
   98bbb     H3 2553   6.743   8.510   5.576  2.4188  0.7672  2.5689
   98bbb     H4 2554   6.663   8.645   5.680  0.0881  0.5438 -1.2869
   98bbb     H5 2555   6.626   8.724   5.906 -0.9067  1.0437  0.8614
   98bbb     H6 2556   6.533   8.648   6.026 -0.1990  3.0814 -2.0756
   98bbb     H7 2557   6.527   8.645   5.503  2.4827 -0.2039 -0.9522
   98bbb     H8 2558   6.444   8.526   5.605 -1.7175  3.5377 -1.7680
   98bbb     H9 2559   6.566   8.300   5.657 -1.5649  2.6997  0.3176
   98bbb    H10 2560   6.585   8.277   5.831  0.2039 -1.7827 -0.0448
   98bbb    H11 2561   6.708   8.110   5.722 -1.2650  0.5664  0.5595
   98bbb    H12 2562   6.819   8.212   5.819 -1.0645  1.5822  0.8256
   98bbb    H13 2563   6.904   8.317   5.621 -2.0076  1.7869  1.8335
   98bbb    H25 2564   6.767   8.458   5.800  0.1453 -2.1963 -0.6721
   99bbb     N1 2565   6.791   9.036   4.803  0.0616 -0.1592  0.0205
   99bbb     C1 2566   6.636   9.040   4.799 -0.5447 -0.2797 -0.3124
   99bbb     C2 2567   6.846   9.060   4.661  0.7259 -0.4329  0.5346
   99bbb     C3 2568   6.559   9.076   4.932 -0.4976  0.0541  0.0527
   99bbb     C4 2569   6.603   9.207   4.996 -0.8245  0.4589 -0.0857
   99bbb     C5 2570   6.847   9.206   4.614  0.2550  0.7259 -0.4797
   99bbb     C6 2571   6.935   9.287   4.706  0.4984 -0.0113  0.1376
   99bbb     C7 2572   6.827   8.894   4.852 -0.0794  1.1336 -0.2797
   99bbb     C8 2573   6.966   8.873   4.908  0.1896 -0.6396  0.0705
   99bbb     N2 2574   7.005   8.733   4.929 -0.1294  0.2396  0.9029
   99bbb     O1 2575   6.698   9.273   4.957  0.1727 -0.2655 -0.3055
   99bbb     O2 2576   7.022   9.245   4.778  0.5043  0.3835 -0.6575
   99bbb     H1 2577   6.618   9.122   4.730 -1.5708  0.1715  0.4626
   99bbb     H2 2578   6.600   8.946   4.757  0.6043 -0.0995 -1.7618
   99bbb     H3 2579   6.784   9.003   4.593  0.7894  0.8384 -0.6289
   99bbb     H4 2580   6.945   9.015   4.658 -0.2210 -2.6155  0.5391
   99bbb     H5 2581   6.455   9.092   4.900 -0.2248  1.9044 -0.0435
   99bbb     H6 2582   6.552   8.989   4.998 -1.4935 -0.3448 -0.5567
   99bbb     H7 2583   6.744   9.242   4.608 -1.0537 -2.6811 -0.7060
   99bbb     H8 2584   6.904   9.209   4.520  1.9280 -0.4513  0.4448
   99bbb     H9 2585   6.807   8.829   4.767 -2.9167  0.6933  0.6072
   99bbb    H10 2586   6.744   8.872   4.920 -1.1660 -1.2926 -2.2469
   99bbb    H11 2587   6.977   8.930   5.001  1.7184  0.8494 -0.9603
   99bbb    H12 2588   7.044   8.911   4.841  0.2392  1.1587  1.0854
   99bbb    H13 2589   7.056   8.674   4.864 -0.4970  0.8423  0.0489
   99bbb    H25 2590   6.832   9.101   4.871 -0.8203  1.1428 -0.6574
  100bbb     N1 2591   6.422   9.310   3.958 -0.7996  0.7222  0.2042
  100bbb     C1 2592   6.268   9.314   3.931 -0.3467 -0.2025 -0.4614
  100bbb     C2 2593   6.507   9.320   3.831  0.3060 -0.8498 -0.4762
  100bbb     C3 2594   6.212   9.422   3.831 -0.5745 -0.3651  0.1076
  100bbb     C4 2595   6.068   9.402   3.796 -0.1292 -0.0688  0.2606
  100bbb     C5 2596   6.658   9.320   3.862 -0.1682 -0.6425 -0.6576
  100bbb     C6 2597   6.736   9.332   3.739 -0.0869  0.3128 -0.5917
  100bbb     C7 2598   6.457   9.204   4.058  0.6586 -0.5013 -0.1242
  100bbb     C8 2599   6.462   9.058   4.005  0.1600 -0.1072 -0.5060
  100bbb     N2 2600   6.522   8.973   4.103 -0.2270  0.2362  0.4524
  100bbb     O1 2601   6.009   9.296   3.778  0.4663  0.0574  1.0889
  100bbb     O2 2602   6.751   9.241   3.657 -0.0168 -0.2202 -0.2721
  100bbb     H1 2603   6.243   9.220   3.882 -1.4395  0.2898 -0.8880
  100bbb     H2 2604   6.225   9.330   4.030  1.7096 -0.7774  0.5724
  100bbb     H3 2605   6.490   9.411   3.775  3.1916 -1.4028 -2.4335
  100bbb     H4 2606   6.480   9.238   3.764 -3.5840 -0.4631  0.3430
  100bbb     H5 2607   6.231   9.524   3.866 -3.1494  0.5421 -0.9056
  100bbb     H6 2608   6.271   9.414   3.739 -2.0252 -2.4264 -0.7304
  100bbb     H7 2609   6.682   9.228   3.916  0.1539 -1.0631 -1.5102
  100bbb     H8 2610   6.670   9.405   3.932 -0.6439 -2.3794  1.6584
  100bbb     H9 2611   6.391   9.208   4.145  0.1083  1.0359 -0.5890
  100bbb    H10 2612   6.560   9.232   4.083 -0.1645  0.6694  2.2785
  100bbb    H11 2613   6.525   9.056   3.915  2.8448 -1.8618  1.2537
  100bbb    H12 2614   6.359   9.024   3.988 -0.1691 -0.3443  1.6944
  100bbb    H13 2615   6.511   9.003   4.199 -0.0262  1.9618 -0.0289
  100bbb    H25 2616   6.444   9.396   4.010  0.7485  0.3474  0.2087
  101bbb     N1 2617   7.456   8.895   3.636 -0.8528  0.1073 -0.0813
  101bbb     C1 2618   7.477   8.842   3.496  0.0400 -0.1522 -0.1386
  101bbb     C2 2619   7.597   8.887   3.703  0.2038  0.4300 -0.9067
  101bbb     C3 2620   7.361   8.876   3.394  0.3245 -0.0795  0.0561
  101bbb     C4 2621   7.385   8.819   3.250 -0.6918 -0.0965 -0.7363
  101bbb     C5 2622   7.684   9.010   3.670 -0.0982 -0.3016  0.1824
  101bbb     C6 2623   7.807   9.023   3.748 -0.6011 -0.1488  0.1181
  101bbb     C7 2624   7.359   8.811   3.719 -0.2072 -0.1956  0.0706
  101bbb     C8 2625   7.334   8.854   3.863 -0.0436  0.0504 -0.6865
  101bbb     N2 2626   7.229   8.770   3.916  0.3178 -0.2732 -0.1625
  101bbb     O1 2627   7.493   8.789   3.202  0.3702 -0.6439  0.4604
  101bbb     O2 2628   7.841   8.935   3.824 -0.5942 -0.3327 -0.3681
  101bbb     H1 2629   7.565   8.891   3.456  0.4367 -1.7193 -1.2834
  101bbb     H2 2630   7.502   8.735   3.492 -0.4447 -0.2894  0.3613
  101bbb     H3 2631   7.643   8.791   3.679  1.0114  0.1831  1.4312
  101bbb     H4 2632   7.578   8.889   3.810  0.3392 -0.2953 -0.8665
  101bbb     H5 2633   7.265   8.837   3.430 -0.3324 -0.0301 -1.5786
  101bbb     H6 2634   7.349   8.984   3.386 -0.6674 -0.1779  0.0410
  101bbb     H7 2635   7.632   9.107   3.666  1.4355  0.5649  0.2245
  101bbb     H8 2636   7.705   9.002   3.563  0.3557  2.3411 -0.0023
  101bbb     H9 2637   7.393   8.708   3.705  0.0674 -0.5763  2.8650
  101bbb    H10 2638   7.268   8.829   3.661  0.4523 -0.1859 -0.9863
  101bbb    H11 2639   7.308   8.960   3.872  1.7140  0.6924 -2.6558
  101bbb    H12 2640   7.424   8.836   3.922  0.2458 -0.0019 -1.1421
  101bbb    H13 2641   7.150   8.746   3.857  0.8616 -1.8599 -0.3116
  101bbb    H25 2642   7.430   8.995   3.635  2.6994  1.2716  2.0289
  102bbb     N1 2643   6.964   8.399   1.302 -0.2155 -0.3624 -0.4373
  102bbb     C1 2644   6.997   8.401   1.456  0.4004  0.4039  0.4289
  102bbb     C2 2645   7.044   8.513   1.226 -0.3114  0.1420 -0.4482
  102bbb     C3 2646   7.139   8.388   1.498 -0.9479 -0.3693 -0.0478
  102bbb     C4 2647   7.197   8.257   1.438  0.6623 -0.8173 -0.0610
  102bbb     C5 2648   7.033   8.482   1.068  0.3310  0.9585 -0.8930
  102bbb     C6 2649   7.100   8.349   1.030 -0.0445 -0.2005  0.5713
  102bbb     C7 2650   6.818   8.407   1.289  0.7137 -0.1750  0.1140
  102bbb     C8 2651   6.750   8.273   1.249  0.3264 -0.0082  0.6073
  102bbb     N2 2652   6.807   8.156   1.320  0.1942 -0.1952  0.2319
  102bbb     O1 2653   7.131   8.166   1.390 -0.0757  0.5633  0.1891
  102bbb     O2 2654   7.182   8.285   1.097 -0.4016  0.0410  0.7752
  102bbb     H1 2655   6.968   8.505   1.475  1.7065  1.0495 -0.9186
  102bbb     H2 2656   6.940   8.325   1.509  0.8082 -0.7253 -0.7342
  102bbb     H3 2657   7.149   8.497   1.249 -0.2329  1.1466 -0.0779
  102bbb     H4 2658   6.998   8.609   1.251 -0.1066 -0.0677  0.8065
  102bbb     H5 2659   7.191   8.476   1.460  1.3494 -3.0135 -3.7349
  102bbb     H6 2660   7.141   8.384   1.608  0.6110  1.3527  0.0235
  102bbb     H7 2661   7.086   8.564   1.018 -0.3329  2.0637  0.1511
  102bbb     H8 2662   6.931   8.482   1.029 -0.1600 -0.5635  0.3120
  102bbb     H9 2663   6.805   8.478   1.207 -0.8896 -0.6323 -0.0503
  102bbb    H10 2664   6.768   8.453   1.374 -0.3060 -1.6215  0.3268
  102bbb    H11 2665   6.756   8.244   1.143 -0.1445 -0.7623  0.7793
  102bbb    H12 2666   6.644   8.284   1.277  0.5546  1.0894  1.1015
  102bbb    H13 2667   6.764   8.132   1.408  0.4576  0.5286  0.5633
  102bbb    H25 2668   6.994   8.307   1.267  0.3278 -0.4947  0.3531
  103bbb     N1 2669   6.881   7.349   0.941 -0.3285  0.8671  0.2337
  103bbb     C1 2670   6.764   7.397   0.850 -0.3987 -0.3042  0.1450
  103bbb     C2 2671   6.985   7.273   0.852  0.1887 -0.1459  0.1714
  103bbb     C3 2672   6.697   7.284   0.774 -0.0809  0.4521  0.1942
  103bbb     C4 2673   6.585   7.312   0.674  0.2689 -0.1944 -0.1590
  103bbb     C5 2674   7.065   7.366   0.746 -0.7075 -0.2605 -0.7286
  103bbb     C6 2675   7.168   7.273   0.682 -0.4294  0.3120 -0.4274
  103bbb     C7 2676   6.829   7.248   1.047 -0.0993 -0.3672  0.4049
  103bbb     C8 2677   6.922   7.219   1.169  0.3145 -0.5069  0.0402
  103bbb     N2 2678   6.979   7.339   1.234 -0.1639  0.3416  0.5333
  103bbb     O1 2679   6.527   7.420   0.668  0.5577 -0.3119  0.3420
  103bbb     O2 2680   7.192   7.159   0.705 -0.1951  0.4003 -0.2605
  103bbb     H1 2681   6.699   7.452   0.918 -0.0857 -0.0084  0.2070
  103bbb     H2 2682   6.801   7.476   0.785 -0.0830  0.3841  1.1330
  103bbb     H3 2683   6.929   7.199   0.796 -1.9329 -0.4690  2.5490
  103bbb     H4 2684   7.052   7.209   0.909  0.1589 -2.1996 -1.9763
  103bbb     H5 2685   6.769   7.217   0.724 -1.3229 -1.2197  0.5420
  103bbb     H6 2686   6.647   7.220   0.848 -1.4386  0.4492 -0.7082
  103bbb     H7 2687   7.114   7.441   0.809 -0.3919 -2.2848  1.5711
  103bbb     H8 2688   7.003   7.415   0.669 -0.7709 -0.9671 -1.1320
  103bbb     H9 2689   6.805   7.156   0.994 -0.7862 -1.8746  3.1424
  103bbb    H10 2690   6.734   7.290   1.080 -0.2213  0.3685 -0.8060
  103bbb    H11 2691   7.001   7.149   1.138 -0.1658 -1.0536  0.0476
  103bbb    H12 2692   6.857   7.169   1.242  1.3166 -0.2478  1.1391
  103bbb    H13 2693   6.913   7.394   1.288 -2.2195 -1.7551  0.3087
  103bbb    H25 2694   6.915   7.439   0.978 -0.6817  1.1942 -0.2249
  104bbb     N1 2695   6.685   8.941   2.711 -0.3741 -0.2650 -0.5240
  104bbb     C1 2696   6.665   9.051   2.813  0.0246  0.0947  0.6581
  104bbb     C2 2697   6.622   8.989   2.577 -0.3847 -0.7265  0.4081
  104bbb     C3 2698   6.722   9.039   2.957  0.1515  0.3792  0.1798
  104bbb     C4 2699   6.716   9.176   3.022 -0.1226  0.0243 -0.2444
  104bbb     C5 2700   6.703   9.085   2.490  0.6647 -0.2224 -0.3321
  104bbb     C6 2701   6.626   9.135   2.365  0.1137 -0.1570  0.5958
  104bbb     C7 2702   6.592   8.832   2.765 -0.3594  0.9993  0.4291
  104bbb     C8 2703   6.607   8.700   2.679 -0.7037 -0.6125 -0.9584
  104bbb     N2 2704   6.637   8.599   2.778  0.4113  0.1995 -0.2227
  104bbb     O1 2705   6.666   9.275   2.974  0.0816  0.3162  0.4425
  104bbb     O2 2706   6.625   9.061   2.272  0.4455 -0.2846  0.5964
  104bbb     H1 2707   6.720   9.141   2.783 -0.2384  0.4400  1.1859
  104bbb     H2 2708   6.562   9.087   2.814  0.2184  0.8329 -1.4084
  104bbb     H3 2709   6.527   9.038   2.597 -1.0443 -1.7694 -0.0908
  104bbb     H4 2710   6.604   8.904   2.512  1.7049 -1.2912  0.4832
  104bbb     H5 2711   6.674   8.960   3.017  1.3060 -0.7828 -0.3712
  104bbb     H6 2712   6.828   9.009   2.965 -0.2816 -0.8279  2.2491
  104bbb     H7 2713   6.792   9.033   2.451  0.6120  1.1919 -2.5333
  104bbb     H8 2714   6.751   9.157   2.557  0.0236 -2.1816  2.3984
  104bbb     H9 2715   6.492   8.876   2.762 -1.9522 -2.3421 -2.1778
  104bbb    H10 2716   6.631   8.805   2.863  1.3295 -0.8994 -0.7000
  104bbb    H11 2717   6.691   8.709   2.610  0.4087 -0.7686  0.3424
  104bbb    H12 2718   6.512   8.679   2.629 -0.8370  0.5297 -1.2002
  104bbb    H13 2719   6.613   8.616   2.875 -1.7866 -1.6877 -0.3522
  104bbb    H25 2720   6.784   8.915   2.695 -0.6605 -0.7701 -1.5429
  105bbb     N1 2721   6.514   7.625   3.303 -0.2562 -0.1223  0.1799
  105bbb     C1 2722   6.652   7.659   3.238  0.6581  0.5406  0.2749
  105bbb     C2 2723   6.487   7.472   3.287 -0.1720  0.3988  0.6969
  105bbb     C3 2724   6.769   7.573   3.288 -0.4507  0.1559 -0.2583
  105bbb     C4 2725   6.896   7.655   3.285  0.0916 -0.8901  0.8614
  105bbb     C5 2726   6.474   7.411   3.141 -0.6425 -1.0031 -0.0162
  105bbb     C6 2727   6.447   7.260   3.139 -0.7544 -0.2895  0.3110
  105bbb     C7 2728   6.400   7.700   3.238  0.0406 -0.1644  0.1272
  105bbb     C8 2729   6.410   7.854   3.249 -0.2792  0.3917 -0.6321
  105bbb     N2 2730   6.494   7.916   3.145 -0.2161  0.4845 -0.7287
  105bbb     O1 2731   6.928   7.711   3.180 -0.6067 -0.4550  0.1662
  105bbb     O2 2732   6.508   7.192   3.224  0.1040 -0.2255  0.4937
  105bbb     H1 2733   6.636   7.659   3.130 -1.4033 -1.3761  0.5040
  105bbb     H2 2734   6.672   7.763   3.265 -0.8029  1.4731 -1.9664
  105bbb     H3 2735   6.390   7.461   3.336 -1.0295  1.6639 -0.6291
  105bbb     H4 2736   6.567   7.414   3.333 -0.6554 -1.6640 -0.8968
  105bbb     H5 2737   6.744   7.529   3.385 -0.5475  2.1135  0.6476
  105bbb     H6 2738   6.779   7.485   3.223  1.0018 -0.0117  0.1423
  105bbb     H7 2739   6.573   7.424   3.096 -0.4448  0.0703  0.6825
  105bbb     H8 2740   6.408   7.472   3.078  0.1227  1.0997  1.1265
  105bbb     H9 2741   6.306   7.661   3.277  0.1369  1.1119  1.7110
  105bbb    H10 2742   6.405   7.687   3.129 -0.8441 -2.8422  0.3476
  105bbb    H11 2743   6.444   7.874   3.351 -1.9424 -0.1054  0.0521
  105bbb    H12 2744   6.313   7.903   3.261 -0.3522  0.2473 -0.6239
  105bbb    H13 2745   6.593   7.930   3.155 -0.3641  2.5690 -1.5696
  105bbb    H25 2746   6.517   7.636   3.405 -1.4104  1.3533  0.0872
  106bbb     N1 2747   9.096   5.770   2.322  0.4268  0.2263 -0.2660
  106bbb     C1 2748   9.090   5.825   2.183  0.6706  0.8043 -0.0699
  106bbb     C2 2749   9.195   5.649   2.328 -0.0326 -0.3108 -0.0337
  106bbb     C3 2750   9.056   5.730   2.059 -0.3379  0.9769  0.4746
  106bbb     C4 2751   8.909   5.725   2.024 -0.0104  0.2871 -0.1759
  106bbb     C5 2752   9.349   5.685   2.319 -0.2760  0.3266  0.1494
  106bbb     C6 2753   9.452   5.575   2.358 -0.0049 -0.1068 -0.2193
  106bbb     C7 2754   8.964   5.709   2.360 -0.2073 -0.0020 -0.8491
  106bbb     C8 2755   8.856   5.813   2.395  0.5300 -0.7580 -0.9886
  106bbb     N2 2756   8.885   5.891   2.518 -0.2054 -0.0679  0.4789
  106bbb     O1 2757   8.818   5.750   2.103  0.3172  0.0928 -0.0268
  106bbb     O2 2758   9.428   5.496   2.442  0.1022 -0.2699  0.7137
  106bbb     H1 2759   9.026   5.914   2.183  1.9465  1.7580 -1.0679
  106bbb     H2 2760   9.183   5.879   2.165  0.8825  0.5065  0.1186
  106bbb     H3 2761   9.170   5.574   2.253  1.9923 -2.1585  1.0025
  106bbb     H4 2762   9.177   5.612   2.429  1.9066  2.4069  1.4337
  106bbb     H5 2763   9.113   5.764   1.972 -0.4137 -2.7581 -1.1985
  106bbb     H6 2764   9.082   5.625   2.074 -3.3574 -0.0602 -0.8795
  106bbb     H7 2765   9.356   5.775   2.380 -3.8997 -0.4987  2.0805
  106bbb     H8 2766   9.372   5.730   2.222  0.6707  1.0028  0.6666
  106bbb     H9 2767   8.975   5.654   2.454  0.6732  0.1060 -0.8846
  106bbb    H10 2768   8.942   5.636   2.281 -2.4790 -1.4463  0.9576
  106bbb    H11 2769   8.755   5.769   2.397  0.7219 -1.2311  1.4299
  106bbb    H12 2770   8.838   5.882   2.311 -0.7498  0.3686  0.1442
  106bbb    H13 2771   8.981   5.897   2.548 -0.5692 -0.0507  1.7080
  106bbb    H25 2772   9.127   5.835   2.396 -0.9378  0.6105 -0.0074
  107bbb     N1 2773   8.165   6.072   3.460  0.2977 -0.1083 -0.2691
  107bbb     C1 2774   8.150   6.008   3.595  0.3555 -0.0903 -0.1860
  107bbb     C2 2775   8.054   6.011   3.369  0.5258 -0.4415  0.2842
  107bbb     C3 2776   8.208   6.079   3.715  0.0076 -0.1444 -0.4669
  107bbb     C4 2777   8.361   6.070   3.736 -0.1773 -0.3333 -0.0048
  107bbb     C5 2778   8.029   6.082   3.229  0.1793  0.1712 -0.2122
  107bbb     C6 2779   7.949   5.990   3.129 -0.4847 -0.1456 -0.5232
  107bbb     C7 2780   8.302   6.054   3.388 -0.4856  0.2929  0.1928
  107bbb     C8 2781   8.358   6.195   3.332 -0.6787 -0.5460  0.2041
  107bbb     N2 2782   8.441   6.171   3.217 -0.0874  0.3824  0.3811
  107bbb     O1 2783   8.419   5.967   3.712  0.0459  0.1068 -0.0425
  107bbb     O2 2784   7.905   5.881   3.162 -0.0266  0.2186  0.1953
  107bbb     H1 2785   8.045   5.990   3.615  0.2141  1.8269  1.0762
  107bbb     H2 2786   8.199   5.911   3.590  1.1269  0.2285  0.8946
  107bbb     H3 2787   7.959   6.003   3.423 -1.9164  0.8228 -3.4070
  107bbb     H4 2788   8.091   5.911   3.346  2.4301 -0.1903  2.0131
  107bbb     H5 2789   8.179   6.185   3.721  1.7206  0.3249  0.2822
  107bbb     H6 2790   8.171   6.038   3.810  0.2780  2.3574  0.8117
  107bbb     H7 2791   8.127   6.103   3.184  1.4907 -2.5679  1.1214
  107bbb     H8 2792   7.974   6.176   3.244  2.5992  1.4075  1.9935
  107bbb     H9 2793   8.288   5.998   3.296  0.0441 -0.3495  0.4936
  107bbb    H10 2794   8.378   6.008   3.452  0.1898 -0.3630 -1.0299
  107bbb    H11 2795   8.424   6.246   3.403  0.4981 -0.0628 -1.1871
  107bbb    H12 2796   8.278   6.269   3.318 -0.4277 -0.7339 -2.6953
  107bbb    H13 2797   8.496   6.087   3.213 -1.6680 -0.6806  0.0284
  107bbb    H25 2798   8.143   6.172   3.474  0.2401 -0.1384 -0.1389
  108bbb     N1 2799   8.149   7.942   2.122 -0.0078 -0.4056 -0.6497
  108bbb     C1 2800   8.073   7.996   2.248  0.5734  0.9225 -0.1882
  108bbb     C2 2801   8.050   7.847   2.040 -0.0067 -0.7080  0.0260
  108bbb     C3 2802   7.978   8.110   2.220 -1.2071  0.1832 -0.4826
  108bbb     C4 2803   7.901   8.154   2.344 -0.5131  0.2035 -0.4797
  108bbb     C5 2804   8.005   7.713   2.091  0.3019 -0.0113 -0.1951
  108bbb     C6 2805   7.950   7.626   1.977  0.0451 -0.2166 -0.2722
  108bbb     C7 2806   8.276   7.876   2.174  0.4503  0.0077  0.0833
  108bbb     C8 2807   8.371   7.839   2.061  0.6356  0.8679  0.2340
  108bbb     N2 2808   8.473   7.751   2.118 -0.2073 -0.4976  0.2221
  108bbb     O1 2809   7.953   8.175   2.451 -0.1327  0.3217 -0.7092
  108bbb     O2 2810   7.969   7.647   1.859  0.8982 -0.9079  0.2186
  108bbb     H1 2811   8.022   7.914   2.300  2.7778 -0.0516  0.6081
  108bbb     H2 2812   8.140   8.046   2.319  1.9086  0.5195 -1.1319
  108bbb     H3 2813   8.100   7.838   1.943 -1.2886 -0.2504 -0.7115
  108bbb     H4 2814   7.972   7.917   2.008  0.0272 -0.9862 -0.6833
  108bbb     H5 2815   8.043   8.190   2.184  0.6123 -0.9358  0.1778
  108bbb     H6 2816   7.912   8.074   2.140  0.7918 -0.2528 -1.9973
  108bbb     H7 2817   7.924   7.733   2.162 -0.0668  1.0257 -0.8974
  108bbb     H8 2818   8.086   7.664   2.147  0.0002 -0.5851 -0.2482
  108bbb     H9 2819   8.244   7.787   2.228  0.4968 -0.8236 -1.1999
  108bbb    H10 2820   8.323   7.947   2.242  0.5576  1.0755 -1.0807
  108bbb    H11 2821   8.418   7.936   2.037 -0.0324  1.1054 -0.1197
  108bbb    H12 2822   8.320   7.788   1.979  0.1181  0.8061  0.5876
  108bbb    H13 2823   8.562   7.788   2.147 -0.1743 -0.4908  0.1122
  108bbb    H25 2824   8.182   8.023   2.069  1.9119 -0.4344  0.4086
  109bbb     N1 2825   9.437   7.842   1.861 -0.1610  0.2927 -0.4217
  109bbb     C1 2826   9.394   7.983   1.867  0.0517 -0.4432  0.1124
  109bbb     C2 2827   9.503   7.831   1.734 -0.2792 -0.0101 -0.6021
  109bbb     C3 2828   9.315   8.026   1.994  0.2704 -0.1511 -0.6079
  109bbb     C4 2829   9.269   8.179   1.987  1.3488  0.8635 -0.2635
  109bbb     C5 2830   9.641   7.896   1.718 -0.2585 -0.6722 -0.0224
  109bbb     C6 2831   9.632   8.042   1.666  0.2585 -0.2148 -0.1652
  109bbb     C7 2832   9.316   7.743   1.869 -0.4364 -0.1304  0.5189
  109bbb     C8 2833   9.291   7.689   2.010  0.1359  0.1631 -0.0658
  109bbb     N2 2834   9.193   7.577   2.012  0.0973  0.1095 -0.1330
  109bbb     O1 2835   9.299   8.255   1.899 -0.3241 -0.6614 -0.5438
  109bbb     O2 2836   9.526   8.101   1.640 -0.8026  0.7409  0.2696
  109bbb     H1 2837   9.482   8.047   1.862 -1.0467  1.0337 -2.8928
  109bbb     H2 2838   9.337   8.012   1.778  2.6897  2.3974 -0.8405
  109bbb     H3 2839   9.431   7.864   1.659 -1.5584 -1.1735  0.0618
  109bbb     H4 2840   9.512   7.723   1.718  0.8935  0.1213 -0.9229
  109bbb     H5 2841   9.227   7.963   2.005 -0.1043 -0.0895 -2.8408
  109bbb     H6 2842   9.373   8.010   2.086 -2.6091  1.0530  1.5623
  109bbb     H7 2843   9.710   7.844   1.649 -1.2419 -0.5480 -1.1344
  109bbb     H8 2844   9.686   7.892   1.818 -0.7313  2.4533  0.4017
  109bbb     H9 2845   9.346   7.670   1.794 -1.5647  0.7845 -0.8896
  109bbb    H10 2846   9.234   7.795   1.820  0.2487  0.1306 -0.3839
  109bbb    H11 2847   9.255   7.765   2.080 -1.0656  2.3834 -2.8884
  109bbb    H12 2848   9.388   7.644   2.037 -0.2334 -1.1016 -0.7574
  109bbb    H13 2849   9.204   7.498   1.949 -0.3661 -2.6104  2.8973
  109bbb    H25 2850   9.498   7.809   1.937 -0.4024  0.0352 -0.3384
  110bbb     N1 2851   6.646   4.969   5.392 -0.3851  0.0265 -0.1514
  110bbb     C1 2852   6.637   5.096   5.478  0.9493 -0.2982  0.2857
  110bbb     C2 2853   6.605   4.999   5.250  0.0110 -1.0078 -0.5046
  110bbb     C3 2854   6.758   5.090   5.574  0.4665  0.1393  0.0391
  110bbb     C4 2855   6.760   5.179   5.695  0.2169  0.0297 -0.4326
  110bbb     C5 2856   6.708   4.978   5.142  0.2104 -0.0831  0.6422
  110bbb     C6 2857   6.760   4.836   5.124  0.9753 -0.3252  0.1206
  110bbb     C7 2858   6.553   4.874   5.456  0.3835  0.4571  0.2125
  110bbb     C8 2859   6.591   4.789   5.582 -0.7052  0.1099  0.6671
  110bbb     N2 2860   6.706   4.709   5.549 -0.2585 -0.5145  0.2894
  110bbb     O1 2861   6.656   5.232   5.730 -0.2608  0.1066  0.5624
  110bbb     O2 2862   6.729   4.742   5.192  0.4580 -0.5183 -0.3642
  110bbb     H1 2863   6.644   5.175   5.403  2.1664 -2.1590 -1.6616
  110bbb     H2 2864   6.544   5.089   5.535  1.7622 -1.3337  1.5548
  110bbb     H3 2865   6.580   5.105   5.254  0.5137 -0.9307  1.3090
  110bbb     H4 2866   6.517   4.938   5.230 -0.8908 -0.0874  0.5542
  110bbb     H5 2867   6.775   4.991   5.619 -0.3133  0.6859  1.6314
  110bbb     H6 2868   6.849   5.108   5.516  2.5600 -2.9332  2.1002
  110bbb     H7 2869   6.800   5.036   5.161  1.4334 -1.3838 -1.0241
  110bbb     H8 2870   6.657   5.004   5.049  2.4792 -2.6628 -1.4657
  110bbb     H9 2871   6.530   4.799   5.380  1.3205  0.0873  0.2790
  110bbb    H10 2872   6.459   4.920   5.487  0.7659  1.7021 -0.3885
  110bbb    H11 2873   6.500   4.730   5.601  0.2985 -2.1650 -1.1740
  110bbb    H12 2874   6.610   4.842   5.676  0.6938 -0.4259  0.7178
  110bbb    H13 2875   6.796   4.756   5.540  0.5576 -1.6291  2.0638
  110bbb    H25 2876   6.742   4.931   5.394 -0.6710 -0.7490 -0.8228
  111bbb     N1 2877   6.654   3.688   5.486 -0.3399 -0.3224 -0.3516
  111bbb     C1 2878   6.690   3.562   5.574  0.5192 -0.1276  0.7756
  111bbb     C2 2879   6.508   3.725   5.494 -0.3218 -0.2382  0.2134
  111bbb     C3 2880   6.667   3.586   5.723  0.2336 -0.5906  0.2373
  111bbb     C4 2881   6.721   3.465   5.799 -0.2286  0.5412  0.0036
  111bbb     C5 2882   6.470   3.854   5.559  0.7063 -0.6341  0.6953
  111bbb     C6 2883   6.515   3.972   5.474 -0.0204 -0.3241 -0.4187
  111bbb     C7 2884   6.702   3.683   5.336 -0.1723 -0.6888 -0.3672
  111bbb     C8 2885   6.855   3.669   5.306 -0.2127 -0.4979 -0.6454
  111bbb     N2 2886   6.922   3.791   5.344 -0.0372  0.2974  0.8615
  111bbb     O1 2887   6.670   3.354   5.794  0.3494 -0.2294  0.5803
  111bbb     O2 2888   6.616   3.967   5.407 -0.0656  0.2474  0.0666
  111bbb     H1 2889   6.627   3.479   5.543 -0.2563 -0.6630  3.5115
  111bbb     H2 2890   6.796   3.542   5.554 -0.4039 -2.8415 -2.3812
  111bbb     H3 2891   6.462   3.643   5.549  0.4419 -0.6545  0.2393
  111bbb     H4 2892   6.485   3.718   5.387  1.5379 -0.4903 -0.2099
  111bbb     H5 2893   6.728   3.671   5.756  0.6069 -1.0400  0.7283
  111bbb     H6 2894   6.564   3.608   5.753 -0.9351 -1.0794 -3.0781
  111bbb     H7 2895   6.515   3.871   5.658 -0.6229  1.2505  1.0272
  111bbb     H8 2896   6.364   3.861   5.585  0.8140  1.1157  0.8048
  111bbb     H9 2897   6.681   3.783   5.300  0.0274  0.3870  2.2779
  111bbb    H10 2898   6.642   3.616   5.273  0.0114  1.1533 -2.6115
  111bbb    H11 2899   6.855   3.665   5.197 -0.8115  0.3705 -0.6789
  111bbb    H12 2900   6.904   3.580   5.348  1.2067  1.3337  1.8766
  111bbb    H13 2901   6.924   3.817   5.442  2.8514  4.0900  0.0625
  111bbb    H25 2902   6.703   3.767   5.531 -2.2918  2.2261 -2.3482
  112bbb     N1 2903   8.211   3.899   6.168 -0.6771  0.1434 -0.3116
  112bbb     C1 2904   8.255   3.967   6.037 -0.2672 -0.6780  0.9106
  112bbb     C2 2905   8.320   3.816   6.231  0.7847 -0.0028 -0.0456
  112bbb     C3 2906   8.345   4.096   6.059 -0.3503 -0.6313 -0.2822
  112bbb     C4 2907   8.389   4.161   5.922 -0.2698 -0.1793  0.7257
  112bbb     C5 2908   8.292   3.792   6.386 -0.6429 -1.2901 -0.8549
  112bbb     C6 2909   8.270   3.920   6.466  0.3524  0.2973  0.2348
  112bbb     C7 2910   8.103   3.795   6.137 -0.5345  0.0315 -0.5081
  112bbb     C8 2911   7.958   3.846   6.123  0.1808 -0.2423 -0.5800
  112bbb     N2 2912   7.930   3.889   5.985  0.7963 -0.5748 -0.3229
  112bbb     O1 2913   8.307   4.218   5.853  0.2032  0.4227  0.2524
  112bbb     O2 2914   8.242   4.025   6.418 -0.0598  0.3287 -0.0654
  112bbb     H1 2915   8.288   3.895   5.961  0.0542 -0.4024  0.7856
  112bbb     H2 2916   8.162   4.006   5.995  0.5862  2.1383  1.4285
  112bbb     H3 2917   8.412   3.874   6.215  0.1903  0.6542 -1.2189
  112bbb     H4 2918   8.318   3.723   6.175 -0.9655  0.1902 -0.3606
  112bbb     H5 2919   8.292   4.180   6.105  1.8368  0.5692  0.1776
  112bbb     H6 2920   8.420   4.073   6.135 -1.6010 -0.8479  0.9253
  112bbb     H7 2921   8.375   3.735   6.430 -0.6703  0.0044  0.9583
  112bbb     H8 2922   8.203   3.731   6.410 -1.1143 -0.9296 -1.6451
  112bbb     H9 2923   8.111   3.716   6.212 -0.4847 -2.1260 -2.6431
  112bbb    H10 2924   8.128   3.755   6.038 -0.9135  1.5703 -1.2580
  112bbb    H11 2925   7.938   3.922   6.200  0.0556 -0.4952 -0.3595
  112bbb    H12 2926   7.894   3.760   6.147 -3.1056  1.9881 -0.7066
  112bbb    H13 2927   7.918   3.817   5.915 -1.9736 -1.8981  1.3475
  112bbb    H25 2928   8.174   3.975   6.227 -0.8795  0.6860 -1.1204
  113bbb     N1 2929   8.530   3.877   5.235 -0.1149  0.0588 -0.5775
  113bbb     C1 2930   8.534   3.731   5.188 -0.1332  0.0710  0.4114
  113bbb     C2 2931   8.595   3.963   5.134 -0.4722 -0.3538 -0.3757
  113bbb     C3 2932   8.436   3.642   5.273  0.4683 -0.6194 -0.3619
  113bbb     C4 2933   8.417   3.496   5.219  0.1240 -0.3686 -0.3231
  113bbb     C5 2934   8.503   4.041   5.031  0.8990 -0.0655 -0.2374
  113bbb     C6 2935   8.412   4.150   5.104  0.0884 -0.4251 -0.0674
  113bbb     C7 2936   8.604   3.902   5.364  0.1918  0.6607  0.5604
  113bbb     C8 2937   8.518   3.921   5.486  0.9750  0.4859 -0.2657
  113bbb     N2 2938   8.420   4.028   5.468 -0.5378 -0.1376  0.6960
  113bbb     O1 2939   8.490   3.451   5.132  0.0210  0.3021 -0.0300
  113bbb     O2 2940   8.396   4.149   5.226 -0.2986 -0.2255  0.0222
  113bbb     H1 2941   8.502   3.719   5.085 -1.2837 -1.9922  0.9558
  113bbb     H2 2942   8.636   3.693   5.199 -0.4034 -0.9901 -0.5527
  113bbb     H3 2943   8.675   3.908   5.083  1.5954  0.4225  1.7956
  113bbb     H4 2944   8.655   4.038   5.186 -2.0155  0.0586  0.8889
  113bbb     H5 2945   8.467   3.627   5.377  1.6909  0.1647 -0.5806
  113bbb     H6 2946   8.335   3.684   5.273 -0.0098 -1.5900  2.3485
  113bbb     H7 2947   8.431   3.970   4.988  0.7247 -0.1273  0.1473
  113bbb     H8 2948   8.560   4.085   4.948  1.7997  0.1165  0.4641
  113bbb     H9 2949   8.655   3.997   5.347  0.2777  0.1465 -2.8055
  113bbb    H10 2950   8.678   3.823   5.380 -0.7884 -0.2887  0.5434
  113bbb    H11 2951   8.587   3.929   5.571  0.3228 -0.3372  0.3556
  113bbb    H12 2952   8.458   3.832   5.506 -0.3093  1.2336 -0.6970
  113bbb    H13 2953   8.423   4.075   5.379 -0.6875 -0.0529  0.7349
  113bbb    H25 2954   8.432   3.907   5.244  0.2742  0.7852  1.8462
  114bbb     N1 2955   9.302   5.372   3.393  0.3652 -0.5125 -0.1395
  114bbb     C1 2956   9.409   5.377   3.497 -0.1603 -0.0869 -0.1569
  114bbb     C2 2957   9.313   5.246   3.306  0.0498 -0.5533  1.0747
  114bbb     C3 2958   9.394   5.282   3.620  0.2557  0.9278 -0.2343
  114bbb     C4 2959   9.264   5.325   3.696  0.3056 -0.1142 -0.7183
  114bbb     C5 2960   9.187   5.220   3.219 -0.0564  0.1236  0.4470
  114bbb     C6 2961   9.057   5.237   3.289 -0.1525 -1.0168 -0.6253
  114bbb     C7 2962   9.302   5.493   3.307  0.4606 -0.0914  0.3632
  114bbb     C8 2963   9.258   5.619   3.385 -0.1275  0.7021  0.2882
  114bbb     N2 2964   9.128   5.606   3.455 -0.4805 -0.3630 -0.4332
  114bbb     O1 2965   9.215   5.436   3.684  0.2130  0.0414 -0.1545
  114bbb     O2 2966   9.046   5.276   3.405 -0.1040  0.3024 -0.4710
  114bbb     H1 2967   9.508   5.365   3.454 -0.1649  2.8331 -1.1571
  114bbb     H2 2968   9.411   5.477   3.541 -0.1518 -0.5326  0.8789
  114bbb     H3 2969   9.340   5.159   3.366  0.6199  0.0141  1.6466
  114bbb     H4 2970   9.399   5.256   3.240 -1.5510 -0.4059 -1.1034
  114bbb     H5 2971   9.369   5.179   3.592 -0.1901  0.7983  0.6224
  114bbb     H6 2972   9.482   5.285   3.685 -0.1709 -0.7253  0.4802
  114bbb     H7 2973   9.192   5.120   3.173  0.3704  0.3191  0.0597
  114bbb     H8 2974   9.205   5.292   3.139 -2.0269  0.2899  0.1023
  114bbb     H9 2975   9.239   5.475   3.219  0.1044 -1.4222  0.8705
  114bbb    H10 2976   9.400   5.521   3.268 -0.1897  1.5236 -0.1844
  114bbb    H11 2977   9.247   5.693   3.304 -1.4727 -0.2384 -0.4316
  114bbb    H12 2978   9.338   5.651   3.453  1.1888  0.5792 -1.1356
  114bbb    H13 2979   9.136   5.552   3.541  0.8571  0.8721  0.2809
  114bbb    H25 2980   9.210   5.377   3.441 -2.5335 -1.6563 -4.9180
  115bbb     N1 2981   8.082   5.348   3.113 -0.0551  0.1537  0.0607
  115bbb     C1 2982   8.171   5.366   2.992 -0.0569 -0.3366  0.2583
  115bbb     C2 2983   7.962   5.262   3.080  0.5399  0.2409 -0.4238
  115bbb     C3 2984   8.114   5.421   2.858 -0.2915  0.3119 -0.3411
  115bbb     C4 2985   8.221   5.519   2.798  0.0295  0.1202 -0.3715
  115bbb     C5 2986   7.878   5.217   3.212 -0.8998  0.3416 -0.0846
  115bbb     C6 2987   7.732   5.204   3.179  0.3191  0.6772  0.1512
  115bbb     C7 2988   8.022   5.487   3.168 -0.7021 -0.3078 -0.5834
  115bbb     C8 2989   8.113   5.603   3.200  0.1194 -0.7426  0.3647
  115bbb     N2 2990   8.201   5.573   3.306  0.7159  0.1419 -0.7885
  115bbb     O1 2991   8.248   5.622   2.854 -0.1529 -0.7396 -0.4407
  115bbb     O2 2992   7.682   5.184   3.070  0.3181 -0.3703 -0.3004
  115bbb     H1 2993   8.246   5.438   3.024 -0.7400  0.3020  0.4714
  115bbb     H2 2994   8.210   5.265   2.981 -0.8421 -0.5163 -1.0337
  115bbb     H3 2995   7.984   5.175   3.018  0.1585 -0.1467 -0.0213
  115bbb     H4 2996   7.899   5.320   3.012 -2.4660 -1.3701  0.8057
  115bbb     H5 2997   8.092   5.343   2.784 -0.0167  1.5626 -1.7813
  115bbb     H6 2998   8.027   5.487   2.872  0.8686  2.0957 -1.1242
  115bbb     H7 2999   7.893   5.286   3.296  0.4342  1.0587 -0.8658
  115bbb     H8 3000   7.917   5.118   3.239 -1.0844  0.8580  2.2762
  115bbb     H9 3001   7.943   5.481   3.243  0.1533  0.8261  0.4382
  115bbb    H10 3002   7.969   5.515   3.077 -0.0194 -0.7630 -1.1319
  115bbb    H11 3003   8.049   5.688   3.229 -1.0494 -0.9667 -1.4072
  115bbb    H12 3004   8.173   5.630   3.112  0.9243 -1.3462  0.7155
  115bbb    H13 3005   8.190   5.483   3.352  0.0278  0.7390  0.2608
  115bbb    H25 3006   8.140   5.303   3.185 -1.3400 -0.1470  0.9418
  116bbb     N1 3007   9.909   4.828   4.547 -0.3756  0.0342  0.2877
  116bbb     C1 3008   9.878   4.809   4.400  0.8337 -0.1087  0.4436
  116bbb     C2 3009  10.061   4.812   4.577  0.1550 -0.2095 -0.5005
  116bbb     C3 3010   9.935   4.919   4.308  0.2247 -1.4212  0.4346
  116bbb     C4 3011   9.878   5.063   4.342  0.7098 -0.1053  0.3427
  116bbb     C5 3012  10.114   4.849   4.716 -0.0468  0.6905  0.3208
  116bbb     C6 3013  10.102   4.998   4.755 -0.5845 -0.1697 -0.2214
  116bbb     C7 3014   9.821   4.742   4.632  0.1056 -0.3440 -0.3373
  116bbb     C8 3015   9.672   4.782   4.628  0.0423  0.0545 -0.6218
  116bbb     N2 3016   9.641   4.920   4.682 -0.4978  0.0479 -0.2497
  116bbb     O1 3017   9.798   5.086   4.437  0.1331  0.1812 -0.2782
  116bbb     O2 3018  10.035   5.079   4.686 -0.4254 -0.5142  0.2237
  116bbb     H1 3019   9.907   4.708   4.371 -2.1277 -0.4851 -1.6477
  116bbb     H2 3020   9.770   4.815   4.385  0.9818 -0.1092 -0.7478
  116bbb     H3 3021  10.102   4.867   4.492 -0.3809 -1.6638 -1.7462
  116bbb     H4 3022  10.081   4.705   4.565  0.9690 -0.2239  0.8535
  116bbb     H5 3023  10.041   4.944   4.322  0.0413  0.3049 -0.8918
  116bbb     H6 3024   9.927   4.897   4.201  3.2856  0.9614 -0.4100
  116bbb     H7 3025  10.223   4.831   4.717 -0.1775 -0.1467  0.4845
  116bbb     H8 3026  10.066   4.789   4.795  2.6871 -0.3944  1.2874
  116bbb     H9 3027   9.857   4.745   4.735  0.5312 -2.1100 -0.3947
  116bbb    H10 3028   9.836   4.639   4.598 -0.2563 -0.4227 -0.2628
  116bbb    H11 3029   9.616   4.711   4.691 -0.8474  1.2644 -0.0044
  116bbb    H12 3030   9.639   4.772   4.524 -0.9303 -0.5745 -0.2592
  116bbb    H13 3031   9.680   4.966   4.763 -1.6187  2.6203 -1.0585
  116bbb    H25 3032   9.879   4.925   4.567  0.2100  0.5708 -1.3353
  117bbb     N1 3033   9.606   5.819   5.355 -0.3183 -0.1835 -0.3710
  117bbb     C1 3034   9.534   5.795   5.489 -0.1774  0.7713  0.4330
  117bbb     C2 3035   9.640   5.962   5.333  0.4284 -0.6428  0.1634
  117bbb     C3 3036   9.384   5.832   5.495 -0.5422 -0.5059 -0.0888
  117bbb     C4 3037   9.314   5.831   5.635  0.1893 -0.4793  0.4020
  117bbb     C5 3038   9.779   6.002   5.377 -0.3772  0.4019  0.0268
  117bbb     C6 3039   9.887   5.936   5.293  0.3621 -0.1352 -0.5314
  117bbb     C7 3040   9.529   5.749   5.241  0.6382 -0.2750 -0.0889
  117bbb     C8 3041   9.602   5.740   5.108  0.4276  0.0460  0.5761
  117bbb     N2 3042   9.522   5.682   5.000  0.1782  0.2244  0.0118
  117bbb     O1 3043   9.381   5.836   5.731 -0.2636 -0.2179  0.1884
  117bbb     O2 3044   9.882   5.924   5.172  0.9742  0.2006  0.2607
  117bbb     H1 3045   9.542   5.692   5.526 -0.9618  1.0498  1.4219
  117bbb     H2 3046   9.587   5.860   5.560  1.1825  0.9834 -0.7269
  117bbb     H3 3047   9.569   6.020   5.392  0.4439 -0.8484  0.3860
  117bbb     H4 3048   9.627   5.992   5.229 -1.4314  2.7004  1.2078
  117bbb     H5 3049   9.370   5.933   5.455 -2.0072 -1.6453 -2.6829
  117bbb     H6 3050   9.318   5.780   5.425  0.0949  1.2720 -2.1073
  117bbb     H7 3051   9.796   5.983   5.483  2.2144  4.4742  0.5483
  117bbb     H8 3052   9.781   6.112   5.381 -2.9396  0.5397 -0.8765
  117bbb     H9 3053   9.428   5.789   5.238  0.4173 -0.7512  0.8079
  117bbb    H10 3054   9.522   5.647   5.277 -1.3915  0.6341  2.4138
  117bbb    H11 3055   9.690   5.679   5.129  0.5143 -0.4477 -1.0893
  117bbb    H12 3056   9.624   5.844   5.079  3.8115 -0.7533 -0.1363
  117bbb    H13 3057   9.468   5.742   4.939 -0.7270 -0.6779 -0.1109
  117bbb    H25 3058   9.691   5.763   5.368  0.1906  0.6562  0.0410
  118bbb     N1 3059   7.863   6.506   6.680  0.1563  0.4282  0.5620
  118bbb     C1 3060   7.842   6.456   6.820  0.2318 -0.1210  1.1873
  118bbb     C2 3061   7.948   6.627   6.671 -0.9455  0.3472 -0.3852
  118bbb     C3 3062   7.824   6.552   6.939 -0.4655  0.2933  0.1249
  118bbb     C4 3063   7.857   6.478   7.074 -1.1936  0.1316 -0.5960
  118bbb     C5 3064   8.089   6.597   6.729 -0.0193 -0.1494  0.6244
  118bbb     C6 3065   8.148   6.731   6.770 -0.9652  0.3008 -0.3175
  118bbb     C7 3066   7.726   6.545   6.615 -0.2416 -0.0536  0.2060
  118bbb     C8 3067   7.717   6.589   6.466  0.0157 -0.2072 -0.9911
  118bbb     N2 3068   7.757   6.478   6.378 -0.9697  0.2078  0.1929
  118bbb     O1 3069   7.825   6.359   7.093 -0.8856 -0.0359 -0.3697
  118bbb     O2 3070   8.081   6.820   6.823 -0.1134 -0.2693 -0.2758
  118bbb     H1 3071   7.751   6.397   6.809 -0.1303  0.8485 -2.0014
  118bbb     H2 3072   7.917   6.382   6.847 -0.9920 -1.5364  0.8672
  118bbb     H3 3073   7.903   6.705   6.732  2.5288  1.4388  1.0809
  118bbb     H4 3074   7.964   6.663   6.569  0.0886 -0.0159 -0.3636
  118bbb     H5 3075   7.904   6.627   6.937 -1.0259  0.8840 -0.9231
  118bbb     H6 3076   7.718   6.578   6.950 -0.1020  0.8756  3.0366
  118bbb     H7 3077   8.146   6.540   6.655 -1.4143 -2.3326  1.1634
  118bbb     H8 3078   8.073   6.546   6.825  0.2581  2.6583  2.2830
  118bbb     H9 3079   7.691   6.625   6.680  4.5402 -0.0616  3.3625
  118bbb    H10 3080   7.659   6.461   6.630  0.5953 -0.6439  0.7563
  118bbb    H11 3081   7.793   6.667   6.454  0.1406 -0.6145 -3.3197
  118bbb    H12 3082   7.623   6.637   6.438  0.9607  1.6639 -1.1335
  118bbb    H13 3083   7.801   6.394   6.415 -2.7261 -1.7520 -1.8820
  118bbb    H25 3084   7.904   6.428   6.627 -2.1793  0.2045 -1.0681
  119bbb     N1 3085   8.400   5.753   5.791  1.5160  0.1575  0.1042
  119bbb     C1 3086   8.549   5.783   5.819  0.5304  0.1838  0.2115
  119bbb     C2 3087   8.388   5.603   5.779  0.3744 -0.3945  0.4276
  119bbb     C3 3088   8.586   5.748   5.965  0.6551 -0.3819 -0.2464
  119bbb     C4 3089   8.733   5.754   5.991  0.1030 -0.4734 -0.0017
  119bbb     C5 3090   8.250   5.538   5.746 -0.0219  0.6636  0.0087
  119bbb     C6 3091   8.252   5.386   5.766 -0.2221 -0.5785  0.7022
  119bbb     C7 3092   8.345   5.820   5.664 -0.6618  0.3799  0.2826
  119bbb     C8 3093   8.322   5.970   5.678 -0.4132  0.0318 -0.0610
  119bbb     N2 3094   8.196   5.991   5.752 -0.8740 -0.2878 -0.3301
  119bbb     O1 3095   8.816   5.779   5.906 -0.1602  0.5913 -0.2586
  119bbb     O2 3096   8.356   5.322   5.779  0.9368 -0.1078  0.3655
  119bbb     H1 3097   8.602   5.724   5.745 -1.4331  1.1972 -2.1208
  119bbb     H2 3098   8.564   5.890   5.806 -0.8798  0.0696 -3.3425
  119bbb     H3 3099   8.432   5.559   5.869  1.4767 -1.0623 -0.4025
  119bbb     H4 3100   8.459   5.572   5.702 -0.4922  1.9125 -1.4185
  119bbb     H5 3101   8.522   5.812   6.027  0.2422 -1.2196  0.2078
  119bbb     H6 3102   8.562   5.642   5.981 -2.0159 -0.2068 -2.2979
  119bbb     H7 3103   8.229   5.571   5.643 -0.2318  1.1063  0.1905
  119bbb     H8 3104   8.171   5.583   5.806 -0.1498 -0.2873  0.5714
  119bbb     H9 3105   8.251   5.771   5.641  0.1236 -2.0226  1.8332
  119bbb    H10 3106   8.417   5.798   5.585 -1.7739 -1.5274 -0.2384
  119bbb    H11 3107   8.310   6.017   5.580  0.7686  3.1389  1.1507
  119bbb    H12 3108   8.400   6.019   5.737  1.1014 -0.8627 -1.2549
  119bbb    H13 3109   8.154   5.909   5.795  1.0362 -1.0147  0.2354
  119bbb    H25 3110   8.340   5.790   5.866  0.9268  1.9573 -1.1876
  120bbb     N1 3111   5.886   4.862   5.631 -0.4123  0.0024  1.0120
  120bbb     C1 3112   5.842   4.873   5.485  0.3262  0.6399  0.1635
  120bbb     C2 3113   5.765   4.834   5.716  0.4113  0.7159 -0.1332
  120bbb     C3 3114   5.726   4.967   5.446  0.7858  0.1390 -0.1571
  120bbb     C4 3115   5.712   4.956   5.291 -0.0016  0.0861 -0.5442
  120bbb     C5 3116   5.785   4.760   5.851  0.2458 -0.1192 -0.1337
  120bbb     C6 3117   5.657   4.709   5.923 -0.0284  0.0867  0.0622
  120bbb     C7 3118   5.961   4.983   5.679 -0.3560 -0.0727 -0.1317
  120bbb     C8 3119   6.106   5.013   5.626  0.0542  0.3948 -0.6388
  120bbb     N2 3120   6.140   5.143   5.668 -0.2988  0.6768  0.3870
  120bbb     O1 3121   5.682   4.848   5.238  0.6793 -0.6759 -0.5456
  120bbb     O2 3122   5.542   4.725   5.878 -0.2675 -0.0198  0.0553
  120bbb     H1 3123   5.930   4.892   5.423  0.9356  0.3666  0.9255
  120bbb     H2 3124   5.816   4.771   5.458  1.4196  0.6632 -1.0922
  120bbb     H3 3125   5.705   4.774   5.648  0.8726  0.2801 -0.1570
  120bbb     H4 3126   5.716   4.931   5.727  0.9719  1.1963 -1.5838
  120bbb     H5 3127   5.632   4.928   5.488 -2.3626  3.5170 -3.3573
  120bbb     H6 3128   5.742   5.068   5.485  0.1288 -0.1673  0.9500
  120bbb     H7 3129   5.853   4.815   5.917  1.4188 -0.3292 -1.1253
  120bbb     H8 3130   5.842   4.673   5.815  0.8439 -0.4024  1.3992
  120bbb     H9 3131   5.963   4.975   5.788 -1.0264  0.1692 -0.0961
  120bbb    H10 3132   5.895   5.061   5.639 -0.2770  0.1873  0.2299
  120bbb    H11 3133   6.112   5.005   5.517 -0.3893 -1.0242 -0.5727
  120bbb    H12 3134   6.176   4.945   5.675 -1.4220  0.7182  2.0820
  120bbb    H13 3135   6.058   5.202   5.675 -2.4322 -1.4967 -2.9926
  120bbb    H25 3136   5.957   4.788   5.644  0.2298  0.6377  1.2104
  121bbb     N1 3137   6.012   6.180   5.916  0.3371  0.3792 -0.1914
  121bbb     C1 3138   5.935   6.278   5.828 -0.3035 -0.2534 -0.3023
  121bbb     C2 3139   6.094   6.259   6.021 -0.1412  0.8229 -0.5880
  121bbb     C3 3140   5.812   6.224   5.747 -0.6102  0.4834  0.2930
  121bbb     C4 3141   5.732   6.334   5.684  0.0430 -0.1738 -0.1098
  121bbb     C5 3142   6.209   6.352   5.989  0.0452  0.1345  0.0779
  121bbb     C6 3143   6.328   6.279   5.928 -0.5618  0.8086 -0.3270
  121bbb     C7 3144   6.087   6.081   5.830 -0.2586 -1.0842  0.0797
  121bbb     C8 3145   6.100   5.944   5.896  0.2233 -0.1229 -0.3870
  121bbb     N2 3146   6.178   5.851   5.810 -0.4795  0.2181 -0.4630
  121bbb     O1 3147   5.754   6.451   5.713 -0.5302 -0.0084 -0.3887
  121bbb     O2 3148   6.350   6.166   5.970 -0.3449 -0.1159 -0.0389
  121bbb     H1 3149   5.901   6.357   5.895  1.4771 -0.2353  0.6344
  121bbb     H2 3150   6.010   6.314   5.758  0.7989 -3.4749 -0.9624
  121bbb     H3 3151   6.123   6.185   6.095 -2.7338 -1.4705 -1.6834
  121bbb     H4 3152   6.020   6.326   6.067  1.3550  1.4743  0.9663
  121bbb     H5 3153   5.844   6.152   5.670 -0.4991 -0.9553  1.6165
  121bbb     H6 3154   5.740   6.170   5.811  1.3500 -0.5905  1.7051
  121bbb     H7 3155   6.241   6.409   6.077  1.7032 -3.3274  1.9429
  121bbb     H8 3156   6.168   6.426   5.919 -1.5938 -0.9640 -0.1744
  121bbb     H9 3157   6.176   6.136   5.799 -3.0288  3.5758 -0.7120
  121bbb    H10 3158   6.024   6.063   5.743 -0.1821 -1.0642  0.0202
  121bbb    H11 3159   6.001   5.900   5.911 -0.4141  1.1191 -0.7608
  121bbb    H12 3160   6.144   5.948   5.997 -1.8939  0.5110  0.5721
  121bbb    H13 3161   6.146   5.818   5.720  3.5634 -1.7808 -1.4061
  121bbb    H25 3162   5.941   6.122   5.964  2.3108 -1.1382  1.0500
  122bbb     N1 3163   7.123   6.297   6.482 -0.2142 -1.0154 -0.9759
  122bbb     C1 3164   7.027   6.266   6.366  0.0471 -0.6437  0.1522
  122bbb     C2 3165   7.118   6.187   6.583  0.3912 -0.1921 -0.4298
  122bbb     C3 3166   6.878   6.253   6.393 -0.1060 -0.4511  0.1042
  122bbb     C4 3167   6.785   6.236   6.274 -0.2432  0.8054 -0.7860
  122bbb     C5 3168   7.223   6.199   6.702  0.2545  0.0726  0.4059
  122bbb     C6 3169   7.224   6.097   6.816  0.4341 -0.3063 -0.2148
  122bbb     C7 3170   7.085   6.434   6.537 -0.1543  0.1179  0.1440
  122bbb     C8 3171   7.069   6.543   6.431 -0.2185  0.4537  0.3588
  122bbb     N2 3172   7.198   6.565   6.360 -0.4161  0.0093  0.5963
  122bbb     O1 3173   6.819   6.264   6.162 -0.2165 -0.1852 -0.4106
  122bbb     O2 3174   7.185   5.980   6.801  0.8601 -0.1685 -0.1712
  122bbb     H1 3175   7.044   6.338   6.286  1.3189 -1.9458 -0.8141
  122bbb     H2 3176   7.072   6.174   6.328  1.1554 -0.6043  1.3293
  122bbb     H3 3177   7.136   6.096   6.526  2.5809  0.4097 -0.7824
  122bbb     H4 3178   7.015   6.178   6.621  1.3926 -0.5690  2.4755
  122bbb     H5 3179   6.861   6.168   6.459  0.8058 -2.3101 -1.9414
  122bbb     H6 3180   6.842   6.351   6.426  0.0358 -0.0886 -0.7823
  122bbb     H7 3181   7.207   6.297   6.749 -0.8127 -0.1497  0.5466
  122bbb     H8 3182   7.318   6.204   6.648 -0.7557 -0.0993 -1.5052
  122bbb     H9 3183   7.168   6.456   6.606 -0.9759  0.5496  1.0180
  122bbb    H10 3184   6.990   6.431   6.590 -1.0859  0.0808 -1.4637
  122bbb    H11 3185   7.049   6.635   6.487  0.8760  0.2522  1.1265
  122bbb    H12 3186   6.984   6.523   6.366  0.0133  0.7128 -0.0238
  122bbb    H13 3187   7.267   6.492   6.367  0.6739  0.9094 -0.3536
  122bbb    H25 3188   7.220   6.304   6.447  0.5305  0.7985  1.1382
  123bbb     N1 3189   8.134   6.995   5.721 -0.7095 -0.1215  0.0874
  123bbb     C1 3190   8.205   6.934   5.596 -0.3650  0.5730 -0.4181
  123bbb     C2 3191   8.174   7.143   5.738 -0.9163 -0.7595 -0.9371
  123bbb     C3 3192   8.173   6.986   5.458  0.3144  0.1061  0.5529
  123bbb     C4 3193   8.221   7.128   5.425 -0.2160 -0.5928 -0.4218
  123bbb     C5 3194   8.322   7.181   5.764 -0.4521 -0.4002 -0.0273
  123bbb     C6 3195   8.342   7.330   5.774 -0.9683 -1.1538 -0.4331
  123bbb     C7 3196   8.172   6.906   5.842 -0.1147  0.2617  0.3765
  123bbb     C8 3197   8.073   6.926   5.953  0.4593 -0.0292  0.2168
  123bbb     N2 3198   7.940   6.869   5.922  0.9906  0.3429  0.0846
  123bbb     O1 3199   8.147   7.223   5.417  0.7690 -0.5881  1.1596
  123bbb     O2 3200   8.312   7.405   5.686  0.8717 -0.1657 -0.1925
  123bbb     H1 3201   8.314   6.941   5.602 -0.0457 -2.1233 -1.6141
  123bbb     H2 3202   8.179   6.829   5.595  1.5920 -0.0767 -4.5822
  123bbb     H3 3203   8.119   7.176   5.827  1.1935  2.0979 -0.5608
  123bbb     H4 3204   8.133   7.201   5.655 -2.4911  1.7989  1.4324
  123bbb     H5 3205   8.222   6.917   5.388 -0.1110  1.1675 -0.8572
  123bbb     H6 3206   8.067   6.976   5.432 -0.0708 -1.4600  2.5642
  123bbb     H7 3207   8.384   7.146   5.681 -1.3542  1.5167 -1.5772
  123bbb     H8 3208   8.357   7.132   5.856  0.1687 -1.7544 -0.9486
  123bbb     H9 3209   8.274   6.934   5.869 -0.0760 -1.4056  2.2841
  123bbb    H10 3210   8.183   6.803   5.806  0.9292  1.3597 -2.6949
  123bbb    H11 3211   8.063   7.034   5.969 -3.4669 -0.3410  1.0220
  123bbb    H12 3212   8.108   6.878   6.045 -2.1622 -2.1942  0.2327
  123bbb    H13 3213   7.925   6.826   5.832 -0.5213 -0.7512  0.8194
  123bbb    H25 3214   8.033   6.998   5.705 -0.5278 -0.8978 -1.3335
  124bbb     N1 3215   6.037   7.241   6.271  0.2511  0.1468 -0.0058
  124bbb     C1 3216   6.051   7.091   6.312  0.0463 -0.3051  0.4985
  124bbb     C2 3217   5.899   7.284   6.306  0.0959 -0.2880  0.1455
  124bbb     C3 3218   6.064   7.068   6.463  0.6719  0.5004 -0.1606
  124bbb     C4 3219   6.200   7.111   6.519 -0.2802  0.0658  0.1667
  124bbb     C5 3220   5.865   7.438   6.297 -0.1095 -0.2840 -0.6023
  124bbb     C6 3221   5.723   7.480   6.333  0.7451 -0.0688  0.1106
  124bbb     C7 3222   6.062   7.260   6.124  0.7504  0.3051  0.3123
  124bbb     C8 3223   5.957   7.221   6.025  0.0169 -0.2969 -0.4770
  124bbb     N2 3224   5.996   7.237   5.883 -0.4030  0.1350 -0.6350
  124bbb     O1 3225   6.263   7.209   6.476  0.5186  0.5146 -0.0078
  124bbb     O2 3226   5.630   7.407   6.319 -0.1566 -0.0157  0.8241
  124bbb     H1 3227   5.957   7.044   6.283 -2.1729  2.5759  2.3974
  124bbb     H2 3228   6.137   7.040   6.269 -0.5477 -1.3123  0.4806
  124bbb     H3 3229   5.896   7.249   6.410  0.1788 -3.5173 -0.8289
  124bbb     H4 3230   5.827   7.230   6.245 -2.4748  0.7137  2.1193
  124bbb     H5 3231   5.985   7.122   6.516 -0.9149  0.4460 -2.3731
  124bbb     H6 3232   6.058   6.963   6.493  0.0585  0.3058 -0.9358
  124bbb     H7 3233   5.904   7.486   6.206 -0.7562  2.1377  0.3239
  124bbb     H8 3234   5.924   7.477   6.380 -2.8141 -1.4845  2.0680
  124bbb     H9 3235   6.149   7.197   6.105 -0.1526 -0.1811 -2.9084
  124bbb    H10 3236   6.099   7.361   6.107  0.6218  0.3772  0.4598
  124bbb    H11 3237   5.859   7.261   6.055  0.7123  0.0309  1.4890
  124bbb    H12 3238   5.926   7.118   6.046 -0.3318 -0.3028 -1.0101
  124bbb    H13 3239   5.960   7.315   5.829  0.2589  0.1399 -1.0771
  124bbb    H25 3240   6.105   7.301   6.319  0.7499 -0.6338  0.2719
  125bbb     N1 3241   5.756   7.335   4.771  0.5317 -0.8516 -0.3784
  125bbb     C1 3242   5.754   7.222   4.674  0.5029 -0.5047  0.0998
  125bbb     C2 3243   5.737   7.473   4.710  0.2476 -0.2196 -0.9008
  125bbb     C3 3244   5.621   7.203   4.588 -0.9301  0.1873  0.7992
  125bbb     C4 3245   5.631   7.079   4.498  0.1573 -0.5457  0.6772
  125bbb     C5 3246   5.729   7.601   4.798  0.1265  0.2922 -0.4261
  125bbb     C6 3247   5.733   7.732   4.731 -0.2877 -1.1486 -0.3056
  125bbb     C7 3248   5.879   7.331   4.851 -0.7808  0.8507  0.2584
  125bbb     C8 3249   5.896   7.197   4.930  0.7888  0.7770 -0.1923
  125bbb     N2 3250   6.011   7.195   5.020  0.2912 -0.0734 -0.4944
  125bbb     O1 3251   5.564   6.977   4.510 -0.0689  0.0867 -0.1191
  125bbb     O2 3252   5.755   7.745   4.610  0.3401 -0.1802  0.2349
  125bbb     H1 3253   5.838   7.231   4.605  0.4400  1.5216  0.2465
  125bbb     H2 3254   5.765   7.131   4.733  0.7069  0.1726  1.1302
  125bbb     H3 3255   5.650   7.469   4.645 -1.2965 -1.1938  1.0942
  125bbb     H4 3256   5.831   7.471   4.655  0.8446  1.3319 -0.0087
  125bbb     H5 3257   5.532   7.186   4.649 -0.9327  0.9898  1.0320
  125bbb     H6 3258   5.605   7.291   4.524 -0.5358  0.6712  1.3430
  125bbb     H7 3259   5.815   7.600   4.866 -0.3904  2.3469  0.3375
  125bbb     H8 3260   5.636   7.593   4.856  0.1763  1.3772 -0.1835
  125bbb     H9 3261   5.905   7.413   4.919 -0.6757 -0.8224  2.3589
  125bbb    H10 3262   5.963   7.335   4.782 -1.6713  1.8120 -0.8036
  125bbb    H11 3263   5.912   7.107   4.870 -0.1879  0.1767  0.4161
  125bbb    H12 3264   5.801   7.185   4.984  1.1933  0.4737  0.4575
  125bbb    H13 3265   6.075   7.272   5.007  0.0253  0.2866  0.2873
  125bbb    H25 3266   5.682   7.316   4.841  1.6926 -1.9924  0.5912
  126ccc     N1 3267   5.330   4.502   4.948 -0.7894 -1.0745 -0.0525
  126ccc     H1 3268   5.396   4.566   4.904  0.1800 -0.1439  2.5595
  126ccc     C1 3269   5.363   4.379   5.022  0.4818 -0.5488 -0.5815
  126ccc     H2 3270   5.285   4.385   5.099  1.5821  0.8535  0.4691
  126ccc     C2 3271   5.494   4.382   5.107  0.3850 -0.1859  0.0622
  126ccc     H3 3272   5.346   4.288   4.962 -0.2848 -1.4811  1.0027
  126ccc     H4 3273   5.573   4.329   5.054 -1.3366 -4.1188  1.1209
  126ccc     H5 3274   5.473   4.328   5.199  0.3587 -0.4614 -0.1045
  126ccc     N2 3275   5.545   4.522   5.155  0.3106  0.0589 -0.5459
  126ccc     C3 3276   5.694   4.523   5.191  0.4714 -1.2242  0.0341
  126ccc     C4 3277   5.458   4.586   5.271 -0.2074  0.3344  0.3908
  126ccc     H6 3278   5.496   4.680   5.311 -1.1005 -0.5306  3.5235
  126ccc     C5 3279   5.456   4.499   5.400 -0.2980  0.1294  0.5753
  126ccc     H7 3280   5.359   4.607   5.230  1.2025  2.4377 -2.2812
  126ccc     H8 3281   5.485   4.394   5.384  0.4215  0.3803  0.1965
  126ccc     H9 3282   5.351   4.489   5.429 -1.0810 -0.7783 -2.1911
  126ccc     C6 3283   5.549   4.548   5.507 -0.2070  0.4029 -0.3399
  126ccc     O1 3284   5.547   4.488   5.629 -0.1778 -0.1346  0.7421
  126ccc     O2 3285   5.625   4.640   5.477  0.7034  0.8111 -0.2818
  126ccc    H10 3286   5.733   4.433   5.239 -2.0658 -1.7582  1.2719
  126ccc    H11 3287   5.706   4.605   5.261 -0.0463 -0.9956 -0.1404
  126ccc     C7 3288   5.781   4.554   5.075 -0.3348 -0.9967 -1.0415
  126ccc    H12 3289   5.752   4.643   5.019  2.3555  1.5205  1.2319
  126ccc    H13 3290   5.776   4.472   5.002  0.6657 -2.1957  0.1651
  126ccc     C8 3291   5.925   4.567   5.123  0.5239 -0.7621  0.4107
  126ccc     O3 3292   5.980   4.555   5.226  0.2068  0.6565 -1.0490
  126ccc     O4 3293   6.007   4.552   5.017  0.6600  0.8957 -0.4653
  126ccc    H14 3294   5.492   4.409   5.616 -0.4540 -0.1898  2.1539
  126ccc    H15 3295   6.096   4.551   5.055 -0.0625  3.6631  1.6032
  126ccc    H16 3296   5.528   4.588   5.077 -1.0978 -0.4356 -0.6940
  127ccc     N1 3297   4.725   4.818   4.355  0.3347 -0.1766  0.2028
  127ccc     H1 3298   4.784   4.886   4.401 -0.8682 -0.3598  2.1056
  127ccc     C1 3299   4.625   4.861   4.248 -0.1152 -0.6762 -0.2572
  127ccc     H2 3300   4.526   4.821   4.276 -0.4725  0.7430  0.6260
  127ccc     C2 3301   4.646   4.801   4.109  0.1491  0.0450  0.2005
  127ccc     H3 3302   4.615   4.970   4.248 -1.1571 -0.7269 -1.8434
  127ccc     H4 3303   4.594   4.866   4.038  1.6006  0.3817 -0.5995
  127ccc     H5 3304   4.606   4.700   4.112  0.1456  0.0762  1.4809
  127ccc     N2 3305   4.790   4.793   4.065  0.4448 -0.2870 -0.6392
  127ccc     C3 3306   4.866   4.923   4.081 -0.2919 -0.2034  0.5615
  127ccc     C4 3307   4.795   4.746   3.922 -0.3566  0.2973 -0.1278
  127ccc     H6 3308   4.741   4.818   3.861 -0.2867  0.5120  0.0611
  127ccc     C5 3309   4.750   4.602   3.905 -0.0755  0.0701 -0.5180
  127ccc     H7 3310   4.901   4.748   3.896  0.2868  1.0831  2.2534
  127ccc     H8 3311   4.642   4.609   3.921  0.2706  1.8178  1.6130
  127ccc     H9 3312   4.802   4.537   3.977  1.1914 -0.1519 -1.6106
  127ccc     C6 3313   4.766   4.548   3.767 -0.3802 -1.0240 -0.4789
  127ccc     O1 3314   4.664   4.467   3.729 -0.2689 -0.9076  0.3606
  127ccc     O2 3315   4.850   4.578   3.693  0.0069 -0.1273 -0.0619
  127ccc    H10 3316   4.964   4.893   4.044 -0.9920 -1.0906 -0.6292
  127ccc    H11 3317   4.868   4.946   4.188  1.4940  0.8096  0.3502
  127ccc     C7 3318   4.807   5.054   4.025 -0.3084 -0.0085  0.4168
  127ccc    H12 3319   4.708   5.085   4.062 -0.0097  2.3982 -0.5879
  127ccc    H13 3320   4.798   5.057   3.916 -0.0581  2.1312  0.4087
  127ccc     C8 3321   4.903   5.167   4.058  0.3616  0.8527 -0.5115
  127ccc     O3 3322   5.026   5.163   4.055  0.1026 -0.0793 -0.0727
  127ccc     O4 3323   4.843   5.284   4.068  0.5332 -0.3171 -0.2321
  127ccc    H14 3324   4.686   4.456   3.635  1.2475 -1.4173  0.7484
  127ccc    H15 3325   4.751   5.267   4.042  1.3026 -0.4194 -3.1732
  127ccc    H16 3326   4.836   4.726   4.128  0.8715 -1.9307 -2.6028
  128ccc     N1 3327   4.165   5.527   3.749 -0.4027 -0.0809 -0.5718
  128ccc     H1 3328   4.259   5.552   3.778 -0.8447 -0.2430  1.0907
  128ccc     C1 3329   4.097   5.574   3.630 -0.0867 -0.3670 -0.2551
  128ccc     H2 3330   4.158   5.559   3.540  0.5809 -0.0095  0.1294
  128ccc     C2 3331   4.065   5.722   3.643  0.1537  0.0441 -0.0236
  128ccc     H3 3332   4.004   5.520   3.606  0.6099 -0.4181 -3.2349
  128ccc     H4 3333   4.164   5.768   3.639  0.0914  0.1245 -1.4661
  128ccc     H5 3334   4.015   5.751   3.735 -2.3822  1.6731 -1.7605
  128ccc     N2 3335   3.977   5.774   3.526  0.8816 -0.3039 -0.2459
  128ccc     C3 3336   3.970   5.928   3.530  0.1253 -0.6891 -0.1793
  128ccc     C4 3337   3.835   5.720   3.530 -0.0329  0.5044 -0.5971
  128ccc     H6 3338   3.793   5.753   3.435 -0.2746 -2.5947 -1.6862
  128ccc     C5 3339   3.742   5.770   3.645 -0.1766 -0.2351 -0.3947
  128ccc     H7 3340   3.839   5.611   3.527  0.1449  0.1233  4.4006
  128ccc     H8 3341   3.727   5.879   3.649 -0.4983 -0.2917 -0.0075
  128ccc     H9 3342   3.788   5.735   3.738  0.9730 -0.0948 -0.8826
  128ccc     C6 3343   3.602   5.714   3.640 -0.4073  0.1970  0.0959
  128ccc     O1 3344   3.595   5.589   3.672 -0.0288  0.0528 -0.3653
  128ccc     O2 3345   3.512   5.761   3.572 -0.5428 -0.1328  0.0710
  128ccc    H10 3346   3.942   5.966   3.628  0.6357  0.4805 -0.4712
  128ccc    H11 3347   3.892   5.962   3.461 -1.4170 -2.4145  0.6414
  128ccc     C7 3348   4.096   6.010   3.490 -0.0094 -0.7032  0.2755
  128ccc    H12 3349   4.141   5.975   3.396  1.2347 -0.5648  0.7934
  128ccc    H13 3350   4.177   5.997   3.564 -1.0078  1.5318  1.8497
  128ccc     C8 3351   4.058   6.154   3.468 -0.2900  0.0903 -0.8800
  128ccc     O3 3352   3.947   6.180   3.424 -0.8696  0.7350  0.5469
  128ccc     O4 3353   4.158   6.238   3.438  0.6888  0.6934  0.3172
  128ccc    H14 3354   3.509   5.569   3.632  1.5066  0.3787 -4.2452
  128ccc    H15 3355   4.232   6.202   3.490  0.2175 -0.2226  0.3620
  128ccc    H16 3356   4.009   5.750   3.431 -2.3448 -0.6444 -1.3657
  129ccc     N1 3357   3.830   5.135   4.422 -0.5478 -0.2156 -0.1630
  129ccc     H1 3358   3.816   5.124   4.323 -0.3126  0.6563 -0.2970
  129ccc     C1 3359   3.716   5.124   4.514  0.1524  0.3898 -0.0972
  129ccc     H2 3360   3.708   5.218   4.570  0.9560  0.0939  0.5378
  129ccc     C2 3361   3.735   5.009   4.612  0.6313 -0.4253  0.0634
  129ccc     H3 3362   3.629   5.107   4.450  0.6038  1.2336 -0.9729
  129ccc     H4 3363   3.642   5.008   4.670  0.4491 -0.0476 -0.2193
  129ccc     H5 3364   3.811   5.031   4.687 -0.1327 -3.2394  1.8473
  129ccc     N2 3365   3.768   4.876   4.550 -0.1670  0.2643 -0.0274
  129ccc     C3 3366   3.677   4.841   4.433  0.2599 -0.1426  0.3820
  129ccc     C4 3367   3.757   4.767   4.655 -0.5731  0.6221  0.4104
  129ccc     H6 3368   3.651   4.763   4.679 -0.2303  2.6697  2.6599
  129ccc     C5 3369   3.844   4.790   4.779  0.1946  0.4519 -0.1191
  129ccc     H7 3370   3.787   4.671   4.613 -0.5488  0.6610  0.3381
  129ccc     H8 3371   3.778   4.842   4.849 -0.6080  0.0236 -0.5431
  129ccc     H9 3372   3.923   4.862   4.753  3.0434 -2.2259  0.4815
  129ccc     C6 3373   3.897   4.660   4.840 -0.9632 -0.5993  0.3364
  129ccc     O1 3374   3.976   4.683   4.946 -0.7101 -0.1794 -0.3603
  129ccc     O2 3375   3.831   4.563   4.832 -0.2174 -0.6827 -0.5942
  129ccc    H10 3376   3.688   4.910   4.349  0.4456 -0.5031  0.1072
  129ccc    H11 3377   3.572   4.831   4.461  0.1261 -2.0986 -0.6481
  129ccc     C7 3378   3.709   4.699   4.373 -0.7092 -0.4932 -0.0717
  129ccc    H12 3379   3.691   4.618   4.446  0.2725 -1.3291 -0.7319
  129ccc    H13 3380   3.811   4.691   4.336  0.6100  4.6023  1.7245
  129ccc     C8 3381   3.611   4.674   4.258 -0.4936  0.4141 -0.3693
  129ccc     O3 3382   3.520   4.591   4.267  0.6883 -0.2607  0.0638
  129ccc     O4 3383   3.622   4.765   4.166 -0.0699  0.4239  0.3636
  129ccc    H14 3384   3.997   4.778   4.942 -1.0726 -0.1193 -1.1185
  129ccc    H15 3385   3.550   4.737   4.108 -0.3574  3.8204 -1.1879
  129ccc    H16 3386   3.865   4.873   4.514  0.5116  0.2611  1.6777
  130ccc     N1 3387   4.743   3.794   2.837 -0.3098 -0.2242 -0.0027
  130ccc     H1 3388   4.716   3.718   2.897 -3.2718  0.6354 -0.1239
  130ccc     C1 3389   4.714   3.786   2.691  0.3319 -0.6394 -0.5826
  130ccc     H2 3390   4.641   3.864   2.665  0.0286 -1.0789 -1.0835
  130ccc     C2 3391   4.652   3.651   2.659  0.0088  0.1598  0.4133
  130ccc     H3 3392   4.804   3.814   2.635 -0.7168  2.2712 -0.9509
  130ccc     H4 3393   4.715   3.566   2.686 -2.8331 -2.0869  0.4267
  130ccc     H5 3394   4.645   3.662   2.550 -3.2464  3.6551  0.7715
  130ccc     N2 3395   4.517   3.631   2.731 -0.0156 -0.6551 -0.3757
  130ccc     C3 3396   4.451   3.506   2.689 -0.1082  0.5910  0.3814
  130ccc     C4 3397   4.420   3.750   2.720  0.4442  0.1989  0.2631
  130ccc     H6 3398   4.336   3.736   2.787 -1.0907  0.6479 -1.4915
  130ccc     C5 3399   4.347   3.766   2.581  0.7083  0.4243 -0.4212
  130ccc     H7 3400   4.457   3.843   2.765  1.0037  0.2471 -0.2780
  130ccc     H8 3401   4.297   3.673   2.553  1.3939 -0.8465  2.2581
  130ccc     H9 3402   4.432   3.772   2.512  1.8279  1.3394  0.9662
  130ccc     C6 3403   4.272   3.895   2.561 -0.3183 -0.4546  0.2121
  130ccc     O1 3404   4.171   3.888   2.483  0.3985  0.2296 -0.4958
  130ccc     O2 3405   4.299   3.996   2.634  0.2629  0.0865  0.4402
  130ccc    H10 3406   4.526   3.427   2.690 -1.7269 -1.0106  1.2520
  130ccc    H11 3407   4.410   3.520   2.589 -1.4107  1.9317  1.0694
  130ccc     C7 3408   4.334   3.459   2.778 -0.2193 -0.2777 -0.2939
  130ccc    H12 3409   4.239   3.501   2.742  0.2963  0.2888 -1.0291
  130ccc    H13 3410   4.354   3.483   2.883  0.9370  1.5719 -0.8815
  130ccc     C8 3411   4.310   3.311   2.762 -0.3613 -0.0701 -0.6662
  130ccc     O3 3412   4.351   3.241   2.675 -0.5669 -0.6188  0.3963
  130ccc     O4 3413   4.255   3.254   2.864 -0.3585 -0.3292 -0.3499
  130ccc    H14 3414   4.184   3.810   2.427  1.3258  1.5190 -2.1947
  130ccc    H15 3415   4.256   3.161   2.835 -1.5597 -0.0860 -1.2555
  130ccc    H16 3416   4.536   3.632   2.832 -0.7421 -1.8959 -0.2076
  131ccc     N1 3417   5.273   4.173   2.442  0.3518  0.1881  0.7524
  131ccc     H1 3418   5.354   4.214   2.485  0.7746  1.0891 -0.8315
  131ccc     C1 3419   5.287   4.098   2.311  0.0721 -0.9480 -0.6051
  131ccc     H2 3420   5.231   4.004   2.318 -0.4161 -0.8638 -2.7172
  131ccc     C2 3421   5.436   4.081   2.273  0.7434 -0.0458  0.4675
  131ccc     H3 3422   5.243   4.156   2.229  1.0646  0.6295 -0.0589
  131ccc     H4 3423   5.476   4.175   2.235  3.4931 -2.3226 -2.8060
  131ccc     H5 3424   5.442   4.025   2.180  1.9192 -0.6406  0.8856
  131ccc     N2 3425   5.534   4.023   2.376  0.2269 -0.3551  0.8471
  131ccc     C3 3426   5.681   4.067   2.337  0.1962  0.5578 -0.2285
  131ccc     C4 3427   5.524   3.869   2.396 -0.3044 -0.1655  0.1311
  131ccc     H6 3428   5.548   3.821   2.301  0.8534  0.4676  0.0784
  131ccc     C5 3429   5.384   3.820   2.441  0.1071 -0.0510 -0.1091
  131ccc     H7 3430   5.595   3.846   2.475  1.1642 -1.2777 -1.4529
  131ccc     H8 3431   5.313   3.831   2.358  0.4848  0.1581 -0.4064
  131ccc     H9 3432   5.349   3.874   2.529  0.6033 -1.2611  0.8587
  131ccc     C6 3433   5.404   3.670   2.487 -0.0945 -0.0505 -0.0669
  131ccc     O1 3434   5.292   3.598   2.525 -0.2293  0.0080  0.5981
  131ccc     O2 3435   5.511   3.612   2.478  0.7812 -0.5565  0.1236
  131ccc    H10 3436   5.685   4.174   2.321 -0.0874  0.6413  0.2285
  131ccc    H11 3437   5.701   4.035   2.234 -0.6232  0.5539 -0.3975
  131ccc     C7 3438   5.790   4.026   2.440  0.4314  0.5921 -0.0441
  131ccc    H12 3439   5.803   3.918   2.424  0.6207  0.5978  0.0764
  131ccc    H13 3440   5.752   4.049   2.540  0.6638  0.8930 -0.0250
  131ccc     C8 3441   5.927   4.088   2.413  0.2646  0.5826 -0.5535
  131ccc     O3 3442   5.955   4.173   2.329 -0.1802 -0.8464  0.3217
  131ccc     O4 3443   6.031   4.020   2.460  0.3844  0.1051 -0.1832
  131ccc    H14 3444   5.227   3.669   2.534  0.4506  0.5137  1.6167
  131ccc    H15 3445   6.103   4.071   2.420 -0.1965  1.3260  0.2802
  131ccc    H16 3446   5.523   4.063   2.471  3.2931 -0.4435  1.3389
  132ccc     N1 3447   4.865   4.165   4.593  0.2651 -0.2227 -0.1247
  132ccc     H1 3448   4.852   4.069   4.562  0.9670 -0.5244  0.4863
  132ccc     C1 3449   4.856   4.188   4.737 -0.0713 -0.4076 -0.1243
  132ccc     H2 3450   4.816   4.096   4.782 -3.1117  1.0456  0.3309
  132ccc     C2 3451   4.766   4.307   4.768 -0.0798  0.8133 -0.6016
  132ccc     H3 3452   4.952   4.220   4.779 -0.6986 -0.3817  1.3368
  132ccc     H4 3453   4.791   4.393   4.705  0.5319  0.9368 -0.1937
  132ccc     H5 3454   4.779   4.332   4.873 -1.2371 -0.9813  0.0103
  132ccc     N2 3455   4.613   4.267   4.757 -0.0232 -0.0197  0.3118
  132ccc     C3 3456   4.525   4.390   4.749 -0.6459  0.4566  0.1915
  132ccc     C4 3457   4.568   4.176   4.868 -0.0977 -0.2261  0.4591
  132ccc     H6 3458   4.473   4.133   4.836  0.8810  0.1950 -3.5537
  132ccc     C5 3459   4.561   4.242   5.009 -0.1422  0.3376 -0.6445
  132ccc     H7 3460   4.642   4.096   4.865  0.7537  0.5211  1.0017
  132ccc     H8 3461   4.502   4.333   5.001 -0.2876  0.2296 -0.8214
  132ccc     H9 3462   4.664   4.267   5.037 -0.7896  0.8305  1.4354
  132ccc     C6 3463   4.500   4.147   5.106  0.0247 -0.3356  0.4838
  132ccc     O1 3464   4.511   4.166   5.238 -0.1634  0.1489  0.5574
  132ccc     O2 3465   4.420   4.065   5.071  0.0782  0.1495 -0.7770
  132ccc    H10 3466   4.568   4.460   4.677 -1.9846  2.1587  0.9734
  132ccc    H11 3467   4.540   4.448   4.840  1.6913  2.3879 -1.3221
  132ccc     C7 3468   4.375   4.358   4.732  0.0123 -0.0544  0.5385
  132ccc    H12 3469   4.324   4.294   4.805  2.2703  0.3182  2.5775
  132ccc    H13 3470   4.363   4.311   4.634  3.3558 -1.3254  0.6025
  132ccc     C8 3471   4.298   4.480   4.744  0.8131 -0.6579  0.8774
  132ccc     O3 3472   4.343   4.583   4.790 -0.5576  0.0152  0.1097
  132ccc     O4 3473   4.182   4.487   4.674 -0.2556 -0.2846  0.8395
  132ccc    H14 3474   4.566   4.246   5.249 -0.6199  0.2785  2.2238
  132ccc    H15 3475   4.162   4.402   4.632  1.1121  0.5805 -1.8800
  132ccc    H16 3476   4.606   4.217   4.668  1.8972 -0.4595  0.3541
  133ccc     N1 3477   4.900   4.136   3.668  0.2061 -0.4748  0.6484
  133ccc     H1 3478   4.875   4.037   3.665  0.5087 -0.5386 -0.0266
  133ccc     C1 3479   4.914   4.203   3.537  0.3543  0.5362 -0.3758
  133ccc     H2 3480   4.822   4.256   3.511  0.1680 -0.0481 -0.9165
  133ccc     C2 3481   4.935   4.095   3.424  0.2511 -0.5539 -0.1454
  133ccc     H3 3482   5.000   4.271   3.536  0.2820  0.6986  1.4186
  133ccc     H4 3483   5.033   4.052   3.444  0.5476  1.2959  3.0660
  133ccc     H5 3484   4.951   4.144   3.328 -0.4409 -2.1135 -1.0894
  133ccc     N2 3485   4.824   3.991   3.400  0.2291 -0.0230  0.2030
  133ccc     C3 3486   4.876   3.881   3.311 -0.1914  0.5477 -0.1615
  133ccc     C4 3487   4.706   4.057   3.327 -0.1598 -0.2868 -0.1002
  133ccc     H6 3488   4.697   4.159   3.367 -1.5544  0.2701 -1.7272
  133ccc     C5 3489   4.569   3.992   3.349  0.1581 -0.3550 -0.3048
  133ccc     H7 3490   4.733   4.056   3.221 -1.4019 -1.8419 -0.4425
  133ccc     H8 3491   4.548   3.973   3.455  2.4889 -1.1282  0.0878
  133ccc     H9 3492   4.569   3.893   3.302 -1.1430 -1.4359  1.8148
  133ccc     C6 3493   4.457   4.068   3.297 -0.0284  0.6503  0.4739
  133ccc     O1 3494   4.347   4.030   3.361 -0.3515 -0.1694  0.4373
  133ccc     O2 3495   4.465   4.183   3.252 -0.5978  0.9151  0.8052
  133ccc    H10 3496   4.927   3.925   3.226 -0.6098 -0.2837 -0.8651
  133ccc    H11 3497   4.793   3.828   3.263 -1.3106 -1.3839  3.5049
  133ccc     C7 3498   4.964   3.776   3.385 -0.6958  0.4518 -0.1630
  133ccc    H12 3499   4.921   3.738   3.478  0.4617  0.1615  0.2644
  133ccc    H13 3500   5.064   3.808   3.415 -0.4768 -0.3659  0.0079
  133ccc     C8 3501   4.968   3.650   3.304  0.5922 -0.6492 -0.6100
  133ccc     O3 3502   4.889   3.559   3.316  0.1428  0.7787  0.0778
  133ccc     O4 3503   5.065   3.655   3.209  0.5218  0.5140  0.5585
  133ccc    H14 3504   4.361   3.936   3.383  2.2606 -0.4951 -2.0566
  133ccc    H15 3505   5.040   3.571   3.167 -1.8692  0.4258  2.0158
  133ccc    H16 3506   4.794   3.955   3.492 -0.3106  0.4814  0.2311
  134ccc     N1 3507   4.651   4.816   0.694  0.1777 -0.0415 -0.5444
  134ccc     H1 3508   4.628   4.725   0.732  0.2542 -0.1419 -0.7413
  134ccc     C1 3509   4.567   4.852   0.577  0.1994  0.5992  0.7266
  134ccc     H2 3510   4.477   4.790   0.569  0.6809  0.0103 -0.5754
  134ccc     C2 3511   4.646   4.847   0.443 -0.1982  0.0576 -0.1797
  134ccc     H3 3512   4.528   4.953   0.591  0.2575  0.7866 -0.3510
  134ccc     H4 3513   4.578   4.862   0.359 -0.5890 -0.5539  0.0215
  134ccc     H5 3514   4.695   4.750   0.436  1.0836  0.5691  1.1929
  134ccc     N2 3515   4.762   4.951   0.436  0.3127  0.7615 -0.4246
  134ccc     C3 3516   4.702   5.094   0.431 -0.6294  0.9158 -0.0448
  134ccc     C4 3517   4.857   4.923   0.321  0.2909 -0.0104  0.8257
  134ccc     H6 3518   4.937   4.997   0.331  1.4205 -1.2003  0.7882
  134ccc     C5 3519   4.793   4.939   0.180 -0.6005  0.0619 -0.1740
  134ccc     H7 3520   4.890   4.822   0.344  0.3104 -0.1689  0.1159
  134ccc     H8 3521   4.784   5.046   0.158  0.1297  0.5525  1.7247
  134ccc     H9 3522   4.694   4.891   0.178  0.3401 -2.1061  1.4568
  134ccc     C6 3523   4.879   4.892   0.068  0.0519  0.4273 -0.3469
  134ccc     O1 3524   4.859   4.918  -0.058 -0.0898  0.1071  0.2842
  134ccc     O2 3525   4.983   4.825   0.093  0.0398 -0.3913  0.0668
  134ccc    H10 3526   4.628   5.103   0.510 -0.0787  4.3434  0.2321
  134ccc    H11 3527   4.656   5.111   0.333 -0.9421  0.3910  0.0089
  134ccc     C7 3528   4.801   5.197   0.467 -1.1900 -0.1775 -0.2755
  134ccc    H12 3529   4.889   5.197   0.401  0.4031 -1.0397  1.7257
  134ccc    H13 3530   4.854   5.172   0.560  0.9775  0.6334 -1.2319
  134ccc     C8 3531   4.747   5.338   0.475 -0.8385 -0.4753 -0.3169
  134ccc     O3 3532   4.640   5.370   0.522  0.0536 -0.1925  0.1822
  134ccc     O4 3533   4.838   5.436   0.458  0.2729  0.3612  0.8531
  134ccc    H14 3534   4.769   4.956  -0.053 -0.3780 -0.6529  1.2616
  134ccc    H15 3535   4.797   5.521   0.481 -0.8979  0.6228 -1.7951
  134ccc    H16 3536   4.820   4.927   0.518 -0.0951  0.6250 -0.1714
  135ccc     N1 3537   5.007   4.324   1.018  0.4983 -0.1845 -0.3565
  135ccc     H1 3538   4.915   4.330   0.976 -0.2755 -2.6458  0.7781
  135ccc     C1 3539   5.035   4.202   1.099  0.1886  0.2054  0.6121
  135ccc     H2 3540   4.996   4.115   1.045  4.5800 -1.6307 -0.0382
  135ccc     C2 3541   4.980   4.206   1.244  0.5228  0.2499  0.6140
  135ccc     H3 3542   5.142   4.181   1.111  0.3399  1.3558  1.4535
  135ccc     H4 3543   5.031   4.285   1.300 -2.3935  1.5397  1.6652
  135ccc     H5 3544   4.999   4.111   1.294  1.4615 -1.6330 -2.9944
  135ccc     N2 3545   4.832   4.228   1.264  0.3561 -0.7795 -0.2681
  135ccc     C3 3546   4.811   4.256   1.414  0.5510 -0.6098  0.8175
  135ccc     C4 3547   4.743   4.122   1.206  0.0802 -0.2272  0.2296
  135ccc     H6 3548   4.639   4.154   1.221  0.4556  0.5355  1.3409
  135ccc     C5 3549   4.762   3.976   1.239  0.3142  0.3632  0.0661
  135ccc     H7 3550   4.758   4.120   1.098  2.3270 -1.0149  0.5154
  135ccc     H8 3551   4.721   3.945   1.336 -1.8937 -0.1517 -0.9720
  135ccc     H9 3552   4.859   3.926   1.250 -0.2395 -1.0536 -1.2940
  135ccc     C6 3553   4.686   3.902   1.126 -0.1262 -0.2633 -0.3218
  135ccc     O1 3554   4.668   3.774   1.153 -0.0602 -0.3980  0.2122
  135ccc     O2 3555   4.609   3.947   1.047 -0.2018 -0.1468  0.3788
  135ccc    H10 3556   4.874   4.343   1.430  1.0757 -0.7726 -0.2785
  135ccc    H11 3557   4.837   4.165   1.469  0.9754 -0.2320  1.2514
  135ccc     C7 3558   4.661   4.292   1.451  0.3630 -0.3962  0.0842
  135ccc    H12 3559   4.595   4.212   1.417  0.0296 -0.2199  0.3078
  135ccc    H13 3560   4.628   4.378   1.391  0.1242 -0.0239  0.7401
  135ccc     C8 3561   4.651   4.325   1.601  0.5703 -0.1472  0.0164
  135ccc     O3 3562   4.747   4.324   1.674 -0.4712  0.1694  0.2163
  135ccc     O4 3563   4.530   4.371   1.639 -0.2472  0.3893 -0.7073
  135ccc    H14 3564   4.622   3.754   1.069  0.3511  0.6038 -0.2681
  135ccc    H15 3565   4.547   4.377   1.735 -2.3567 -0.2825 -0.2370
  135ccc    H16 3566   4.813   4.312   1.207  1.7895 -0.8930 -0.9417
  136ccc     N1 3567   4.706   6.463   1.407  0.3530  0.7114 -0.2079
  136ccc     H1 3568   4.736   6.401   1.481  1.0887  0.4493 -0.7087
  136ccc     C1 3569   4.803   6.550   1.339 -0.2379  0.7385  0.4131
  136ccc     H2 3570   4.902   6.523   1.380  0.4088  0.9867 -0.9370
  136ccc     C2 3571   4.772   6.697   1.378  0.1296  0.5345 -0.5532
  136ccc     H3 3572   4.801   6.532   1.231  1.0633  0.9998  0.3239
  136ccc     H4 3573   4.673   6.723   1.341 -1.7810 -0.8710  2.9886
  136ccc     H5 3574   4.851   6.754   1.330  1.1473 -0.9606 -0.7449
  136ccc     N2 3575   4.772   6.732   1.533  0.6840 -0.1975 -0.0435
  136ccc     C3 3576   4.762   6.885   1.533  0.0847 -0.2564  0.0443
  136ccc     C4 3577   4.902   6.693   1.608 -0.1822  0.3731  0.4065
  136ccc     H6 3578   4.929   6.592   1.577  2.1546  1.0707 -0.0398
  136ccc     C5 3579   4.897   6.687   1.761 -0.4060 -0.1127  0.2123
  136ccc     H7 3580   4.968   6.777   1.588 -1.5617  1.7955  1.5103
  136ccc     H8 3581   4.852   6.596   1.801 -1.4996  0.1284 -0.4355
  136ccc     H9 3582   4.853   6.773   1.814  0.5579  0.1963  0.5452
  136ccc     C6 3583   5.040   6.692   1.813 -0.2375  0.4663  0.0051
  136ccc     O1 3584   5.056   6.643   1.941 -0.0050  0.0473  0.0552
  136ccc     O2 3585   5.121   6.772   1.769  0.0642  0.7892 -0.3384
  136ccc    H10 3586   4.845   6.916   1.468 -0.6351  0.5593 -0.5005
  136ccc    H11 3587   4.788   6.918   1.633 -2.2813 -2.0451  1.3357
  136ccc     C7 3588   4.628   6.942   1.491  0.4533 -0.0030  0.4990
  136ccc    H12 3589   4.576   6.984   1.578  2.6513 -0.5569  2.1688
  136ccc    H13 3590   4.564   6.872   1.435  0.9104 -0.9839  1.1832
  136ccc     C8 3591   4.649   7.058   1.394 -0.7802  0.3510  0.6824
  136ccc     O3 3592   4.758   7.097   1.360  0.3069  0.3983  0.5049
  136ccc     O4 3593   4.554   7.093   1.312  0.0632 -0.6583 -0.2875
  136ccc    H14 3594   4.983   6.581   1.956  1.0563 -1.2087  0.1360
  136ccc    H15 3595   4.478   7.040   1.343  2.0382 -2.7642  1.3450
  136ccc    H16 3596   4.689   6.696   1.581 -0.6019  0.3810 -1.7232
  137ccc     N1 3597   4.048   6.066   1.349  0.5472  0.3011  0.5155
  137ccc     H1 3598   4.055   5.968   1.374  0.5490 -0.1512 -1.0947
  137ccc     C1 3599   3.920   6.122   1.303  0.1135 -0.1982 -0.2588
  137ccc     H2 3600   3.876   6.170   1.391  2.1112 -0.4296  0.9129
  137ccc     C2 3601   3.821   6.008   1.257  0.2859  0.4924 -0.2159
  137ccc     H3 3602   3.936   6.196   1.225  0.6400  0.5516  0.5497
  137ccc     H4 3603   3.717   6.041   1.260 -0.3451 -1.4809  1.0208
  137ccc     H5 3604   3.826   5.937   1.339 -2.8235  0.6822  0.2332
  137ccc     N2 3605   3.855   5.940   1.123  0.2059 -0.1735  0.0541
  137ccc     C3 3606   3.785   6.015   1.007 -0.1923  0.0765  0.5212
  137ccc     C4 3607   3.803   5.796   1.128 -0.3197 -0.3434 -1.0008
  137ccc     H6 3608   3.826   5.749   1.224  0.6099  0.5278 -0.7798
  137ccc     C5 3609   3.842   5.705   1.016  0.0400  0.1997 -0.1520
  137ccc     H7 3610   3.695   5.814   1.130  0.0444  2.0593  0.5859
  137ccc     H8 3611   3.951   5.698   1.013  0.0679  0.5228  0.0778
  137ccc     H9 3612   3.806   5.750   0.923  1.4216  3.4191  0.7545
  137ccc     C6 3613   3.775   5.568   1.027 -0.3610 -0.1591  0.4417
  137ccc     O1 3614   3.829   5.474   0.946 -0.3564 -0.1337  0.7894
  137ccc     O2 3615   3.708   5.540   1.126 -0.7791  0.0671 -0.6602
  137ccc    H10 3616   3.683   6.040   1.038 -0.7476 -0.9563 -0.4180
  137ccc    H11 3617   3.763   5.951   0.922  1.9647  0.2593 -0.2169
  137ccc     C7 3618   3.856   6.144   0.968  0.5608 -0.3972  0.6827
  137ccc    H12 3619   3.961   6.116   0.963  0.6706 -0.0451  0.9874
  137ccc    H13 3620   3.847   6.220   1.047 -1.0290 -0.9696  1.0921
  137ccc     C8 3621   3.809   6.190   0.828 -0.1469 -0.3087  0.0092
  137ccc     O3 3622   3.698   6.165   0.791  0.6659  0.7256 -0.6284
  137ccc     O4 3623   3.872   6.303   0.797 -0.3141 -0.3518 -0.4030
  137ccc    H14 3624   3.885   5.527   0.887  0.5116  0.9001  2.4531
  137ccc    H15 3625   3.956   6.285   0.843 -0.9797  1.8315  1.8745
  137ccc    H16 3626   3.955   5.938   1.098  0.2581  1.2303  0.0729
  138ccc     N1 3627   4.246   4.409   2.872 -0.4263  0.0511  0.4530
  138ccc     H1 3628   4.295   4.497   2.881  1.3218 -0.8177 -0.1189
  138ccc     C1 3629   4.257   4.304   2.976 -0.5422 -0.0388 -1.0610
  138ccc     H2 3630   4.256   4.206   2.927 -1.1044  0.4776 -2.1125
  138ccc     C2 3631   4.141   4.322   3.078  0.7179  0.1950  0.1358
  138ccc     H3 3632   4.357   4.316   3.019 -0.7945  0.9239 -0.7241
  138ccc     H4 3633   4.143   4.231   3.140  0.9393  0.3212  0.3153
  138ccc     H5 3634   4.048   4.332   3.022  0.7233 -0.9327 -0.1066
  138ccc     N2 3635   4.137   4.448   3.172  0.3808 -0.2124  0.4871
  138ccc     C3 3636   4.144   4.582   3.099  0.4200  0.1576  0.4074
  138ccc     C4 3637   4.244   4.437   3.277 -0.1155 -0.3106 -0.1846
  138ccc     H6 3638   4.334   4.391   3.237 -0.3393  0.2058 -1.3049
  138ccc     C5 3639   4.190   4.342   3.384  0.3283 -0.1552 -0.4792
  138ccc     H7 3640   4.262   4.534   3.323 -2.5082 -0.4964  1.3410
  138ccc     H8 3641   4.156   4.248   3.339 -1.3883  0.5533 -0.7672
  138ccc     H9 3642   4.103   4.376   3.443  0.4485 -1.5301  0.5311
  138ccc     C6 3643   4.299   4.304   3.485 -0.6539 -0.2356  1.2046
  138ccc     O1 3644   4.257   4.229   3.581 -0.3835 -0.0418 -0.6683
  138ccc     O2 3645   4.407   4.357   3.484 -0.0640  0.2266 -0.3124
  138ccc    H10 3646   4.226   4.594   3.029 -1.3425  2.7288 -1.3911
  138ccc    H11 3647   4.153   4.662   3.172 -2.0212  1.6062 -0.7372
  138ccc     C7 3648   4.009   4.594   3.014 -0.0719  0.2602 -0.0788
  138ccc    H12 3649   3.928   4.563   3.082  0.1228  0.1703  0.1122
  138ccc    H13 3650   3.989   4.513   2.943 -1.5714  2.1248 -1.9154
  138ccc     C8 3651   3.961   4.734   2.964  0.5568  0.2996 -0.5638
  138ccc     O3 3652   4.017   4.838   2.999 -0.2336  0.4052 -0.3282
  138ccc     O4 3653   3.869   4.735   2.866  0.3879 -0.4136 -0.2674
  138ccc    H14 3654   4.175   4.196   3.541 -1.4181 -0.6708  1.8070
  138ccc    H15 3655   3.851   4.825   2.834 -0.2773 -0.5143 -0.1983
  138ccc    H16 3656   4.046   4.439   3.219 -0.3785 -0.6052 -0.9914
  139ccc     N1 3657   4.193   4.258   1.990  0.0679 -0.4188  0.4516
  139ccc     H1 3658   4.236   4.186   2.046  1.9391  1.0861  1.0678
  139ccc     C1 3659   4.098   4.222   1.879  0.3154 -0.7266  0.4242
  139ccc     H2 3660   4.031   4.143   1.916 -1.6695  0.8664  0.4188
  139ccc     C2 3661   4.166   4.170   1.741 -0.2266 -0.4445 -0.7641
  139ccc     H3 3662   4.042   4.312   1.850 -1.3755 -1.8173  0.1661
  139ccc     H4 3663   4.200   4.067   1.750 -0.8263 -0.4535  2.1167
  139ccc     H5 3664   4.254   4.232   1.723 -0.4568  0.6265  1.5171
  139ccc     N2 3665   4.074   4.170   1.627  0.4428 -0.6672 -0.7807
  139ccc     C3 3666   3.980   4.048   1.643 -0.5179 -0.3008 -0.3514
  139ccc     C4 3667   4.145   4.163   1.496  0.7046 -0.0547  0.7874
  139ccc     H6 3668   4.218   4.084   1.511  1.3251  0.6059  1.3694
  139ccc     C5 3669   4.213   4.288   1.443  0.2247 -0.1277 -0.3177
  139ccc     H7 3670   4.082   4.127   1.415  0.2851  1.0844  0.5805
  139ccc     H8 3671   4.268   4.337   1.524 -1.0294  1.7016 -0.5081
  139ccc     H9 3672   4.146   4.368   1.407  0.8691  0.0763 -1.0857
  139ccc     C6 3673   4.316   4.273   1.331 -0.1432  0.2704  0.2849
  139ccc     O1 3674   4.376   4.384   1.286  0.4993 -0.1822 -0.4938
  139ccc     O2 3675   4.357   4.157   1.304  0.6457 -0.2080  0.1910
  139ccc    H10 3676   3.963   4.040   1.751 -0.4406 -3.9132 -0.4650
  139ccc    H11 3677   4.044   3.961   1.624  1.1788  0.3460  1.8750
  139ccc     C7 3678   3.843   4.051   1.571 -0.0819 -0.0374 -0.1090
  139ccc    H12 3679   3.863   4.074   1.466 -0.1188  0.3732 -0.0292
  139ccc    H13 3680   3.780   4.126   1.621  0.1268 -1.4236  2.4368
  139ccc     C8 3681   3.768   3.926   1.581 -0.2664 -0.0849  0.0962
  139ccc     O3 3682   3.803   3.821   1.609  0.1531  0.4018 -0.5977
  139ccc     O4 3683   3.646   3.942   1.534  0.4663 -0.5172 -0.7520
  139ccc    H14 3684   4.338   4.449   1.348 -3.3678 -1.9953 -0.6298
  139ccc    H15 3685   3.609   3.852   1.539  0.3683 -0.4574 -0.3340
  139ccc    H16 3686   4.016   4.254   1.636  2.0467  0.2967  1.2384
  140ccc     N1 3687   3.187   5.834   1.693  0.0308  0.1731 -0.7770
  140ccc     H1 3688   3.093   5.801   1.676 -0.3594 -0.0241  1.3758
  140ccc     C1 3689   3.212   5.976   1.709  0.8025 -0.5538  0.1111
  140ccc     H2 3690   3.208   6.007   1.814  0.1492 -0.9697  0.2129
  140ccc     C2 3691   3.115   6.063   1.628 -0.0339  0.0045 -0.7454
  140ccc     H3 3692   3.313   5.994   1.669  0.0039  1.8088 -1.0635
  140ccc     H4 3693   3.139   6.168   1.645 -1.2235  0.2428 -0.4734
  140ccc     H5 3694   3.013   6.042   1.659  0.4727  0.2596  1.2225
  140ccc     N2 3695   3.122   6.046   1.476  0.2255  0.4788 -0.8579
  140ccc     C3 3696   3.258   6.085   1.429 -0.1386 -0.0148  0.1818
  140ccc     C4 3697   3.012   6.135   1.422  0.2780  0.2056 -0.3117
  140ccc     H6 3698   2.921   6.096   1.468 -0.4758  0.2632 -1.6707
  140ccc     C5 3699   2.996   6.132   1.270 -0.0535  0.1017 -0.3205
  140ccc     H7 3700   3.033   6.237   1.452 -0.0109  0.1914 -0.0630
  140ccc     H8 3701   2.964   6.030   1.244  1.1942  0.1032 -2.0281
  140ccc     H9 3702   3.093   6.139   1.220  0.8065  1.2780  1.4076
  140ccc     C6 3703   2.896   6.233   1.221  0.4488  0.0941  0.5843
  140ccc     O1 3704   2.870   6.226   1.089 -0.2119  0.6544 -0.0313
  140ccc     O2 3705   2.851   6.325   1.283  0.2088 -0.1797  0.7753
  140ccc    H10 3706   3.332   6.096   1.509  0.6548 -0.6756 -0.4369
  140ccc    H11 3707   3.255   6.181   1.377 -0.4739  0.0420  0.2990
  140ccc     C7 3708   3.316   5.976   1.336 -0.3959  0.3428 -0.0611
  140ccc    H12 3709   3.278   5.980   1.233 -1.3249 -0.1938  0.2472
  140ccc    H13 3710   3.270   5.882   1.368  0.3757  0.3655  1.1367
  140ccc     C8 3711   3.466   5.956   1.334 -0.0935 -0.2783 -0.0614
  140ccc     O3 3712   3.546   6.015   1.408 -0.4993 -0.0646  0.3113
  140ccc     O4 3713   3.509   5.849   1.271  0.0829 -0.1608  0.9101
  140ccc    H14 3714   2.911   6.145   1.054  1.2172  1.3179  0.0100
  140ccc    H15 3715   3.437   5.809   1.219  1.2797 -0.0322 -0.9501
  140ccc    H16 3716   3.112   5.945   1.462 -0.3397 -0.0132  2.3334
  141ccc     N1 3717   3.296   5.068   1.564 -0.2133  1.0028  0.4095
  141ccc     H1 3718   3.234   5.133   1.518 -2.5614 -0.0458  1.8879
  141ccc     C1 3719   3.276   4.924   1.546 -0.0909 -0.0656  0.3750
  141ccc     H2 3720   3.376   4.882   1.544 -1.0901 -2.5673 -0.0670
  141ccc     C2 3721   3.209   4.885   1.410 -0.7878 -0.3733 -0.1032
  141ccc     H3 3722   3.215   4.892   1.631 -0.1933  0.3269  0.4512
  141ccc     H4 3723   3.115   4.938   1.402  0.1889  1.1532 -2.8095
  141ccc     H5 3724   3.199   4.776   1.405  1.5604 -0.8984  3.0822
  141ccc     N2 3725   3.301   4.939   1.289 -0.1845 -0.1317 -0.4341
  141ccc     C3 3726   3.227   4.916   1.160 -0.0787 -0.2152 -0.2611
  141ccc     C4 3727   3.440   4.875   1.279  0.3698  0.3438 -0.1414
  141ccc     H6 3728   3.497   4.936   1.209  0.2750  0.9445  0.2927
  141ccc     C5 3729   3.449   4.726   1.233 -0.1175 -0.9533 -0.5039
  141ccc     H7 3730   3.487   4.886   1.377 -0.8299  0.8921  0.3858
  141ccc     H8 3731   3.417   4.715   1.128  0.3880 -1.0905 -0.6450
  141ccc     H9 3732   3.388   4.671   1.305 -1.0275  2.6728  1.7698
  141ccc     C6 3733   3.592   4.675   1.255 -0.0482  0.6141 -0.7740
  141ccc     O1 3734   3.602   4.544   1.260  0.0128  0.2510 -0.2321
  141ccc     O2 3735   3.688   4.744   1.290  0.6488  0.0930 -0.0935
  141ccc    H10 3736   3.124   4.948   1.176 -0.2757 -0.5836 -0.7796
  141ccc    H11 3737   3.217   4.809   1.145  0.2378  0.0480 -2.8802
  141ccc     C7 3738   3.295   4.973   1.026 -0.0010  0.1349 -0.3036
  141ccc    H12 3739   3.400   4.946   1.041  0.3734  2.2143  1.2149
  141ccc    H13 3740   3.296   5.083   1.017 -0.2162  0.3790  2.0534
  141ccc     C8 3741   3.255   4.895   0.899 -0.2716 -0.0776 -0.4146
  141ccc     O3 3742   3.164   4.940   0.828 -0.5576  0.1323 -0.6313
  141ccc     O4 3743   3.301   4.772   0.877  0.3512  0.0037 -0.7059
  141ccc    H14 3744   3.514   4.506   1.247  0.2274 -0.4771  0.3244
  141ccc    H15 3745   3.278   4.755   0.784 -0.4860 -1.6116 -0.2329
  141ccc    H16 3746   3.312   5.041   1.300  2.7201 -0.3820 -0.1567
  142ccc     N1 3747   5.574   6.423   4.359  0.2127 -0.6943  0.0468
  142ccc     H1 3748   5.533   6.351   4.418 -0.5205 -1.2082 -1.0468
  142ccc     C1 3749   5.619   6.392   4.224  0.3035 -0.8531 -0.2563
  142ccc     H2 3750   5.661   6.482   4.178 -2.8173  1.3783  0.9267
  142ccc     C2 3751   5.485   6.356   4.147 -0.3547 -0.2575 -0.7386
  142ccc     H3 3752   5.697   6.314   4.227  3.4669  2.1065  0.9811
  142ccc     H4 3753   5.404   6.425   4.170  0.7347  0.6993  0.3348
  142ccc     H5 3754   5.454   6.256   4.179 -0.1591  0.1620  0.8644
  142ccc     N2 3755   5.503   6.368   3.993 -0.3484  0.2977  0.3624
  142ccc     C3 3756   5.497   6.514   3.949 -0.6764 -0.6455  0.4161
  142ccc     C4 3757   5.397   6.275   3.920 -0.5759 -0.7818  0.3622
  142ccc     H6 3758   5.294   6.300   3.947 -0.6617 -1.8313  1.0914
  142ccc     C5 3759   5.436   6.125   3.943  0.1917  0.1577 -0.1548
  142ccc     H7 3760   5.412   6.294   3.814 -0.0299  1.8244  0.8331
  142ccc     H8 3761   5.433   6.105   4.050 -0.5948 -0.9185 -0.3538
  142ccc     H9 3762   5.539   6.105   3.909 -0.0184  1.1230 -1.4421
  142ccc     C6 3763   5.340   6.026   3.874 -0.7907  0.6749 -0.1337
  142ccc     O1 3764   5.293   5.930   3.951  0.0313  0.2484  0.2950
  142ccc     O2 3765   5.284   6.052   3.771 -0.1924 -0.0067  0.5855
  142ccc    H10 3766   5.557   6.574   4.017 -1.1134 -0.5858  0.7519
  142ccc    H11 3767   5.394   6.548   3.962 -0.4563  0.9058 -1.4101
  142ccc     C7 3768   5.545   6.549   3.800  0.7419  0.2879 -0.4353
  142ccc    H12 3769   5.495   6.493   3.721  2.5144  1.1996 -2.2895
  142ccc    H13 3770   5.651   6.527   3.782  0.6664 -0.5196  0.0455
  142ccc     C8 3771   5.514   6.699   3.781 -0.3400 -0.0352 -0.2155
  142ccc     O3 3772   5.457   6.757   3.874  0.1635 -0.0064  0.0737
  142ccc     O4 3773   5.570   6.762   3.677 -0.0152  0.5425 -0.2159
  142ccc    H14 3774   5.234   5.894   3.882 -0.0987  3.0960 -1.2279
  142ccc    H15 3775   5.609   6.693   3.620  1.5532  1.0327  0.1988
  142ccc    H16 3776   5.598   6.333   3.974 -1.5567 -2.5388 -1.0380
  143ccc     N1 3777   5.499   7.045   5.122  0.2980 -0.2258  0.1170
  143ccc     H1 3778   5.440   6.986   5.179 -0.0834  0.4857  0.4777
  143ccc     C1 3779   5.605   7.112   5.198  0.0230  0.1175  0.2784
  143ccc     H2 3780   5.701   7.060   5.198 -0.7385 -1.3894  1.4848
  143ccc     C2 3781   5.569   7.171   5.340 -0.2210  0.2541  1.0198
  143ccc     H3 3782   5.628   7.200   5.138  2.7241 -0.2610  0.6598
  143ccc     H4 3783   5.502   7.254   5.316  0.3556 -0.0537 -2.0452
  143ccc     H5 3784   5.657   7.222   5.381 -0.0426  0.4245  0.4311
  143ccc     N2 3785   5.497   7.071   5.433  0.3211  0.2325  0.1141
  143ccc     C3 3786   5.470   7.124   5.573  0.1884 -0.6595 -0.2907
  143ccc     C4 3787   5.577   6.936   5.441 -0.0098  0.6857  0.2708
  143ccc     H6 3788   5.526   6.872   5.513 -0.1807 -0.3193 -0.7276
  143ccc     C5 3789   5.730   6.944   5.460 -0.3626 -0.9614  0.5422
  143ccc     H7 3790   5.565   6.887   5.345 -1.0866  0.0916  0.6833
  143ccc     H8 3791   5.751   7.031   5.523  1.6819  0.9306 -2.5107
  143ccc     H9 3792   5.780   6.960   5.364 -0.3537  1.3489  0.8743
  143ccc     C6 3793   5.771   6.824   5.543 -0.0556 -0.0576 -0.6503
  143ccc     O1 3794   5.817   6.859   5.659  0.6523  0.1472 -0.7186
  143ccc     O2 3795   5.706   6.724   5.536  0.2680  0.2375 -0.3537
  143ccc    H10 3796   5.452   7.229   5.550 -0.6734 -0.8905 -0.7006
  143ccc    H11 3797   5.559   7.116   5.635 -0.8917  0.0969  1.4228
  143ccc     C7 3798   5.350   7.061   5.645  0.0793  0.7713  0.5954
  143ccc    H12 3799   5.352   6.955   5.671 -0.5325  0.5216 -0.3227
  143ccc    H13 3800   5.256   7.075   5.589  0.6620  1.7956 -0.1640
  143ccc     C8 3801   5.327   7.125   5.779 -0.0272  0.5867  0.2150
  143ccc     O3 3802   5.387   7.222   5.814 -0.2043 -0.4676 -0.0702
  143ccc     O4 3803   5.243   7.048   5.851 -0.1293 -0.4335  0.1389
  143ccc    H14 3804   5.794   6.783   5.716 -0.3426  0.5345 -0.5805
  143ccc    H15 3805   5.231   7.103   5.931  0.3299  0.0500 -0.1146
  143ccc    H16 3806   5.404   7.040   5.399  1.0447 -1.1337 -0.7195
  144ccc     N1 3807   4.553   7.148   5.489 -0.4353  0.2927 -0.1450
  144ccc     H1 3808   4.541   7.061   5.439 -0.3861 -0.1444  0.5877
  144ccc     C1 3809   4.622   7.161   5.623  0.0527 -0.2604  0.0125
  144ccc     H2 3810   4.703   7.235   5.626  0.5573 -0.7429 -1.2243
  144ccc     C2 3811   4.707   7.040   5.665  0.5414  0.7601 -0.6857
  144ccc     H3 3812   4.550   7.190   5.701  1.4221  1.5324  0.6846
  144ccc     H4 3813   4.634   6.963   5.689  3.2142 -1.0705  2.2583
  144ccc     H5 3814   4.770   7.062   5.750 -0.1598 -2.3456  0.7831
  144ccc     N2 3815   4.794   6.983   5.551 -0.1803  0.4597 -0.5395
  144ccc     C3 3816   4.867   6.854   5.613 -0.2603 -0.2813  0.3081
  144ccc     C4 3817   4.895   7.078   5.492  0.0389 -0.7516  0.0031
  144ccc     H6 3818   4.849   7.175   5.470  2.5656  0.6515  0.4328
  144ccc     C5 3819   4.977   7.025   5.372  0.3802  0.4196  0.0183
  144ccc     H7 3820   4.962   7.112   5.572 -0.8603  1.0812  0.0455
  144ccc     H8 3821   4.916   6.986   5.290  0.3448 -1.2166  0.7778
  144ccc     H9 3822   5.045   6.946   5.407 -0.3505 -2.0548 -3.5881
  144ccc     C6 3823   5.068   7.126   5.313  0.2105 -0.1042 -0.0393
  144ccc     O1 3824   5.038   7.164   5.186  0.2249  0.3134 -0.0654
  144ccc     O2 3825   5.153   7.188   5.373 -0.0933  0.3831 -0.0774
  144ccc    H10 3826   4.903   6.789   5.533 -2.4777 -0.6905 -0.4342
  144ccc    H11 3827   4.793   6.794   5.666 -1.4792 -0.6096 -1.6482
  144ccc     C7 3828   4.974   6.888   5.722 -0.1830  0.2124  0.4900
  144ccc    H12 3829   4.920   6.945   5.799  0.7061  2.2007 -0.2956
  144ccc    H13 3830   5.055   6.952   5.685  0.1360 -0.2234  0.4288
  144ccc     C8 3831   5.038   6.763   5.775 -0.6063  0.2918  0.3084
  144ccc     O3 3832   5.107   6.691   5.701 -0.5360 -0.0057  0.0739
  144ccc     O4 3833   4.988   6.706   5.886  0.5017 -0.1380 -0.1583
  144ccc    H14 3834   5.113   7.218   5.156  0.3633 -0.7706 -1.8398
  144ccc    H15 3835   4.915   6.760   5.920  0.2172 -0.3564 -0.4166
  144ccc    H16 3836   4.733   6.947   5.477  0.9660 -1.0362 -0.8055
  145ccc     N1 3837   4.098   7.797   5.213 -0.2839  0.1112  0.0018
  145ccc     H1 3838   4.126   7.801   5.310 -0.4277 -1.0821  0.1030
  145ccc     C1 3839   4.066   7.928   5.151  0.4116 -1.1641  0.0341
  145ccc     H2 3840   4.106   7.935   5.049  3.3043  0.2460  1.1444
  145ccc     C2 3841   4.126   8.038   5.243  0.4885  0.3325 -0.2904
  145ccc     H3 3842   3.959   7.950   5.154  0.2699 -1.6952 -0.9191
  145ccc     H4 3843   4.078   8.031   5.340 -0.9128  0.0915 -0.9705
  145ccc     H5 3844   4.098   8.136   5.203 -1.1810  0.5995  1.4141
  145ccc     N2 3845   4.280   8.035   5.241 -0.0816  0.6891 -0.5360
  145ccc     C3 3846   4.319   8.124   5.360 -0.6379 -0.0561  0.6754
  145ccc     C4 3847   4.346   8.083   5.106  0.3348  0.0975 -0.2235
  145ccc     H6 3848   4.452   8.081   5.130 -0.0368 -1.3286  1.4865
  145ccc     C5 3849   4.315   8.221   5.049  0.1497  0.5176  0.0067
  145ccc     H7 3850   4.319   8.008   5.032 -1.5004 -0.9156  1.3717
  145ccc     H8 3851   4.366   8.292   5.115  2.1040 -0.2042 -0.6356
  145ccc     H9 3852   4.208   8.241   5.051 -0.3306 -1.6298 -0.6437
  145ccc     C6 3853   4.360   8.243   4.908  0.4943 -0.5080  0.2875
  145ccc     O1 3854   4.359   8.372   4.857 -0.1406 -0.2293  0.1231
  145ccc     O2 3855   4.397   8.152   4.836 -0.0545  0.0543 -0.1085
  145ccc    H10 3856   4.295   8.229   5.342 -1.4494 -0.1447  1.2268
  145ccc    H11 3857   4.427   8.109   5.364 -0.7584 -0.9676  0.7793
  145ccc     C7 3858   4.262   8.080   5.495  0.8021 -0.3070  0.1242
  145ccc    H12 3859   4.298   7.979   5.513 -1.9744 -1.7253 -1.5316
  145ccc    H13 3860   4.152   8.084   5.503  0.8608 -0.6103  1.2670
  145ccc     C8 3861   4.314   8.163   5.610  0.4333  0.0658  0.0710
  145ccc     O3 3862   4.398   8.248   5.591  0.3565  0.0479  0.5575
  145ccc     O4 3863   4.298   8.111   5.732 -0.3994  0.2967 -0.7911
  145ccc    H14 3864   4.330   8.429   4.930  1.4282  0.9645 -0.1276
  145ccc    H15 3865   4.239   8.036   5.712  1.5762 -2.1790  1.8054
  145ccc    H16 3866   4.319   7.942   5.264 -1.0140  0.2646 -0.6188
  146ccc     N1 3867   3.600   6.615   4.277  0.1477 -0.0641  0.0522
  146ccc     H1 3868   3.510   6.569   4.287 -0.8161  1.4461 -1.0418
  146ccc     C1 3869   3.699   6.590   4.384 -0.8483  0.0850 -0.3904
  146ccc     H2 3870   3.716   6.482   4.380 -1.7157 -0.0693  0.0264
  146ccc     C2 3871   3.655   6.647   4.522  0.2877 -0.3082 -0.2461
  146ccc     H3 3872   3.790   6.645   4.356 -1.3361  1.7061  1.0071
  146ccc     H4 3873   3.623   6.750   4.502  0.7630 -0.2982 -0.9726
  146ccc     H5 3874   3.738   6.671   4.589 -0.6116  2.0384  0.1573
  146ccc     N2 3875   3.541   6.579   4.600  0.3731 -0.2369  0.3289
  146ccc     C3 3876   3.473   6.687   4.689 -0.1112 -0.2059 -0.3454
  146ccc     C4 3877   3.590   6.462   4.681  0.5069  0.0985  0.3226
  146ccc     H6 3878   3.661   6.401   4.625  0.5521 -0.1768  0.6825
  146ccc     C5 3879   3.483   6.378   4.752 -0.3868  0.7663 -0.2403
  146ccc     H7 3880   3.657   6.502   4.757  3.3413 -0.6320 -1.6356
  146ccc     H8 3881   3.401   6.353   4.684  1.5510 -1.5134 -1.9114
  146ccc     H9 3882   3.442   6.441   4.832 -0.3799 -0.4868  0.8035
  146ccc     C6 3883   3.547   6.252   4.809  0.5004 -0.9849  0.5631
  146ccc     O1 3884   3.480   6.176   4.899  0.0818  0.4517  0.3211
  146ccc     O2 3885   3.661   6.213   4.773  0.1902  0.5024  0.2066
  146ccc    H10 3886   3.415   6.753   4.624  2.0245  0.5919 -1.5563
  146ccc    H11 3887   3.408   6.633   4.758 -0.8419  0.4749 -0.4882
  146ccc     C7 3888   3.563   6.773   4.780 -0.1530  0.4554 -0.0548
  146ccc    H12 3889   3.628   6.846   4.728 -0.2251  1.5920  1.3886
  146ccc    H13 3890   3.638   6.712   4.833  0.1503  1.3982  0.6291
  146ccc     C8 3891   3.474   6.847   4.884 -0.6731  0.5205 -0.7916
  146ccc     O3 3892   3.352   6.844   4.889  0.1929  0.4549  0.5104
  146ccc     O4 3893   3.538   6.955   4.933  0.4142  0.2174  0.3119
  146ccc    H14 3894   3.396   6.224   4.905  1.2215  2.8853 -1.3544
  146ccc    H15 3895   3.475   6.999   4.993  1.0028  0.1447  1.0097
  146ccc    H16 3896   3.470   6.541   4.535 -0.3132  1.3050  0.1360
  147ccc     N1 3897   3.071   6.698   3.690  0.2372  0.1856 -0.3806
  147ccc     H1 3898   3.056   6.664   3.784 -0.2766 -0.5913 -0.7293
  147ccc     C1 3899   2.954   6.705   3.597 -0.3097  0.4458 -0.0248
  147ccc     H2 3900   2.883   6.764   3.657 -3.2185 -0.9768 -1.8644
  147ccc     C2 3901   2.895   6.566   3.561  0.2084  0.1064 -0.6300
  147ccc     H3 3902   2.968   6.757   3.501  0.3665  2.3165  1.0266
  147ccc     H4 3903   2.975   6.496   3.539 -1.1759 -1.7240 -0.1183
  147ccc     H5 3904   2.825   6.577   3.478 -0.4763  2.8787  0.1776
  147ccc     N2 3905   2.817   6.491   3.675  1.0376  0.2931 -1.2637
  147ccc     C3 3906   2.855   6.340   3.664  0.0993 -0.0598  0.0336
  147ccc     C4 3907   2.663   6.495   3.655  0.6999 -0.5391 -0.0873
  147ccc     H6 3908   2.644   6.595   3.617  0.3710 -0.4225  0.3620
  147ccc     C5 3909   2.568   6.490   3.775  0.0603  0.2884 -0.6169
  147ccc     H7 3910   2.629   6.430   3.575 -1.7477  2.2786 -1.5030
  147ccc     H8 3911   2.606   6.552   3.857  0.3484 -0.4102 -0.2149
  147ccc     H9 3912   2.567   6.384   3.804  2.0906  0.5231  0.4706
  147ccc     C6 3913   2.423   6.521   3.741 -0.1115 -0.2052  0.4003
  147ccc     O1 3914   2.341   6.499   3.838  0.2892  0.0769  0.0805
  147ccc     O2 3915   2.401   6.603   3.655  0.3715  0.5254 -0.1049
  147ccc    H10 3916   2.881   6.311   3.562  1.4659 -1.3186  0.6985
  147ccc    H11 3917   2.774   6.276   3.701 -0.3780  0.8598  0.6183
  147ccc     C7 3918   2.980   6.306   3.742 -0.2917  0.0650  0.4424
  147ccc    H12 3919   2.976   6.337   3.847 -0.4149 -0.7895  0.6923
  147ccc    H13 3920   3.057   6.376   3.705  1.5937 -1.8830  0.4980
  147ccc     C8 3921   3.027   6.166   3.738  0.4748  0.2220 -0.1654
  147ccc     O3 3922   2.971   6.066   3.709 -0.4775  0.2053 -0.0998
  147ccc     O4 3923   3.159   6.152   3.763 -0.7556 -0.0345 -0.3541
  147ccc    H14 3924   2.264   6.554   3.818  0.3053  0.2850  0.5746
  147ccc    H15 3925   3.186   6.062   3.739  3.6356  1.7457 -3.8134
  147ccc    H16 3926   2.842   6.530   3.767 -3.1141 -0.0497  0.2210
  148ccc     N1 3927   3.967   7.559   4.076 -0.3907 -0.6485 -0.0568
  148ccc     H1 3928   3.893   7.568   4.007 -0.9394  1.0499  0.6934
  148ccc     C1 3929   3.918   7.565   4.209 -0.1344 -0.5985  0.5920
  148ccc     H2 3930   3.990   7.612   4.277  0.9848 -0.0904 -0.8981
  148ccc     C2 3931   3.870   7.429   4.261  0.6803 -0.2555 -0.3227
  148ccc     H3 3932   3.827   7.625   4.204  0.7252  0.8014 -4.5562
  148ccc     H4 3933   3.807   7.388   4.182 -1.2083  0.2714  0.8608
  148ccc     H5 3934   3.803   7.433   4.347  1.6960  0.0446  0.4718
  148ccc     N2 3935   3.967   7.315   4.294  0.7242  0.2518 -0.0492
  148ccc     C3 3936   3.890   7.202   4.356  0.2965  0.6753  0.8175
  148ccc     C4 3937   4.070   7.363   4.391  0.6286  0.0977 -0.1359
  148ccc     H6 3938   4.095   7.464   4.359 -1.7939  0.4791 -1.0203
  148ccc     C5 3939   4.196   7.280   4.405  0.7660  0.2677  0.0975
  148ccc     H7 3940   4.020   7.378   4.487  2.2172 -0.3023  0.7878
  148ccc     H8 3941   4.220   7.239   4.306  2.4755  2.7823 -0.6459
  148ccc     H9 3942   4.188   7.209   4.487  0.3892  1.1664  0.8572
  148ccc     C6 3943   4.316   7.373   4.439 -0.2401 -0.1907 -0.0719
  148ccc     O1 3944   4.422   7.310   4.489 -0.5191  0.2006  0.1186
  148ccc     O2 3945   4.309   7.487   4.468  0.7055  0.3857 -0.1600
  148ccc    H10 3946   3.960   7.119   4.352  0.0848  0.5161  0.2359
  148ccc    H11 3947   3.806   7.178   4.290  0.8800 -0.7524  0.5586
  148ccc     C7 3948   3.845   7.214   4.504  0.3723 -0.0068 -1.3609
  148ccc    H12 3949   3.793   7.311   4.514 -0.1890 -0.4723  0.7719
  148ccc    H13 3950   3.931   7.202   4.571  0.4059 -1.4000 -1.6174
  148ccc     C8 3951   3.752   7.099   4.552 -0.1778  0.5734 -0.8789
  148ccc     O3 3952   3.730   7.010   4.474  0.4872  0.4215  0.6579
  148ccc     O4 3953   3.686   7.109   4.666  0.3835 -0.0326  0.0464
  148ccc    H14 3954   4.424   7.224   4.443 -0.0202  0.5347 -0.4994
  148ccc    H15 3955   3.724   7.194   4.694 -1.0096  0.4937  0.4731
  148ccc    H16 3956   4.012   7.281   4.208 -0.5864 -1.5184 -0.0607
  149ccc     N1 3957   4.558   7.653   4.267  0.5377 -0.2935 -0.0658
  149ccc     H1 3958   4.551   7.745   4.226 -1.4362 -0.2160  0.3339
  149ccc     C1 3959   4.644   7.643   4.383 -0.1849  0.5555  0.3434
  149ccc     H2 3960   4.582   7.625   4.471 -0.7592  1.9812  0.2595
  149ccc     C2 3961   4.729   7.769   4.400 -0.2114 -0.3905  0.3335
  149ccc     H3 3962   4.713   7.559   4.367  2.8052  2.9257 -0.2196
  149ccc     H4 3963   4.774   7.800   4.305  0.5253 -2.8075 -0.1958
  149ccc     H5 3964   4.811   7.746   4.467 -0.5291  0.3005  0.9637
  149ccc     N2 3965   4.657   7.881   4.471  0.1149 -0.1430 -0.0621
  149ccc     C3 3966   4.722   8.017   4.439  0.4807  0.2208 -0.6121
  149ccc     C4 3967   4.655   7.871   4.629 -0.2146 -0.1753  0.1155
  149ccc     H6 3968   4.737   7.801   4.646  0.6747  0.3001 -1.9162
  149ccc     C5 3969   4.525   7.814   4.679  0.2761  0.5676  0.4495
  149ccc     H7 3970   4.679   7.967   4.675  0.7291 -1.0843  1.6093
  149ccc     H8 3971   4.496   7.725   4.622  3.0998  0.6787 -1.3572
  149ccc     H9 3972   4.444   7.887   4.668  0.2863  0.3757 -0.9909
  149ccc     C6 3973   4.537   7.791   4.829  0.3388  0.4719  0.3154
  149ccc     O1 3974   4.422   7.746   4.887  0.4748 -0.9183  0.0496
  149ccc     O2 3975   4.639   7.775   4.884 -0.4923 -0.5895  0.2581
  149ccc    H10 3976   4.679   8.097   4.499 -1.0372 -1.5854  0.8195
  149ccc    H11 3977   4.713   8.039   4.332  0.6718  0.1965 -0.6345
  149ccc     C7 3978   4.876   8.016   4.479  0.0940 -1.2480 -0.3420
  149ccc    H12 3979   4.929   7.950   4.409  0.7580  0.5640 -1.6407
  149ccc    H13 3980   4.886   7.986   4.584 -2.6899 -0.7884  0.1351
  149ccc     C8 3981   4.948   8.149   4.458  0.2972 -0.4708 -0.4363
  149ccc     O3 3982   4.929   8.217   4.357 -0.0088  0.7290  0.2183
  149ccc     O4 3983   5.022   8.192   4.559 -0.0481  0.2436 -0.2563
  149ccc    H14 3984   4.362   7.741   4.812  2.0653 -2.0815 -1.2156
  149ccc    H15 3985   5.024   8.122   4.627  0.6186 -0.6329 -1.1392
  149ccc    H16 3986   4.561   7.890   4.434  0.3724 -0.2262 -0.7651
  150ccc     N1 3987   4.741   7.199   0.706 -0.2739 -0.4997  0.2047
  150ccc     H1 3988   4.747   7.294   0.670 -1.2306  0.0404  1.3905
  150ccc     C1 3989   4.611   7.158   0.770  0.1772 -0.1870  0.0307
  150ccc     H2 3990   4.538   7.143   0.689 -0.6720 -0.0686  0.7567
  150ccc     C2 3991   4.565   7.256   0.876  0.3192 -0.7682  0.1233
  150ccc     H3 3992   4.628   7.060   0.817  0.3739  0.2183  0.8333
  150ccc     H4 3993   4.492   7.207   0.940  1.2576 -2.1286  0.1855
  150ccc     H5 3994   4.535   7.346   0.823 -1.1485 -0.4845  1.3965
  150ccc     N2 3995   4.682   7.298   0.965  0.4083  0.2479 -0.2981
  150ccc     C3 3996   4.742   7.188   1.050 -0.4229 -0.0959  0.5362
  150ccc     C4 3997   4.646   7.416   1.051 -0.0491 -0.0292 -0.4818
  150ccc     H6 3998   4.739   7.446   1.101 -0.4566 -0.9409  0.8897
  150ccc     C5 3999   4.532   7.395   1.148 -0.0906  0.2697  0.0619
  150ccc     H7 4000   4.613   7.500   0.990 -0.8098  1.0644  1.3344
  150ccc     H8 4001   4.483   7.297   1.148  0.9230 -0.2526  0.6645
  150ccc     H9 4002   4.456   7.471   1.125  1.4861  1.6679 -0.7222
  150ccc     C6 4003   4.584   7.411   1.288  0.6762  0.1519 -0.3706
  150ccc     O1 4004   4.489   7.447   1.373  0.7600 -0.3179  0.3859
  150ccc     O2 4005   4.701   7.398   1.331  0.3562 -0.1765  0.1053
  150ccc    H10 4006   4.748   7.101   0.984 -0.8935  0.6507 -0.5169
  150ccc    H11 4007   4.675   7.162   1.133 -0.8537 -0.3059  0.1267
  150ccc     C7 4008   4.889   7.198   1.102 -0.0392 -0.8523 -0.0801
  150ccc    H12 4009   4.956   7.239   1.026 -0.3525 -1.5553 -0.7383
  150ccc    H13 4010   4.894   7.257   1.195 -0.6102 -1.0829  0.1024
  150ccc     C8 4011   4.964   7.066   1.146 -0.0111  0.1358  0.3983
  150ccc     O3 4012   4.964   6.960   1.087 -0.0549 -0.3099  0.4106
  150ccc     O4 4013   5.035   7.079   1.253  0.3703  0.1525 -1.3620
  150ccc    H14 4014   4.408   7.443   1.318 -0.1456 -1.7161  1.7138
  150ccc    H15 4015   5.046   6.987   1.282  0.3924  0.3730 -0.6333
  150ccc    H16 4016   4.760   7.328   0.906  1.0746  1.0027  0.9200
  151ccc     N1 4017   5.403   6.876   0.272 -0.2266 -0.3905  0.1794
  151ccc     H1 4018   5.326   6.935   0.241  0.5767  1.6026  1.7445
  151ccc     C1 4019   5.468   6.793   0.176  0.0457  0.3900 -0.0737
  151ccc     H2 4020   5.478   6.692   0.218 -2.3111  0.7025  1.4166
  151ccc     C2 4021   5.604   6.847   0.127 -0.4457 -0.2054 -1.0079
  151ccc     H3 4022   5.404   6.768   0.091 -2.0784  2.6956  0.7262
  151ccc     H4 4023   5.677   6.778   0.083  2.6752  2.5833 -0.5924
  151ccc     H5 4024   5.647   6.869   0.225  0.0620 -0.3722 -1.1881
  151ccc     N2 4025   5.607   6.977   0.053  0.4172 -0.8982 -0.1038
  151ccc     C3 4026   5.576   6.942  -0.094  0.1634 -0.3305  0.3229
  151ccc     C4 4027   5.749   7.030   0.070 -0.2417 -0.5953  0.3446
  151ccc     H6 4028   5.815   6.950   0.102  0.0770 -0.1611  0.7936
  151ccc     C5 4029   5.755   7.142   0.176  0.2160  0.2099  0.2146
  151ccc     H7 4030   5.770   7.075  -0.027 -0.6575  1.3051  1.0893
  151ccc     H8 4031   5.726   7.112   0.277  0.5364 -2.8039 -0.4901
  151ccc     H9 4032   5.680   7.219   0.154  0.0564  0.1298  0.4802
  151ccc     C6 4033   5.898   7.202   0.197 -0.3922  0.3892  0.1917
  151ccc     O1 4034   5.902   7.325   0.258  0.5972  1.0658 -0.1634
  151ccc     O2 4035   5.998   7.136   0.173 -0.1396 -0.0597  0.5347
  151ccc    H10 4036   5.473   6.906  -0.094 -0.6488  1.8319  1.0446
  151ccc    H11 4037   5.639   6.862  -0.133  0.4356 -0.0141  0.1183
  151ccc     C7 4038   5.573   7.060  -0.194  0.4844  0.8781 -1.0152
  151ccc    H12 4039   5.677   7.088  -0.213  1.1708 -1.9852 -2.0461
  151ccc    H13 4040   5.511   7.147  -0.167 -1.9584 -0.6708 -1.2702
  151ccc     C8 4041   5.531   7.005  -0.328 -0.4826 -0.5104 -0.3127
  151ccc     O3 4042   5.500   6.892  -0.354  0.1070  0.1809 -0.1175
  151ccc     O4 4043   5.494   7.104  -0.406  0.2180  0.2636  0.0090
  151ccc    H14 4044   5.810   7.357   0.257 -0.3628 -1.4820 -1.7272
  151ccc    H15 4045   5.538   7.183  -0.369 -1.2131  0.3030  1.7603
  151ccc    H16 4046   5.535   7.045   0.080  3.0133  1.6190  1.0496
  152ccc     N1 4047   5.818   7.976   1.630  0.1963  0.2507 -0.3705
  152ccc     H1 4048   5.734   7.965   1.686 -0.7696  1.7998 -1.4419
  152ccc     C1 4049   5.825   8.087   1.537 -0.1688  0.0987 -0.2795
  152ccc     H2 4050   5.927   8.126   1.532  1.4742 -3.7620 -0.1102
  152ccc     C2 4051   5.725   8.192   1.564  0.3044  0.6099 -0.3202
  152ccc     H3 4052   5.814   8.039   1.439 -2.5647  0.1980 -0.1235
  152ccc     H4 4053   5.784   8.284   1.563  0.5214  0.5387  1.5931
  152ccc     H5 4054   5.680   8.175   1.662 -0.8333 -0.3424 -0.9802
  152ccc     N2 4055   5.604   8.210   1.475  0.3488 -0.5764  0.1535
  152ccc     C3 4056   5.497   8.306   1.536  0.5002 -0.2417  0.0527
  152ccc     C4 4057   5.540   8.075   1.450  0.3450  0.1279 -0.0250
  152ccc     H6 4058   5.622   8.004   1.438  0.3205 -0.4073  2.4588
  152ccc     C5 4059   5.450   8.072   1.322  0.9051  0.5362 -0.1022
  152ccc     H7 4060   5.487   8.045   1.541  0.7429  0.7953  0.4352
  152ccc     H8 4061   5.506   8.057   1.229  0.3435  0.2153 -0.3954
  152ccc     H9 4062   5.396   8.167   1.309 -0.8524 -0.3851  0.1663
  152ccc     C6 4063   5.341   7.963   1.339  0.1477  0.3813  0.5083
  152ccc     O1 4064   5.270   7.949   1.222  0.2839  0.2565  0.6021
  152ccc     O2 4065   5.346   7.873   1.414 -0.1808 -0.0824 -0.3647
  152ccc    H10 4066   5.459   8.268   1.631  3.4196  0.7165  1.7270
  152ccc    H11 4067   5.415   8.314   1.465  0.9611  0.0609 -0.4545
  152ccc     C7 4068   5.534   8.451   1.558  0.1690 -0.9978 -0.0144
  152ccc    H12 4069   5.547   8.493   1.457  3.0634 -0.5090  0.4668
  152ccc    H13 4070   5.626   8.459   1.617 -0.0092  0.3183  0.1127
  152ccc     C8 4071   5.431   8.537   1.623  0.1676 -1.0182  0.7759
  152ccc     O3 4072   5.342   8.490   1.696 -0.2476 -0.1845  0.0233
  152ccc     O4 4073   5.409   8.657   1.551 -0.3086  0.6492 -0.1635
  152ccc    H14 4074   5.282   8.030   1.169 -0.6644 -2.1219 -3.7515
  152ccc    H15 4075   5.361   8.714   1.614  0.5450 -0.5167  1.6347
  152ccc    H16 4076   5.638   8.251   1.387  0.4995 -0.6106  0.1956
  153ccc     N1 4077   5.893   7.550   2.269  0.6456 -0.1577  0.4488
  153ccc     H1 4078   5.824   7.610   2.227  0.6878 -0.0324  0.5573
  153ccc     C1 4079   5.923   7.567   2.415 -0.8495 -0.9086  0.0257
  153ccc     H2 4080   6.019   7.516   2.430  0.5629  1.4210 -0.5243
  153ccc     C2 4081   5.803   7.525   2.512 -0.1281  0.3020  1.7140
  153ccc     H3 4082   5.948   7.671   2.440  0.9185 -1.0598 -0.9079
  153ccc     H4 4083   5.720   7.594   2.494 -0.4970 -0.5963 -0.3202
  153ccc     H5 4084   5.828   7.560   2.612  1.3704  0.3224  1.3658
  153ccc     N2 4085   5.758   7.380   2.514 -0.3720  0.3342  0.2204
  153ccc     C3 4086   5.626   7.383   2.589  0.7690  0.1809  0.4163
  153ccc     C4 4087   5.860   7.286   2.572  0.5982 -0.7370  0.3316
  153ccc     H6 4088   5.808   7.190   2.567 -0.7516  0.0095 -0.6168
  153ccc     C5 4089   5.892   7.300   2.722  0.0630 -0.8762 -0.0058
  153ccc     H7 4090   5.953   7.286   2.515  0.6370  1.7041  0.2938
  153ccc     H8 4091   5.811   7.279   2.793  1.0133  0.9685  1.7415
  153ccc     H9 4092   5.929   7.402   2.741  0.5469 -1.1299  0.4254
  153ccc     C6 4093   6.001   7.199   2.763 -0.0078 -0.0852 -0.1956
  153ccc     O1 4094   6.075   7.232   2.873 -0.0836 -0.1661 -0.1852
  153ccc     O2 4095   6.040   7.103   2.696  0.1826 -0.0098 -0.2325
  153ccc    H10 4096   5.560   7.459   2.547  1.5560  1.3850  1.3107
  153ccc    H11 4097   5.632   7.431   2.686 -0.7158  1.0151  0.1163
  153ccc     C7 4098   5.540   7.254   2.597  0.0606  0.1021 -0.6528
  153ccc    H12 4099   5.604   7.169   2.622  1.2209  1.2946  0.5780
  153ccc    H13 4100   5.482   7.234   2.506  1.0370  2.2724 -1.8121
  153ccc     C8 4101   5.449   7.270   2.718  0.4995  0.0239 -0.0057
  153ccc     O3 4102   5.422   7.368   2.781  0.0112  0.0846 -0.0320
  153ccc     O4 4103   5.381   7.160   2.738 -0.7062 -0.4367 -0.1535
  153ccc    H14 4104   6.031   7.312   2.906 -1.3742 -1.0615  0.3542
  153ccc    H15 4105   5.314   7.195   2.799  1.9264  0.0248  2.7128
  153ccc    H16 4106   5.755   7.350   2.416  0.8880 -0.1702  0.3138
  154ccc     N1 4107   3.676   6.179   2.945  0.0339  0.7616 -0.3845
  154ccc     H1 4108   3.747   6.176   3.018  0.4159  1.8570 -0.6898
  154ccc     C1 4109   3.586   6.065   2.950  0.2213 -0.4994  0.6228
  154ccc     H2 4110   3.551   6.053   2.847  0.6831  0.1715  0.3734
  154ccc     C2 4111   3.460   6.075   3.042 -0.2736  0.1795 -0.5474
  154ccc     H3 4112   3.638   5.974   2.981  0.4945  0.6838  4.1240
  154ccc     H4 4113   3.499   6.058   3.143 -0.1193 -0.5108 -0.7194
  154ccc     H5 4114   3.393   5.989   3.040 -0.2808  0.1999 -2.0989
  154ccc     N2 4115   3.386   6.209   3.049 -0.5068 -0.5983 -0.4546
  154ccc     C3 4116   3.325   6.232   3.182  0.7616  0.6753  0.1013
  154ccc     C4 4117   3.293   6.225   2.926 -0.3809 -0.7798  0.1421
  154ccc     H6 4118   3.279   6.333   2.931  1.9500 -0.3994 -0.2907
  154ccc     C5 4119   3.164   6.145   2.925 -0.5959  0.0601 -0.3322
  154ccc     H7 4120   3.354   6.212   2.836  0.6978 -1.4906  0.9384
  154ccc     H8 4121   3.093   6.181   3.001 -2.3196  0.6703 -2.1425
  154ccc     H9 4122   3.194   6.040   2.941 -2.1528 -0.3216  0.3547
  154ccc     C6 4123   3.103   6.148   2.786  0.2562  0.0566  0.1032
  154ccc     O1 4124   2.989   6.076   2.778 -0.7734  0.0008  1.1697
  154ccc     O2 4125   3.139   6.210   2.687  0.2730 -0.5028 -0.1988
  154ccc    H10 4126   3.404   6.194   3.248 -0.5774 -3.2746 -0.3136
  154ccc    H11 4127   3.240   6.164   3.190  1.0490 -0.1029 -2.6090
  154ccc     C7 4128   3.285   6.372   3.218  0.1600  0.6922 -0.3413
  154ccc    H12 4129   3.246   6.428   3.132 -0.2208  0.9235 -0.0233
  154ccc    H13 4130   3.375   6.425   3.255  0.2131 -0.1302  0.7493
  154ccc     C8 4131   3.181   6.374   3.328 -0.9224 -0.0329  0.6364
  154ccc     O3 4132   3.096   6.290   3.349  0.1007 -0.1053  0.2786
  154ccc     O4 4133   3.173   6.493   3.391  0.1368  0.2859 -0.0531
  154ccc    H14 4134   2.983   6.090   2.682 -1.5592 -0.7214  1.1015
  154ccc    H15 4135   3.243   6.554   3.361 -0.3882  0.7272 -0.3859
  154ccc    H16 4136   3.455   6.286   3.041  0.4596 -1.3075  0.7601
  155ccc     N1 4137   3.491   6.783   2.693 -0.4281 -0.0970  0.4877
  155ccc     H1 4138   3.516   6.871   2.736 -2.3553  2.2669 -2.7284
  155ccc     C1 4139   3.356   6.720   2.716 -0.3908 -0.6103  0.1663
  155ccc     H2 4140   3.320   6.663   2.629 -0.8997  1.9318 -1.3974
  155ccc     C2 4141   3.256   6.829   2.745  0.1914  0.1331  0.3253
  155ccc     H3 4142   3.360   6.653   2.803  0.6280  2.6313  2.7839
  155ccc     H4 4143   3.292   6.906   2.813 -1.4095  1.3557 -0.1503
  155ccc     H5 4144   3.171   6.785   2.798 -0.1977 -1.1610 -1.2871
  155ccc     N2 4145   3.214   6.904   2.620  0.0205 -0.2880  0.1619
  155ccc     C3 4146   3.306   7.011   2.572  0.5625 -0.7947  0.2505
  155ccc     C4 4147   3.082   6.976   2.641 -0.7550  0.3506 -0.4592
  155ccc     H6 4148   3.101   7.059   2.710 -0.4593 -0.3860  0.3646
  155ccc     C5 4149   2.963   6.887   2.702 -0.1293  0.3259  0.5340
  155ccc     H7 4150   3.046   7.014   2.545 -0.5663 -1.2466 -1.1874
  155ccc     H8 4151   2.984   6.872   2.809  0.2552 -1.5423  0.2322
  155ccc     H9 4152   2.958   6.789   2.653 -1.5153  1.9908 -2.9786
  155ccc     C6 4153   2.820   6.937   2.702  0.1394 -0.0964  0.9604
  155ccc     O1 4154   2.735   6.835   2.683 -0.1230  0.0561  0.2849
  155ccc     O2 4155   2.793   7.050   2.739  0.4923  0.3027  0.2444
  155ccc    H10 4156   3.411   6.982   2.579  1.1211  0.0796 -3.0183
  155ccc    H11 4157   3.293   7.095   2.641 -1.1596 -1.3447  0.6496
  155ccc     C7 4158   3.290   7.054   2.425  0.1681 -0.8829 -0.7015
  155ccc    H12 4159   3.184   7.077   2.405  0.4122  0.7124 -0.2413
  155ccc    H13 4160   3.328   6.983   2.350  2.6143 -0.7802  0.3470
  155ccc     C8 4161   3.372   7.182   2.400  0.1989 -0.1572  0.7157
  155ccc     O3 4162   3.462   7.209   2.473  0.7132  0.0078 -0.3693
  155ccc     O4 4163   3.382   7.207   2.266  0.3849  0.0316  0.0458
  155ccc    H14 4164   2.645   6.868   2.701  0.1617  1.7832 -1.1899
  155ccc    H15 4165   3.299   7.166   2.234 -2.2743  2.4798  3.0229
  155ccc    H16 4166   3.202   6.841   2.539  2.8493 -1.9925  0.9055
  156ccc     N1 4167   3.441   7.342   1.806  0.2788 -0.4672  0.5170
  156ccc     H1 4168   3.432   7.244   1.783 -0.6750 -0.8441  2.3009
  156ccc     C1 4169   3.335   7.430   1.760  0.0858  0.2924  0.1588
  156ccc     H2 4170   3.388   7.524   1.739  0.4782 -0.1678 -0.9968
  156ccc     C2 4171   3.214   7.450   1.854 -0.0351  0.4160 -0.1354
  156ccc     H3 4172   3.294   7.393   1.665 -0.4677  0.9533  0.1343
  156ccc     H4 4173   3.173   7.548   1.829 -0.6200 -0.0761 -1.1725
  156ccc     H5 4174   3.262   7.459   1.952  2.0068 -0.1138 -1.0348
  156ccc     N2 4175   3.115   7.330   1.869 -0.5802 -0.2538 -0.4813
  156ccc     C3 4176   3.004   7.348   1.779 -0.2702  0.4528  0.0141
  156ccc     C4 4177   3.065   7.313   2.018 -0.2233 -0.6673  0.1747
  156ccc     H6 4178   3.003   7.223   2.016 -0.6653 -0.3627 -1.5934
  156ccc     C5 4179   2.964   7.416   2.059 -0.5038 -0.4176  0.3576
  156ccc     H7 4180   3.147   7.303   2.089  0.4479 -1.5802 -0.7137
  156ccc     H8 4181   2.873   7.391   2.002  0.4394  1.1055 -2.0073
  156ccc     H9 4182   2.994   7.516   2.026  0.3307 -1.5170 -2.5496
  156ccc     C6 4183   2.940   7.399   2.209 -0.4474 -0.0030 -0.4081
  156ccc     O1 4184   2.839   7.478   2.255 -0.4805  0.0606  0.3177
  156ccc     O2 4185   3.002   7.325   2.283  0.4250  0.2363  0.0987
  156ccc    H10 4186   3.064   7.373   1.691  1.5805  0.8178  1.3282
  156ccc    H11 4187   2.948   7.438   1.808 -0.1503  0.4826  0.1510
  156ccc     C7 4188   2.910   7.223   1.752 -0.3847  0.0020 -0.4573
  156ccc    H12 4189   2.875   7.191   1.851  2.1962  0.3839  0.6646
  156ccc    H13 4190   2.969   7.139   1.714  0.0779  0.1344 -0.0534
  156ccc     C8 4191   2.795   7.257   1.657  0.1644 -0.4441 -0.2531
  156ccc     O3 4192   2.775   7.370   1.616 -0.0162 -0.6158  0.1254
  156ccc     O4 4193   2.713   7.151   1.630 -0.1948 -0.2454  0.0889
  156ccc    H14 4194   2.811   7.531   2.179 -1.1523 -2.2454 -1.1534
  156ccc    H15 4195   2.765   7.071   1.646  0.2069  0.0573  0.3471
  156ccc    H16 4196   3.163   7.243   1.842 -0.3624 -0.2855  0.0098
  157ccc     N1 4197   3.511   6.735   2.161 -0.0586 -0.1350  0.3694
  157ccc     H1 4198   3.528   6.734   2.061  0.5577 -0.0136  0.4697
  157ccc     C1 4199   3.405   6.641   2.218  0.2401 -0.4217 -0.0466
  157ccc     H2 4200   3.409   6.629   2.326 -0.2415  0.2233  0.0517
  157ccc     C2 4201   3.408   6.507   2.144  0.0216  0.2193  0.7704
  157ccc     H3 4202   3.311   6.688   2.187  0.1093  0.5050  1.6241
  157ccc     H4 4203   3.381   6.532   2.041 -2.1262  0.0529  1.2427
  157ccc     H5 4204   3.329   6.442   2.183 -0.2392 -0.1442 -0.3172
  157ccc     N2 4205   3.543   6.431   2.146  0.2650  0.2348 -0.0272
  157ccc     C3 4206   3.540   6.304   2.052 -0.3942 -0.2735  0.5102
  157ccc     C4 4207   3.601   6.411   2.281 -0.4648 -0.2119 -0.3361
  157ccc     H6 4208   3.581   6.504   2.334  0.1546  0.4807 -1.2943
  157ccc     C5 4209   3.751   6.389   2.264  0.3137  0.7979 -0.1599
  157ccc     H7 4210   3.553   6.331   2.338  0.4935 -0.1260  0.6208
  157ccc     H8 4211   3.796   6.470   2.204  0.4462 -1.2711 -3.0580
  157ccc     H9 4212   3.766   6.295   2.210 -0.4830  0.8749 -0.5278
  157ccc     C6 4213   3.827   6.380   2.396 -0.1961 -0.2911  0.7342
  157ccc     O1 4214   3.964   6.381   2.384  0.1778 -0.2140  0.6754
  157ccc     O2 4215   3.777   6.366   2.508  0.1854 -0.0843 -0.1303
  157ccc    H10 4216   3.489   6.218   2.096  0.7514 -1.3109 -0.1449
  157ccc    H11 4217   3.640   6.265   2.035 -0.9152 -0.5521 -2.4361
  157ccc     C7 4218   3.472   6.333   1.912 -0.3071  0.7231  0.5126
  157ccc    H12 4219   3.497   6.433   1.873 -0.4069 -0.3746 -2.6842
  157ccc    H13 4220   3.363   6.333   1.925 -0.8370 -0.7068 -2.8296
  157ccc     C8 4221   3.493   6.222   1.806 -0.3135  0.0575  0.2942
  157ccc     O3 4222   3.571   6.126   1.824  0.0310 -0.1082  0.2976
  157ccc     O4 4223   3.420   6.222   1.694 -0.1553  0.4128 -0.0228
  157ccc    H14 4224   3.987   6.391   2.290 -1.9568  1.4502  0.2458
  157ccc    H15 4225   3.348   6.288   1.703 -0.7580 -0.0126 -1.3841
  157ccc    H16 4226   3.613   6.493   2.102  2.6869 -1.3950  1.2434
  158ccc     N1 4227   5.894   5.874   0.482 -0.3670 -0.0866  0.4452
  158ccc     H1 4228   5.888   5.966   0.525 -1.6556 -0.3349  0.8385
  158ccc     C1 4229   5.821   5.837   0.357  0.3000  0.4554  0.7249
  158ccc     H2 4230   5.843   5.896   0.267 -3.7376 -2.9428 -2.9524
  158ccc     C2 4231   5.666   5.855   0.370 -0.1632  0.3526 -0.1086
  158ccc     H3 4232   5.846   5.734   0.329 -1.8376 -0.0396  0.4500
  158ccc     H4 4233   5.643   5.879   0.474 -2.1585 -0.9331 -0.2095
  158ccc     H5 4234   5.615   5.759   0.360  0.0326  0.0954  1.2204
  158ccc     N2 4235   5.603   5.955   0.277  0.0505  0.0277  0.2907
  158ccc     C3 4236   5.661   6.099   0.304 -0.1019 -0.2588 -0.5047
  158ccc     C4 4237   5.449   5.972   0.288  0.3884  0.0851 -0.2759
  158ccc     H6 4238   5.430   5.971   0.395  1.9266  0.1668  0.0186
  158ccc     C5 4239   5.351   5.878   0.214 -0.9380  0.3532 -0.1239
  158ccc     H7 4240   5.432   6.074   0.253  1.3722  0.7917  1.2164
  158ccc     H8 4241   5.357   5.775   0.250 -0.4710 -1.5627 -4.9196
  158ccc     H9 4242   5.388   5.879   0.110  1.5569 -0.5656  0.6775
  158ccc     C6 4243   5.205   5.917   0.229 -0.3630 -0.0221  0.0355
  158ccc     O1 4244   5.126   5.813   0.250 -0.0011  0.5446  0.2535
  158ccc     O2 4245   5.171   6.021   0.278 -0.2218 -0.1883  0.6893
  158ccc    H10 4246   5.766   6.083   0.328  0.1385  1.7137 -0.0689
  158ccc    H11 4247   5.621   6.128   0.401 -0.3079 -0.3228 -0.5701
  158ccc     C7 4248   5.646   6.202   0.192 -0.2269  0.3969  0.3887
  158ccc    H12 4249   5.539   6.215   0.171 -0.5174 -0.5548  1.1625
  158ccc    H13 4250   5.696   6.158   0.105 -2.1805 -1.1470 -0.0367
  158ccc     C8 4251   5.725   6.326   0.236  0.3977 -0.8593  0.2436
  158ccc     O3 4252   5.731   6.362   0.352  0.1413  0.3882  0.1594
  158ccc     O4 4253   5.740   6.410   0.138 -0.1809 -0.2571 -0.2111
  158ccc    H14 4254   5.041   5.849   0.281  0.7267 -0.2346  3.6331
  158ccc    H15 4255   5.681   6.377   0.068  1.8584 -0.5128 -1.9313
  158ccc    H16 4256   5.632   5.935   0.180  2.2060  1.6891  0.4939
  159ccc     N1 4257   6.024   5.193   0.846 -0.2839  0.1791  0.5870
  159ccc     H1 4258   5.939   5.242   0.873  0.6379  1.4300  1.3594
  159ccc     C1 4259   6.042   5.055   0.890  0.1843  0.3907  0.0128
  159ccc     H2 4260   6.091   4.999   0.810  1.1049  0.2147  0.6822
  159ccc     C2 4261   5.907   4.983   0.918 -0.1762  0.3094 -0.2830
  159ccc     H3 4262   6.101   5.044   0.982 -0.1684  0.8944  0.3065
  159ccc     H4 4263   5.859   5.040   0.998  2.6364  0.9044  1.1355
  159ccc     H5 4264   5.932   4.885   0.960 -0.3049  0.2087 -0.4420
  159ccc     N2 4265   5.807   4.967   0.797  0.2877 -0.2319  0.4405
  159ccc     C3 4266   5.673   4.898   0.826 -0.4901 -0.2701  0.0086
  159ccc     C4 4267   5.881   4.886   0.689  0.4086  0.2417 -0.2841
  159ccc     H6 4268   5.818   4.889   0.600 -1.4627  1.4107  1.0051
  159ccc     C5 4269   5.926   4.742   0.727 -0.5631  0.3542  0.9017
  159ccc     H7 4270   5.972   4.933   0.652  1.0338 -2.0423 -1.8631
  159ccc     H8 4271   5.841   4.680   0.758 -0.3311 -0.1674  0.5125
  159ccc     H9 4272   5.999   4.741   0.809  1.2686 -1.4872 -0.6519
  159ccc     C6 4273   6.006   4.666   0.620  0.5738  0.5390  0.3444
  159ccc     O1 4274   5.991   4.530   0.621  0.2033  0.1750 -0.0324
  159ccc     O2 4275   6.061   4.721   0.529  0.2917 -0.4238  0.3924
  159ccc    H10 4276   5.703   4.810   0.883  0.4883 -2.3648 -3.4449
  159ccc    H11 4277   5.639   4.866   0.728 -0.3699 -1.0917  0.2327
  159ccc     C7 4278   5.572   4.982   0.903 -0.0779  0.3153  0.3174
  159ccc    H12 4279   5.556   5.069   0.837 -2.3447 -0.8865 -0.8224
  159ccc    H13 4280   5.611   5.020   0.998 -0.4099 -0.4320  0.7600
  159ccc     C8 4281   5.443   4.904   0.930  0.1102 -0.0510 -0.9278
  159ccc     O3 4282   5.444   4.783   0.936  0.4845  0.4350  0.5387
  159ccc     O4 4283   5.338   4.974   0.976  0.0751 -0.6446  0.8366
  159ccc    H14 4284   6.025   4.515   0.532 -1.4555  2.7640 -1.2339
  159ccc    H15 4285   5.376   5.063   0.988 -1.6550  0.7241 -2.3309
  159ccc    H16 4286   5.787   5.064   0.769  0.2552 -0.3543  0.0352
  160ccc     N1 4287   7.230   4.659  -0.161 -0.2696  0.1142  0.4784
  160ccc     H1 4288   7.302   4.719  -0.123 -0.6705  0.3949  0.7921
  160ccc     C1 4289   7.262   4.579  -0.288  0.2236 -0.3367 -0.3463
  160ccc     H2 4290   7.354   4.520  -0.273  1.4882  1.2753 -1.4310
  160ccc     C2 4291   7.275   4.681  -0.411 -0.6141  0.5323 -0.6053
  160ccc     H3 4292   7.180   4.513  -0.318  0.3451 -0.5867 -0.1379
  160ccc     H4 4293   7.327   4.642  -0.498 -2.9094 -0.9374 -1.4198
  160ccc     H5 4294   7.335   4.762  -0.370 -0.6943 -0.9905  2.8324
  160ccc     N2 4295   7.150   4.746  -0.469  0.7850 -0.1160 -0.2762
  160ccc     C3 4296   7.068   4.662  -0.576 -0.5732  0.1376  0.1091
  160ccc     C4 4297   7.182   4.881  -0.534 -0.2187 -0.0615  0.4563
  160ccc     H6 4298   7.252   4.863  -0.616  0.4086 -1.0146  1.1810
  160ccc     C5 4299   7.231   4.994  -0.438  0.3542  0.8953 -0.0369
  160ccc     H7 4300   7.087   4.916  -0.574  0.2309 -0.1529 -0.7571
  160ccc     H8 4301   7.245   5.091  -0.486  0.8579 -0.2260 -2.2698
  160ccc     H9 4302   7.331   4.969  -0.402  0.5705 -0.5440 -1.4962
  160ccc     C6 4303   7.142   5.012  -0.322  0.6764 -0.5084 -0.3566
  160ccc     O1 4304   7.020   5.066  -0.354  0.3079  0.7316  0.9885
  160ccc     O2 4305   7.141   4.948  -0.221  0.4631  0.9697 -0.6961
  160ccc    H10 4306   7.136   4.610  -0.644  0.7254  1.0923  0.6446
  160ccc    H11 4307   7.026   4.746  -0.631  0.3834 -0.6396 -1.9326
  160ccc     C7 4308   6.961   4.569  -0.512  0.1732 -0.0341 -0.2117
  160ccc    H12 4309   7.021   4.492  -0.464 -0.2336 -0.7490 -0.8216
  160ccc    H13 4310   6.892   4.509  -0.573 -0.9144  0.9475  0.0028
  160ccc     C8 4311   6.869   4.641  -0.411  0.4105 -0.5860 -0.3781
  160ccc     O3 4312   6.908   4.731  -0.335 -0.0245  0.6499 -0.1260
  160ccc     O4 4313   6.746   4.594  -0.409  0.2548  0.3445 -0.7056
  160ccc    H14 4314   7.022   5.092  -0.448 -0.5797 -2.2314  0.0410
  160ccc    H15 4315   6.725   4.552  -0.495 -1.9234 -1.9414  0.7759
  160ccc    H16 4316   7.093   4.765  -0.385  2.8998  0.3042  1.1608
  161ccc     N1 4317   6.995   4.015   0.021  0.5277 -0.0432 -0.7765
  161ccc     H1 4318   6.980   3.993   0.119  0.6080 -0.1878 -0.7962
  161ccc     C1 4319   7.005   3.897  -0.069 -0.2916 -0.1433  0.2713
  161ccc     H2 4320   6.903   3.863  -0.087 -0.0974  0.0915 -1.4547
  161ccc     C2 4321   7.093   3.779  -0.013  0.5444  0.1128  0.0809
  161ccc     H3 4322   7.050   3.927  -0.165 -0.1398  1.2605  0.7500
  161ccc     H4 4323   7.085   3.694  -0.082 -0.2417  0.3448 -0.1167
  161ccc     H5 4324   7.054   3.748   0.084  4.5518 -0.4607  1.7001
  161ccc     N2 4325   7.245   3.795   0.022 -0.0731 -0.1616 -0.0335
  161ccc     C3 4326   7.318   3.864  -0.100  0.0067 -0.1043 -0.1137
  161ccc     C4 4327   7.314   3.666   0.055 -0.9489  0.0301 -0.3284
  161ccc     H6 4328   7.316   3.610  -0.039 -0.1910  0.2008 -0.4181
  161ccc     C5 4329   7.252   3.575   0.163  0.0768 -0.0019  0.3799
  161ccc     H7 4330   7.417   3.689   0.084 -1.7689  0.9786  2.0847
  161ccc     H8 4331   7.143   3.569   0.162 -0.1066  2.2201  0.0671
  161ccc     H9 4332   7.270   3.615   0.264 -1.0716  0.5171  0.3975
  161ccc     C6 4333   7.313   3.436   0.163 -0.1061  0.2937 -0.2189
  161ccc     O1 4334   7.274   3.341   0.251  0.5316  0.7674  0.4929
  161ccc     O2 4335   7.395   3.399   0.085  0.2559 -0.3869 -0.5257
  161ccc    H10 4336   7.255   3.940  -0.147  0.6489  0.2128 -0.4657
  161ccc    H11 4337   7.329   3.785  -0.175  2.3128 -0.2961  0.3751
  161ccc     C7 4338   7.458   3.926  -0.078 -0.1443 -0.3319 -0.3071
  161ccc    H12 4339   7.497   3.964  -0.173 -1.7676 -0.4370 -1.0462
  161ccc    H13 4340   7.530   3.850  -0.047  0.8142  1.1131  1.2560
  161ccc     C8 4341   7.447   4.027   0.029  0.5807  0.4194 -0.2531
  161ccc     O3 4342   7.351   4.096   0.042  0.5298  0.3041 -0.0285
  161ccc     O4 4343   7.562   4.055   0.091  0.6718 -0.2264 -0.0871
  161ccc    H14 4344   7.201   3.368   0.310  0.2564  0.1407  0.4536
  161ccc    H15 4345   7.634   4.001   0.052  0.5175  0.5248 -1.4910
  161ccc    H16 4346   7.260   3.859   0.102  1.1886 -0.2228 -0.1978
  162ccc     N1 4347   8.564   4.622  -0.588  0.3609 -0.5635 -0.6473
  162ccc     H1 4348   8.601   4.586  -0.502 -0.4791 -1.1547 -0.5270
  162ccc     C1 4349   8.644   4.689  -0.686  0.2447  0.1858 -0.0207
  162ccc     H2 4350   8.737   4.631  -0.694  0.3164  0.2887  0.0728
  162ccc     C2 4351   8.678   4.831  -0.647 -0.3014 -0.1502  0.5913
  162ccc     H3 4352   8.599   4.678  -0.785 -0.7771 -2.7461  0.6527
  162ccc     H4 4353   8.758   4.864  -0.713 -1.2805  1.4713  0.1591
  162ccc     H5 4354   8.715   4.833  -0.544 -0.6112  2.0509  0.7152
  162ccc     N2 4355   8.562   4.940  -0.670 -0.1568 -0.4193  0.0592
  162ccc     C3 4356   8.463   4.935  -0.561 -0.6222 -0.5662 -0.8680
  162ccc     C4 4357   8.499   4.934  -0.812 -0.0463 -0.4056 -0.2888
  162ccc     H6 4358   8.469   4.831  -0.833  0.0442 -0.7990  1.3879
  162ccc     C5 4359   8.593   5.002  -0.916 -0.2448  0.2786  0.1121
  162ccc     H7 4360   8.403   4.987  -0.810 -0.1573 -0.5929 -0.5451
  162ccc     H8 4361   8.692   4.956  -0.909  0.8161  2.5314  0.5544
  162ccc     H9 4362   8.601   5.105  -0.881 -1.0101  0.3821  0.0136
  162ccc     C6 4363   8.523   4.989  -1.051  0.0011  0.2608  0.2098
  162ccc     O1 4364   8.594   5.026  -1.155 -0.4606 -0.3525  0.1675
  162ccc     O2 4365   8.403   4.965  -1.066 -0.0705  0.2481  0.3405
  162ccc    H10 4366   8.421   4.835  -0.565  0.7795 -1.3004  1.0770
  162ccc    H11 4367   8.392   5.015  -0.583 -1.2434 -0.7631  0.3292
  162ccc     C7 4368   8.514   4.963  -0.412  0.4134 -0.6998 -0.2595
  162ccc    H12 4369   8.512   5.073  -0.406  0.8920 -0.7057  0.0579
  162ccc    H13 4370   8.614   4.922  -0.398  1.1349  0.7192 -1.0476
  162ccc     C8 4371   8.411   4.905  -0.313  0.3439  0.1432  0.5837
  162ccc     O3 4372   8.338   4.819  -0.341  0.2537  0.1072  0.6567
  162ccc     O4 4373   8.420   4.957  -0.191  0.3259  0.0377 -0.7327
  162ccc    H14 4374   8.679   5.061  -1.122  1.5540 -1.8152 -2.9435
  162ccc    H15 4375   8.492   5.022  -0.193  0.4469  0.1045  2.2151
  162ccc    H16 4376   8.601   5.035  -0.658 -2.1836  0.6238 -1.0628
  163ccc     N1 4377   8.083   4.091  -0.699  0.4625  0.4388 -0.1796
  163ccc     H1 4378   8.076   4.170  -0.762  0.9335  0.2579 -0.4565
  163ccc     C1 4379   8.047   3.960  -0.742  0.0086  0.1580 -0.1158
  163ccc     H2 4380   7.946   3.935  -0.709  0.9965 -2.6322  1.0599
  163ccc     C2 4381   8.151   3.853  -0.697  0.4452  0.3262 -0.3819
  163ccc     H3 4382   8.054   3.962  -0.852 -0.0516  2.0890 -0.1146
  163ccc     H4 4383   8.101   3.757  -0.712  1.2781  0.1617 -2.2922
  163ccc     H5 4384   8.170   3.849  -0.589 -1.8994  2.6502  0.2182
  163ccc     N2 4385   8.282   3.840  -0.779  0.9577  0.7935  0.5065
  163ccc     C3 4386   8.352   3.711  -0.740 -0.2464 -0.2318 -0.0015
  163ccc     C4 4387   8.364   3.958  -0.748 -0.1222  0.1672  0.6361
  163ccc     H6 4388   8.449   3.952  -0.817  0.1384 -0.6410  1.0070
  163ccc     C5 4389   8.411   3.967  -0.607  0.0436 -0.3410 -0.4062
  163ccc     H7 4390   8.299   4.043  -0.768 -1.7727 -1.4161 -1.0920
  163ccc     H8 4391   8.498   3.901  -0.608  0.2436 -0.1629  1.8152
  163ccc     H9 4392   8.342   3.934  -0.529  2.6425 -0.3315  2.0849
  163ccc     C6 4393   8.453   4.103  -0.571  0.1852 -0.4689 -0.1548
  163ccc     O1 4394   8.509   4.106  -0.449 -0.0977 -0.3634 -0.8104
  163ccc     O2 4395   8.398   4.203  -0.618 -0.1949  0.5348  0.3289
  163ccc    H10 4396   8.274   3.635  -0.742  0.3794 -0.8664 -0.3182
  163ccc    H11 4397   8.396   3.711  -0.640  1.4483  1.5351 -0.6808
  163ccc     C7 4398   8.470   3.667  -0.827  0.2957  0.0166 -0.0220
  163ccc    H12 4399   8.562   3.715  -0.791 -0.8129  2.3462 -0.1106
  163ccc    H13 4400   8.461   3.677  -0.936 -1.0447  1.1923  0.1704
  163ccc     C8 4401   8.509   3.524  -0.783  0.4938 -0.1067  0.3274
  163ccc     O3 4402   8.450   3.465  -0.700  0.5920 -0.2109 -1.0665
  163ccc     O4 4403   8.616   3.478  -0.842 -0.0652  0.1807 -0.5146
  163ccc    H14 4404   8.539   4.016  -0.427  1.0167  0.5602  1.8471
  163ccc    H15 4405   8.663   3.553  -0.884 -1.8996  1.8864  0.3068
  163ccc    H16 4406   8.259   3.836  -0.879 -0.9139 -1.6563  0.9371
  164ccc     N1 4407   8.613   4.665   1.056  0.3206  0.5874 -1.1421
  164ccc     H1 4408   8.524   4.617   1.048  0.5039  0.2119 -0.9583
  164ccc     C1 4409   8.633   4.756   1.169  0.9499  0.6504  0.2348
  164ccc     H2 4410   8.736   4.791   1.180  1.4233 -0.5325 -0.2701
  164ccc     C2 4411   8.602   4.686   1.299 -0.1438 -0.2687 -0.4161
  164ccc     H3 4412   8.576   4.849   1.161 -1.3934 -0.6659  0.6160
  164ccc     H4 4413   8.515   4.620   1.294 -0.2639 -0.3116  1.4787
  164ccc     H5 4414   8.585   4.765   1.372 -0.9455 -0.0536 -0.8169
  164ccc     N2 4415   8.717   4.590   1.349 -0.1613  0.3612 -0.0600
  164ccc     C3 4416   8.723   4.464   1.266  0.2696  0.9857  0.5178
  164ccc     C4 4417   8.715   4.560   1.499  0.1695  0.0404 -0.4839
  164ccc     H6 4418   8.611   4.538   1.523 -0.1879  0.4851 -1.5368
  164ccc     C5 4419   8.794   4.667   1.588 -0.3329  0.4002 -0.1213
  164ccc     H7 4420   8.776   4.470   1.504  0.0389  0.0168  1.1690
  164ccc     H8 4421   8.745   4.765   1.589  0.9932  1.0800 -0.2552
  164ccc     H9 4422   8.895   4.689   1.553 -0.0163 -1.4826 -0.4954
  164ccc     C6 4423   8.799   4.614   1.728  0.0420 -0.2422 -0.0599
  164ccc     O1 4424   8.920   4.632   1.789 -0.0421  0.5661  0.5279
  164ccc     O2 4425   8.704   4.578   1.801 -0.2959 -0.5193 -0.3677
  164ccc    H10 4426   8.682   4.481   1.166  2.5401 -1.3727 -0.9409
  164ccc    H11 4427   8.673   4.388   1.328  2.0797  1.6490  2.9592
  164ccc     C7 4428   8.871   4.418   1.245  0.5009 -0.2006 -0.4579
  164ccc    H12 4429   8.931   4.409   1.337  0.0234  1.0667  0.0067
  164ccc    H13 4430   8.915   4.495   1.180 -2.9693  0.1949 -2.5734
  164ccc     C8 4431   8.880   4.293   1.160  0.2808  0.2440 -0.6868
  164ccc     O3 4432   8.781   4.239   1.113  0.1493 -0.1409  0.0727
  164ccc     O4 4433   8.999   4.268   1.105 -0.4936  0.6127 -0.4874
  164ccc    H14 4434   8.891   4.638   1.882 -1.7637 -1.0744  0.1419
  164ccc    H15 4435   9.065   4.337   1.123  0.1965  0.6508 -2.8086
  164ccc    H16 4436   8.807   4.638   1.334  0.4004 -0.4520  0.5751
  165ccc     N1 4437   8.819   3.980   0.986 -0.9013  0.8335 -0.3350
  165ccc     H1 4438   8.899   4.016   1.035 -1.9806  0.6953  1.6086
  165ccc     C1 4439   8.747   3.883   1.067  0.3677  0.3857  0.0335
  165ccc     H2 4440   8.763   3.913   1.172  0.3410  0.7779 -0.0757
  165ccc     C2 4441   8.810   3.744   1.068 -0.1827 -0.2149 -0.1472
  165ccc     H3 4442   8.644   3.881   1.031  0.6731 -0.4803 -0.8373
  165ccc     H4 4443   8.824   3.701   0.969 -1.4339 -1.3092  0.1152
  165ccc     H5 4444   8.729   3.678   1.099 -1.0348  0.5772 -0.6252
  165ccc     N2 4445   8.933   3.715   1.154 -0.7254 -0.8876 -0.9983
  165ccc     C3 4446   9.021   3.602   1.100  0.4454 -0.0061 -0.5724
  165ccc     C4 4447   8.886   3.692   1.300 -0.3750 -0.4790 -0.5646
  165ccc     H6 4448   8.973   3.683   1.365 -1.1789 -1.1650  0.4319
  165ccc     C5 4449   8.797   3.578   1.333  0.4375 -0.2277  0.3451
  165ccc     H7 4450   8.831   3.781   1.332  0.6787  0.0804 -0.2824
  165ccc     H8 4451   8.849   3.483   1.312 -0.0108 -0.3873 -0.0530
  165ccc     H9 4452   8.698   3.591   1.288  0.1944 -1.5765  0.4432
  165ccc     C6 4453   8.765   3.570   1.482 -0.0032 -0.1403 -0.6395
  165ccc     O1 4454   8.655   3.505   1.527 -0.4672  0.0640  0.1290
  165ccc     O2 4455   8.830   3.622   1.573  0.3021  0.1746  0.1649
  165ccc    H10 4456   9.066   3.641   1.008 -0.1461  0.1266 -0.8114
  165ccc    H11 4457   8.957   3.515   1.085 -0.0693 -0.0446  1.5508
  165ccc     C7 4458   9.140   3.567   1.184 -0.6865  0.0285  0.3776
  165ccc    H12 4459   9.105   3.511   1.272  1.1286 -2.9845 -0.6643
  165ccc    H13 4460   9.193   3.655   1.222  1.7565 -0.3504 -1.9157
  165ccc     C8 4461   9.235   3.477   1.118 -0.6599  0.7171 -0.6088
  165ccc     O3 4462   9.233   3.422   1.010 -0.0480  0.0844 -0.2379
  165ccc     O4 4463   9.333   3.439   1.205  0.7318  0.3546  0.4045
  165ccc    H14 4464   8.625   3.468   1.442  1.4697 -0.2583 -0.4568
  165ccc    H15 4465   9.388   3.394   1.138  2.8303  2.0595  0.8713
  165ccc    H16 4466   8.997   3.795   1.156 -2.0118  0.1626 -0.7933
  166ccc     N1 4467   6.398   6.624   2.206  0.8503 -0.0196 -0.5513
  166ccc     H1 4468   6.301   6.598   2.190 -1.1821  4.3732  2.5764
  166ccc     C1 4469   6.425   6.711   2.325 -0.0668  0.1607  0.3822
  166ccc     H2 4470   6.357   6.692   2.408 -0.3953 -0.7204 -0.0686
  166ccc     C2 4471   6.442   6.863   2.307 -0.1772 -0.7481  0.2144
  166ccc     H3 4472   6.522   6.676   2.362  0.2633  1.1609  0.4832
  166ccc     H4 4473   6.471   6.912   2.400  0.4715  2.4098 -1.4866
  166ccc     H5 4474   6.345   6.904   2.279  0.3355  1.9590  2.0566
  166ccc     N2 4475   6.532   6.911   2.192 -0.1848 -0.5734 -0.6502
  166ccc     C3 4476   6.675   6.898   2.244  0.8469  0.5183  0.6745
  166ccc     C4 4477   6.503   7.060   2.164 -0.4112 -0.4539 -0.6976
  166ccc     H6 4478   6.503   7.107   2.263  0.9770 -1.2752 -0.2768
  166ccc     C5 4479   6.368   7.090   2.092 -0.2510  0.1878 -0.4107
  166ccc     H7 4480   6.582   7.094   2.097 -1.0840 -0.5966 -1.5748
  166ccc     H8 4481   6.284   7.033   2.133 -0.0356  0.6376  0.7075
  166ccc     H9 4482   6.378   7.049   1.991 -0.0284  0.2755 -0.4269
  166ccc     C6 4483   6.324   7.232   2.074  0.5136 -0.4559 -0.5641
  166ccc     O1 4484   6.202   7.236   2.017  0.1956 -0.1722  0.5807
  166ccc     O2 4485   6.400   7.323   2.086 -0.2667 -0.5879 -1.2107
  166ccc    H10 4486   6.697   6.794   2.267 -2.1762 -0.4250 -0.2412
  166ccc    H11 4487   6.697   6.950   2.337  1.8415 -0.6704  1.1352
  166ccc     C7 4488   6.784   6.945   2.147  0.0936  0.7524 -0.3799
  166ccc    H12 4489   6.759   7.038   2.096  0.7315  1.6369  0.8659
  166ccc    H13 4490   6.795   6.864   2.074 -0.2852  1.9771 -1.8504
  166ccc     C8 4491   6.922   6.960   2.207 -0.3291 -0.5719  0.1682
  166ccc     O3 4492   7.002   6.878   2.236 -0.4736 -0.1054  0.8931
  166ccc     O4 4493   6.951   7.085   2.244 -0.2478  0.2935  0.3230
  166ccc    H14 4494   6.168   7.146   2.028 -0.6734  0.0312 -0.2487
  166ccc    H15 4495   7.044   7.079   2.272  0.0431 -0.8795 -0.8372
  166ccc    H16 4496   6.522   6.847   2.111 -0.5228 -1.4716  0.0757
  167ccc     N1 4497   6.458   6.403   1.282  0.0205  0.3397 -0.6669
  167ccc     H1 4498   6.361   6.381   1.262 -0.0675  0.6381 -0.5767
  167ccc     C1 4499   6.571   6.419   1.186 -0.0596  0.4856 -0.1687
  167ccc     H2 4500   6.653   6.477   1.229  1.9459 -1.4202 -1.2200
  167ccc     C2 4501   6.515   6.501   1.067  0.3802  0.0254 -0.0733
  167ccc     H3 4502   6.623   6.325   1.161  0.8673  0.4067  1.9143
  167ccc     H4 4503   6.429   6.447   1.028  0.5069 -2.0527  2.2409
  167ccc     H5 4504   6.591   6.503   0.988  1.2286  0.0476  0.7226
  167ccc     N2 4505   6.464   6.646   1.086  0.8116 -0.5725  0.3107
  167ccc     C3 4506   6.405   6.700   0.953 -0.2230  0.1190 -0.3295
  167ccc     C4 4507   6.573   6.738   1.138 -0.7208  0.1815  0.0895
  167ccc     H6 4508   6.649   6.671   1.178 -0.8079  0.7207  1.1958
  167ccc     C5 4509   6.552   6.836   1.256  0.2123  0.5129 -0.4836
  167ccc     H7 4510   6.624   6.784   1.053  0.4822 -0.5063  0.4238
  167ccc     H8 4511   6.522   6.776   1.343 -1.7603  0.9414 -0.8029
  167ccc     H9 4512   6.464   6.901   1.242  0.6136  1.3184  0.6342
  167ccc     C6 4513   6.677   6.916   1.283  0.9762 -0.2234  0.1998
  167ccc     O1 4514   6.681   6.986   1.399 -0.2858 -0.9327 -0.2281
  167ccc     O2 4515   6.775   6.920   1.207 -0.3256  0.3152 -0.3483
  167ccc    H10 4516   6.401   6.809   0.949  1.1077  0.1651 -0.7390
  167ccc    H11 4517   6.302   6.663   0.951 -1.3907  3.0998 -0.3189
  167ccc     C7 4518   6.483   6.658   0.832  0.3342 -0.1350  0.9129
  167ccc    H12 4519   6.478   6.551   0.810 -1.4614 -0.1889  1.4383
  167ccc    H13 4520   6.586   6.693   0.846  0.7302 -0.2128 -1.4571
  167ccc     C8 4521   6.438   6.735   0.706  0.8671  0.1068  0.1510
  167ccc     O3 4522   6.471   6.848   0.678 -1.0298  0.2700  0.0052
  167ccc     O4 4523   6.327   6.692   0.647 -0.0234  0.4277 -0.3101
  167ccc    H14 4524   6.597   6.975   1.446 -0.1320  0.9814  0.5902
  167ccc    H15 4525   6.319   6.595   0.655 -0.4624  0.5129  0.3096
  167ccc    H16 4526   6.393   6.658   1.160 -0.3244 -0.7278 -0.7174
  168ccc     N1 4527   7.276   6.585   2.415  0.2869 -0.4421  0.4238
  168ccc     H1 4528   7.200   6.545   2.361  0.0205 -0.6286  0.9278
  168ccc     C1 4529   7.321   6.507   2.527  0.8119 -0.3741 -0.2721
  168ccc     H2 4530   7.398   6.437   2.493 -0.1587 -2.6979  1.9448
  168ccc     C2 4531   7.208   6.438   2.608  0.0843  0.3252 -0.4984
  168ccc     H3 4532   7.370   6.577   2.596 -0.0326  0.7962 -0.8157
  168ccc     H4 4533   7.257   6.374   2.681 -0.5852  0.3664  0.0008
  168ccc     H5 4534   7.150   6.374   2.541  1.6813 -1.6187 -0.1344
  168ccc     N2 4535   7.106   6.530   2.685 -0.0785  0.4804  1.0773
  168ccc     C3 4536   7.052   6.452   2.807  0.0357  0.0232  0.3681
  168ccc     C4 4537   6.998   6.569   2.582 -0.0932 -0.9516  0.1617
  168ccc     H6 4538   7.038   6.629   2.501 -3.4666  2.1104  0.4868
  168ccc     C5 4539   6.878   6.645   2.647 -0.2076  0.5656 -0.2326
  168ccc     H7 4540   6.962   6.472   2.545  0.0312 -1.2919  0.9037
  168ccc     H8 4541   6.916   6.731   2.704  0.2495 -0.2077  0.6487
  168ccc     H9 4542   6.819   6.583   2.716  0.4406 -0.5584 -0.6532
  168ccc     C6 4543   6.774   6.692   2.543  0.0681  0.2562  0.0873
  168ccc     O1 4544   6.659   6.723   2.589  0.5869 -0.3110 -0.0449
  168ccc     O2 4545   6.772   6.669   2.422 -0.0413 -0.1063  0.0606
  168ccc    H10 4546   6.981   6.520   2.855  0.5949  2.0407 -1.4821
  168ccc    H11 4547   7.135   6.445   2.877  1.8821  0.1113 -1.6864
  168ccc     C7 4548   6.989   6.316   2.768  0.1186 -0.9827  0.9862
  168ccc    H12 4549   7.069   6.248   2.736 -1.4915 -1.4348 -2.6051
  168ccc    H13 4550   6.929   6.322   2.676 -2.2395 -0.7196  2.4465
  168ccc     C8 4551   6.909   6.244   2.874  0.1966  0.1264  0.1432
  168ccc     O3 4552   6.911   6.280   2.991  0.4016  0.7273  0.1374
  168ccc     O4 4553   6.820   6.150   2.831  0.0051  0.4876  0.7729
  168ccc    H14 4554   6.680   6.725   2.684  1.8734 -0.9852 -0.2817
  168ccc    H15 4555   6.834   6.144   2.735 -1.7076 -1.2518  0.5583
  168ccc    H16 4556   7.155   6.616   2.714  3.7087 -0.0090 -2.8514
  169ccc     N1 4557   7.093   6.224   1.983  0.5822  0.2603  0.1253
  169ccc     H1 4558   7.111   6.217   2.082 -0.2888 -0.2465  0.2612
  169ccc     C1 4559   6.998   6.128   1.917 -0.1764 -0.7003  0.4352
  169ccc     H2 4560   6.908   6.159   1.970  2.3903  0.3908  4.6866
  169ccc     C2 4561   7.040   5.978   1.932  0.2486 -0.5240 -0.2662
  169ccc     H3 4562   6.979   6.147   1.811  2.0824  2.6400  0.4912
  169ccc     H4 4563   6.974   5.907   1.884  0.6405 -0.2768 -1.1835
  169ccc     H5 4564   7.052   5.946   2.036  0.2925  1.2001  0.2999
  169ccc     N2 4565   7.169   5.937   1.871 -0.5075  0.2285 -0.2468
  169ccc     C3 4566   7.174   5.967   1.725  0.5487  0.3534  0.4579
  169ccc     C4 4567   7.184   5.783   1.890 -0.6941  0.4768 -0.0524
  169ccc     H6 4568   7.090   5.740   1.854  0.1936 -1.0599 -0.6087
  169ccc     C5 4569   7.208   5.733   2.034 -0.7303  0.1278 -0.2297
  169ccc     H7 4570   7.261   5.738   1.827  0.0351  1.4441  0.1335
  169ccc     H8 4571   7.143   5.782   2.108 -0.2195  0.3111  0.1028
  169ccc     H9 4572   7.312   5.744   2.067 -0.9806 -3.4227  2.3548
  169ccc     C6 4573   7.182   5.581   2.043  0.2919 -0.7703  0.2603
  169ccc     O1 4574   7.213   5.535   2.162  0.4942  0.1245  0.0272
  169ccc     O2 4575   7.111   5.519   1.961 -0.5290 -0.7558 -0.6944
  169ccc    H10 4576   7.126   6.060   1.694  0.4659  0.7097  1.5994
  169ccc    H11 4577   7.119   5.884   1.682  0.1685  0.5794  0.5043
  169ccc     C7 4578   7.317   5.971   1.682 -0.9276 -0.0244  0.7859
  169ccc    H12 4579   7.368   5.874   1.687  0.5141  0.7169  1.0521
  169ccc    H13 4580   7.377   6.045   1.736 -1.6255  1.6411 -0.6252
  169ccc     C8 4581   7.325   6.021   1.543 -0.7384 -0.4761  0.5515
  169ccc     O3 4582   7.242   6.102   1.492 -0.0148 -0.0968  0.0008
  169ccc     O4 4583   7.423   5.963   1.472 -0.3517 -0.6123  0.1012
  169ccc    H14 4584   7.285   5.592   2.195  1.1821 -0.1367 -0.9669
  169ccc    H15 4585   7.465   5.906   1.539  0.6248  1.2288  1.1220
  169ccc    H16 4586   7.249   5.988   1.910 -0.8053  2.2523 -2.1306
  170ccc     N1 4587   7.325   6.354   0.137  0.3980 -0.1073 -0.5977
  170ccc     H1 4588   7.281   6.277   0.185 -0.7684  1.1555  0.4732
  170ccc     C1 4589   7.303   6.482   0.211  0.3892 -0.1988 -0.3013
  170ccc     H2 4590   7.392   6.546   0.199  0.8593 -0.9387 -0.8708
  170ccc     C2 4591   7.275   6.448   0.358 -0.8046 -0.0897 -0.2795
  170ccc     H3 4592   7.215   6.535   0.174 -1.8746 -2.3106  1.7172
  170ccc     H4 4593   7.180   6.397   0.346  0.2733 -1.6241 -3.6258
  170ccc     H5 4594   7.270   6.544   0.408 -1.0480 -0.5440  0.5844
  170ccc     N2 4595   7.389   6.367   0.432 -0.1022 -0.1164 -0.1971
  170ccc     C3 4596   7.343   6.340   0.575 -0.0004 -0.1817  0.2339
  170ccc     C4 4597   7.520   6.441   0.428  0.2505  0.4835 -0.3795
  170ccc     H6 4598   7.533   6.484   0.328  1.2249 -1.2819 -1.0535
  170ccc     C5 4599   7.642   6.353   0.454  0.2672  0.3595 -0.0854
  170ccc     H7 4600   7.517   6.519   0.505 -1.6487 -0.9141  1.0732
  170ccc     H8 4601   7.642   6.268   0.383 -0.2197 -1.5603  2.0968
  170ccc     H9 4602   7.636   6.310   0.555 -1.2582  1.4298  0.2972
  170ccc     C6 4603   7.769   6.432   0.428  0.0761  0.7903  0.7702
  170ccc     O1 4604   7.768   6.557   0.470  0.0128  0.1968  0.6740
  170ccc     O2 4605   7.838   6.406   0.334  0.3234  0.4725  0.2567
  170ccc    H10 4606   7.325   6.439   0.618  0.7941  0.2194 -0.3144
  170ccc    H11 4607   7.427   6.289   0.622  0.9933 -1.4808 -2.6845
  170ccc     C7 4608   7.223   6.251   0.574 -0.1192  0.9954  0.0930
  170ccc    H12 4609   7.230   6.159   0.515  1.3748  1.1715 -0.0349
  170ccc    H13 4610   7.136   6.309   0.542 -0.7609 -0.4162 -0.8423
  170ccc     C8 4611   7.185   6.220   0.716  0.2486 -0.4558  0.0454
  170ccc     O3 4612   7.266   6.174   0.793 -0.0137  0.3794  0.0106
  170ccc     O4 4613   7.053   6.226   0.748 -0.1813 -0.0309 -0.5608
  170ccc    H14 4614   7.728   6.555   0.559  2.1166  0.7466  1.6908
  170ccc    H15 4615   7.002   6.261   0.673 -0.1153  3.0505  0.7079
  170ccc    H16 4616   7.394   6.272   0.393  1.5842 -2.4114  4.8291
  171ccc     N1 4617   7.950   6.524  -0.080 -0.0711  0.3999 -0.0315
  171ccc     H1 4618   8.010   6.509  -0.160 -0.9891 -1.7314 -0.3807
  171ccc     C1 4619   7.993   6.577   0.051  0.0785  0.1718  0.5028
  171ccc     H2 4620   7.931   6.531   0.129 -0.3198  1.1495  0.7776
  171ccc     C2 4621   7.977   6.734   0.064  0.2295  0.2495 -0.1209
  171ccc     H3 4622   8.097   6.548   0.073  1.4404  2.0733 -2.8171
  171ccc     H4 4623   8.013   6.755   0.165 -3.0419 -1.4083  1.5606
  171ccc     H5 4624   7.872   6.760   0.064  0.6631  2.3198  1.6679
  171ccc     N2 4625   8.036   6.832  -0.034 -0.3202  0.0463  0.0624
  171ccc     C3 4626   8.184   6.825  -0.034  0.4554 -0.1206  0.7202
  171ccc     C4 4627   7.972   6.972  -0.007  0.2092  0.1691  0.0085
  171ccc     H6 4628   7.974   7.002   0.098  2.9372  0.6725 -0.1232
  171ccc     C5 4629   7.847   7.011  -0.089 -0.2348 -0.0266  0.2687
  171ccc     H7 4630   8.034   7.043  -0.061 -0.5232 -0.6918 -2.0928
  171ccc     H8 4631   7.770   6.939  -0.060 -0.7375 -0.5126 -2.0625
  171ccc     H9 4632   7.869   6.994  -0.196 -1.3235  1.3685 -0.2048
  171ccc     C6 4633   7.802   7.153  -0.062  1.0833  0.3869  0.0339
  171ccc     O1 4634   7.732   7.218  -0.158 -0.3222 -1.0417  0.3307
  171ccc     O2 4635   7.842   7.220   0.035 -0.3190 -0.0122 -0.7339
  171ccc    H10 4636   8.220   6.729   0.004  2.2188 -0.1898 -0.9157
  171ccc    H11 4637   8.230   6.893   0.038  1.5079 -0.1515  0.1147
  171ccc     C7 4638   8.247   6.868  -0.171  0.5254  0.1681 -0.3330
  171ccc    H12 4639   8.199   6.962  -0.200 -1.1455 -1.0876 -1.8748
  171ccc    H13 4640   8.231   6.789  -0.246 -0.3043 -0.3151  0.3348
  171ccc     C8 4641   8.391   6.894  -0.164 -0.1692 -0.4299  0.0323
  171ccc     O3 4642   8.468   6.861  -0.076 -0.6654  0.1197 -0.2720
  171ccc     O4 4643   8.436   6.977  -0.264 -0.5116  0.1983  0.5302
  171ccc    H14 4644   7.727   7.161  -0.236  0.2296  0.0981 -0.5629
  171ccc    H15 4645   8.368   6.969  -0.333 -0.2651 -0.8478  0.3846
  171ccc    H16 4646   8.007   6.807  -0.129 -1.0366  1.2170 -0.0423
  172ccc     N1 4647   8.754   6.352   0.017  0.2659 -0.2754  0.5149
  172ccc     H1 4648   8.681   6.287  -0.008 -0.9603  0.6991  1.4104
  172ccc     C1 4649   8.746   6.498   0.001  0.3354 -0.5029  0.0629
  172ccc     H2 4650   8.641   6.531  -0.009  0.7020  0.2194 -1.7012
  172ccc     C2 4651   8.831   6.547  -0.120  0.7012 -0.5444  0.4848
  172ccc     H3 4652   8.793   6.549   0.086 -0.1120  0.8808 -0.4845
  172ccc     H4 4653   8.935   6.529  -0.093  0.1080 -2.5695  1.5344
  172ccc     H5 4654   8.822   6.655  -0.137  2.6758 -0.0306  2.3309
  172ccc     N2 4655   8.820   6.475  -0.258  0.2351 -0.4308 -0.4506
  172ccc     C3 4656   8.925   6.518  -0.363 -0.0226  0.3770  0.3816
  172ccc     C4 4657   8.679   6.490  -0.315  0.5132  0.1082  1.5335
  172ccc     H6 4658   8.673   6.425  -0.402  0.3409 -0.2115  1.7801
  172ccc     C5 4659   8.642   6.633  -0.352  0.1711  0.5210 -0.1611
  172ccc     H7 4660   8.607   6.461  -0.238 -0.3074 -0.9736  0.4013
  172ccc     H8 4661   8.713   6.654  -0.433  0.0883  0.1476 -0.3354
  172ccc     H9 4662   8.649   6.703  -0.268  1.1901  0.6021 -0.3064
  172ccc     C6 4663   8.504   6.636  -0.397  0.5946  0.0716 -0.2413
  172ccc     O1 4664   8.481   6.587  -0.519 -0.2887  0.7998  0.3290
  172ccc     O2 4665   8.414   6.617  -0.318  0.4967  0.8068  0.0058
  172ccc    H10 4666   8.918   6.626  -0.375  0.2605  0.4647  0.9579
  172ccc    H11 4667   8.891   6.472  -0.456 -0.9155  1.2004  0.2906
  172ccc     C7 4668   9.066   6.467  -0.329  0.3313  0.2248  0.5825
  172ccc    H12 4669   9.077   6.358  -0.324  1.5387  0.1605 -2.0164
  172ccc    H13 4670   9.090   6.509  -0.230  0.3813  0.6028  0.4098
  172ccc     C8 4671   9.180   6.524  -0.415  0.1387 -0.5942 -0.1059
  172ccc     O3 4672   9.180   6.526  -0.535 -0.0791 -0.5740  0.2721
  172ccc     O4 4673   9.296   6.507  -0.355 -0.1249 -0.0898 -0.5160
  172ccc    H14 4674   8.384   6.579  -0.520 -0.2266 -0.3136  1.2873
  172ccc    H15 4675   9.276   6.517  -0.260 -2.0176 -2.0814 -0.6481
  172ccc    H16 4676   8.831   6.374  -0.239  0.1590 -0.2268  0.7825
  173ccc     N1 4677   9.020   5.640   0.249 -0.0442 -0.1542  0.1970
  173ccc     H1 4678   9.084   5.681   0.182 -0.1095  1.1050  0.8654
  173ccc     C1 4679   9.052   5.521   0.331  0.5443  0.8725  0.2786
  173ccc     H2 4680   8.964   5.461   0.358 -1.5908  2.6228 -2.1893
  173ccc     C2 4681   9.146   5.576   0.445  0.5431  0.5876 -0.0642
  173ccc     H3 4682   9.109   5.451   0.271  0.0753  0.4209  0.3493
  173ccc     H4 4683   9.239   5.608   0.399  0.9488  0.7335  0.8417
  173ccc     H5 4684   9.177   5.496   0.512 -1.2567  1.2918  1.7454
  173ccc     N2 4685   9.090   5.684   0.527  0.1656  0.1392  0.2229
  173ccc     C3 4686   9.191   5.729   0.639  0.1625  0.2998 -0.0079
  173ccc     C4 4687   8.970   5.628   0.593  0.4382 -0.5726 -0.2289
  173ccc     H6 4688   8.907   5.573   0.523  1.2591 -0.4026 -1.1151
  173ccc     C5 4689   8.884   5.729   0.660  0.6811 -0.5695  0.1446
  173ccc     H7 4690   8.994   5.549   0.664 -1.4421 -1.6699 -0.7443
  173ccc     H8 4691   8.853   5.805   0.587 -1.1218 -2.1364 -0.8191
  173ccc     H9 4692   8.927   5.781   0.746  0.2237  1.8342 -1.0058
  173ccc     C6 4693   8.750   5.673   0.695 -0.2330  0.7291 -0.3744
  173ccc     O1 4694   8.668   5.764   0.736  0.5050 -0.2918  0.2608
  173ccc     O2 4695   8.708   5.568   0.645  0.0660  0.2454  0.4135
  173ccc    H10 4696   9.241   5.639   0.676  0.9967  0.2780 -1.1406
  173ccc    H11 4697   9.139   5.787   0.715  2.3993  0.9798  1.0774
  173ccc     C7 4698   9.307   5.803   0.581  0.6497  0.0333  0.3165
  173ccc    H12 4699   9.274   5.896   0.534  0.7065  0.0258  0.2625
  173ccc    H13 4700   9.370   5.748   0.510  1.6653 -1.4940  2.2976
  173ccc     C8 4701   9.397   5.838   0.695  0.5509  0.2196 -0.1021
  173ccc     O3 4702   9.390   5.780   0.808  0.3674  0.1097 -0.3080
  173ccc     O4 4703   9.459   5.958   0.690  0.1127  0.1189  0.3083
  173ccc    H14 4704   8.586   5.716   0.758 -0.0056  0.2258 -0.4642
  173ccc    H15 4705   9.473   5.979   0.596 -1.7396 -3.0800 -0.8496
  173ccc    H16 4706   9.067   5.764   0.467 -2.1164  0.8825  1.9231
  174ccc     N1 4707   9.126   3.496   3.131 -0.1848  0.2506 -0.0415
  174ccc     H1 4708   9.095   3.450   3.046 -0.1100 -1.0700  0.6205
  174ccc     C1 4709   9.262   3.546   3.129 -0.4030 -0.1884 -0.2323
  174ccc     H2 4710   9.286   3.589   3.227 -1.3421  0.2081 -0.1723
  174ccc     C2 4711   9.280   3.661   3.022 -0.3549  0.5234 -0.1442
  174ccc     H3 4712   9.333   3.468   3.099  0.9023  1.0985 -0.6262
  174ccc     H4 4713   9.245   3.753   3.070  1.3959  1.0187  0.2547
  174ccc     H5 4714   9.215   3.651   2.935 -3.5450  1.0258  2.0084
  174ccc     N2 4715   9.435   3.690   2.996  0.1681 -0.3055  0.2793
  174ccc     C3 4716   9.440   3.828   2.926 -0.5996  0.6453 -0.0348
  174ccc     C4 4717   9.486   3.583   2.896  0.0894  0.2697 -0.3314
  174ccc     H6 4718   9.451   3.485   2.928 -2.7771  1.5834  0.8888
  174ccc     C5 4719   9.639   3.586   2.896 -0.4834  0.4133  0.1225
  174ccc     H7 4720   9.450   3.604   2.795 -2.1574  1.3917  0.6244
  174ccc     H8 4721   9.689   3.580   2.993  0.6135 -0.7390 -0.4832
  174ccc     H9 4722   9.674   3.680   2.852 -1.1362 -0.6781 -2.9735
  174ccc     C6 4723   9.686   3.481   2.798 -0.8251 -0.3091  0.2237
  174ccc     O1 4724   9.818   3.451   2.806  0.3998  0.2593  0.0878
  174ccc     O2 4725   9.618   3.444   2.703 -0.1428 -0.4254 -0.0124
  174ccc    H10 4726   9.338   3.868   2.930 -0.7597  0.2724 -0.3256
  174ccc    H11 4727   9.463   3.818   2.820 -0.6207 -2.4612  0.1631
  174ccc     C7 4728   9.540   3.931   2.993  0.0554 -0.0706 -0.3594
  174ccc    H12 4729   9.645   3.899   2.996 -0.4372 -1.9115  3.4489
  174ccc    H13 4730   9.509   3.955   3.095  0.4391 -1.5696  0.1360
  174ccc     C8 4731   9.537   4.064   2.914  0.6626  0.3279 -0.0328
  174ccc     O3 4732   9.477   4.083   2.809  0.3170 -0.4654 -0.5342
  174ccc     O4 4733   9.623   4.153   2.956  0.4987 -0.4513  0.7100
  174ccc    H14 4734   9.850   3.483   2.892 -0.2000 -1.2905  0.9113
  174ccc    H15 4735   9.661   4.120   3.040  1.6942  0.0920  0.4094
  174ccc    H16 4736   9.483   3.689   3.087  1.2094 -2.9892 -0.2160
  175ccc     N1 4737   8.879   2.728   3.531 -0.3544 -0.4427 -0.6559
  175ccc     H1 4738   8.808   2.754   3.599  0.0245 -1.8107  0.3138
  175ccc     C1 4739   8.957   2.609   3.550  0.0007  0.5618 -0.3581
  175ccc     H2 4740   8.889   2.525   3.568 -0.7474  0.8080 -1.9251
  175ccc     C2 4741   9.047   2.623   3.669 -0.1519  0.3149  0.4591
  175ccc     H3 4742   9.013   2.579   3.461 -1.1334  0.4400 -1.0394
  175ccc     H4 4743   9.074   2.521   3.699  0.2277  0.5271  0.8469
  175ccc     H5 4744   8.982   2.672   3.742 -0.5139  1.1353 -0.3982
  175ccc     N2 4745   9.168   2.715   3.655  0.1320 -0.2670  0.1452
  175ccc     C3 4746   9.274   2.653   3.568 -0.3100  0.4598  0.0105
  175ccc     C4 4747   9.214   2.761   3.796 -0.2174  0.5261 -1.6264
  175ccc     H6 4748   9.297   2.827   3.769  0.8709  0.7203  1.7714
  175ccc     C5 4749   9.274   2.641   3.890  0.2925  0.9818 -0.2268
  175ccc     H7 4750   9.136   2.816   3.848  0.4454 -1.4564  1.7655
  175ccc     H8 4751   9.357   2.589   3.842  1.0402  0.9068  1.0813
  175ccc     H9 4752   9.204   2.559   3.909  1.7874 -0.7433 -1.8333
  175ccc     C6 4753   9.310   2.704   4.027  0.0724  0.3444  0.2137
  175ccc     O1 4754   9.350   2.617   4.117  0.2779  0.2010  0.1270
  175ccc     O2 4755   9.287   2.817   4.058  0.0207 -0.1373 -0.2184
  175ccc    H10 4756   9.215   2.593   3.498  0.4570 -0.2686 -0.0296
  175ccc    H11 4757   9.331   2.586   3.632 -2.2386 -2.0191 -0.7322
  175ccc     C7 4758   9.354   2.759   3.494  0.0603  0.8155 -1.2993
  175ccc    H12 4759   9.380   2.853   3.544  0.1600  0.4352 -0.6165
  175ccc    H13 4760   9.286   2.792   3.414 -1.2763 -0.7954 -0.8966
  175ccc     C8 4761   9.487   2.713   3.438  0.1754  0.0485 -0.5813
  175ccc     O3 4762   9.516   2.596   3.418  0.3811 -0.7891 -0.8625
  175ccc     O4 4763   9.578   2.806   3.424  0.5942 -0.2260  0.4155
  175ccc    H14 4764   9.373   2.531   4.079  2.4366  0.0369  1.6566
  175ccc    H15 4765   9.536   2.893   3.438  0.8866  0.1094 -0.6463
  175ccc    H16 4766   9.137   2.796   3.600  0.4273 -0.7801 -0.8054
  176ccc     N1 4767   7.285   3.258   3.680  0.1905 -0.7121  0.1623
  176ccc     H1 4768   7.294   3.187   3.608  1.3901 -0.1851 -0.2387
  176ccc     C1 4769   7.170   3.352   3.688 -0.0415 -0.3226 -0.0323
  176ccc     H2 4770   7.195   3.429   3.761  5.2075 -1.0322 -0.6255
  176ccc     C2 4771   7.050   3.278   3.737 -0.6381 -0.3392  0.7078
  176ccc     H3 4772   7.155   3.405   3.593 -0.8410 -1.9062 -0.8361
  176ccc     H4 4773   7.014   3.222   3.650  3.3917  0.5368 -1.8209
  176ccc     H5 4774   6.986   3.361   3.766  0.5373  0.6638  0.5492
  176ccc     N2 4775   7.076   3.190   3.865 -0.5189 -0.3588 -0.0932
  176ccc     C3 4776   6.942   3.111   3.886 -0.8303 -0.4587  0.1444
  176ccc     C4 4777   7.112   3.283   3.984  0.5503  0.1129 -1.1986
  176ccc     H6 4778   7.162   3.373   3.950  1.2029  0.5136  0.6822
  176ccc     C5 4779   7.193   3.219   4.102 -0.2935 -0.4087  0.5134
  176ccc     H7 4780   7.016   3.322   4.018  0.2807  0.1990 -2.0516
  176ccc     H8 4781   7.262   3.143   4.064 -0.8986  0.4251 -2.5978
  176ccc     H9 4782   7.117   3.178   4.169 -1.0270  1.6249  1.0112
  176ccc     C6 4783   7.264   3.319   4.188 -0.0347  0.2087  0.3693
  176ccc     O1 4784   7.295   3.269   4.305  0.1693  0.1304 -0.2679
  176ccc     O2 4785   7.263   3.439   4.173  0.2877  0.1827 -0.1725
  176ccc    H10 4786   6.864   3.185   3.904  1.1693  1.3882  1.7006
  176ccc    H11 4787   6.956   3.055   3.978  0.3397  0.5256  0.5958
  176ccc     C7 4788   6.904   3.014   3.778  0.2040  0.1243  0.2707
  176ccc    H12 4789   6.864   2.927   3.831 -2.0521  0.4030 -0.8592
  176ccc    H13 4790   6.990   2.966   3.729 -0.6900 -0.9224 -0.3118
  176ccc     C8 4791   6.808   3.072   3.678 -0.1477 -0.3108  0.1796
  176ccc     O3 4792   6.786   3.191   3.669 -0.0555  0.4620  0.1973
  176ccc     O4 4793   6.770   2.984   3.590 -0.2862  0.4335 -0.3317
  176ccc    H14 4794   7.334   3.342   4.356 -0.6077  1.8003 -1.9359
  176ccc    H15 4795   6.787   2.895   3.626  1.5724 -0.1120 -2.3745
  176ccc    H16 4796   7.160   3.134   3.845 -0.0167 -0.0070  0.9418
  177ccc     N1 4797   8.011   3.021   4.003  0.4394 -0.4727 -0.5208
  177ccc     H1 4798   7.939   2.954   4.029  1.1310 -0.8941  0.3848
  177ccc     C1 4799   8.134   2.998   4.070 -0.2372 -0.6297 -0.3156
  177ccc     H2 4800   8.197   2.941   4.001 -0.8075  1.1435 -2.4336
  177ccc     C2 4801   8.105   2.916   4.198  0.6136 -0.7423 -0.0510
  177ccc     H3 4802   8.196   3.086   4.090  1.1917 -0.7853 -3.4059
  177ccc     H4 4803   8.200   2.897   4.249  0.0397  2.3404  2.4699
  177ccc     H5 4804   8.047   2.826   4.176 -2.6160  1.2024 -0.2163
  177ccc     N2 4805   8.028   2.997   4.310  0.1883  0.4869  0.9378
  177ccc     C3 4806   7.883   2.994   4.274  0.6615  0.0016  0.2520
  177ccc     C4 4807   8.080   3.137   4.331  0.1319  0.6686  0.3161
  177ccc     H6 4808   8.104   3.187   4.237  1.9699 -1.0799 -0.2109
  177ccc     C5 4809   8.191   3.140   4.436 -0.2090  0.5603  0.1392
  177ccc     H7 4810   8.000   3.198   4.373  0.5075  1.0073  0.5416
  177ccc     H8 4811   8.271   3.073   4.401 -2.5289 -0.8688 -2.8818
  177ccc     H9 4812   8.149   3.099   4.529 -0.7584  0.1848 -0.2678
  177ccc     C6 4813   8.249   3.277   4.470  0.1598 -0.4406  0.2377
  177ccc     O1 4814   8.304   3.277   4.591  0.1675 -0.8373  0.0262
  177ccc     O2 4815   8.211   3.379   4.426 -0.5588 -0.2485  0.3693
  177ccc    H10 4816   7.862   2.891   4.242  0.9577 -0.7215  2.2559
  177ccc    H11 4817   7.882   3.066   4.192 -2.5114 -1.7517 -1.4655
  177ccc     C7 4818   7.779   3.033   4.384 -0.8696  0.0717  0.2307
  177ccc    H12 4819   7.807   3.135   4.413 -1.4260  0.3565 -0.2213
  177ccc    H13 4820   7.797   2.983   4.481  1.5891  0.8332  0.2502
  177ccc     C8 4821   7.634   3.018   4.348  0.1465 -0.0313 -0.5883
  177ccc     O3 4822   7.596   2.944   4.261  0.2841  0.2218  1.0456
  177ccc     O4 4823   7.545   3.069   4.432 -0.0130 -0.3261  0.0302
  177ccc    H14 4824   8.304   3.185   4.622 -2.8615 -1.0621 -0.2676
  177ccc    H15 4825   7.591   3.114   4.505 -0.7449 -0.3199  0.5033
  177ccc    H16 4826   8.036   2.937   4.393 -1.1910 -0.2968  0.5426
  178ccc     N1 4827   8.318   3.703   1.714 -0.2702 -0.4629 -0.6552
  178ccc     H1 4828   8.236   3.746   1.756 -0.3544 -2.5887  1.6308
  178ccc     C1 4829   8.320   3.555   1.705  0.2706 -0.2766  0.6318
  178ccc     H2 4830   8.216   3.521   1.693  0.6822 -0.9924 -1.4555
  178ccc     C2 4831   8.399   3.488   1.822 -0.0432  0.0274 -0.7369
  178ccc     H3 4832   8.374   3.522   1.615  1.9752  2.1714  0.6653
  178ccc     H4 4833   8.387   3.379   1.816 -1.9359  0.2606 -1.9817
  178ccc     H5 4834   8.362   3.520   1.920  0.9149  1.5515 -0.8531
  178ccc     N2 4835   8.551   3.511   1.814  0.4372 -0.1460  0.0248
  178ccc     C3 4836   8.616   3.373   1.849 -0.2547  0.4125  0.2336
  178ccc     C4 4837   8.585   3.639   1.899  0.1466 -0.8645  0.3007
  178ccc     H6 4838   8.531   3.721   1.851 -0.2016 -1.4288 -0.2712
  178ccc     C5 4839   8.735   3.683   1.900 -0.2648 -0.0420 -0.5019
  178ccc     H7 4840   8.546   3.634   2.001  1.2045 -2.6206  0.6633
  178ccc     H8 4841   8.779   3.672   1.801  1.7486  2.3848  0.0224
  178ccc     H9 4842   8.786   3.626   1.979 -0.1595  0.0265 -0.5196
  178ccc     C6 4843   8.747   3.831   1.928 -0.7989  0.3551  0.2603
  178ccc     O1 4844   8.840   3.862   2.023  0.2577  0.2496 -0.3989
  178ccc     O2 4845   8.658   3.912   1.910 -0.0304  1.1548  0.5336
  178ccc    H10 4846   8.718   3.382   1.810 -1.0860 -0.3246 -2.3100
  178ccc    H11 4847   8.566   3.291   1.798  0.5983 -0.6388  1.0212
  178ccc     C7 4848   8.613   3.340   1.990 -0.3218  0.2509 -0.9201
  178ccc    H12 4849   8.522   3.366   2.045 -0.6810  0.5239 -1.6330
  178ccc    H13 4850   8.686   3.399   2.048 -0.0138  0.2707 -1.3217
  178ccc     C8 4851   8.640   3.194   2.017 -0.2754  0.4732 -0.5093
  178ccc     O3 4852   8.627   3.104   1.930 -0.5902 -0.6233 -0.3406
  178ccc     O4 4853   8.652   3.160   2.150  0.4726  1.2574  0.9520
  178ccc    H14 4854   8.910   3.795   2.020  0.8468  0.7748  1.0830
  178ccc    H15 4855   8.618   3.238   2.197 -1.9338  3.0864 -3.2621
  178ccc    H16 4856   8.578   3.536   1.718  0.9424  1.1345  0.4751
  179ccc     N1 4857   7.873   4.272   1.922 -0.0324  0.3830 -0.3500
  179ccc     H1 4858   7.905   4.348   1.863  0.6099  0.6976  0.3793
  179ccc     C1 4859   7.735   4.224   1.932 -0.1251  0.4978 -0.2402
  179ccc     H2 4860   7.728   4.132   1.872  2.2622  0.3440 -0.4057
  179ccc     C2 4861   7.616   4.331   1.908 -0.3488 -0.3268  0.2466
  179ccc     H3 4862   7.717   4.202   2.038 -0.3530  0.3324 -0.3131
  179ccc     H4 4863   7.514   4.295   1.922 -1.0704  0.9891 -1.2078
  179ccc     H5 4864   7.622   4.354   1.801 -2.0553 -0.2945  0.1268
  179ccc     N2 4865   7.632   4.465   1.980 -0.0436  0.1948 -0.2083
  179ccc     C3 4866   7.595   4.438   2.126  0.1798  0.3354  1.3787
  179ccc     C4 4867   7.556   4.583   1.921 -0.4138  0.9841  0.1783
  179ccc     H6 4868   7.449   4.561   1.919 -0.0391 -1.6606 -4.4731
  179ccc     C5 4869   7.609   4.621   1.780 -0.0610 -0.1799 -0.6528
  179ccc     H7 4870   7.578   4.664   1.990 -0.1742  0.6175  0.5373
  179ccc     H8 4871   7.589   4.542   1.706 -1.4918 -0.5856  0.1257
  179ccc     H9 4872   7.717   4.638   1.774 -0.2756  1.1037 -1.1058
  179ccc     C6 4873   7.563   4.750   1.728  0.3324 -0.3330  0.1550
  179ccc     O1 4874   7.628   4.791   1.614 -0.1430 -0.3752 -1.0426
  179ccc     O2 4875   7.519   4.838   1.796 -0.1701 -0.3031 -0.3293
  179ccc    H10 4876   7.661   4.359   2.161 -1.8489 -1.9808  0.2435
  179ccc    H11 4877   7.496   4.394   2.138  1.3473 -2.1376  2.6909
  179ccc     C7 4878   7.601   4.561   2.211  0.4578 -0.2321  0.1225
  179ccc    H12 4879   7.546   4.651   2.179 -1.6351 -1.5440 -0.1521
  179ccc    H13 4880   7.707   4.582   2.229  1.1756 -2.7590 -0.8709
  179ccc     C8 4881   7.554   4.528   2.349 -0.2046 -0.1390  0.9867
  179ccc     O3 4882   7.627   4.502   2.439  0.2967  0.0954  0.3768
  179ccc     O4 4883   7.417   4.520   2.358 -0.4169 -0.0625 -0.7747
  179ccc    H14 4884   7.645   4.700   1.582 -1.1372 -0.9976  0.0799
  179ccc    H15 4885   7.380   4.549   2.273  0.0020  0.1368 -0.8924
  179ccc    H16 4886   7.731   4.491   1.983  0.5771 -2.0489  0.4722
  180ccc     N1 4887   9.961   3.663   2.241  0.5055 -0.1382  0.3682
  180ccc     H1 4888  10.037   3.682   2.305  0.8166 -1.8023  0.5309
  180ccc     C1 4889   9.991   3.568   2.137 -0.1745 -0.3280  0.0217
  180ccc     H2 4890   9.953   3.605   2.041  0.4227  1.2478  0.3697
  180ccc     C2 4891   9.923   3.428   2.178  0.4386  1.1860 -0.0214
  180ccc     H3 4892  10.099   3.559   2.126 -0.0981 -1.3601  1.2974
  180ccc     H4 4893   9.817   3.443   2.200  0.6256  3.1844 -0.2875
  180ccc     H5 4894   9.968   3.402   2.274  1.4489  2.2448 -0.1846
  180ccc     N2 4895   9.943   3.305   2.091  0.1354 -0.3988 -0.2367
  180ccc     C3 4896  10.090   3.260   2.100  0.5739 -0.5745 -0.0158
  180ccc     C4 4897   9.902   3.327   1.944  0.7779 -0.3200  0.6830
  180ccc     H6 4898   9.945   3.422   1.912  2.0374 -0.4486  1.8745
  180ccc     C5 4899   9.749   3.323   1.924  0.0504 -0.3159  0.7239
  180ccc     H7 4900   9.936   3.246   1.879 -1.0734 -0.3314 -0.3294
  180ccc     H8 4901   9.714   3.412   1.978  1.0923  0.7095 -0.2326
  180ccc     H9 4902   9.702   3.237   1.973 -0.7748  0.2647  0.9590
  180ccc     C6 4903   9.707   3.329   1.778  0.6408 -0.1649 -0.0757
  180ccc     O1 4904   9.581   3.277   1.745 -0.7019  0.0440 -0.3277
  180ccc     O2 4905   9.776   3.361   1.685 -0.5320 -0.1030 -0.5094
  180ccc    H10 4906  10.152   3.344   2.069  0.8942 -0.6799  0.3217
  180ccc    H11 4907  10.105   3.191   2.017 -1.3598 -1.1175  0.0427
  180ccc     C7 4908  10.132   3.199   2.238  0.2832  0.0265  0.1397
  180ccc    H12 4909  10.091   3.099   2.255 -2.3690  1.3736  2.5249
  180ccc    H13 4910  10.086   3.263   2.314 -2.4077  1.2651 -2.3148
  180ccc     C8 4911  10.282   3.184   2.244 -0.5517  0.3547 -0.0245
  180ccc     O3 4912  10.355   3.198   2.147  0.2935 -0.8290  0.4394
  180ccc     O4 4913  10.328   3.204   2.367  0.3187 -0.0668  0.4687
  180ccc    H14 4914   9.541   3.267   1.834 -0.4960  0.8590 -0.1351
  180ccc    H15 4915  10.249   3.199   2.423 -0.2699 -1.7688 -0.4349
  180ccc    H16 4916   9.890   3.226   2.131  0.8132 -1.6353 -1.7042
  181ccc     N1 4917   9.915   4.404   2.563 -0.7400 -0.2644  0.1389
  181ccc     H1 4918   9.844   4.436   2.628 -2.4566  0.1025 -1.8255
  181ccc     C1 4919  10.042   4.475   2.556 -0.4495 -0.1127 -0.6084
  181ccc     H2 4920  10.121   4.416   2.605  1.8603  2.8252 -0.4863
  181ccc     C2 4921  10.037   4.609   2.639 -0.5700  0.1363 -0.2683
  181ccc     H3 4922  10.075   4.495   2.453 -1.4017 -0.1882 -0.9319
  181ccc     H4 4923  10.134   4.657   2.619 -0.1438 -0.5861  0.0248
  181ccc     H5 4924  10.022   4.600   2.746 -1.7388  0.8010 -0.3563
  181ccc     N2 4925   9.928   4.703   2.584 -0.3340 -0.0583 -0.4394
  181ccc     C3 4926   9.941   4.774   2.444 -0.1429  0.2468  0.4211
  181ccc     C4 4927   9.918   4.812   2.689  0.5475 -0.4603 -0.4025
  181ccc     H6 4928   9.900   4.773   2.790 -0.1488  1.0767  0.0922
  181ccc     C5 4929   9.809   4.921   2.666  0.0069  0.2517 -0.4281
  181ccc     H7 4930  10.012   4.866   2.683 -1.1834  2.7227 -0.7262
  181ccc     H8 4931   9.711   4.876   2.645 -0.5560  1.2303  0.0267
  181ccc     H9 4932   9.838   4.981   2.579 -0.1807  0.7966 -0.1178
  181ccc     C6 4933   9.796   5.023   2.777 -0.1920 -0.0583 -0.3639
  181ccc     O1 4934   9.675   5.039   2.829 -0.0939  0.0374 -0.2692
  181ccc     O2 4935   9.889   5.078   2.832  0.0832  0.3264 -0.3484
  181ccc    H10 4936   9.856   4.838   2.422 -1.5326 -1.0473  1.7656
  181ccc    H11 4937   9.944   4.690   2.375  4.2475  0.0169  0.5890
  181ccc     C7 4938  10.070   4.861   2.419 -0.0932  0.1734 -0.4003
  181ccc    H12 4939  10.156   4.805   2.457 -1.2572 -0.0719  2.0573
  181ccc    H13 4940  10.070   4.953   2.478 -3.2352  0.3991 -0.5798
  181ccc     C8 4941  10.081   4.901   2.278 -0.1195 -0.5890  0.0187
  181ccc     O3 4942  10.006   4.878   2.188  0.4536 -0.2211 -0.0009
  181ccc     O4 4943  10.204   4.953   2.252 -0.6245  0.5393 -0.1353
  181ccc    H14 4944   9.699   5.108   2.893  3.0268  1.0124 -2.2971
  181ccc    H15 4945  10.179   4.972   2.160 -0.7786 -1.4360 -0.5327
  181ccc    H16 4946   9.841   4.650   2.599 -0.3346 -0.4314 -1.6146
  182ccc     N1 4947   6.114   4.565   1.935 -1.1990 -0.2086  0.0745
  182ccc     H1 4948   6.015   4.555   1.916 -1.3274  0.0182  0.6159
  182ccc     C1 4949   6.162   4.601   2.069 -0.2233  0.0934 -0.0722
  182ccc     H2 4950   6.125   4.528   2.143  2.8171 -0.0045  1.4988
  182ccc     C2 4951   6.120   4.741   2.096 -0.2624 -0.6625  0.5186
  182ccc     H3 4952   6.271   4.597   2.081 -0.2031 -0.6493 -0.4260
  182ccc     H4 4953   6.182   4.781   2.177 -0.3771  0.4393  0.0797
  182ccc     H5 4954   6.014   4.755   2.122 -0.8940 -1.7218 -1.3411
  182ccc     N2 4955   6.133   4.829   1.970  0.0593 -0.1703 -0.6107
  182ccc     C3 4956   6.284   4.857   1.953 -0.3608 -0.1397  0.0090
  182ccc     C4 4957   6.056   4.962   1.990 -0.1838  0.2805  0.1611
  182ccc     H6 4958   6.079   4.998   2.090 -1.6650 -0.2983  0.7349
  182ccc     C5 4959   5.901   4.926   1.981 -0.4174 -0.2050  0.5609
  182ccc     H7 4960   6.083   5.043   1.922 -1.2774 -1.4201 -2.4851
  182ccc     H8 4961   5.865   4.886   2.077  0.6687  0.2325  1.1696
  182ccc     H9 4962   5.886   4.852   1.901  0.7771  0.6311 -0.4716
  182ccc     C6 4963   5.800   5.037   1.961 -0.7443  0.2011 -0.0079
  182ccc     O1 4964   5.686   4.994   1.915 -0.1127  0.3442  0.1524
  182ccc     O2 4965   5.840   5.146   1.935  0.2419  0.7403  0.7540
  182ccc    H10 4966   6.337   4.763   1.974 -1.4404 -0.4632  1.4018
  182ccc    H11 4967   6.311   4.937   2.022  1.5533 -0.3358 -0.4323
  182ccc     C7 4968   6.331   4.907   1.807  0.3482  0.1512  0.7658
  182ccc    H12 4969   6.256   4.981   1.776 -2.2583 -1.2312  3.3281
  182ccc    H13 4970   6.325   4.822   1.737 -0.6414  1.3937 -0.7194
  182ccc     C8 4971   6.473   4.959   1.802 -0.4116  0.4576 -0.5827
  182ccc     O3 4972   6.553   4.931   1.892 -0.2000  0.0619 -0.1787
  182ccc     O4 4973   6.511   4.996   1.680  0.2852 -0.2685 -0.4154
  182ccc    H14 4974   5.647   5.080   1.891  0.6728  0.2312 -1.7123
  182ccc    H15 4975   6.441   5.016   1.616 -0.3305  0.8285  0.5498
  182ccc    H16 4976   6.090   4.778   1.891  1.3902 -0.3249 -1.2680
  183ccc     N1 4977   6.693   4.540   1.434 -0.2304  0.5738 -0.4220
  183ccc     H1 4978   6.759   4.468   1.405 -0.1976  1.1942 -1.9602
  183ccc     C1 4979   6.726   4.674   1.392  0.0200  0.1106  0.3204
  183ccc     H2 4980   6.824   4.657   1.346 -0.3243 -2.0989  0.2980
  183ccc     C2 4981   6.729   4.780   1.506 -0.1582  0.4191 -0.5567
  183ccc     H3 4982   6.649   4.707   1.321 -0.6972 -0.5615  0.7722
  183ccc     H4 4983   6.628   4.793   1.544  0.3625 -0.8357  1.3807
  183ccc     H5 4984   6.765   4.876   1.468 -1.4941  0.6854 -1.1967
  183ccc     N2 4985   6.827   4.746   1.624 -0.0776  0.4103  0.2543
  183ccc     C3 4986   6.822   4.834   1.742 -0.1690 -0.5997 -0.2159
  183ccc     C4 4987   6.965   4.739   1.561 -0.2307  0.3055  0.1165
  183ccc     H6 4988   6.951   4.695   1.463  1.3524  0.4977 -0.2322
  183ccc     C5 4989   7.076   4.671   1.648  0.1075 -0.7179  0.0539
  183ccc     H7 4990   6.989   4.844   1.543 -2.9035  1.5689  2.8701
  183ccc     H8 4991   7.162   4.649   1.584  1.2809 -0.8753  1.6122
  183ccc     H9 4992   7.039   4.575   1.687 -0.6653  0.2436  1.7962
  183ccc     C6 4993   7.149   4.750   1.753  0.4235  0.9697  0.0883
  183ccc     O1 4994   7.221   4.674   1.830  0.3829 -0.9300 -0.3789
  183ccc     O2 4995   7.183   4.863   1.736  0.5310 -0.1585  0.2059
  183ccc    H10 4996   6.898   4.792   1.808  1.1786  1.5619 -0.2843
  183ccc    H11 4997   6.726   4.812   1.790 -0.3687  0.5209 -0.0880
  183ccc     C7 4998   6.850   4.989   1.716 -0.0055  0.3616  0.1360
  183ccc    H12 4999   6.759   5.039   1.679  0.3926  0.9203 -0.0941
  183ccc    H13 5000   6.932   4.998   1.645  0.6915 -1.0684  0.7249
  183ccc     C8 5001   6.881   5.061   1.842  0.1751 -0.4572  0.2355
  183ccc     O3 5002   6.876   5.013   1.952 -0.2464  0.0292  0.9294
  183ccc     O4 5003   6.887   5.198   1.832  0.0259 -0.0125 -0.2817
  183ccc    H14 5004   7.193   4.583   1.813 -1.0067 -0.8359  1.1612
  183ccc    H15 5005   6.918   5.211   1.741  0.6914 -0.6954 -0.1602
  183ccc    H16 5006   6.798   4.651   1.650 -0.5569 -0.8373 -4.0717
  184ccc     N1 5007   6.479   3.196   2.917 -0.5534  0.4310 -0.1429
  184ccc     H1 5008   6.489   3.179   2.818  1.0593 -2.5367  0.3942
  184ccc     C1 5009   6.598   3.257   2.989  0.0144 -0.2483  0.1020
  184ccc     H2 5010   6.580   3.260   3.097  1.1301  2.2053  0.2906
  184ccc     C2 5011   6.620   3.405   2.941  0.4944  0.5191 -0.2861
  184ccc     H3 5012   6.681   3.188   2.972 -0.4702 -0.7406 -0.3041
  184ccc     H4 5013   6.713   3.444   2.982  1.4274 -0.7542 -1.1065
  184ccc     H5 5014   6.539   3.467   2.978  0.2871  0.3258 -0.4154
  184ccc     N2 5015   6.613   3.435   2.787 -0.0266  0.1426 -0.3748
  184ccc     C3 5016   6.745   3.401   2.720  0.3437  0.2273 -0.5477
  184ccc     C4 5017   6.578   3.579   2.770  1.0184  0.2221 -0.1239
  184ccc     H6 5018   6.578   3.596   2.662 -1.6167  1.3757 -0.0098
  184ccc     C5 5019   6.666   3.688   2.822  0.5160 -0.3956  0.0610
  184ccc     H7 5020   6.472   3.593   2.791  0.3214 -0.3085 -2.8538
  184ccc     H8 5021   6.757   3.670   2.764 -0.1347 -1.6114 -0.6409
  184ccc     H9 5022   6.692   3.678   2.928 -0.0699 -1.0852  0.1494
  184ccc     C6 5023   6.613   3.824   2.789  0.2509 -0.4594  0.1928
  184ccc     O1 5024   6.716   3.905   2.771 -1.0341  0.4789  0.1820
  184ccc     O2 5025   6.500   3.851   2.751  0.2121  0.2699 -0.3636
  184ccc    H10 5026   6.791   3.318   2.774  0.9763  1.1635  0.3963
  184ccc    H11 5027   6.811   3.487   2.733 -0.7946  1.1195 -0.4706
  184ccc     C7 5028   6.729   3.373   2.568  0.0929 -0.1999  0.1693
  184ccc    H12 5029   6.665   3.451   2.525  1.0470 -0.9588 -2.8323
  184ccc    H13 5030   6.679   3.277   2.551  0.4919 -0.3167 -0.3301
  184ccc     C8 5031   6.861   3.368   2.484  0.4880 -0.4312 -0.3026
  184ccc     O3 5032   6.959   3.427   2.527 -0.4896 -1.1317  0.3510
  184ccc     O4 5033   6.836   3.369   2.350 -0.1825 -0.0937 -0.4405
  184ccc    H14 5034   6.668   3.983   2.737 -0.6445  0.2769 -0.8763
  184ccc    H15 5035   6.748   3.332   2.336  0.0990 -0.8221 -0.3265
  184ccc    H16 5036   6.535   3.377   2.752  0.0842  0.5334 -1.3247
  185ccc     N1 5037   6.097   3.335   3.303 -0.5960  0.5683  0.6422
  185ccc     H1 5038   6.063   3.240   3.310 -0.9476  0.3938 -2.3158
  185ccc     C1 5039   6.195   3.391   3.394 -0.0654  0.5416 -0.7638
  185ccc     H2 5040   6.285   3.405   3.333  0.4423  0.5920 -0.0185
  185ccc     C2 5041   6.234   3.295   3.509  0.0322 -0.3567  0.4027
  185ccc     H3 5042   6.166   3.484   3.443  0.4370 -0.3840  1.4254
  185ccc     H4 5043   6.145   3.292   3.573 -0.6470  1.0099 -0.4366
  185ccc     H5 5044   6.317   3.345   3.559  0.2711  0.3641 -0.6709
  185ccc     N2 5045   6.293   3.154   3.478  0.4147 -0.3076 -0.4685
  185ccc     C3 5046   6.328   3.086   3.616  0.2129 -0.4481  0.5630
  185ccc     C4 5047   6.417   3.161   3.384 -0.3115  0.8497  0.3033
  185ccc     H6 5048   6.459   3.062   3.368 -0.2734  1.0575 -0.9679
  185ccc     C5 5049   6.538   3.246   3.432 -0.1760  0.2304 -0.1370
  185ccc     H7 5050   6.377   3.201   3.291  0.9514 -0.7421 -0.9797
  185ccc     H8 5051   6.563   3.223   3.536 -2.2089 -0.3528  0.2818
  185ccc     H9 5052   6.518   3.354   3.421  2.9160  0.9661  0.6543
  185ccc     C6 5053   6.671   3.224   3.363 -0.4437  0.1037  0.2629
  185ccc     O1 5054   6.760   3.326   3.361  0.0419  0.1424  0.3076
  185ccc     O2 5055   6.690   3.130   3.283  0.1838  0.4933 -0.1902
  185ccc    H10 5056   6.234   3.097   3.669 -0.7618  2.3822 -1.5233
  185ccc    H11 5057   6.410   3.141   3.662 -1.4461  0.9530  1.9948
  185ccc     C7 5058   6.357   2.937   3.593  0.0240 -0.2895 -0.1215
  185ccc    H12 5059   6.422   2.914   3.508  1.8724 -3.0013  1.8148
  185ccc    H13 5060   6.263   2.887   3.566 -1.7087  0.8578  3.2166
  185ccc     C8 5061   6.431   2.871   3.704 -0.0838 -0.2918 -0.1937
  185ccc     O3 5062   6.510   2.928   3.773  0.3375  0.2042  0.2707
  185ccc     O4 5063   6.397   2.742   3.717 -0.1726  0.1351  0.4614
  185ccc    H14 5064   6.732   3.382   3.435  1.2122  1.2048 -0.0061
  185ccc    H15 5065   6.449   2.706   3.790  1.8672 -0.4861 -1.1975
  185ccc    H16 5066   6.211   3.109   3.434  0.1178 -0.1586 -0.0694
  186ccc     N1 5067   7.665   2.246   1.442 -0.1750  0.2117 -0.0755
  186ccc     H1 5068   7.753   2.255   1.491  0.8345 -1.7709 -1.3809
  186ccc     C1 5069   7.663   2.142   1.328 -0.6138 -0.7291 -0.2258
  186ccc     H2 5070   7.761   2.127   1.283  0.1353  0.0698  1.0672
  186ccc     C2 5071   7.573   2.184   1.210 -0.0337 -0.1353 -0.4173
  186ccc     H3 5072   7.620   2.046   1.359 -1.7164 -0.6281 -1.3755
  186ccc     H4 5073   7.471   2.186   1.250  0.9863  2.1914  2.3823
  186ccc     H5 5074   7.585   2.104   1.137 -0.5956 -0.2912 -0.3444
  186ccc     N2 5075   7.611   2.319   1.152 -0.1337  0.1671  0.3285
  186ccc     C3 5076   7.488   2.377   1.091 -0.1210 -0.5941 -0.3792
  186ccc     C4 5077   7.730   2.301   1.049  0.6832 -0.7820  0.1815
  186ccc     H6 5078   7.751   2.403   1.016 -2.3251  0.3306  1.2928
  186ccc     C5 5079   7.696   2.217   0.921 -0.5301  0.6505 -0.0821
  186ccc     H7 5080   7.817   2.272   1.107  0.6671  0.6835  0.9898
  186ccc     H8 5081   7.610   2.258   0.867 -0.0113 -0.0017 -1.4507
  186ccc     H9 5082   7.685   2.111   0.948  0.2637  0.8875  1.2506
  186ccc     C6 5083   7.827   2.210   0.834 -0.3201  1.0486 -0.3470
  186ccc     O1 5084   7.818   2.135   0.723 -0.1062 -0.0652 -0.4052
  186ccc     O2 5085   7.917   2.287   0.840  0.2387 -0.2415  0.1533
  186ccc    H10 5086   7.433   2.295   1.044 -0.6993 -0.6274  0.3460
  186ccc    H11 5087   7.521   2.448   1.015  1.4932 -0.1840  0.6457
  186ccc     C7 5088   7.393   2.456   1.185  0.0606  0.1868 -0.0142
  186ccc    H12 5089   7.436   2.556   1.200 -0.7790  0.7292 -1.0915
  186ccc    H13 5090   7.382   2.410   1.284 -1.3684  0.7424  0.1082
  186ccc     C8 5091   7.255   2.472   1.115 -0.2905 -0.2775 -0.6948
  186ccc     O3 5092   7.247   2.539   1.016  0.2713 -0.2707  0.1314
  186ccc     O4 5093   7.160   2.389   1.154  0.5961  0.2352 -0.4398
  186ccc    H14 5094   7.752   2.067   0.744 -1.0445  0.8898 -0.1472
  186ccc    H15 5095   7.194   2.324   1.217 -0.7508 -0.0492  0.0250
  186ccc    H16 5096   7.639   2.386   1.225 -0.7163 -0.0747  0.7863
  187ccc     N1 5097   8.008   2.184   2.003  0.6569  0.1961  0.1466
  187ccc     H1 5098   7.960   2.124   1.937  0.6220  0.5847 -0.1839
  187ccc     C1 5099   8.064   2.118   2.126  0.1399 -0.0755  0.7770
  187ccc     H2 5100   8.038   2.178   2.214 -0.0739  3.2180 -1.3868
  187ccc     C2 5101   8.215   2.090   2.125  0.1494  0.0436  0.3125
  187ccc     H3 5102   8.018   2.018   2.127  0.0016 -0.0271 -0.2433
  187ccc     H4 5103   8.237   2.035   2.033  0.3545 -0.0133  0.3975
  187ccc     H5 5104   8.253   2.036   2.211 -0.7053  0.8870  1.2455
  187ccc     N2 5105   8.305   2.215   2.101  0.0683  0.0092  0.1310
  187ccc     C3 5106   8.447   2.173   2.094 -0.2859  0.1275  0.5825
  187ccc     C4 5107   8.288   2.319   2.217  0.3193 -0.3242 -0.1241
  187ccc     H6 5108   8.366   2.395   2.211  1.7932 -1.8504 -1.5713
  187ccc     C5 5109   8.281   2.257   2.361  0.3073  0.4465  0.4160
  187ccc     H7 5110   8.191   2.367   2.204  0.4220  0.5994  2.0870
  187ccc     H8 5111   8.370   2.194   2.371  0.8771  0.5713 -2.6975
  187ccc     H9 5112   8.190   2.199   2.378  0.5389 -0.2533 -0.6617
  187ccc     C6 5113   8.297   2.352   2.476 -0.0878  0.7666 -0.6713
  187ccc     O1 5114   8.305   2.289   2.592  0.4509 -0.1373  0.7844
  187ccc     O2 5115   8.313   2.472   2.461  0.4497 -0.7540  0.0017
  187ccc    H10 5116   8.454   2.088   2.026  0.6152  1.2403 -0.7402
  187ccc    H11 5117   8.473   2.128   2.190 -1.6191 -0.3024  0.7722
  187ccc     C7 5118   8.538   2.278   2.039  0.4026 -0.3956  0.1632
  187ccc    H12 5119   8.526   2.366   2.103 -0.2612 -0.6738  0.4294
  187ccc    H13 5120   8.520   2.305   1.934  1.0284 -0.5242  0.0134
  187ccc     C8 5121   8.680   2.226   2.039 -0.3747 -0.4846  0.4670
  187ccc     O3 5122   8.715   2.116   2.075 -0.2145  0.4408  1.0159
  187ccc     O4 5123   8.770   2.296   1.971  0.2031  0.1731 -0.1001
  187ccc    H14 5124   8.282   2.353   2.662  0.6616 -0.3079  1.0128
  187ccc    H15 5125   8.724   2.380   1.955 -0.3106 -0.0705  0.0978
  187ccc    H16 5126   8.278   2.263   2.014  2.0438 -0.6127 -0.8671
  188ccc     N1 5127   6.876   3.087   1.405 -0.0042  0.7491  0.2050
  188ccc     H1 5128   6.846   3.140   1.324  1.4228  1.7514  0.2919
  188ccc     C1 5129   6.996   3.137   1.475  0.3557  0.4826 -0.8542
  188ccc     H2 5130   6.995   3.241   1.510  0.7700  0.3120 -0.3094
  188ccc     C2 5131   7.125   3.115   1.403 -0.0190 -0.3677  0.1109
  188ccc     H3 5132   7.016   3.087   1.571  0.6509  1.7190 -0.2491
  188ccc     H4 5133   7.199   3.137   1.479  0.7171  0.2271 -0.7552
  188ccc     H5 5134   7.128   3.185   1.319 -2.5256 -3.1078 -2.5570
  188ccc     N2 5135   7.136   2.974   1.341  0.4315 -0.6599  0.0699
  188ccc     C3 5136   7.149   2.865   1.444 -0.6089  0.3732 -0.4276
  188ccc     C4 5137   7.251   2.974   1.241  0.3336  0.1839  0.1170
  188ccc     H6 5138   7.343   3.000   1.294 -0.3043 -1.6593  2.2821
  188ccc     C5 5139   7.239   3.066   1.115  0.1973  0.5534 -0.1756
  188ccc     H7 5140   7.261   2.868   1.213 -1.8865 -0.1336  0.3579
  188ccc     H8 5141   7.207   3.167   1.143 -4.0755  0.2269 -2.9610
  188ccc     H9 5142   7.163   3.021   1.050  1.1161 -0.3242 -0.6749
  188ccc     C6 5143   7.373   3.068   1.046  0.2796  0.2569  0.4068
  188ccc     O1 5144   7.380   3.027   0.920  0.3356 -0.0709  0.0845
  188ccc     O2 5145   7.466   3.139   1.081 -0.7640 -0.4987  0.0378
  188ccc    H10 5146   7.066   2.877   1.513 -0.5719 -1.1345 -0.0998
  188ccc    H11 5147   7.243   2.882   1.498 -0.3470 -1.9069 -0.0863
  188ccc     C7 5148   7.131   2.727   1.395 -0.6747 -0.4839 -0.2255
  188ccc    H12 5149   7.225   2.702   1.343  0.3658 -0.1428  1.4228
  188ccc    H13 5150   7.044   2.715   1.329 -0.2692 -1.2122 -0.6487
  188ccc     C8 5151   7.124   2.617   1.505 -0.5148 -0.0932 -0.3671
  188ccc     O3 5152   7.037   2.607   1.590  0.3004 -0.0215 -0.1725
  188ccc     O4 5153   7.217   2.525   1.499 -0.7653 -0.1781  0.5454
  188ccc    H14 5154   7.296   2.982   0.900 -0.7540  0.9292  2.1019
  188ccc    H15 5155   7.178   2.454   1.553 -0.5953 -2.4158 -2.0336
  188ccc    H16 5156   7.050   2.951   1.289  0.3460  1.7780 -1.0322
  189ccc     N1 5157   6.735   2.275   1.365 -0.0446  0.1062  0.2675
  189ccc     H1 5158   6.683   2.244   1.446 -1.6781 -0.1907 -0.8493
  189ccc     C1 5159   6.840   2.180   1.305  1.1127  0.0894  0.2206
  189ccc     H2 5160   6.938   2.227   1.315  1.0183 -0.0002  1.8728
  189ccc     C2 5161   6.810   2.168   1.148  0.4780 -0.5985  0.1537
  189ccc     H3 5162   6.829   2.079   1.348 -0.9781 -0.2539 -0.9849
  189ccc     H4 5163   6.837   2.259   1.094 -0.6939 -1.5948 -2.2578
  189ccc     H5 5164   6.701   2.159   1.154  0.4232  0.3633  0.8776
  189ccc     N2 5165   6.885   2.061   1.074  0.6816  0.4026  0.2407
  189ccc     C3 5166   7.030   2.081   1.097  0.6212 -0.2011  0.0643
  189ccc     C4 5167   6.845   2.063   0.925  0.3168 -0.1230  0.9160
  189ccc     H6 5168   6.849   2.164   0.884  1.2821 -0.9916 -1.2871
  189ccc     C5 5169   6.725   1.987   0.883 -0.0887  0.7274  0.0119
  189ccc     H7 5170   6.930   2.024   0.868 -2.0872  1.1209 -4.0133
  189ccc     H8 5171   6.634   2.014   0.939  0.1040  2.2279 -0.3727
  189ccc     H9 5172   6.744   1.880   0.901  1.5678  0.7626 -1.2989
  189ccc     C6 5173   6.702   2.005   0.737  0.0492  0.3281 -0.4223
  189ccc     O1 5174   6.574   1.989   0.696 -0.0385 -0.1668  0.2117
  189ccc     O2 5175   6.781   2.062   0.661  0.3056  0.1409 -0.2108
  189ccc    H10 5176   7.044   2.068   1.205  0.1025 -0.5134  0.0960
  189ccc    H11 5177   7.064   2.177   1.058 -1.8233  0.0915 -1.4962
  189ccc     C7 5178   7.123   1.971   1.035 -0.2496 -0.2039  0.5683
  189ccc    H12 5179   7.098   1.952   0.930 -1.6381 -0.8694  1.0043
  189ccc    H13 5180   7.113   1.880   1.096  1.0405 -0.0279  1.0833
  189ccc     C8 5181   7.268   2.024   1.040  0.2859  0.3558  0.4308
  189ccc     O3 5182   7.303   2.139   1.068 -0.5757  0.1457 -0.1226
  189ccc     O4 5183   7.356   1.923   1.010  0.3603  0.5181 -0.1065
  189ccc    H14 5184   6.573   2.051   0.621  1.2515 -0.7484 -0.3364
  189ccc    H15 5185   7.305   1.848   0.974  1.6394 -0.5879  0.3089
  189ccc    H16 5186   6.849   1.972   1.109 -1.9660  1.1225 -0.4427
  190ccc     N1 5187   7.962   8.054   5.291 -0.9123  0.1532  0.3076
  190ccc     H1 5188   7.999   8.140   5.252  0.8281  0.0885  1.6833
  190ccc     C1 5189   7.935   8.055   5.429  0.1340  0.0177 -0.5801
  190ccc     H2 5190   7.830   8.081   5.444 -0.0467 -0.7480 -0.4815
  190ccc     C2 5191   7.997   8.162   5.516 -0.4654  0.5870 -0.3010
  190ccc     H3 5192   7.962   7.962   5.481 -0.6136 -0.1670 -0.5167
  190ccc     H4 5193   7.978   8.154   5.623  0.1333 -0.7675 -0.2639
  190ccc     H5 5194   7.965   8.258   5.475  1.4587  2.0431  1.4032
  190ccc     N2 5195   8.142   8.163   5.492 -0.0068  0.0960 -0.2161
  190ccc     C3 5196   8.218   8.060   5.578  0.0427 -0.0090  0.4698
  190ccc     C4 5197   8.191   8.300   5.514 -0.3155  0.2317  0.2902
  190ccc     H6 5198   8.296   8.296   5.487 -0.0947 -0.7135  1.2334
  190ccc     C5 5199   8.192   8.363   5.657  0.4908  0.6106 -0.0944
  190ccc     H7 5200   8.144   8.372   5.446  2.2290  2.0922  0.3439
  190ccc     H8 5201   8.239   8.301   5.734  0.3638 -0.0216 -0.5141
  190ccc     H9 5202   8.093   8.381   5.702  0.9542 -0.1351  1.2706
  190ccc     C6 5203   8.286   8.481   5.665  0.4779 -0.7761 -0.7595
  190ccc     O1 5204   8.319   8.517   5.785  0.5651 -0.0728  0.1916
  190ccc     O2 5205   8.342   8.544   5.574 -0.1446 -0.2103 -0.1161
  190ccc    H10 5206   8.154   7.973   5.592 -0.3898  0.5298  2.0785
  190ccc    H11 5207   8.232   8.099   5.679 -0.1836  0.5317  0.2934
  190ccc     C7 5208   8.350   8.017   5.523 -0.2810  0.4075 -0.0539
  190ccc    H12 5209   8.411   8.108   5.520  0.2094  0.0852  0.0482
  190ccc    H13 5210   8.339   7.979   5.420  0.3475 -1.4594  0.5174
  190ccc     C8 5211   8.416   7.902   5.616 -0.1176 -0.8776 -0.3883
  190ccc     O3 5212   8.352   7.833   5.694 -0.2870 -0.1103 -0.2290
  190ccc     O4 5213   8.528   7.858   5.567 -0.0428  0.3251  0.4727
  190ccc    H14 5214   8.392   8.578   5.767  0.6128  0.6582  2.5403
  190ccc    H15 5215   8.578   7.940   5.550 -3.5589  2.4608 -1.0110
  190ccc    H16 5216   8.167   8.139   5.395  3.5750  0.7170  0.3817
  191ccc     N1 5217   7.778   8.313   4.442  0.3890 -0.3648  0.3330
  191ccc     H1 5218   7.844   8.253   4.394 -1.5559 -0.2395 -2.8141
  191ccc     C1 5219   7.759   8.443   4.386 -0.6686  0.8396 -0.7021
  191ccc     H2 5220   7.657   8.445   4.345 -0.9075  0.4380 -0.1374
  191ccc     C2 5221   7.875   8.474   4.286  0.2447 -0.3665  0.8745
  191ccc     H3 5222   7.770   8.514   4.469 -0.7270  1.8986 -1.5710
  191ccc     H4 5223   7.849   8.421   4.195 -0.9369  1.3052  0.1834
  191ccc     H5 5224   7.957   8.425   4.340  0.0326  0.4187  1.9453
  191ccc     N2 5225   7.914   8.627   4.268  0.9663  0.4002 -0.3979
  191ccc     C3 5226   7.820   8.707   4.182  0.3918  0.3743  0.2830
  191ccc     C4 5227   8.047   8.631   4.186  0.3813 -0.8333  0.7349
  191ccc     H6 5228   8.034   8.595   4.084  1.8065  1.2304 -0.2463
  191ccc     C5 5229   8.174   8.583   4.263 -0.3515 -0.0951 -0.4090
  191ccc     H7 5230   8.058   8.738   4.172 -2.5360 -0.6902 -1.3616
  191ccc     H8 5231   8.158   8.477   4.286 -4.5215  0.5000  0.2886
  191ccc     H9 5232   8.173   8.625   4.364  0.1917 -0.9320 -0.0429
  191ccc     C6 5233   8.308   8.597   4.192 -0.1446 -0.6796  0.4089
  191ccc     O1 5234   8.317   8.526   4.081  0.1603 -0.1235 -0.3729
  191ccc     O2 5235   8.387   8.682   4.221  0.5846 -0.0581  0.2082
  191ccc    H10 5236   7.798   8.658   4.087 -1.3668  0.9699  0.3487
  191ccc    H11 5237   7.874   8.800   4.164 -0.1450  0.4446 -1.0594
  191ccc     C7 5238   7.691   8.742   4.256 -0.2522  0.0339  0.3475
  191ccc    H12 5239   7.724   8.779   4.354  1.6329  0.3366 -0.3537
  191ccc    H13 5240   7.620   8.659   4.264  1.7211 -1.9073 -1.0711
  191ccc     C8 5241   7.604   8.843   4.199  0.3908  0.5967  0.8072
  191ccc     O3 5242   7.617   8.901   4.092 -0.6139 -0.1894 -0.3688
  191ccc     O4 5243   7.502   8.878   4.280  0.0476 -0.0291  0.4697
  191ccc    H14 5244   8.239   8.468   4.079 -0.3496  0.5744 -1.3336
  191ccc    H15 5245   7.513   8.823   4.359  3.3548 -2.7641 -1.6245
  191ccc    H16 5246   7.923   8.664   4.363  1.5599 -0.0974 -0.2509
  192ccc     N1 5247   8.148   6.911   4.595 -0.5852  0.2948 -0.4006
  192ccc     H1 5248   8.134   6.812   4.608  0.8063  0.2005  0.6321
  192ccc     C1 5249   8.058   7.015   4.654 -0.3615 -0.0030  0.2398
  192ccc     H2 5250   8.020   6.977   4.750  0.3459  0.7248  0.8285
  192ccc     C2 5251   7.944   7.054   4.562  0.5998 -0.1146 -0.0106
  192ccc     H3 5252   8.120   7.101   4.684  1.1259 -0.7760 -0.5102
  192ccc     H4 5253   7.872   7.119   4.613 -0.4941  0.8578 -2.6642
  192ccc     H5 5254   7.894   6.958   4.551  1.8652 -0.8477  0.3570
  192ccc     N2 5255   7.980   7.105   4.424  0.8445  0.5036  0.1559
  192ccc     C3 5256   8.066   7.226   4.441 -0.8942 -0.4038  0.4822
  192ccc     C4 5257   7.851   7.134   4.336 -0.0107 -0.0079 -0.1130
  192ccc     H6 5258   7.789   7.199   4.397 -1.8671  0.2071 -2.0932
  192ccc     C5 5259   7.772   7.011   4.298 -0.1697 -0.7142 -0.2058
  192ccc     H7 5260   7.885   7.190   4.249 -0.5449  4.1221  2.0878
  192ccc     H8 5261   7.728   6.959   4.384  0.6141 -2.7968 -1.0090
  192ccc     H9 5262   7.836   6.937   4.248 -1.0648 -1.5163 -0.2030
  192ccc     C6 5263   7.668   7.042   4.200  0.3983  0.8285  0.4563
  192ccc     O1 5264   7.572   7.123   4.238 -0.1964  0.3780  0.2588
  192ccc     O2 5265   7.672   7.008   4.082 -0.5871  0.3884 -0.0185
  192ccc    H10 5266   8.146   7.201   4.511 -2.3624 -0.4251  2.2161
  192ccc    H11 5267   8.002   7.304   4.482 -3.1007 -2.2067  0.6535
  192ccc     C7 5268   8.135   7.264   4.309 -0.2855 -0.1269 -0.0991
  192ccc    H12 5269   8.069   7.279   4.223  2.3010  3.0998 -1.7840
  192ccc    H13 5270   8.204   7.185   4.277 -0.4826 -1.1457  1.7954
  192ccc     C8 5271   8.217   7.394   4.322  0.0853  0.2849 -0.2880
  192ccc     O3 5272   8.174   7.493   4.378  0.3031  0.2353  0.0411
  192ccc     O4 5273   8.340   7.405   4.277 -0.4376 -0.3049  0.0344
  192ccc    H14 5274   7.571   7.144   4.333  0.6980 -0.0878  0.3912
  192ccc    H15 5275   8.371   7.317   4.249  2.0905 -0.0633  1.7105
  192ccc    H16 5276   8.037   7.031   4.381  2.2449  0.4468  2.0239
  193ccc     N1 5277   8.710   7.218   4.118 -0.0479 -0.7282  0.1816
  193ccc     H1 5278   8.773   7.169   4.055  0.0394  1.9887 -2.0479
  193ccc     C1 5279   8.698   7.365   4.104  0.1340 -0.4698 -0.3227
  193ccc     H2 5280   8.643   7.386   4.012 -0.4915  1.0441  0.3531
  193ccc     C2 5281   8.839   7.427   4.077 -0.6911 -0.1862  0.1241
  193ccc     H3 5282   8.644   7.402   4.192  1.1078 -0.8474  0.4600
  193ccc     H4 5283   8.828   7.535   4.063 -1.9212 -0.2946  0.2003
  193ccc     H5 5284   8.886   7.385   3.988 -3.4521  0.2686 -1.6715
  193ccc     N2 5285   8.942   7.396   4.185 -0.7308 -0.5784  0.7369
  193ccc     C3 5286   8.897   7.461   4.314  0.5585 -0.3653  0.3360
  193ccc     C4 5287   9.075   7.453   4.134  0.6338  0.9761 -0.8052
  193ccc     H6 5288   9.066   7.553   4.092  0.1933  0.4375 -2.0349
  193ccc     C5 5289   9.151   7.357   4.031  0.5567 -0.3735 -0.1943
  193ccc     H7 5290   9.137   7.460   4.224  1.2909 -2.2085 -0.8888
  193ccc     H8 5291   9.080   7.345   3.948 -0.3123  0.8842  0.3333
  193ccc     H9 5292   9.178   7.258   4.068  0.3852 -0.8073 -1.1989
  193ccc     C6 5293   9.274   7.433   3.978  0.0732  0.0757  0.2309
  193ccc     O1 5294   9.368   7.351   3.934  0.0079  0.1756 -0.6737
  193ccc     O2 5295   9.303   7.551   4.002  0.3396 -0.4143 -0.1230
  193ccc    H10 5296   8.792   7.432   4.327 -0.3018  1.9937 -0.7484
  193ccc    H11 5297   8.898   7.567   4.289 -1.0214 -1.0679 -3.4548
  193ccc     C7 5298   8.979   7.435   4.445  0.0882  0.7678  0.0552
  193ccc    H12 5299   9.086   7.430   4.420 -0.0432 -0.3527 -0.3069
  193ccc    H13 5300   8.942   7.342   4.489 -0.3619  1.7977  1.9578
  193ccc     C8 5301   8.952   7.532   4.558 -0.2502 -0.3316 -0.5216
  193ccc     O3 5302   8.846   7.577   4.570 -0.5579  0.0440  0.3512
  193ccc     O4 5303   9.053   7.572   4.642 -0.1846  0.1526 -0.0786
  193ccc    H14 5304   9.324   7.267   3.912  0.0043 -0.2586  0.9063
  193ccc    H15 5305   9.126   7.515   4.611  0.0255  1.8643 -3.0606
  193ccc    H16 5306   8.943   7.293   4.194  0.3596 -0.4571  2.4738
  194ccc     N1 5307   8.888   8.961   4.277  0.7548 -0.2735  0.2243
  194ccc     H1 5308   8.892   8.889   4.348 -0.1471 -0.2543  0.3010
  194ccc     C1 5309   8.954   9.096   4.283  0.0159 -0.8687 -0.2211
  194ccc     H2 5310   8.928   9.155   4.194  0.5555  0.8065  0.6850
  194ccc     C2 5311   9.106   9.101   4.294  0.3712 -0.0101  0.1800
  194ccc     H3 5312   8.905   9.147   4.367 -0.1281  0.2606 -0.9648
  194ccc     H4 5313   9.131   9.072   4.396  1.1757  0.8959  0.2569
  194ccc     H5 5314   9.135   9.206   4.284  0.1185  0.4208  3.1619
  194ccc     N2 5315   9.178   9.007   4.200 -0.0954  0.6030  0.1758
  194ccc     C3 5316   9.322   8.981   4.249  0.9563  0.6454  0.3232
  194ccc     C4 5317   9.173   9.055   4.053  0.6188 -0.2611 -0.3587
  194ccc     H6 5318   9.080   9.111   4.039  0.7518 -0.0331 -0.3372
  194ccc     C5 5319   9.180   8.939   3.943  0.4255 -0.6665 -0.8167
  194ccc     H7 5320   9.253   9.128   4.038 -0.4524  0.7803 -1.2944
  194ccc     H8 5321   9.084   8.885   3.943  1.3331 -2.4093  1.0211
  194ccc     H9 5322   9.255   8.865   3.972 -0.7471 -2.0461 -1.1795
  194ccc     C6 5323   9.194   9.008   3.816 -1.3507  0.7002 -0.4517
  194ccc     O1 5324   9.318   9.003   3.757  0.2956 -0.2054 -0.0947
  194ccc     O2 5325   9.096   9.049   3.765  0.2619  0.6998  0.4046
  194ccc    H10 5326   9.367   8.907   4.183  0.1303  0.7031 -0.3217
  194ccc    H11 5327   9.316   8.927   4.344  1.4691  2.5196  1.4756
  194ccc     C7 5328   9.410   9.098   4.276  0.9972 -0.1916 -0.2174
  194ccc    H12 5329   9.362   9.194   4.299 -1.1435 -0.9940 -1.0635
  194ccc    H13 5330   9.465   9.115   4.183  0.1226  2.0596 -0.3857
  194ccc     C8 5331   9.517   9.065   4.374 -0.6458  0.1478  0.7294
  194ccc     O3 5332   9.511   8.986   4.464  0.2600 -0.4061  0.5131
  194ccc     O4 5333   9.635   9.137   4.350  0.9025  0.3758 -0.2926
  194ccc    H14 5334   9.380   8.985   3.830 -0.9174 -0.1353  0.9904
  194ccc    H15 5335   9.615   9.212   4.291 -0.3139  1.3712  1.3127
  194ccc    H16 5336   9.136   8.913   4.206  1.3772 -0.1509 -0.6189
  195ccc     N1 5337   9.173   8.231   3.980  0.1523 -0.3997 -0.2600
  195ccc     H1 5338   9.215   8.305   4.036 -2.4965 -0.2565  1.7556
  195ccc     C1 5339   9.247   8.128   3.900  0.3789  0.3596  0.4674
  195ccc     H2 5340   9.211   8.094   3.802  2.1535 -0.0438 -0.0759
  195ccc     C2 5341   9.266   7.996   3.990  0.0406  0.7508 -0.0097
  195ccc     H3 5342   9.344   8.167   3.869 -0.3332  2.9845  1.3290
  195ccc     H4 5343   9.318   8.026   4.081 -1.3420 -0.2574  1.1746
  195ccc     H5 5344   9.321   7.920   3.935  1.2491  1.7978 -0.2882
  195ccc     N2 5345   9.130   7.932   4.042 -0.6047  0.1463  0.1670
  195ccc     C3 5346   9.155   7.813   4.137  0.3737  0.1579 -0.7886
  195ccc     C4 5347   9.043   7.878   3.929  0.0001  0.9459  0.1136
  195ccc     H6 5348   8.963   7.828   3.984 -0.6754  2.0499  0.1644
  195ccc     C5 5349   9.121   7.776   3.831  0.0343 -0.6157 -0.2984
  195ccc     H7 5350   8.993   7.953   3.867 -1.5125  0.4617  0.7111
  195ccc     H8 5351   9.220   7.761   3.875  0.1510 -0.1949 -0.4087
  195ccc     H9 5352   9.141   7.828   3.736  1.9130 -2.2371 -0.8454
  195ccc     C6 5353   9.059   7.645   3.810  0.9796  0.0963  0.1503
  195ccc     O1 5354   9.120   7.548   3.749 -0.0926  0.5572 -0.1533
  195ccc     O2 5355   8.953   7.616   3.870 -0.2710 -0.0384  1.3661
  195ccc    H10 5356   9.241   7.753   4.105  1.4636  0.6505  1.0787
  195ccc    H11 5357   9.068   7.746   4.137  0.6378 -0.3422 -3.6874
  195ccc     C7 5358   9.196   7.860   4.275  0.7251 -0.2400 -0.4028
  195ccc    H12 5359   9.106   7.898   4.325  1.9805  0.7478  1.1672
  195ccc    H13 5360   9.278   7.933   4.276  1.1343 -0.5363  3.6675
  195ccc     C8 5361   9.234   7.742   4.362 -0.5996 -0.8879 -0.8210
  195ccc     O3 5362   9.239   7.625   4.329  0.2280  0.2634 -0.2442
  195ccc     O4 5363   9.241   7.783   4.490 -0.0003  0.0821 -0.2335
  195ccc    H14 5364   9.194   7.581   3.696  0.6876 -0.6240  0.1557
  195ccc    H15 5365   9.234   7.879   4.499  0.1718  0.0405  0.3927
  195ccc    H16 5366   9.078   8.005   4.092 -0.5662  0.5787 -0.4182
  196ccc     N1 5367   8.266   9.034   2.933 -0.1457 -0.6673  0.8919
  196ccc     H1 5368   8.282   9.111   2.869  1.9064 -0.1335  1.9615
  196ccc     C1 5369   8.351   8.907   2.928 -0.2002  0.1194  0.2845
  196ccc     H2 5370   8.292   8.824   2.970  1.7202 -1.3654  0.1884
  196ccc     C2 5371   8.484   8.924   3.003 -0.0434  0.0281  0.1435
  196ccc     H3 5372   8.375   8.876   2.825  0.2882 -0.5437  0.5924
  196ccc     H4 5373   8.554   8.967   2.932 -1.3116 -0.2701 -1.3466
  196ccc     H5 5374   8.512   8.822   3.028  0.4252  0.4405  1.3792
  196ccc     N2 5375   8.482   9.018   3.125 -1.0444 -0.4408  0.3079
  196ccc     C3 5376   8.619   9.065   3.163 -0.2243  0.2959  0.1320
  196ccc     C4 5377   8.410   8.947   3.242 -0.0889  0.1501 -0.4777
  196ccc     H6 5378   8.334   8.879   3.205  0.4174 -0.3282 -0.6554
  196ccc     C5 5379   8.363   9.045   3.361 -0.2475  0.0783 -0.7342
  196ccc     H7 5380   8.495   8.888   3.277  0.9346 -0.1919 -3.2760
  196ccc     H8 5381   8.296   9.125   3.328  0.8656  1.0748 -0.6229
  196ccc     H9 5382   8.456   9.081   3.406  0.1754 -2.8420  0.9673
  196ccc     C6 5383   8.296   8.964   3.474 -0.2603  0.1896 -0.0645
  196ccc     O1 5384   8.273   9.034   3.582  0.5173 -0.0620 -0.1467
  196ccc     O2 5385   8.304   8.842   3.491  0.4742  0.9192  0.2130
  196ccc    H10 5386   8.676   8.978   3.198 -1.0607 -0.6685 -0.8425
  196ccc    H11 5387   8.614   9.135   3.246  0.4308  0.6052 -0.0815
  196ccc     C7 5388   8.688   9.134   3.046 -1.2156 -0.3124 -0.7902
  196ccc    H12 5389   8.623   9.211   3.003  0.2951  0.9275 -0.9949
  196ccc    H13 5390   8.722   9.061   2.973  2.7343 -0.6505  1.0850
  196ccc     C8 5391   8.819   9.207   3.083 -0.5172  0.4952 -0.4489
  196ccc     O3 5392   8.887   9.199   3.185  0.2671 -0.4377 -0.1200
  196ccc     O4 5393   8.850   9.305   2.996  0.5385 -0.1603  0.4431
  196ccc    H14 5394   8.276   9.125   3.547  0.6859 -0.4724 -1.2469
  196ccc    H15 5395   8.927   9.353   3.030  0.7343 -0.3273  0.2408
  196ccc    H16 5396   8.429   9.101   3.095  0.8871  0.5719 -0.5017
  197ccc     N1 5397   8.093   8.582   2.825  0.4359 -0.1629  0.3559
  197ccc     H1 5398   8.080   8.580   2.724  0.9568  1.6036  0.2115
  197ccc     C1 5399   8.208   8.508   2.877  0.2036 -0.1155  0.5330
  197ccc     H2 5400   8.286   8.583   2.897 -0.2624  0.5668 -0.1618
  197ccc     C2 5401   8.261   8.418   2.763 -0.4973  0.0130 -0.0098
  197ccc     H3 5402   8.184   8.443   2.961 -0.4594 -0.0964  0.3603
  197ccc     H4 5403   8.366   8.402   2.784 -0.2749  1.1808 -0.1655
  197ccc     H5 5404   8.260   8.474   2.669 -0.1987 -1.8946 -1.2281
  197ccc     N2 5405   8.190   8.281   2.748  0.6416  0.1037 -0.2773
  197ccc     C3 5406   8.228   8.215   2.616 -0.5455 -0.5034 -0.4153
  197ccc     C4 5407   8.041   8.286   2.772  0.7016 -0.3721 -0.3451
  197ccc     H6 5408   8.023   8.350   2.859 -2.5634  2.8372 -3.0842
  197ccc     C5 5409   7.988   8.146   2.800  0.3089  0.1955 -0.4028
  197ccc     H7 5410   7.994   8.338   2.689  1.8839  1.2035 -0.0832
  197ccc     H8 5411   8.017   8.113   2.901 -0.5432 -2.1626 -0.8450
  197ccc     H9 5412   8.019   8.067   2.730 -0.0627  0.1475 -0.5147
  197ccc     C6 5413   7.837   8.147   2.803 -0.0286 -0.4414  0.9493
  197ccc     O1 5414   7.779   8.252   2.859 -0.4703 -0.3990  0.0831
  197ccc     O2 5415   7.772   8.073   2.730  0.4457  0.5730  0.1719
  197ccc    H10 5416   8.185   8.279   2.538 -2.1886 -0.9553  0.0774
  197ccc    H11 5417   8.161   8.133   2.589 -2.1224  1.1408 -1.8678
  197ccc     C7 5418   8.379   8.198   2.584 -0.6143  0.0307  0.3413
  197ccc    H12 5419   8.417   8.138   2.668  0.9968 -1.6818 -1.4784
  197ccc    H13 5420   8.431   8.294   2.578 -0.9840  0.2489  0.6288
  197ccc     C8 5421   8.397   8.112   2.463 -0.2560 -0.3175  0.6664
  197ccc     O3 5422   8.354   8.150   2.358  0.1135 -0.2986 -0.0754
  197ccc     O4 5423   8.450   7.989   2.469 -0.3161  0.1150 -0.2341
  197ccc    H14 5424   7.687   8.259   2.829 -0.5555  0.9020  0.6113
  197ccc    H15 5425   8.484   7.986   2.560 -1.2592  0.1746  0.1314
  197ccc    H16 5426   8.231   8.228   2.826 -1.1455 -1.2324 -0.1998
  198ccc     N1 5427   6.754   8.658   6.159 -0.3072  0.4758  0.4178
  198ccc     H1 5428   6.684   8.727   6.180  1.2515  1.5399  2.4256
  198ccc     C1 5429   6.853   8.631   6.262 -0.0910 -0.3312  0.3721
  198ccc     H2 5430   6.807   8.628   6.362 -3.0027 -1.5100 -0.9181
  198ccc     C2 5431   6.967   8.737   6.265  0.4704  0.0598  0.2152
  198ccc     H3 5432   6.904   8.536   6.243  0.4959  0.0868 -0.1879
  198ccc     H4 5433   7.019   8.722   6.359  2.9908  1.3697 -0.8655
  198ccc     H5 5434   6.924   8.837   6.274 -0.7497 -0.3977 -0.3364
  198ccc     N2 5435   7.070   8.727   6.152  0.0408 -0.2096 -0.2912
  198ccc     C3 5436   7.187   8.816   6.171  0.4777  0.2913  0.4565
  198ccc     C4 5437   7.014   8.766   6.015  0.0001 -0.3901 -0.4151
  198ccc     H6 5438   6.908   8.741   6.021  0.1128 -0.6544  0.7277
  198ccc     C5 5439   7.066   8.700   5.889  0.5745  0.7354 -0.5645
  198ccc     H7 5440   7.022   8.875   6.009  2.4857 -0.5761 -1.5795
  198ccc     H8 5441   7.060   8.590   5.891  1.0398  0.7039 -0.6621
  198ccc     H9 5442   7.175   8.713   5.881  0.8777 -1.3677 -0.4538
  198ccc     C6 5443   7.000   8.739   5.760  0.5053  0.0409  0.0065
  198ccc     O1 5444   7.070   8.824   5.685 -0.3068  0.0725  0.1908
  198ccc     O2 5445   6.888   8.701   5.721  0.3577 -0.2985 -0.1819
  198ccc    H10 5446   7.149   8.915   6.195 -0.7561  0.2258 -1.0892
  198ccc    H11 5447   7.247   8.824   6.081 -0.7670  1.5312 -0.3000
  198ccc     C7 5448   7.278   8.762   6.285 -0.4511  0.4021  0.0561
  198ccc    H12 5449   7.306   8.656   6.288  2.8736  1.2035  1.6772
  198ccc    H13 5450   7.224   8.789   6.377  0.2899  0.0545  0.6006
  198ccc     C8 5451   7.409   8.838   6.276  0.8625 -0.1288 -0.2052
  198ccc     O3 5452   7.441   8.902   6.179 -0.3289 -0.4737 -0.1486
  198ccc     O4 5453   7.495   8.804   6.376  0.4804 -0.1772  1.0585
  198ccc    H14 5454   7.139   8.862   5.742 -0.5838  0.3857  0.3249
  198ccc    H15 5455   7.445   8.745   6.435 -1.2359  0.0408 -0.1266
  198ccc    H16 5456   7.105   8.630   6.147  1.9671  0.3461  1.1711
  199ccc     N1 5457   6.469   8.345   5.422  0.2660 -0.0764  0.0488
  199ccc     H1 5458   6.406   8.325   5.500  1.5717 -2.5353  0.5757
  199ccc     C1 5459   6.501   8.228   5.344 -0.0941  0.0155  0.2772
  199ccc     H2 5460   6.588   8.256   5.283 -0.3094 -1.2420 -0.6602
  199ccc     C2 5461   6.389   8.199   5.237  0.1548  0.1483 -0.0959
  199ccc     H3 5462   6.519   8.135   5.401 -1.1037 -0.4862 -0.2005
  199ccc     H4 5463   6.315   8.149   5.300 -0.1249  0.9907  0.2530
  199ccc     H5 5464   6.423   8.135   5.156  0.9501  1.2780 -0.6784
  199ccc     N2 5465   6.341   8.328   5.178 -0.2046  0.0876 -0.1441
  199ccc     C3 5466   6.208   8.289   5.113  0.5482  0.2514  0.9972
  199ccc     C4 5467   6.446   8.388   5.083  0.8492  0.0144  0.0196
  199ccc     H6 5468   6.547   8.377   5.125  0.7711  2.1874  0.9300
  199ccc     C5 5469   6.426   8.537   5.059  0.1186  0.1460  0.6968
  199ccc     H7 5470   6.458   8.337   4.987  2.0517  1.2315 -0.5105
  199ccc     H8 5471   6.417   8.586   5.157 -1.0392  1.6700 -0.1230
  199ccc     H9 5472   6.343   8.563   4.992 -0.4526 -0.4164  1.1777
  199ccc     C6 5473   6.553   8.584   4.994  0.2029  0.4541 -0.9075
  199ccc     O1 5474   6.563   8.713   4.960 -0.7084 -0.5532  0.3751
  199ccc     O2 5475   6.654   8.520   4.986 -0.6075  0.0270 -0.2531
  199ccc    H10 5476   6.234   8.213   5.038  0.5882  0.8241  0.4228
  199ccc    H11 5477   6.167   8.376   5.062 -0.0097  0.0964  1.1745
  199ccc     C7 5478   6.090   8.235   5.195  0.3057  0.4637  0.4810
  199ccc    H12 5479   6.065   8.306   5.275  0.7538 -1.1760  2.1428
  199ccc    H13 5480   6.118   8.141   5.244  1.3256  0.7520  0.4634
  199ccc     C8 5481   5.966   8.203   5.110  0.1632 -0.4068 -0.3726
  199ccc     O3 5482   5.961   8.214   4.989 -0.4877 -0.3867 -0.9423
  199ccc     O4 5483   5.850   8.154   5.167 -0.2188 -0.0659 -0.1464
  199ccc    H14 5484   6.479   8.747   4.996 -0.6963 -0.8016  0.6413
  199ccc    H15 5485   5.868   8.137   5.262  2.2066  4.5839  0.5155
  199ccc    H16 5486   6.332   8.394   5.256 -2.2631  0.1078 -0.3353
  200ccc     N1 5487   6.549   9.238   5.116  0.3817  0.1666  0.1311
  200ccc     H1 5488   6.463   9.189   5.139  0.6897 -0.0423  0.8770
  200ccc     C1 5489   6.606   9.337   5.210 -1.4502 -0.5328 -0.0951
  200ccc     H2 5490   6.712   9.312   5.224 -1.1875  0.0709 -0.9372
  200ccc     C2 5491   6.535   9.350   5.344 -0.7858  0.1117  0.4221
  200ccc     H3 5492   6.613   9.433   5.158  1.9133 -0.3305  0.5283
  200ccc     H4 5493   6.566   9.440   5.397  2.3168  0.2630 -1.4121
  200ccc     H5 5494   6.565   9.258   5.394 -1.8029 -0.3385  0.2366
  200ccc     N2 5495   6.386   9.353   5.326  0.5050 -0.3199 -0.7315
  200ccc     C3 5496   6.333   9.479   5.245 -0.0040 -0.2859  0.4608
  200ccc     C4 5497   6.329   9.366   5.465  0.7730  0.3319  0.6710
  200ccc     H6 5498   6.361   9.455   5.518 -1.4142  0.8669  1.1778
  200ccc     C5 5499   6.344   9.241   5.546 -0.5637  0.5820 -0.4514
  200ccc     H7 5500   6.224   9.386   5.443  1.1518  0.7645 -0.8340
  200ccc     H8 5501   6.448   9.231   5.580 -0.5874 -0.7179 -0.7418
  200ccc     H9 5502   6.310   9.147   5.502  2.7432 -2.0412  2.0559
  200ccc     C6 5503   6.267   9.247   5.681  0.3967 -0.0918 -0.1749
  200ccc     O1 5504   6.306   9.341   5.766 -0.0056  0.0803 -0.1760
  200ccc     O2 5505   6.171   9.178   5.705 -0.6978  0.1848  0.2824
  200ccc    H10 5506   6.393   9.486   5.154 -1.3376  0.0687 -0.4180
  200ccc    H11 5507   6.354   9.567   5.306  1.6605 -1.1913  1.2699
  200ccc     C7 5508   6.184   9.482   5.217 -0.0444  0.0103  0.5401
  200ccc    H12 5509   6.117   9.485   5.304  0.0228 -1.4869  0.6742
  200ccc    H13 5510   6.154   9.389   5.166 -0.0628  1.5252 -2.4624
  200ccc     C8 5511   6.140   9.592   5.120  0.7062 -0.2793 -0.1841
  200ccc     O3 5512   6.033   9.650   5.130 -0.2815 -0.0829  0.2435
  200ccc     O4 5513   6.228   9.627   5.036  0.2617  0.1249  0.1366
  200ccc    H14 5514   6.256   9.314   5.845  1.5730  2.0232  1.5894
  200ccc    H15 5515   6.191   9.709   4.999 -0.3038  0.9617  2.3923
  200ccc    H16 5516   6.353   9.268   5.278  3.3916 -0.9342 -1.8782
  201ccc     N1 5517   6.908   9.422   4.710  0.3388 -0.2164 -0.3614
  201ccc     H1 5518   6.840   9.455   4.643 -0.1149  1.1508  0.7432
  201ccc     C1 5519   6.955   9.517   4.820 -0.7136 -0.2012  0.4583
  201ccc     H2 5520   6.876   9.592   4.839 -0.0186  0.6238  0.1781
  201ccc     C2 5521   7.095   9.583   4.783 -0.3657 -0.6188 -0.0061
  201ccc     H3 5522   6.963   9.461   4.913  2.0863 -0.5483  0.0767
  201ccc     H4 5523   7.074   9.660   4.708  0.1061 -0.7733 -0.3042
  201ccc     H5 5524   7.162   9.506   4.745 -0.0360 -0.6760  0.6856
  201ccc     N2 5525   7.168   9.648   4.893 -0.2687  0.2734 -0.2377
  201ccc     C3 5526   7.285   9.726   4.845 -0.4046  0.3184  0.6488
  201ccc     C4 5527   7.212   9.541   4.996 -0.0843 -0.1758 -0.0251
  201ccc     H6 5528   7.141   9.459   4.993  0.2040 -0.5980  2.4749
  201ccc     C5 5529   7.231   9.590   5.143 -0.3915 -0.1769  0.6227
  201ccc     H7 5530   7.305   9.499   4.957  0.1667  0.9190 -0.6620
  201ccc     H8 5531   7.136   9.623   5.187 -0.5676 -1.3281  1.1384
  201ccc     H9 5532   7.300   9.674   5.154  0.4564 -0.8285  0.3834
  201ccc     C6 5533   7.286   9.476   5.223 -0.4081  0.4227 -0.6573
  201ccc     O1 5534   7.294   9.510   5.356 -0.4134  0.2961  0.1278
  201ccc     O2 5535   7.267   9.355   5.193  0.0538 -0.0807 -0.0640
  201ccc    H10 5536   7.339   9.665   4.772  1.6003 -0.3302  2.5912
  201ccc    H11 5537   7.359   9.746   4.922  0.7844  0.3747 -0.4637
  201ccc     C7 5538   7.250   9.865   4.793  0.1412  0.1567  0.5924
  201ccc    H12 5539   7.230   9.937   4.873 -0.0318  0.1130  0.5880
  201ccc    H13 5540   7.154   9.864   4.740  0.9457  0.5515 -0.9330
  201ccc     C8 5541   7.355   9.905   4.683  0.1513  0.5129 -0.1304
  201ccc     O3 5542   7.392   9.816   4.599  0.3033  0.2413 -0.1928
  201ccc     O4 5543   7.395  10.029   4.678  0.2692  0.2323 -0.2192
  201ccc    H14 5544   7.290   9.607   5.364  0.9003  0.2217  3.1984
  201ccc    H15 5545   7.369  10.080   4.756  0.3162 -1.5358  1.0025
  201ccc    H16 5546   7.103   9.713   4.941  1.5343  1.3714  0.8286
  202ccc     N1 5547   5.984   9.517   3.792  0.0214  1.0470  0.7321
  202ccc     H1 5548   6.032   9.605   3.808 -0.1592  2.0132 -3.1861
  202ccc     C1 5549   5.836   9.513   3.813 -0.2947 -0.7952 -0.4308
  202ccc     H2 5550   5.805   9.437   3.886 -0.2702 -0.6490 -0.2658
  202ccc     C2 5551   5.762   9.495   3.674 -0.0790 -0.2285 -0.4779
  202ccc     H3 5552   5.808   9.611   3.854 -0.0217 -0.3783 -1.2235
  202ccc     H4 5553   5.772   9.586   3.613 -3.2477  1.4118  1.1891
  202ccc     H5 5554   5.655   9.496   3.690  0.0294  1.9187  0.4399
  202ccc     N2 5555   5.818   9.375   3.595  0.2535  0.0897  0.3703
  202ccc     C3 5556   5.829   9.407   3.442 -0.3622 -0.0104 -0.5819
  202ccc     C4 5557   5.739   9.254   3.636  0.1733 -0.1907  0.2400
  202ccc     H6 5558   5.750   9.251   3.745 -1.5570 -2.1573  0.4216
  202ccc     C5 5559   5.792   9.122   3.575 -0.2630  0.2760  0.1043
  202ccc     H7 5560   5.634   9.276   3.617  0.3046 -0.2036 -0.5197
  202ccc     H8 5561   5.901   9.117   3.582 -0.2286 -2.0230 -1.1684
  202ccc     H9 5562   5.752   9.101   3.475  0.1178 -1.4818  0.2981
  202ccc     C6 5563   5.743   9.013   3.670  0.7216 -0.3107  0.0939
  202ccc     O1 5564   5.617   8.994   3.648  0.2884 -0.4137 -0.6673
  202ccc     O2 5565   5.792   8.998   3.782  0.2103  0.0724  0.1674
  202ccc    H10 5566   5.737   9.459   3.416  0.1148  0.5367 -1.1882
  202ccc    H11 5567   5.837   9.315   3.384 -2.0853 -0.4017 -0.2489
  202ccc     C7 5568   5.941   9.504   3.404  0.4635  0.1350  0.1928
  202ccc    H12 5569   5.921   9.601   3.451 -0.9462 -0.2716  0.4730
  202ccc    H13 5570   5.927   9.515   3.296 -1.9197 -0.3434  0.3974
  202ccc     C8 5571   6.080   9.443   3.421  0.0589  0.0873 -0.5080
  202ccc     O3 5572   6.109   9.364   3.507  0.0271 -0.2442  0.0180
  202ccc     O4 5573   6.178   9.497   3.345 -0.3484  0.1187  0.1056
  202ccc    H14 5574   5.598   8.945   3.730 -1.4097  3.5465  1.6156
  202ccc    H15 5575   6.145   9.575   3.297  1.2764  2.1529  2.0573
  202ccc    H16 5576   5.913   9.363   3.632  1.4144  1.1410 -2.0834
  203ccc     N1 5577   6.788   9.461   3.714  0.1883  0.5791  0.5300
  203ccc     H1 5578   6.770   9.524   3.791 -0.9390  0.1171  0.6698
  203ccc     C1 5579   6.882   9.485   3.607  0.1670 -0.1935  0.0832
  203ccc     H2 5580   6.928   9.399   3.558  2.2127  1.6433 -1.4298
  203ccc     C2 5581   6.996   9.567   3.668  0.2006  0.1194 -0.8639
  203ccc     H3 5582   6.826   9.544   3.533 -2.2247 -2.3643  0.0258
  203ccc     H4 5583   6.958   9.660   3.712  0.8549 -0.5798  1.2834
  203ccc     H5 5584   7.061   9.591   3.583  1.2483 -0.0330 -0.1238
  203ccc     N2 5585   7.088   9.495   3.772  0.2005  0.3720 -0.2468
  203ccc     C3 5586   7.192   9.584   3.820  0.0524 -0.7372  0.0254
  203ccc     C4 5587   7.142   9.374   3.711  0.1347  0.9409  0.1264
  203ccc     H6 5588   7.160   9.303   3.793 -1.3203 -1.1020 -1.2147
  203ccc     C5 5589   7.274   9.390   3.621  0.3581 -0.1535 -0.3236
  203ccc     H7 5590   7.071   9.317   3.651 -0.6452  0.9730  0.9948
  203ccc     H8 5591   7.348   9.455   3.670 -1.7185  2.8721 -0.9335
  203ccc     H9 5592   7.239   9.438   3.529 -0.7205  1.5146  0.8844
  203ccc     C6 5593   7.337   9.264   3.576 -0.5562  0.2695  0.1762
  203ccc     O1 5594   7.456   9.272   3.521 -0.2421 -0.3217  0.4662
  203ccc     O2 5595   7.281   9.155   3.590  0.3566 -0.2533  0.1598
  203ccc    H10 5596   7.235   9.641   3.738 -0.2456  1.0865  1.0887
  203ccc    H11 5597   7.275   9.530   3.865  1.3378  0.2422 -1.0871
  203ccc     C7 5598   7.149   9.682   3.929 -1.0262  0.2155  0.0817
  203ccc    H12 5599   7.133   9.628   4.023  2.0708  0.8180  1.0840
  203ccc    H13 5600   7.058   9.735   3.901 -0.5058  0.4815 -1.1541
  203ccc     C8 5601   7.268   9.780   3.960  0.3522 -0.5064 -0.0061
  203ccc     O3 5602   7.385   9.747   3.959  0.1546 -0.7917 -0.0539
  203ccc     O4 5603   7.224   9.873   4.044 -0.6395  0.2642  0.0201
  203ccc    H14 5604   7.475   9.366   3.509 -0.4612 -0.2709  0.5164
  203ccc    H15 5605   7.308   9.913   4.073 -2.0195  3.0561  0.5471
  203ccc    H16 5606   7.033   9.461   3.853  1.2271  0.4827  0.5069
  204ccc     N1 5607   7.276   8.813   3.170  0.3594  0.5563  0.2632
  204ccc     H1 5608   7.192   8.850   3.212  1.4694  2.2852  1.1058
  204ccc     C1 5609   7.283   8.793   3.027  0.4744 -0.1874  0.4823
  204ccc     H2 5610   7.202   8.861   2.997  0.4584 -0.9549 -1.3678
  204ccc     C2 5611   7.250   8.653   2.983  0.7612  0.1455 -0.0439
  204ccc     H3 5612   7.376   8.835   2.987 -0.4797  1.2214 -0.3343
  204ccc     H4 5613   7.281   8.639   2.879 -2.6014 -1.1861 -0.9922
  204ccc     H5 5614   7.141   8.646   2.983  0.5570  2.5144 -0.8580
  204ccc     N2 5615   7.327   8.549   3.065 -0.1086 -0.0515 -0.4482
  204ccc     C3 5616   7.471   8.540   3.019 -1.0189  0.9799 -0.0643
  204ccc     C4 5617   7.247   8.420   3.043  0.4058 -0.1135 -0.1419
  204ccc     H6 5618   7.258   8.380   2.942  0.9327 -2.1637  0.6564
  204ccc     C5 5619   7.099   8.404   3.097 -0.3449 -0.0139  0.4403
  204ccc     H7 5620   7.307   8.349   3.102 -0.5826  1.0964  2.4608
  204ccc     H8 5621   7.037   8.463   3.028 -1.7118 -0.4496  1.2429
  204ccc     H9 5622   7.086   8.454   3.194  0.6203  1.7112 -0.2789
  204ccc     C6 5623   7.054   8.257   3.109 -1.1343  0.4857 -0.6380
  204ccc     O1 5624   6.933   8.236   3.061  0.0186 -0.6721 -0.2277
  204ccc     O2 5625   7.130   8.163   3.128 -0.1365 -0.2167 -0.1414
  204ccc    H10 5626   7.506   8.644   3.016 -1.2880  1.0635 -3.0505
  204ccc    H11 5627   7.471   8.493   2.921  0.4355 -0.7711  0.7298
  204ccc     C7 5628   7.575   8.464   3.110  0.5794  0.1643  0.2532
  204ccc    H12 5629   7.549   8.358   3.105 -0.6439  0.4882 -0.6279
  204ccc    H13 5630   7.561   8.503   3.211 -1.4085  0.4390 -0.0894
  204ccc     C8 5631   7.716   8.485   3.066  0.6748 -0.6011  0.2083
  204ccc     O3 5632   7.744   8.543   2.964 -0.4785 -0.0570  0.2586
  204ccc     O4 5633   7.809   8.460   3.161 -0.7178 -0.0845  0.1333
  204ccc    H14 5634   6.923   8.140   3.074  2.9859 -1.1400 -0.5367
  204ccc    H15 5635   7.766   8.392   3.215  2.6493 -1.7581  0.9842
  204ccc    H16 5636   7.324   8.574   3.165  0.9225  0.2452 -0.4826
  205ccc     N1 5637   7.876   9.144   3.742  0.6942  0.7323 -0.0708
  205ccc     H1 5638   7.857   9.197   3.657  0.6537  0.5526 -0.1731
  205ccc     C1 5639   7.983   9.187   3.832  0.3382 -0.0082  0.6976
  205ccc     H2 5640   8.029   9.101   3.881  1.2580 -0.1563 -0.3844
  205ccc     C2 5641   7.939   9.307   3.928  0.0364  0.7504 -0.0681
  205ccc     H3 5642   8.065   9.226   3.770 -2.2461  2.3112 -1.5363
  205ccc     H4 5643   7.891   9.384   3.867 -0.0130  0.2920 -0.6172
  205ccc     H5 5644   8.032   9.338   3.975  0.0364 -0.1991  0.5987
  205ccc     N2 5645   7.833   9.282   4.045 -0.3644 -0.1242 -0.4538
  205ccc     C3 5646   7.905   9.188   4.146 -0.1598 -0.2604 -0.5590
  205ccc     C4 5647   7.710   9.227   3.977  0.0973 -0.4112 -0.2023
  205ccc     H6 5648   7.705   9.267   3.876  2.0164  0.7950  0.1338
  205ccc     C5 5649   7.581   9.279   4.043  0.2825  0.7757 -0.0878
  205ccc     H7 5650   7.709   9.118   3.973  0.4533 -0.3893 -1.3405
  205ccc     H8 5651   7.579   9.387   4.061  0.0251  0.4790  1.9024
  205ccc     H9 5652   7.572   9.231   4.141  0.6755  0.2147 -0.3183
  205ccc     C6 5653   7.460   9.242   3.960 -0.1880  0.6861  0.0155
  205ccc     O1 5654   7.363   9.332   3.969  0.1062 -0.0267  0.2007
  205ccc     O2 5655   7.467   9.184   3.853 -0.2797  0.1425 -0.9616
  205ccc    H10 5656   8.013   9.202   4.150  0.0216 -1.4610 -0.6426
  205ccc    H11 5657   7.891   9.089   4.101 -2.1556 -0.6816  0.8516
  205ccc     C7 5658   7.843   9.195   4.290 -0.0756 -1.3152  1.0686
  205ccc    H12 5659   7.737   9.170   4.289  0.3619 -3.4656  2.1199
  205ccc    H13 5660   7.869   9.295   4.326 -0.9077 -0.9046  0.5341
  205ccc     C8 5661   7.910   9.092   4.371  0.0554 -0.0068 -0.1599
  205ccc     O3 5662   7.912   8.979   4.325  0.4759 -0.5244  0.0333
  205ccc     O4 5663   7.924   9.118   4.503  0.1802  0.0591 -0.8204
  205ccc    H14 5664   7.377   9.384   4.050 -0.6341  1.1818 -0.4211
  205ccc    H15 5665   7.924   9.215   4.508 -0.3728  0.1141 -1.6126
  205ccc    H16 5666   7.818   9.376   4.084  0.7513  0.2487 -0.8703
  206ccc     N1 5667   7.325   8.239   1.473 -0.6438 -0.4810 -0.3577
  206ccc     H1 5668   7.362   8.304   1.541  0.1248 -3.1392  1.9469
  206ccc     C1 5669   7.391   8.108   1.461  0.2012 -0.0221  0.2926
  206ccc     H2 5670   7.402   8.066   1.562 -0.7896  0.4701  0.6211
  206ccc     C2 5671   7.522   8.122   1.379 -0.6745 -0.3965 -0.2158
  206ccc     H3 5672   7.331   8.037   1.404  1.4841 -0.1117 -1.0198
  206ccc     H4 5673   7.571   8.027   1.357 -1.3908 -0.4205 -1.7915
  206ccc     H5 5674   7.587   8.188   1.438 -0.6156 -1.8768  1.4702
  206ccc     N2 5675   7.514   8.177   1.234  0.3637 -0.3304  0.3635
  206ccc     C3 5676   7.468   8.325   1.227 -0.4617  0.4161 -0.6309
  206ccc     C4 5677   7.410   8.099   1.156  0.2686 -0.0549  0.3021
  206ccc     H6 5678   7.311   8.101   1.200 -0.0944  1.0836 -0.5253
  206ccc     C5 5679   7.463   7.964   1.106  0.1466 -0.2006 -0.5063
  206ccc     H7 5680   7.394   8.151   1.061  1.5131 -0.4614 -0.1620
  206ccc     H8 5681   7.510   7.924   1.197 -0.0025  0.1505 -0.2759
  206ccc     H9 5682   7.537   7.973   1.025  2.4958  0.2612  1.5401
  206ccc     C6 5683   7.348   7.875   1.057  0.0635 -0.5129  1.0207
  206ccc     O1 5684   7.370   7.744   1.067 -0.3032 -0.0032  0.6775
  206ccc     O2 5685   7.236   7.919   1.018  0.4396  0.4381 -0.2554
  206ccc    H10 5686   7.374   8.339   1.281 -0.2169  1.3332 -0.4244
  206ccc    H11 5687   7.443   8.361   1.127 -1.5951 -0.2534 -0.6082
  206ccc     C7 5688   7.562   8.426   1.299 -0.4310  0.8084  0.6401
  206ccc    H12 5689   7.660   8.434   1.249  0.2363  0.3051  1.8391
  206ccc    H13 5690   7.583   8.389   1.400 -1.2193  0.3552  0.6409
  206ccc     C8 5691   7.506   8.571   1.300  0.2620  0.0412  0.6770
  206ccc     O3 5692   7.388   8.595   1.331 -0.0134 -0.1127  0.7670
  206ccc     O4 5693   7.579   8.664   1.239  0.2366  0.4294 -0.6483
  206ccc    H14 5694   7.467   7.741   1.077 -0.3592 -1.2197  0.9448
  206ccc    H15 5695   7.516   8.728   1.203  0.3822  0.1953 -1.3333
  206ccc    H16 5696   7.603   8.169   1.182 -1.3086  1.9017 -3.2472
  207ccc     N1 5697   7.074   8.308   0.898  0.2329 -0.5098  1.2488
  207ccc     H1 5698   7.023   8.372   0.838 -0.4098 -0.5145  1.7806
  207ccc     C1 5699   7.167   8.213   0.837  0.4380 -0.0358  0.2755
  207ccc     H2 5700   7.260   8.261   0.803 -0.7128  2.6880  0.7029
  207ccc     C2 5701   7.091   8.150   0.719  0.1511  0.0291 -0.0563
  207ccc     H3 5702   7.191   8.131   0.905 -0.6287  0.2001  0.9633
  207ccc     H4 5703   7.159   8.073   0.682 -2.1197 -2.0098 -0.2261
  207ccc     H5 5704   7.088   8.228   0.643  0.3360 -0.1933 -0.2947
  207ccc     N2 5705   6.945   8.103   0.740  0.1908  0.3138  0.5879
  207ccc     C3 5706   6.940   7.994   0.844 -0.5438 -1.4361  0.1350
  207ccc     C4 5707   6.896   8.062   0.606  0.3346  0.1032  0.1777
  207ccc     H6 5708   6.925   8.138   0.533 -0.3192  1.5691  1.3805
  207ccc     C5 5709   6.737   8.041   0.603  0.1716  0.4384  0.1657
  207ccc     H7 5710   6.938   7.969   0.568  0.2636  0.2554 -0.2828
  207ccc     H8 5711   6.692   8.139   0.626  0.0789 -0.0396  2.2092
  207ccc     H9 5712   6.695   7.960   0.662  0.6882 -0.3688 -0.5472
  207ccc     C6 5713   6.702   8.005   0.456  0.4212 -0.1636 -1.4229
  207ccc     O1 5714   6.598   7.930   0.439  0.0453  0.0305  0.1040
  207ccc     O2 5715   6.786   8.014   0.370  0.1403 -0.3418  0.2445
  207ccc    H10 5716   6.837   7.975   0.875 -0.6362 -1.1610  0.0081
  207ccc    H11 5717   6.988   8.037   0.932 -2.3178 -2.6967  1.8119
  207ccc     C7 5718   7.006   7.863   0.804  0.0780 -0.3859 -0.6588
  207ccc    H12 5719   7.111   7.890   0.788 -0.1201  2.4908  1.8622
  207ccc    H13 5720   6.964   7.809   0.719 -0.0232 -0.8237 -0.3325
  207ccc     C8 5721   7.004   7.763   0.923  0.5457  0.0128  0.6928
  207ccc     O3 5722   6.949   7.768   1.024  0.7787 -0.2754  0.0720
  207ccc     O4 5723   7.093   7.664   0.907 -0.2655  0.1140 -0.8019
  207ccc    H14 5724   6.537   7.954   0.511 -0.9792 -2.0770 -0.0043
  207ccc    H15 5725   7.134   7.675   0.819  1.8528 -0.0347  0.1026
  207ccc    H16 5726   6.886   8.178   0.778 -0.3807 -0.0747  0.4828
  208ccc     N1 5727   6.551   7.204   0.603  0.4618  0.4657  0.2043
  208ccc     H1 5728   6.593   7.115   0.628 -0.2127  0.4520  1.3528
  208ccc     C1 5729   6.488   7.220   0.467 -0.6963  0.0579 -0.5841
  208ccc     H2 5730   6.518   7.321   0.437 -1.7487  0.5000 -0.2116
  208ccc     C2 5731   6.344   7.219   0.480  0.5500 -0.6648 -0.4158
  208ccc     H3 5732   6.526   7.143   0.399 -0.4411 -0.0855 -0.2799
  208ccc     H4 5733   6.303   7.228   0.379 -1.3993  0.0245  0.3886
  208ccc     H5 5734   6.306   7.299   0.543 -2.2215 -1.7093 -0.6014
  208ccc     N2 5735   6.282   7.087   0.540  0.0198 -0.3914 -0.0408
  208ccc     C3 5736   6.308   6.962   0.450 -0.7929 -0.3886 -0.0296
  208ccc     C4 5737   6.129   7.107   0.552 -0.3028 -0.5032  0.4002
  208ccc     H6 5738   6.123   7.185   0.627  1.8305  1.2908 -1.1753
  208ccc     C5 5739   6.050   6.983   0.610 -0.1242 -0.4654  0.0780
  208ccc     H7 5740   6.083   7.143   0.460 -1.8676  2.4064  2.1821
  208ccc     H8 5741   6.079   6.973   0.716 -1.8575 -2.7184  0.4294
  208ccc     H9 5742   6.070   6.892   0.553  0.9409 -1.0249  1.2863
  208ccc     C6 5743   5.899   7.001   0.593 -0.1808 -0.6053 -0.3388
  208ccc     O1 5744   5.824   6.890   0.613 -0.6943 -0.4191  0.0169
  208ccc     O2 5745   5.850   7.094   0.532  0.4050  0.2531 -0.2099
  208ccc    H10 5746   6.293   6.870   0.507 -1.9282  0.3007  0.8070
  208ccc    H11 5747   6.416   6.964   0.433  0.4991 -0.3473  5.9648
  208ccc     C7 5748   6.241   6.952   0.309 -0.0525  0.4615  0.0837
  208ccc    H12 5749   6.272   7.036   0.246 -1.5492 -0.9371 -2.7085
  208ccc    H13 5750   6.132   6.946   0.316 -0.0373 -0.4480 -0.3441
  208ccc     C8 5751   6.296   6.828   0.238  0.0401  0.4777 -0.0105
  208ccc     O3 5752   6.385   6.763   0.292 -0.2677 -0.1958 -0.3855
  208ccc     O4 5753   6.308   6.847   0.105  0.3206 -0.5307 -0.0566
  208ccc    H14 5754   5.890   6.820   0.630 -0.1683 -0.3965 -1.7557
  208ccc    H15 5755   6.367   6.776   0.075 -0.1077 -1.2659  0.8212
  208ccc    H16 5756   6.313   7.073   0.637 -0.3594 -1.1448 -0.0234
  209ccc     N1 5757   7.239   7.338   0.584 -0.1283 -0.1024  0.5105
  209ccc     H1 5758   7.213   7.433   0.562  1.0620  0.2099  0.3545
  209ccc     C1 5759   7.354   7.271   0.503  0.2033 -0.2853  0.0008
  209ccc     H2 5760   7.421   7.351   0.469 -0.1822 -0.0827 -0.2761
  209ccc     C2 5761   7.299   7.193   0.377  0.1561  0.0917 -0.5870
  209ccc     H3 5762   7.418   7.202   0.560  0.7527 -1.5140 -2.0177
  209ccc     H4 5763   7.379   7.141   0.324  1.3599  1.5247 -0.2432
  209ccc     H5 5764   7.259   7.262   0.303 -3.4463 -0.1070  0.9411
  209ccc     N2 5765   7.194   7.084   0.416 -0.7518  0.0595 -0.0656
  209ccc     C3 5766   7.268   6.949   0.417 -0.0510 -0.1374  0.6003
  209ccc     C4 5767   7.082   7.063   0.320  0.0566  0.5375  0.2800
  209ccc     H6 5768   7.124   7.045   0.220  2.2101 -1.0915  1.3740
  209ccc     C5 5769   6.993   7.189   0.300  0.5425  0.2163  0.6456
  209ccc     H7 5770   7.017   6.979   0.347 -1.6641  2.5367  2.7651
  209ccc     H8 5771   6.961   7.194   0.195  0.7648 -0.3670  0.5470
  209ccc     H9 5772   7.056   7.278   0.310  2.5017 -1.1228  0.9317
  209ccc     C6 5773   6.877   7.193   0.394  0.2465  0.4512 -0.2233
  209ccc     O1 5774   6.763   7.153   0.337 -0.4051 -0.6330  0.0775
  209ccc     O2 5775   6.888   7.236   0.506  0.1249  0.1070  0.2908
  209ccc    H10 5776   7.337   6.948   0.333 -0.4698 -2.3014  0.2221
  209ccc    H11 5777   7.203   6.869   0.382 -0.5250 -0.1223  1.4271
  209ccc     C7 5778   7.342   6.922   0.549 -0.0335 -0.3205  0.0188
  209ccc    H12 5779   7.423   6.994   0.567 -2.0746  2.2461 -0.4800
  209ccc    H13 5780   7.269   6.929   0.631  1.9333  0.8924  1.7629
  209ccc     C8 5781   7.392   6.779   0.547 -0.2772  0.0455  0.5804
  209ccc     O3 5782   7.409   6.719   0.441 -0.8417  0.5558  0.0394
  209ccc     O4 5783   7.428   6.731   0.668  0.3385  0.4851 -0.3019
  209ccc    H14 5784   6.789   7.116   0.251 -1.3587 -1.1468  0.0018
  209ccc    H15 5785   7.415   6.804   0.730 -0.8289 -0.2196  0.3124
  209ccc    H16 5786   7.155   7.101   0.510 -3.7346  0.3412 -1.2378
  210ccc     N1 5787   6.750   9.172   3.159  0.2112  0.0999 -0.1696
  210ccc     H1 5788   6.792   9.084   3.182 -0.2672 -0.4778 -1.4234
  210ccc     C1 5789   6.726   9.286   3.254 -0.2466 -0.4313 -0.0719
  210ccc     H2 5790   6.823   9.309   3.300 -0.8413  1.4825  0.3599
  210ccc     C2 5791   6.631   9.249   3.374  0.4996 -0.1655 -0.0640
  210ccc     H3 5792   6.695   9.375   3.198 -2.0802 -0.6278  0.5569
  210ccc     H4 5793   6.623   9.339   3.436  0.4122 -0.0893 -0.1865
  210ccc     H5 5794   6.693   9.182   3.434  0.5000  2.1437  2.7516
  210ccc     N2 5795   6.504   9.180   3.334 -0.2643 -0.2918  0.2754
  210ccc     C3 5796   6.422   9.257   3.232  0.4101 -1.3960 -0.9254
  210ccc     C4 5797   6.427   9.176   3.468 -0.6478 -0.3199  0.3030
  210ccc     H6 5798   6.498   9.147   3.546  1.6108  2.0626 -0.7201
  210ccc     C5 5799   6.300   9.088   3.478  0.4504 -0.6639 -0.6427
  210ccc     H7 5800   6.401   9.281   3.485 -0.6842 -0.3843  0.6581
  210ccc     H8 5801   6.310   8.997   3.418 -1.1192 -0.5045 -1.1922
  210ccc     H9 5802   6.219   9.143   3.428  0.7795  1.7221  1.2436
  210ccc     C6 5803   6.257   9.059   3.621  0.2285 -0.1517 -0.0100
  210ccc     O1 5804   6.124   9.026   3.627  0.1401 -0.6125  0.2314
  210ccc     O2 5805   6.322   9.082   3.722  0.7113  0.2143  0.7422
  210ccc    H10 5806   6.496   9.306   3.169  2.5651 -0.4442  2.1049
  210ccc    H11 5807   6.355   9.333   3.271  0.9472 -0.5603 -1.5835
  210ccc     C7 5808   6.337   9.162   3.144 -0.7676  0.2600 -0.2033
  210ccc    H12 5809   6.276   9.088   3.197 -1.2554 -0.2855 -1.4793
  210ccc    H13 5810   6.404   9.093   3.091 -1.9134  0.0545 -1.4487
  210ccc     C8 5811   6.258   9.240   3.042 -0.2297 -0.1691 -0.4861
  210ccc     O3 5812   6.313   9.308   2.963 -0.2959 -0.1103  0.1527
  210ccc     O4 5813   6.132   9.252   3.079  0.3915  0.4807 -0.5502
  210ccc    H14 5814   6.108   8.986   3.540 -0.7271  1.1422 -0.4652
  210ccc    H15 5815   6.100   9.315   3.013  0.0856  1.3074  0.3681
  210ccc    H16 5816   6.524   9.084   3.302 -0.3586  0.4283 -2.0798
  211ccc     N1 5817   6.565   9.261   2.381  0.1455 -0.7340  0.7971
  211ccc     H1 5818   6.584   9.306   2.470  1.2101 -1.7401  1.1153
  211ccc     C1 5819   6.461   9.307   2.291  0.1503  0.0259  0.1210
  211ccc     H2 5820   6.438   9.230   2.216  2.4592 -0.6497  0.0233
  211ccc     C2 5821   6.502   9.438   2.221  0.5470  0.6857  0.4045
  211ccc     H3 5822   6.363   9.324   2.337 -0.3637  0.0462 -0.9480
  211ccc     H4 5823   6.500   9.517   2.297  0.6400  1.6132 -0.5401
  211ccc     H5 5824   6.437   9.460   2.136 -2.1915 -1.5256  1.7694
  211ccc     N2 5825   6.642   9.442   2.168 -0.0871  0.0672  0.3379
  211ccc     C3 5826   6.686   9.588   2.134  0.0679  0.3902 -0.0635
  211ccc     C4 5827   6.642   9.358   2.039  0.3616 -0.6295 -0.4520
  211ccc     H6 5828   6.572   9.275   2.049 -0.2066 -0.3719 -2.0238
  211ccc     C5 5829   6.774   9.306   1.983 -0.0083  0.1328 -0.1980
  211ccc     H7 5830   6.590   9.407   1.957  0.3670 -0.4251 -0.3325
  211ccc     H8 5831   6.821   9.253   2.067 -0.2332 -3.0272 -1.9326
  211ccc     H9 5832   6.828   9.389   1.936 -1.1447  0.4490 -0.9692
  211ccc     C6 5833   6.760   9.210   1.871 -0.0552 -0.0681  0.5097
  211ccc     O1 5834   6.885   9.172   1.825 -0.0813  0.3743  0.1442
  211ccc     O2 5835   6.659   9.149   1.847 -0.3741 -0.1299 -0.1603
  211ccc    H10 5836   6.603   9.631   2.077  1.1288  2.3601 -0.1716
  211ccc    H11 5837   6.774   9.577   2.071 -1.5506 -0.9781 -2.2496
  211ccc     C7 5838   6.710   9.671   2.259  0.0597  0.3342 -0.0349
  211ccc    H12 5839   6.813   9.645   2.285  0.1796  0.4791 -0.3601
  211ccc    H13 5840   6.641   9.646   2.340  0.8739 -3.0754 -0.2228
  211ccc     C8 5841   6.697   9.815   2.225 -0.0289  0.2080 -0.1959
  211ccc     O3 5842   6.676   9.858   2.117  0.7387 -0.0712  0.1593
  211ccc     O4 5843   6.748   9.901   2.317  0.0365  0.0951 -0.7463
  211ccc    H14 5844   6.955   9.230   1.860  0.3205 -1.2187  2.1439
  211ccc    H15 5845   6.744   9.860   2.404  1.3600 -1.5108 -1.3918
  211ccc    H16 5846   6.708   9.397   2.234  0.9353  0.7911 -0.1535
  212ccc     N1 5847   6.955   7.669   3.408 -0.2606 -0.2921  0.2922
  212ccc     H1 5848   6.917   7.607   3.478 -0.5128  0.0091  0.4252
  212ccc     C1 5849   7.083   7.736   3.436 -0.1906 -0.0588  0.1387
  212ccc     H2 5850   7.098   7.819   3.365 -1.2777  0.0254 -0.0195
  212ccc     C2 5851   7.207   7.651   3.425 -0.6764 -0.5657 -0.1420
  212ccc     H3 5852   7.080   7.776   3.538  0.4566 -1.6596  0.8106
  212ccc     H4 5853   7.214   7.578   3.506  2.1870 -1.3478 -0.9916
  212ccc     H5 5854   7.298   7.711   3.433 -0.1026 -1.5267  0.8633
  212ccc     N2 5855   7.230   7.573   3.292  0.7653 -0.2118 -0.4112
  212ccc     C3 5856   7.358   7.493   3.308 -0.5917  0.1412  0.2779
  212ccc     C4 5857   7.236   7.680   3.182 -0.2625  0.0954 -0.3093
  212ccc     H6 5858   7.137   7.725   3.179 -1.4734 -2.3485  0.7292
  212ccc     C5 5859   7.267   7.624   3.048 -0.4156 -0.0450  0.4836
  212ccc     H7 5860   7.304   7.761   3.209  0.2921  0.5013 -2.6940
  212ccc     H8 5861   7.202   7.538   3.026 -0.9152  0.1302  1.2397
  212ccc     H9 5862   7.369   7.587   3.037 -0.3044  0.7940 -2.0667
  212ccc     C6 5863   7.242   7.725   2.936 -0.1908 -0.5429 -0.2129
  212ccc     O1 5864   7.229   7.690   2.805  0.4331  0.1378  0.6731
  212ccc     O2 5865   7.216   7.838   2.971 -0.4535  0.1718 -0.5571
  212ccc    H10 5866   7.448   7.546   3.338 -0.5292  0.5600 -0.6157
  212ccc    H11 5867   7.388   7.461   3.208 -0.0565 -1.3329  0.8926
  212ccc     C7 5868   7.328   7.366   3.388  0.9922  0.0269  0.6151
  212ccc    H12 5869   7.286   7.284   3.329  1.1854  1.4446 -1.5911
  212ccc    H13 5870   7.252   7.372   3.467  0.1493  1.9951 -0.2775
  212ccc     C8 5871   7.449   7.304   3.452 -0.6139  0.2093  0.1177
  212ccc     O3 5872   7.521   7.354   3.534  0.0574 -0.0316 -0.3279
  212ccc     O4 5873   7.504   7.207   3.376  0.2091 -0.4450  0.4242
  212ccc    H14 5874   7.286   7.611   2.798 -1.1299 -1.0942  1.2040
  212ccc    H15 5875   7.598   7.213   3.401  0.0071 -0.3323  1.1853
  212ccc    H16 5876   7.148   7.513   3.275 -0.0079  0.7269 -0.1606
  213ccc     N1 5877   6.387   7.214   3.024  0.5071  0.0530  0.2341
  213ccc     H1 5878   6.344   7.278   2.958  1.1914 -1.9604 -2.3301
  213ccc     C1 5879   6.376   7.074   2.986 -0.0319  0.1199  0.5085
  213ccc     H2 5880   6.321   7.070   2.892  0.1261  4.6138  0.0422
  213ccc     C2 5881   6.285   6.995   3.085 -0.5055 -0.4130 -0.2192
  213ccc     H3 5882   6.470   7.019   2.975 -1.2644 -2.0870  0.4400
  213ccc     H4 5883   6.258   6.898   3.044  2.3149 -0.9176 -1.0553
  213ccc     H5 5884   6.200   7.057   3.113  0.3306 -0.4042  2.6120
  213ccc     N2 5885   6.347   6.960   3.227  0.0328  0.1131  0.3690
  213ccc     C3 5886   6.420   6.824   3.224  0.5622  0.4242  0.2475
  213ccc     C4 5887   6.237   6.961   3.341 -0.8210  0.6906  0.3771
  213ccc     H6 5888   6.162   6.896   3.296 -0.3065  1.2410 -1.3471
  213ccc     C5 5889   6.179   7.101   3.373  0.3762 -0.0076  0.7362
  213ccc     H7 5890   6.276   6.918   3.434  2.2449  2.6165  0.1123
  213ccc     H8 5891   6.121   7.138   3.288  1.6903 -0.3234 -0.3168
  213ccc     H9 5892   6.255   7.177   3.396  0.3118 -1.0354  5.4963
  213ccc     C6 5893   6.088   7.105   3.491 -0.4869 -0.2385 -0.8049
  213ccc     O1 5894   6.031   7.225   3.514 -0.3810  0.1561  0.0366
  213ccc     O2 5895   6.093   7.022   3.576  0.4164 -0.0848  0.4582
  213ccc    H10 5896   6.481   6.819   3.134 -1.1082  0.5425 -0.9258
  213ccc    H11 5897   6.339   6.751   3.223  0.7846  0.1632  0.7353
  213ccc     C7 5898   6.508   6.788   3.346  0.1177 -0.0392  0.7302
  213ccc    H12 5899   6.437   6.761   3.425 -2.0978  1.8894 -0.4581
  213ccc    H13 5900   6.565   6.876   3.378 -0.3718  0.2426  0.8451
  213ccc     C8 5901   6.606   6.682   3.305  0.3325 -0.9005  0.5097
  213ccc     O3 5902   6.637   6.665   3.187  0.0255  0.5080  0.2383
  213ccc     O4 5903   6.660   6.609   3.410  0.0837  0.2527  0.6853
  213ccc    H14 5904   5.999   7.218   3.606  2.3222  1.6113  1.1792
  213ccc    H15 5905   6.618   6.648   3.489  1.1512 -0.3055  1.5544
  213ccc    H16 5906   6.415   7.033   3.255  1.7314 -1.2949  0.0804
  214ccc     N1 5907   8.875   5.674   1.905 -0.3243 -0.7764  0.4694
  214ccc     H1 5908   8.954   5.675   1.842 -0.9836 -0.7619 -0.3714
  214ccc     C1 5909   8.744   5.608   1.864 -0.4829  0.1992  0.7208
  214ccc     H2 5910   8.771   5.525   1.799  0.1497 -0.6785  2.0690
  214ccc     C2 5911   8.649   5.710   1.801 -0.8374  0.1596  0.5354
  214ccc     H3 5912   8.692   5.566   1.951 -0.0864  0.2994  1.0113
  214ccc     H4 5913   8.598   5.768   1.877  1.7237  1.3067  1.5098
  214ccc     H5 5914   8.580   5.648   1.743  1.7313  1.5060 -4.6088
  214ccc     N2 5915   8.709   5.814   1.701 -0.1140 -0.2839  0.1927
  214ccc     C3 5916   8.594   5.895   1.640 -0.1820 -0.1015  0.4353
  214ccc     C4 5917   8.794   5.746   1.587 -0.3739 -0.5547 -0.1521
  214ccc     H6 5918   8.872   5.687   1.635  0.3726  0.2059 -0.4126
  214ccc     C5 5919   8.876   5.845   1.503  0.0296 -0.3213 -0.0123
  214ccc     H7 5920   8.743   5.677   1.520 -0.6166 -0.6517  0.1314
  214ccc     H8 5921   8.953   5.902   1.557  3.5414 -2.1514 -2.6773
  214ccc     H9 5922   8.815   5.926   1.462  0.5929  1.6930  2.7878
  214ccc     C6 5923   8.938   5.767   1.398 -0.5472 -0.4375  0.3264
  214ccc     O1 5924   8.947   5.836   1.288  0.2195 -0.6740 -0.2727
  214ccc     O2 5925   8.937   5.647   1.396 -0.2760  0.0949  0.2558
  214ccc    H10 5926   8.511   5.832   1.609 -0.8540  2.2237 -3.1030
  214ccc    H11 5927   8.639   5.942   1.552 -1.5132  0.0555 -0.1789
  214ccc     C7 5928   8.539   6.017   1.713 -0.1986  0.0769  0.6347
  214ccc    H12 5929   8.619   6.091   1.725 -0.5040  0.8057 -1.4999
  214ccc    H13 5930   8.500   5.984   1.811  0.0620  2.0436  1.4503
  214ccc     C8 5931   8.421   6.082   1.643  0.7416  0.5224  0.7329
  214ccc     O3 5932   8.345   6.032   1.560  0.3760 -0.0760 -0.0043
  214ccc     O4 5933   8.419   6.213   1.675 -0.2855  0.3464  0.3014
  214ccc    H14 5934   8.960   5.925   1.324 -1.0687 -0.6728  0.2341
  214ccc    H15 5935   8.342   6.245   1.625  0.9024  0.4018 -1.5744
  214ccc    H16 5936   8.770   5.878   1.754  1.9248 -1.4999 -0.5777
  215ccc     N1 5937   9.568   5.580   2.289 -0.1502  0.2754 -0.1531
  215ccc     H1 5938   9.581   5.668   2.242 -0.6960  0.7082  0.4899
  215ccc     C1 5939   9.660   5.461   2.271 -0.4238  0.1226 -0.4242
  215ccc     H2 5940   9.751   5.509   2.233 -0.0329 -0.1109  0.1927
  215ccc     C2 5941   9.616   5.358   2.162  0.6286  0.5792  0.3669
  215ccc     H3 5942   9.688   5.410   2.365  0.3857  2.3569  0.6249
  215ccc     H4 5943   9.514   5.323   2.177  1.2233 -2.9552 -2.4855
  215ccc     H5 5944   9.675   5.266   2.164 -0.3094 -0.0193  0.9167
  215ccc     N2 5945   9.635   5.402   2.016 -0.4079  0.2246 -0.7163
  215ccc     C3 5946   9.545   5.324   1.910  0.3447 -0.0737  0.2380
  215ccc     C4 5947   9.780   5.386   1.976  0.4746  0.0905  0.7778
  215ccc     H6 5948   9.842   5.425   2.056  0.7315  1.7283 -0.1703
  215ccc     C5 5949   9.825   5.458   1.849  0.0172  0.1557  0.4401
  215ccc     H7 5950   9.808   5.282   1.956  1.2230  0.0378  2.0443
  215ccc     H8 5951   9.836   5.566   1.862  1.5975  0.0181  0.4091
  215ccc     H9 5952   9.760   5.446   1.762  0.8408 -1.7956  0.0362
  215ccc     C6 5953   9.964   5.411   1.811  0.0665 -0.0892  0.0077
  215ccc     O1 5954  10.024   5.485   1.713 -0.2324  0.1416 -0.2162
  215ccc     O2 5955  10.035   5.340   1.883  0.5148  0.2257  0.3662
  215ccc    H10 5956   9.581   5.221   1.900  0.3241  0.1200 -2.9940
  215ccc    H11 5957   9.566   5.358   1.809 -0.2112 -1.3392 -0.3259
  215ccc     C7 5958   9.396   5.339   1.927  0.5116  0.2174 -0.8202
  215ccc    H12 5959   9.362   5.442   1.940 -1.5410 -0.4728 -0.2508
  215ccc    H13 5960   9.373   5.285   2.020  0.3684  0.0579 -0.9462
  215ccc     C8 5961   9.324   5.278   1.813  0.0960  0.3534 -0.3547
  215ccc     O3 5962   9.375   5.256   1.706  0.4822 -0.2599 -0.0343
  215ccc     O4 5963   9.190   5.259   1.838 -0.2168 -0.1156 -0.4485
  215ccc    H14 5964   9.948   5.527   1.669  0.6740  1.1478 -0.8706
  215ccc    H15 5965   9.182   5.293   1.929  1.5758  0.4075 -0.4410
  215ccc    H16 5966   9.604   5.499   2.001 -1.7964 -0.1469 -0.3629
  216ccc     N1 5967   8.424   6.187   3.761 -0.0755  0.5466  0.1181
  216ccc     H1 5968   8.362   6.266   3.758  0.0909  0.6617 -2.6365
  216ccc     C1 5969   8.569   6.194   3.725 -0.2513 -0.1143 -0.0824
  216ccc     H2 5970   8.582   6.146   3.627 -0.5193  1.3692 -0.8689
  216ccc     C2 5971   8.645   6.149   3.852 -0.7262 -0.3006  0.7742
  216ccc     H3 5972   8.592   6.300   3.709  0.9451 -0.6218 -1.9973
  216ccc     H4 5973   8.609   6.046   3.860 -0.1181 -0.5519  0.4209
  216ccc     H5 5974   8.607   6.204   3.938  0.3649 -0.4000  1.3413
  216ccc     N2 5975   8.798   6.152   3.848 -0.0058  0.2608  0.5945
  216ccc     C3 5976   8.847   6.038   3.754 -0.6328  0.4072 -0.1870
  216ccc     C4 5977   8.858   6.129   3.990 -0.1746  0.4858 -0.1563
  216ccc     H6 5978   8.809   6.040   4.030  1.2489  1.4415  4.3066
  216ccc     C5 5979   8.836   6.231   4.094  0.1640 -0.9573  0.1787
  216ccc     H7 5980   8.960   6.092   3.980 -0.4184 -0.2241 -0.0795
  216ccc     H8 5981   8.732   6.266   4.097 -0.0511 -1.3862 -1.3732
  216ccc     H9 5982   8.901   6.318   4.083 -1.2966  0.3067  1.1259
  216ccc     C6 5983   8.861   6.166   4.233  0.7125  0.2333 -0.8948
  216ccc     O1 5984   8.788   6.228   4.328 -0.4823 -0.3987 -0.7625
  216ccc     O2 5985   8.937   6.074   4.265  0.9727 -0.1984  0.2710
  216ccc    H10 5986   8.764   6.024   3.685 -0.4713  0.3555 -0.3718
  216ccc    H11 5987   8.840   5.958   3.828 -0.6136  0.3255 -0.2732
  216ccc     C7 5988   8.984   6.067   3.692  0.1841 -0.0111  0.8617
  216ccc    H12 5989   9.057   6.106   3.764  1.7237 -2.7806  0.9037
  216ccc    H13 5990   8.981   6.142   3.611 -0.3614  0.5534  1.3869
  216ccc     C8 5991   9.046   5.942   3.629  0.8059  0.5014  0.0914
  216ccc     O3 5992   8.979   5.843   3.609  0.3985  0.2759 -0.0463
  216ccc     O4 5993   9.177   5.936   3.619  0.2604 -0.1028  0.0065
  216ccc    H14 5994   8.833   6.207   4.412  0.4820  2.2788 -0.5097
  216ccc    H15 5995   9.216   6.018   3.655  2.6815 -1.3213  0.3454
  216ccc    H16 5996   8.825   6.243   3.807 -1.9375 -0.4001 -2.3926
  217ccc     N1 5997   7.937   6.044   3.008 -0.0847  0.3596 -0.2162
  217ccc     H1 5998   7.971   6.138   2.991  0.7047  0.0389 -0.4794
  217ccc     C1 5999   7.879   5.960   2.901 -0.1987  0.0346  0.1673
  217ccc     H2 6000   7.936   5.973   2.809 -0.2158 -0.5398  0.0713
  217ccc     C2 6001   7.730   6.013   2.881  0.3108  0.1663  0.5348
  217ccc     H3 6002   7.877   5.854   2.930 -0.4188 -0.4121 -1.3765
  217ccc     H4 6003   7.679   5.942   2.816 -0.2597 -1.2389  2.4302
  217ccc     H5 6004   7.732   6.109   2.829 -1.3032  0.5571  1.1293
  217ccc     N2 6005   7.632   6.032   3.001 -0.0806 -0.5156  0.1212
  217ccc     C3 6006   7.594   5.893   3.043  0.5038  0.0821 -0.4530
  217ccc     C4 6007   7.507   6.106   2.950 -0.5321 -0.0080 -0.6784
  217ccc     H6 6008   7.457   6.048   2.872  1.3552 -3.0059  0.2286
  217ccc     C5 6009   7.535   6.249   2.900 -0.4284 -0.2187  0.3570
  217ccc     H7 6010   7.433   6.120   3.029  1.4277 -1.6242  1.5902
  217ccc     H8 6011   7.578   6.250   2.799 -1.2425  0.1046  0.0053
  217ccc     H9 6012   7.601   6.305   2.968  0.1841 -0.0649 -0.3507
  217ccc     C6 6013   7.404   6.327   2.884  0.0472  0.3077 -0.3020
  217ccc     O1 6014   7.416   6.458   2.874  0.1412  0.0547 -0.2128
  217ccc     O2 6015   7.293   6.281   2.885 -0.1526  0.4649  0.6118
  217ccc    H10 6016   7.686   5.836   3.039  1.5059  1.2450  2.7480
  217ccc    H11 6017   7.521   5.845   2.977  0.1973 -1.1838  0.7609
  217ccc     C7 6018   7.549   5.889   3.193  0.0576 -0.1847 -0.2741
  217ccc    H12 6019   7.472   5.966   3.210  1.2719  0.3916  3.5914
  217ccc    H13 6020   7.629   5.910   3.265  0.0042 -0.7804 -0.0396
  217ccc     C8 6021   7.486   5.751   3.218  0.1369  0.4857 -0.3859
  217ccc     O3 6022   7.467   5.660   3.136 -0.0090  0.0176 -0.0692
  217ccc     O4 6023   7.419   5.735   3.340  0.4681 -0.0327 -1.1125
  217ccc    H14 6024   7.513   6.469   2.871  0.1705 -0.3729 -1.5708
  217ccc    H15 6025   7.424   5.822   3.383 -0.5049  0.5583 -2.1412
  217ccc    H16 6026   7.674   6.087   3.077 -1.6600 -0.3830  0.9302
  218ccc     N1 6027   7.767   8.170   2.325  0.5140  0.1843  0.1513
  218ccc     H1 6028   7.729   8.170   2.231  2.6206 -1.6627 -0.7818
  218ccc     C1 6029   7.669   8.188   2.435  0.6049 -0.4581  0.1611
  218ccc     H2 6030   7.722   8.225   2.524 -2.6830 -0.1931  2.1929
  218ccc     C2 6031   7.593   8.066   2.486  0.2875  0.6510 -0.1661
  218ccc     H3 6032   7.605   8.274   2.407  1.7402  0.2370 -0.3659
  218ccc     H4 6033   7.549   8.098   2.580 -0.8866  0.3423 -0.5913
  218ccc     H5 6034   7.664   7.985   2.503  1.5529  1.9714  1.1176
  218ccc     N2 6035   7.477   8.016   2.396 -0.4185  0.5485  0.1780
  218ccc     C3 6036   7.362   7.959   2.471  0.7800  0.2622 -0.3143
  218ccc     C4 6037   7.547   7.910   2.316  0.6687  0.3080 -0.8339
  218ccc     H6 6038   7.642   7.949   2.280  0.2835 -0.2234 -2.5298
  218ccc     C5 6039   7.465   7.867   2.191 -0.2545  0.1617 -0.3155
  218ccc     H7 6040   7.573   7.822   2.374  0.9757  0.3626 -0.8863
  218ccc     H8 6041   7.451   7.966   2.145  1.1456  1.5935  2.0930
  218ccc     H9 6042   7.371   7.816   2.212  0.0584  0.6864  3.0456
  218ccc     C6 6043   7.549   7.777   2.101  0.1351 -0.0517  0.1595
  218ccc     O1 6044   7.470   7.706   2.024 -0.0563  0.2861 -0.5551
  218ccc     O2 6045   7.669   7.778   2.098  1.1661 -0.6983 -0.5761
  218ccc    H10 6046   7.401   7.884   2.540 -1.2404 -0.6348 -0.0692
  218ccc    H11 6047   7.304   7.901   2.399 -0.7126 -0.4222  1.3478
  218ccc     C7 6048   7.269   8.065   2.542  0.7206  0.0360  0.5797
  218ccc    H12 6049   7.251   8.149   2.474  0.7211  0.1605  0.7319
  218ccc    H13 6050   7.319   8.111   2.628 -1.4981  1.1483  1.3455
  218ccc     C8 6051   7.140   8.001   2.593 -0.4230 -0.6977 -0.1093
  218ccc     O3 6052   7.093   7.905   2.542 -0.0219  0.3963  0.2354
  218ccc     O4 6053   7.064   8.082   2.673 -0.3389 -0.3012  0.0838
  218ccc    H14 6054   7.529   7.680   1.951  0.7044  0.1819  0.0744
  218ccc    H15 6055   7.112   8.167   2.678 -0.3406 -0.2876 -0.1564
  218ccc    H16 6056   7.446   8.096   2.339  1.4819  0.1796 -1.5131
  219ccc     N1 6057   7.883   7.508   2.019 -0.7371  0.4472  0.7276
  219ccc     H1 6058   7.876   7.491   2.118  2.6291 -0.7994  0.8953
  219ccc     C1 6059   7.813   7.425   1.919 -0.7748 -0.3719 -0.0529
  219ccc     H2 6060   7.720   7.394   1.968 -0.8729 -0.2571 -0.1649
  219ccc     C2 6061   7.888   7.305   1.865 -1.2371  0.5421  1.2303
  219ccc     H3 6062   7.784   7.493   1.838 -0.7738  0.0112  0.2640
  219ccc     H4 6063   7.968   7.342   1.801 -1.6888 -0.1648  0.2240
  219ccc     H5 6064   7.821   7.243   1.805  1.7283 -1.1851 -0.5202
  219ccc     N2 6065   7.950   7.227   1.978  0.1103 -0.4633 -0.5399
  219ccc     C3 6066   8.067   7.148   1.918 -0.4671  0.8101  0.4670
  219ccc     C4 6067   7.847   7.148   2.058  0.1885 -1.0736 -0.0362
  219ccc     H6 6068   7.891   7.108   2.149 -2.2614 -2.1894  0.7452
  219ccc     C5 6069   7.782   7.025   1.982  0.2227 -0.5687 -0.2122
  219ccc     H7 6070   7.775   7.220   2.096  1.1809 -0.3373  0.4851
  219ccc     H8 6071   7.848   6.939   2.000  1.0686  0.0744 -0.1824
  219ccc     H9 6072   7.773   7.041   1.874  0.5668  1.0599 -0.0252
  219ccc     C6 6073   7.642   6.994   2.022 -0.2471  0.1266 -0.1646
  219ccc     O1 6074   7.599   6.864   1.982 -0.5446  0.0475  0.0369
  219ccc     O2 6075   7.574   7.069   2.081 -0.5462 -0.4579 -0.2700
  219ccc    H10 6076   8.116   7.236   1.877 -3.7180  1.4969 -2.4913
  219ccc    H11 6077   8.018   7.099   1.834 -1.7502  2.1436  0.3987
  219ccc     C7 6078   8.160   7.061   2.008 -0.0156 -1.0027 -0.4382
  219ccc    H12 6079   8.095   6.981   2.044  1.2465 -0.5858  3.2175
  219ccc    H13 6080   8.192   7.108   2.102 -2.1091  2.1875 -1.1750
  219ccc     C8 6081   8.272   6.996   1.925  1.2588 -0.2944 -0.1137
  219ccc     O3 6082   8.312   7.027   1.811  0.2344  0.5894  0.1818
  219ccc     O4 6083   8.357   6.929   1.999  0.0873  0.4968  0.2135
  219ccc    H14 6084   7.674   6.833   1.928 -0.3415  0.6736 -0.0365
  219ccc    H15 6085   8.421   6.905   1.930 -2.1585 -0.2662 -1.7153
  219ccc    H16 6086   7.983   7.302   2.040 -0.2726 -0.1956 -0.6555
  220ccc     N1 6087   9.189   8.218   2.090  0.2928 -0.2529 -0.0953
  220ccc     H1 6088   9.208   8.163   2.173  1.3159 -0.4506 -0.4460
  220ccc     C1 6089   9.107   8.349   2.096 -0.0023 -0.1482  0.0637
  220ccc     H2 6090   9.165   8.434   2.134 -0.2053 -0.4611  1.1163
  220ccc     C2 6091   8.991   8.340   2.196  0.7979  0.3607 -0.1255
  220ccc     H3 6092   9.068   8.378   1.997  1.2549  1.0001 -0.1146
  220ccc     H4 6093   8.929   8.430   2.197 -0.8824 -0.7128 -1.0197
  220ccc     H5 6094   9.021   8.341   2.300 -1.7331 -1.6943  0.7346
  220ccc     N2 6095   8.895   8.219   2.206  0.2057  0.2750  0.0699
  220ccc     C3 6096   8.783   8.213   2.098  0.0830 -0.0801  0.0335
  220ccc     C4 6097   8.815   8.225   2.340 -0.2913  0.2947  0.2914
  220ccc     H6 6098   8.769   8.324   2.341 -0.9480  0.0789 -1.9564
  220ccc     C5 6099   8.890   8.198   2.470 -0.0548  0.7364 -0.2705
  220ccc     H7 6100   8.733   8.154   2.327 -1.8764  1.8911  1.1121
  220ccc     H8 6101   8.951   8.287   2.488  0.9591  0.5440 -2.4328
  220ccc     H9 6102   8.951   8.107   2.468 -0.4748  0.3453  2.2201
  220ccc     C6 6103   8.792   8.170   2.584  0.0372 -0.0980  0.0516
  220ccc     O1 6104   8.837   8.201   2.703 -0.0668 -0.2114 -0.1212
  220ccc     O2 6105   8.678   8.142   2.565  0.0365 -0.0407 -0.3561
  220ccc    H10 6106   8.736   8.311   2.105 -1.3050 -0.8219  2.1218
  220ccc    H11 6107   8.706   8.144   2.133 -1.7846  2.0926  0.4193
  220ccc     C7 6108   8.829   8.170   1.952 -0.1720 -0.4108 -0.3403
  220ccc    H12 6109   8.895   8.246   1.909 -1.0832 -0.4198 -1.8011
  220ccc    H13 6110   8.744   8.185   1.885  0.0517 -1.6302 -0.9378
  220ccc     C8 6111   8.895   8.030   1.932  0.3853 -0.6097  0.0988
  220ccc     O3 6112   8.862   7.949   2.003  0.4721  0.3723 -0.3580
  220ccc     O4 6113   9.008   8.019   1.860  0.1354  0.6879 -0.2082
  220ccc    H14 6114   8.932   8.217   2.689  0.3037  0.2650  2.3834
  220ccc    H15 6115   9.012   8.098   1.804 -0.0219  0.5911 -0.3606
  220ccc    H16 6116   8.943   8.128   2.199 -2.1740 -1.1767  1.2532
  221ccc     N1 6117   9.747   8.115   1.664 -0.0236  0.3566 -0.0718
  221ccc     H1 6118   9.834   8.077   1.700 -1.8856 -2.3631  1.8978
  221ccc     C1 6119   9.768   8.244   1.598 -0.3373  0.0329  0.1071
  221ccc     H2 6120   9.865   8.229   1.550 -0.2779 -0.2319  0.3063
  221ccc     C2 6121   9.773   8.363   1.701 -0.4039  0.3687 -0.1171
  221ccc     H3 6122   9.692   8.265   1.522 -0.1344  0.6182  0.0639
  221ccc     H4 6123   9.816   8.448   1.646  0.8090  0.8775  1.5477
  221ccc     H5 6124   9.843   8.341   1.781 -0.8678  1.8422  0.7309
  221ccc     N2 6125   9.650   8.400   1.782 -0.4922 -0.0248 -0.5225
  221ccc     C3 6126   9.523   8.400   1.695  0.0634 -0.3590  0.2219
  221ccc     C4 6127   9.681   8.534   1.848  0.0266  0.3583  0.6784
  221ccc     H6 6128   9.695   8.607   1.767  2.6233 -1.8181 -0.9896
  221ccc     C5 6129   9.802   8.534   1.941 -0.4765 -0.2471  0.1439
  221ccc     H7 6130   9.589   8.537   1.906 -1.3982 -3.5744 -1.0195
  221ccc     H8 6131   9.898   8.537   1.888  0.1815  0.8873  1.3334
  221ccc     H9 6132   9.797   8.448   2.009 -1.9644 -0.8186 -0.6396
  221ccc     C6 6133   9.800   8.661   2.019  0.0572 -0.5183  0.5708
  221ccc     O1 6134   9.910   8.685   2.090 -0.3670  0.5076 -0.2241
  221ccc     O2 6135   9.696   8.723   2.039 -0.0764  0.4186 -0.2316
  221ccc    H10 6136   9.438   8.423   1.759  0.3603  1.8882 -0.1378
  221ccc    H11 6137   9.514   8.300   1.651  0.5602 -0.2115 -0.2208
  221ccc     C7 6138   9.523   8.503   1.578 -0.4990  0.6376 -0.2556
  221ccc    H12 6139   9.615   8.492   1.519 -0.1931 -0.9508  0.4668
  221ccc    H13 6140   9.523   8.604   1.620 -0.8040  0.7054 -0.4204
  221ccc     C8 6141   9.394   8.485   1.488  0.0531 -0.3842  0.4895
  221ccc     O3 6142   9.284   8.507   1.529 -0.2349  0.4207  0.2647
  221ccc     O4 6143   9.407   8.396   1.393  0.0643  0.3222  0.0449
  221ccc    H14 6144   9.971   8.623   2.046 -1.9236 -0.4860 -1.0725
  221ccc    H15 6145   9.318   8.368   1.364 -0.2340 -0.4324  1.5761
  221ccc    H16 6146   9.641   8.331   1.858  1.6610 -2.2814 -2.1184
  222ccc     N1 6147   6.875   5.191   5.768 -0.4036 -0.5874  0.8334
  222ccc     H1 6148   6.953   5.136   5.733 -0.5901 -0.2315 -0.1856
  222ccc     C1 6149   6.884   5.258   5.897 -0.6077  0.6105 -0.4687
  222ccc     H2 6150   6.902   5.364   5.874  1.2940  0.6088  0.8311
  222ccc     C2 6151   7.008   5.204   5.978 -0.2584  0.4146 -0.2185
  222ccc     H3 6152   6.790   5.251   5.953 -1.3399  2.2759 -1.3984
  222ccc     H4 6153   7.090   5.211   5.906  0.1059  0.5213  0.2065
  222ccc     H5 6154   6.992   5.099   6.001  0.0263  0.4389  0.0915
  222ccc     N2 6155   7.041   5.281   6.106 -0.2626  0.2066 -0.6400
  222ccc     C3 6156   7.048   5.431   6.079 -0.4294 -0.2236  0.2751
  222ccc     C4 6157   7.163   5.225   6.181 -0.5009 -0.2425  0.6531
  222ccc     H6 6158   7.236   5.251   6.105 -1.7082  1.5405  0.0359
  222ccc     C5 6159   7.152   5.082   6.239 -0.6807 -0.6938  0.1011
  222ccc     H7 6160   7.195   5.286   6.265  1.3194  0.2331 -0.3270
  222ccc     H8 6161   7.103   5.012   6.171 -0.6164 -1.3809  0.7498
  222ccc     H9 6162   7.087   5.085   6.328  0.1074 -1.7215  0.7322
  222ccc     C6 6163   7.289   5.018   6.264 -0.1041  0.0763 -0.1537
  222ccc     O1 6164   7.272   4.883   6.281 -0.3522  0.0726  0.4564
  222ccc     O2 6165   7.394   5.079   6.269 -0.0463  0.4956  0.0065
  222ccc    H10 6166   7.075   5.490   6.167  0.8251  1.1901 -0.9935
  222ccc    H11 6167   6.947   5.453   6.044 -0.1537  0.0770 -0.3368
  222ccc     C7 6168   7.149   5.475   5.967 -0.1408 -0.0486 -0.5262
  222ccc    H12 6169   7.133   5.409   5.881 -0.5450 -2.0917  1.0618
  222ccc    H13 6170   7.250   5.456   6.004  0.1321  2.3790  0.1698
  222ccc     C8 6171   7.122   5.618   5.947  0.2405 -0.2935  0.6309
  222ccc     O3 6172   7.009   5.669   5.954  0.5149 -0.7254  0.1220
  222ccc     O4 6173   7.239   5.689   5.947  0.4701 -0.0429 -0.0927
  222ccc    H14 6174   7.362   4.863   6.311  0.3066  1.6925 -0.2860
  222ccc    H15 6175   7.307   5.621   5.933  0.9375  0.5264 -0.6257
  222ccc    H16 6176   6.964   5.260   6.172  0.8908  0.5710  0.8850
  223ccc     N1 6177   6.862   4.828   5.031 -0.8495 -0.2420  0.4464
  223ccc     H1 6178   6.869   4.908   4.969 -2.2077 -0.5011 -0.0928
  223ccc     C1 6179   6.956   4.722   5.022  0.9857  0.5460 -0.3690
  223ccc     H2 6180   7.052   4.767   5.048  0.4533 -0.4087  4.0564
  223ccc     C2 6181   6.948   4.656   4.882  0.0244 -0.1745  0.6764
  223ccc     H3 6182   6.931   4.640   5.091  0.3782 -1.2864 -2.6331
  223ccc     H4 6183   7.009   4.566   4.883 -1.2578 -1.0962 -0.2868
  223ccc     H5 6184   7.000   4.722   4.812  0.2308 -0.2956  0.7164
  223ccc     N2 6185   6.810   4.627   4.824 -0.2046 -0.4208 -0.3888
  223ccc     C3 6186   6.738   4.535   4.921  0.4827  0.1058 -0.0406
  223ccc     C4 6187   6.810   4.573   4.680  0.2087  0.3600  0.4121
  223ccc     H6 6188   6.894   4.624   4.632 -0.4176  0.0460 -1.0931
  223ccc     C5 6189   6.669   4.592   4.607  0.4129  0.2532  0.0437
  223ccc     H7 6190   6.843   4.469   4.684 -1.4365 -0.2001  0.2790
  223ccc     H8 6191   6.634   4.696   4.606 -0.0773  0.1166  1.1092
  223ccc     H9 6192   6.591   4.536   4.661 -0.0502  2.2142  1.5196
  223ccc     C6 6193   6.670   4.546   4.465  0.5020  0.5587 -0.1251
  223ccc     O1 6194   6.563   4.577   4.387  0.7234  0.1215 -0.1806
  223ccc     O2 6195   6.768   4.487   4.427  0.0197 -0.2440 -0.3363
  223ccc    H10 6196   6.640   4.512   4.880 -0.2337  0.1813  1.5710
  223ccc    H11 6197   6.714   4.595   5.008 -1.5880  0.5612 -0.8694
  223ccc     C7 6198   6.808   4.403   4.946  0.1099  0.1046  0.0810
  223ccc    H12 6199   6.916   4.411   4.965 -0.0288  1.7359  0.3018
  223ccc    H13 6200   6.795   4.339   4.858 -2.2698  2.4353 -1.3760
  223ccc     C8 6201   6.742   4.336   5.063 -0.0311  1.0131 -0.9302
  223ccc     O3 6202   6.676   4.387   5.148  0.1674 -0.9963  0.5940
  223ccc     O4 6203   6.772   4.203   5.079 -0.0701 -0.1129  0.1676
  223ccc    H14 6204   6.590   4.547   4.299  0.3344  1.0394 -0.6340
  223ccc    H15 6205   6.816   4.185   4.994 -1.3674 -2.0528 -0.1568
  223ccc    H16 6206   6.759   4.716   4.819 -0.7807 -0.8272 -2.5600
  224ccc     N1 6207   6.828   3.489   5.880 -0.1119  0.5129 -0.5404
  224ccc     H1 6208   6.891   3.560   5.845 -1.3668  0.3365 -3.3827
  224ccc     C1 6209   6.868   3.404   5.994  0.4823  1.1611 -0.7220
  224ccc     H2 6210   6.830   3.461   6.079 -2.9385 -1.2813 -0.4047
  224ccc     C2 6211   7.023   3.389   6.000  0.4946  0.0752 -0.1965
  224ccc     H3 6212   6.821   3.304   5.994  3.7932 -0.5277 -1.6070
  224ccc     H4 6213   7.050   3.308   6.068  0.6320  0.3806  0.1174
  224ccc     H5 6214   7.063   3.481   6.043 -2.0183  1.6210 -0.9114
  224ccc     N2 6215   7.092   3.359   5.864  0.9726 -0.0997  0.1172
  224ccc     C3 6216   7.025   3.234   5.794 -0.3101  0.7621 -0.0870
  224ccc     C4 6217   7.245   3.339   5.875 -0.4688  0.7821 -0.4775
  224ccc     H6 6218   7.268   3.264   5.952 -2.0624 -0.2593 -0.9702
  224ccc     C5 6219   7.311   3.467   5.916  0.0706 -0.4024  0.0189
  224ccc     H7 6220   7.289   3.304   5.781  1.1210 -0.5082  0.6858
  224ccc     H8 6221   7.266   3.521   6.001 -0.2698 -0.0628 -0.3733
  224ccc     H9 6222   7.312   3.535   5.830  0.7517  0.4553  0.6962
  224ccc     C6 6223   7.456   3.456   5.956  0.7886 -0.0301  0.3469
  224ccc     O1 6224   7.472   3.391   6.077  0.2480 -0.2455  0.0833
  224ccc     O2 6225   7.549   3.490   5.890 -0.3854 -0.3299 -0.2101
  224ccc    H10 6226   6.920   3.259   5.806 -0.2578  1.1327 -0.3979
  224ccc    H11 6227   7.054   3.141   5.844  1.2243  1.1725 -0.1513
  224ccc     C7 6228   7.067   3.238   5.640  0.3712  0.1303  0.4228
  224ccc    H12 6229   7.171   3.215   5.614  0.3611 -0.0119  0.5062
  224ccc    H13 6230   7.043   3.337   5.599 -2.0709 -1.0619 -1.2862
  224ccc     C8 6231   6.967   3.142   5.560 -0.1450  0.3628  0.3865
  224ccc     O3 6232   6.860   3.168   5.530  0.1087  0.0375 -0.2475
  224ccc     O4 6233   7.023   3.034   5.502 -0.2566 -0.0715 -0.0984
  224ccc    H14 6234   7.383   3.368   6.109 -0.0352 -2.7404 -2.1270
  224ccc    H15 6235   6.956   3.014   5.435 -1.2242 -0.5796  0.9972
  224ccc    H16 6236   7.071   3.439   5.804 -2.9991 -1.5388 -0.6917
  225ccc     N1 6237   6.431   4.074   5.454 -0.0419  0.1249 -0.1111
  225ccc     H1 6238   6.348   4.077   5.512  0.3638  0.1246  0.4824
  225ccc     C1 6239   6.435   4.161   5.334 -0.2928  0.6842 -0.0219
  225ccc     H2 6240   6.536   4.194   5.308 -0.9571  1.3784 -1.8851
  225ccc     C2 6241   6.354   4.290   5.356 -1.2214  0.2264 -0.1244
  225ccc     H3 6242   6.399   4.119   5.239  1.2970  1.4946 -1.0160
  225ccc     H4 6243   6.366   4.352   5.266  1.7266  1.8974  1.2675
  225ccc     H5 6244   6.401   4.345   5.437 -2.3222 -1.5632  1.8072
  225ccc     N2 6245   6.209   4.269   5.397  0.6542 -0.9326  0.4656
  225ccc     C3 6246   6.123   4.244   5.270 -0.3363  0.7114 -0.2983
  225ccc     C4 6247   6.164   4.397   5.466 -0.0477  0.2558  0.0496
  225ccc     H6 6248   6.198   4.485   5.410 -0.9276  0.9448  0.5738
  225ccc     C5 6249   6.209   4.417   5.615  0.8605 -0.9517  0.3509
  225ccc     H7 6250   6.055   4.400   5.469 -0.0928 -1.2411  2.5289
  225ccc     H8 6251   6.318   4.420   5.626  0.8335  0.2931  0.3757
  225ccc     H9 6252   6.177   4.338   5.684  0.6825 -1.8737 -0.7505
  225ccc     C6 6253   6.153   4.549   5.670 -0.5544 -0.1642  0.2500
  225ccc     O1 6254   6.172   4.566   5.805 -0.5717  0.7868  0.2610
  225ccc     O2 6255   6.060   4.604   5.609 -0.2876 -0.1817  0.7450
  225ccc    H10 6256   6.166   4.162   5.213 -1.8175 -1.1417  1.1311
  225ccc    H11 6257   6.124   4.336   5.211  1.0282  0.3223 -0.9231
  225ccc     C7 6258   5.978   4.197   5.305 -0.5855 -0.1103 -0.2009
  225ccc    H12 6259   5.944   4.256   5.391  0.3046 -0.2194  0.2344
  225ccc    H13 6260   5.970   4.094   5.339  0.1091  1.0248  3.8595
  225ccc     C8 6261   5.889   4.215   5.185 -0.3396 -0.4361 -0.2035
  225ccc     O3 6262   5.941   4.252   5.075  0.0351 -0.3653 -0.5323
  225ccc     O4 6263   5.761   4.191   5.200  0.0269 -0.6216 -0.1332
  225ccc    H14 6264   6.228   4.491   5.831 -2.3107 -0.5811  0.2070
  225ccc    H15 6265   5.750   4.168   5.293  0.8468 -0.5348 -0.0083
  225ccc    H16 6266   6.197   4.193   5.465 -0.2237 -0.3690  0.9534
  226ccc     N1 6267   8.519   4.145   5.880  1.0535 -0.0085 -0.3669
  226ccc     H1 6268   8.581   4.111   5.952  0.6267 -0.3764 -0.1670
  226ccc     C1 6269   8.560   4.185   5.743  0.4904  0.4572  0.4499
  226ccc     H2 6270   8.621   4.110   5.692  0.4717  0.3343  0.6055
  226ccc     C2 6271   8.646   4.317   5.753  0.0703 -0.2406  0.1097
  226ccc     H3 6272   8.479   4.214   5.675 -0.7052 -1.0488  1.1758
  226ccc     H4 6273   8.662   4.353   5.652 -0.4109 -0.8530 -0.1931
  226ccc     H5 6274   8.746   4.290   5.787 -0.1117 -0.2807  0.6269
  226ccc     N2 6275   8.596   4.436   5.836 -0.1941  0.2890 -0.4203
  226ccc     C3 6276   8.463   4.475   5.782  0.1226 -0.7220  0.9072
  226ccc     C4 6277   8.692   4.553   5.829  0.7090  0.1312  0.3137
  226ccc     H6 6278   8.696   4.598   5.730  0.2048 -1.0911 -0.2858
  226ccc     C5 6279   8.830   4.536   5.883 -0.0641  0.0341 -0.1530
  226ccc     H7 6280   8.643   4.625   5.895 -0.4421 -0.5866  0.2638
  226ccc     H8 6281   8.891   4.467   5.824  0.5638  1.3077 -1.0465
  226ccc     H9 6282   8.819   4.502   5.987 -0.2147 -1.8382 -0.7555
  226ccc     C6 6283   8.897   4.672   5.901 -0.3591 -0.5872  0.6783
  226ccc     O1 6284   9.014   4.674   5.842 -0.4781 -0.4558  0.6326
  226ccc     O2 6285   8.857   4.774   5.949  0.0130  0.4270 -0.5522
  226ccc    H10 6286   8.414   4.394   5.728 -1.1586  1.2506 -1.0660
  226ccc    H11 6287   8.480   4.554   5.709 -1.6521 -2.3118 -1.3667
  226ccc     C7 6288   8.354   4.524   5.875  0.3212 -0.2610  0.2480
  226ccc    H12 6289   8.386   4.597   5.950 -2.0608  0.5053  0.5941
  226ccc    H13 6290   8.317   4.446   5.941 -2.2553 -2.1478 -3.1063
  226ccc     C8 6291   8.235   4.573   5.800  0.2514 -0.3759 -0.1372
  226ccc     O3 6292   8.203   4.539   5.688 -0.6885 -0.0776 -0.2317
  226ccc     O4 6293   8.202   4.694   5.845 -0.4013  0.0360  0.2301
  226ccc    H14 6294   9.044   4.766   5.843  1.2378 -0.8713 -1.9519
  226ccc    H15 6295   8.190   4.676   5.939 -0.8405 -0.3542  0.1058
  226ccc    H16 6296   8.584   4.401   5.932 -1.3269 -0.1282 -0.6941
  227ccc     N1 6297   8.279   3.905   6.597  0.5082 -0.1463  0.0081
  227ccc     H1 6298   8.288   3.806   6.615 -0.8483 -0.2614  0.1137
  227ccc     C1 6299   8.303   4.014   6.696  0.0455  0.0500 -0.3699
  227ccc     H2 6300   8.376   4.086   6.659 -0.4365  1.9763  2.1393
  227ccc     C2 6301   8.347   3.961   6.830 -0.1120  0.4176 -0.8341
  227ccc     H3 6302   8.206   4.064   6.707  1.5164  3.5574 -2.1014
  227ccc     H4 6303   8.366   4.045   6.897  0.7873 -0.2028 -0.2870
  227ccc     H5 6304   8.444   3.912   6.822 -0.0958 -0.1405  1.9185
  227ccc     N2 6305   8.252   3.870   6.903 -0.0089  0.2074 -0.6607
  227ccc     C3 6306   8.133   3.952   6.951  0.2329 -0.1683  0.1672
  227ccc     C4 6307   8.306   3.788   7.022 -0.1264 -0.6440  0.4092
  227ccc     H6 6308   8.380   3.849   7.074 -0.0846 -0.4889  0.1696
  227ccc     C5 6309   8.377   3.645   6.994  0.0280 -0.0749 -0.9819
  227ccc     H7 6310   8.224   3.762   7.088 -0.9412  0.6086 -0.0685
  227ccc     H8 6311   8.442   3.656   6.907  0.3567 -1.0626 -0.8825
  227ccc     H9 6312   8.302   3.568   6.969  0.1477 -0.3419 -0.5368
  227ccc     C6 6313   8.444   3.593   7.126  0.4063  0.5960  0.0495
  227ccc     O1 6314   8.559   3.536   7.102 -0.0749  0.4471 -0.6118
  227ccc     O2 6315   8.382   3.565   7.225  0.1586  0.1342  0.0647
  227ccc    H10 6316   8.094   4.012   6.868 -1.1861  0.7180  1.4254
  227ccc    H11 6317   8.170   4.022   7.025  1.1197  0.9419 -1.2728
  227ccc     C7 6318   8.007   3.879   7.008  0.4361 -0.1436 -0.4128
  227ccc    H12 6319   8.035   3.799   7.077 -1.2516 -0.7320 -0.3778
  227ccc    H13 6320   7.949   3.828   6.930  0.3585 -0.1086 -0.3776
  227ccc     C8 6321   7.913   3.974   7.081  0.0270  0.0811 -0.1369
  227ccc     O3 6322   7.899   3.978   7.205 -0.2986 -0.4551  0.0229
  227ccc     O4 6323   7.863   4.076   7.018  0.4446 -0.1416 -0.4072
  227ccc    H14 6324   8.576   3.485   7.184 -1.8373  1.7243  0.6358
  227ccc    H15 6325   7.881   4.050   6.926  1.1652 -0.5098 -0.1713
  227ccc    H16 6326   8.211   3.799   6.840 -0.6686  0.3914 -0.4520
  228ccc     N1 6327   8.307   3.430   5.266 -0.0293  0.2743 -0.0500
  228ccc     H1 6328   8.257   3.482   5.338  1.0242  0.9443  0.2212
  228ccc     C1 6329   8.269   3.292   5.238 -0.2123  0.4138  0.0210
  228ccc     H2 6330   8.238   3.279   5.133  1.2514 -0.1921 -0.3634
  228ccc     C2 6331   8.159   3.235   5.332  0.3410 -0.1848 -0.1705
  228ccc     H3 6332   8.360   3.231   5.253  0.5509  1.2413 -1.0598
  228ccc     H4 6333   8.070   3.297   5.330  0.7488  0.4507  1.0773
  228ccc     H5 6334   8.195   3.250   5.433  0.8352 -0.3190 -0.3224
  228ccc     N2 6335   8.118   3.092   5.310 -0.6158 -0.1930  0.2232
  228ccc     C3 6336   7.978   3.063   5.361 -0.2740 -0.5530 -0.4631
  228ccc     C4 6337   8.205   3.003   5.394 -0.2905 -0.2811 -0.0149
  228ccc     H6 6338   8.301   3.031   5.351 -0.2808 -1.6406 -0.9535
  228ccc     C5 6339   8.190   2.852   5.361  0.0699 -0.2429 -0.3478
  228ccc     H7 6340   8.193   3.021   5.501 -1.2429  1.3352 -0.3639
  228ccc     H8 6341   8.168   2.838   5.254  0.8284 -0.0517 -0.5383
  228ccc     H9 6342   8.109   2.818   5.427  0.8858  1.4527  1.6145
  228ccc     C6 6343   8.308   2.760   5.397  0.5922 -0.0510 -0.5919
  228ccc     O1 6344   8.272   2.629   5.403 -0.2944  0.3412 -0.3175
  228ccc     O2 6345   8.414   2.801   5.439 -0.2822  0.1047 -0.2738
  228ccc    H10 6346   7.966   3.104   5.461 -0.2936 -0.5227 -0.4779
  228ccc    H11 6347   7.960   2.956   5.362  1.9156 -1.1409 -4.3090
  228ccc     C7 6348   7.867   3.109   5.266  0.6417 -0.4702  0.2351
  228ccc    H12 6349   7.895   3.082   5.163  1.0366  0.0089  0.2108
  228ccc    H13 6350   7.856   3.218   5.270 -0.8959 -0.6114  0.2628
  228ccc     C8 6351   7.731   3.050   5.303 -0.4251 -0.5315 -0.1349
  228ccc     O3 6352   7.693   3.026   5.411 -0.3445 -0.1678 -0.4115
  228ccc     O4 6353   7.648   3.038   5.203  0.5251  0.1081 -0.0705
  228ccc    H14 6354   8.179   2.616   5.381 -0.0561 -3.2467  0.2005
  228ccc    H15 6355   7.709   3.070   5.133 -0.2492  0.3522 -0.6437
  228ccc    H16 6356   8.128   3.065   5.211 -3.6388  2.6005 -1.0151
  229ccc     N1 6357   8.338   4.239   5.023 -0.5231 -0.1468 -0.1766
  229ccc     H1 6358   8.363   4.232   4.925 -1.7832 -1.3356 -0.4405
  229ccc     C1 6359   8.213   4.307   5.057  0.3684 -0.7034  0.5580
  229ccc     H2 6360   8.127   4.265   5.004  0.1014 -1.6300  1.6858
  229ccc     C2 6361   8.227   4.463   5.021  1.3127  0.4310 -0.3790
  229ccc     H3 6362   8.191   4.296   5.164  0.9128 -0.4976  0.6928
  229ccc     H4 6363   8.138   4.514   5.060  1.6734 -1.2856  3.1069
  229ccc     H5 6364   8.225   4.465   4.912  2.5501 -0.1078 -0.4202
  229ccc     N2 6365   8.359   4.524   5.074 -0.8683  0.2686 -0.2133
  229ccc     C3 6366   8.353   4.531   5.224 -0.1710 -0.5982 -0.1027
  229ccc     C4 6367   8.387   4.666   5.015 -0.3402  0.0021  0.9295
  229ccc     H6 6368   8.298   4.727   5.028 -0.1557  0.5820 -0.4102
  229ccc     C5 6369   8.442   4.679   4.869  0.5047  0.2555  0.7310
  229ccc     H7 6370   8.467   4.710   5.075  0.4622  0.0492 -0.1531
  229ccc     H8 6371   8.370   4.639   4.797  0.5351  2.8507 -0.8583
  229ccc     H9 6372   8.520   4.602   4.860  1.6045  1.3782  0.4079
  229ccc     C6 6373   8.483   4.813   4.816  0.1637  0.1642  0.4317
  229ccc     O1 6374   8.491   4.829   4.681 -0.3151 -0.6751  0.7042
  229ccc     O2 6375   8.504   4.911   4.883  0.2328 -0.2346  0.0155
  229ccc    H10 6376   8.285   4.458   5.267 -2.5381  1.0937 -0.7767
  229ccc    H11 6377   8.299   4.624   5.243 -0.5114 -0.5586 -1.1891
  229ccc     C7 6378   8.492   4.520   5.283  0.6726 -0.2465  0.1058
  229ccc    H12 6379   8.546   4.609   5.251 -1.1269  1.1749  0.8296
  229ccc    H13 6380   8.546   4.429   5.253  2.0398  0.4615  0.3402
  229ccc     C8 6381   8.495   4.517   5.435 -0.2791  0.4906 -0.2271
  229ccc     O3 6382   8.474   4.412   5.494  0.0584  0.6791 -0.3654
  229ccc     O4 6383   8.449   4.630   5.497  0.0094 -0.9861 -0.2436
  229ccc    H14 6384   8.476   4.745   4.634 -1.6937  0.6785 -1.4393
  229ccc    H15 6385   8.449   4.710   5.443 -0.8848  1.8304  3.5016
  229ccc    H16 6386   8.441   4.463   5.056 -1.1550 -0.1815 -0.0077
  230ccc     N1 6387   9.213   5.227   3.784  0.0862  0.1434 -0.1352
  230ccc     H1 6388   9.279   5.150   3.791  0.6224  0.5423 -0.7549
  230ccc     C1 6389   9.099   5.250   3.879  0.5916  0.0108  0.4459
  230ccc     H2 6390   9.039   5.337   3.851 -0.5548  0.1370  3.0262
  230ccc     C2 6391   9.143   5.283   4.020 -0.8518  0.5760  0.4993
  230ccc     H3 6392   9.034   5.162   3.869  2.7727 -1.5758 -0.5986
  230ccc     H4 6393   9.215   5.207   4.052 -3.0604 -1.0487  1.9372
  230ccc     H5 6394   9.054   5.268   4.081 -1.3115  2.3461  0.3117
  230ccc     N2 6395   9.201   5.423   4.046  0.6849 -0.3443 -0.1573
  230ccc     C3 6396   9.280   5.429   4.181  0.6950 -0.1344 -0.1734
  230ccc     C4 6397   9.082   5.515   4.038 -0.5348 -0.6194 -0.8946
  230ccc     H6 6398   9.039   5.511   3.937 -0.1960  1.1192 -1.1395
  230ccc     C5 6399   9.129   5.659   4.059  0.2744 -0.4807  0.3943
  230ccc     H7 6400   9.017   5.485   4.120 -0.9388  1.4788 -0.4076
  230ccc     H8 6401   9.224   5.667   4.003 -0.9164 -0.1776 -1.6835
  230ccc     H9 6402   9.147   5.671   4.166  1.1684 -2.2718  0.4929
  230ccc     C6 6403   9.038   5.760   4.002 -0.6061 -0.7291  0.2045
  230ccc     O1 6404   9.061   5.893   4.036  0.0719  0.1011  0.5837
  230ccc     O2 6405   8.947   5.733   3.929  0.1826 -0.1967 -0.2869
  230ccc    H10 6406   9.220   5.391   4.264 -0.6019  2.3718  0.1213
  230ccc    H11 6407   9.300   5.533   4.206 -1.0071 -0.2060  1.7343
  230ccc     C7 6408   9.414   5.362   4.179 -0.2949  0.0335  0.1115
  230ccc    H12 6409   9.491   5.422   4.129 -1.4917  0.0562 -1.7845
  230ccc    H13 6410   9.406   5.258   4.145 -0.6105 -0.1811  0.8168
  230ccc     C8 6411   9.456   5.341   4.321 -0.3023 -0.7891  0.0417
  230ccc     O3 6412   9.427   5.421   4.413 -0.0714  0.1345  0.4354
  230ccc     O4 6413   9.547   5.238   4.341 -0.3711  0.8546 -0.3144
  230ccc    H14 6414   9.144   5.882   4.086 -0.5631  0.0585  1.6604
  230ccc    H15 6415   9.539   5.165   4.277  1.0248 -0.1779  0.6229
  230ccc    H16 6416   9.272   5.446   3.974  0.9765  0.0028  0.2330
  231ccc     N1 6417   8.951   5.199   3.217  0.0327  0.0241  0.5720
  231ccc     H1 6418   8.956   5.184   3.117  0.3654  0.5408  0.5044
  231ccc     C1 6419   8.821   5.167   3.276 -0.2851 -0.1592 -0.3671
  231ccc     H2 6420   8.832   5.086   3.349  1.4000  1.0494  0.8032
  231ccc     C2 6421   8.718   5.114   3.172 -0.0562 -0.8820 -1.0884
  231ccc     H3 6422   8.784   5.262   3.318  1.2867  0.5265 -0.4440
  231ccc     H4 6423   8.626   5.091   3.225  0.6430 -1.2962 -0.0069
  231ccc     H5 6424   8.756   5.018   3.135  0.7852 -0.6725 -0.8029
  231ccc     N2 6425   8.692   5.207   3.048  0.2247  0.2274  1.1199
  231ccc     C3 6426   8.618   5.323   3.100  0.5687  0.2044 -0.4335
  231ccc     C4 6427   8.626   5.114   2.950  0.2122 -0.0284 -1.0065
  231ccc     H6 6428   8.688   5.025   2.953  0.6269  0.2684  0.2863
  231ccc     C5 6429   8.637   5.153   2.808  0.2278 -0.3429 -0.3004
  231ccc     H7 6430   8.528   5.092   2.992  0.1663 -0.8511 -1.5376
  231ccc     H8 6431   8.666   5.060   2.757 -0.7726 -1.7037  1.4938
  231ccc     H9 6432   8.716   5.228   2.796  0.9441 -0.7255  1.6917
  231ccc     C6 6433   8.513   5.213   2.746  0.1273 -0.3300  0.7781
  231ccc     O1 6434   8.502   5.175   2.618  0.2379 -0.1438 -0.0618
  231ccc     O2 6435   8.422   5.251   2.813  0.7683 -0.1503 -0.0594
  231ccc    H10 6436   8.663   5.363   3.191 -0.3780 -1.3611  0.7708
  231ccc    H11 6437   8.517   5.296   3.130  1.4029 -2.4084  0.2605
  231ccc     C7 6438   8.625   5.437   3.004 -0.2233  0.0250  0.3156
  231ccc    H12 6439   8.547   5.427   2.928  0.9723  1.5416 -1.1732
  231ccc    H13 6440   8.725   5.449   2.959 -1.6336  1.0970 -2.8054
  231ccc     C8 6441   8.592   5.552   3.086 -0.6238  0.3480 -0.4550
  231ccc     O3 6442   8.485   5.561   3.137  0.0901 -0.5952  0.1872
  231ccc     O4 6443   8.682   5.643   3.107 -0.1102  0.3636  0.4295
  231ccc    H14 6444   8.588   5.137   2.591  2.3411  2.7061  2.0640
  231ccc    H15 6445   8.743   5.625   3.033 -0.7329  3.5441 -1.0529
  231ccc    H16 6446   8.780   5.243   3.010 -0.3567  0.0122 -0.4953
  232ccc     N1 6447   8.285   5.475   2.682 -0.5958  0.4955  0.1870
  232ccc     H1 6448   8.240   5.395   2.638  1.0326 -1.6202  2.1436
  232ccc     C1 6449   8.403   5.532   2.628  0.0699 -0.0786 -0.0590
  232ccc     H2 6450   8.451   5.591   2.708 -1.2773  1.2161 -0.1641
  232ccc     C2 6451   8.388   5.630   2.509 -0.1146  0.6069  0.7223
  232ccc     H3 6452   8.464   5.454   2.581 -0.5194 -0.1489 -0.7156
  232ccc     H4 6453   8.348   5.576   2.424  0.6150  0.1175  0.6864
  232ccc     H5 6454   8.483   5.673   2.479  0.4324  0.3035  1.9587
  232ccc     N2 6455   8.283   5.737   2.534  0.0716  0.0904 -0.6020
  232ccc     C3 6456   8.253   5.832   2.413 -0.1834  0.5824  0.0380
  232ccc     C4 6457   8.344   5.820   2.647  1.1710  0.3557 -0.1917
  232ccc     H6 6458   8.371   5.756   2.731 -0.1772 -2.2153 -1.5789
  232ccc     C5 6459   8.249   5.931   2.694 -0.0270 -0.3263 -0.5756
  232ccc     H7 6460   8.442   5.861   2.621  0.9947  0.4352 -0.7532
  232ccc     H8 6461   8.147   5.892   2.709 -0.9188  0.6697 -3.4408
  232ccc     H9 6462   8.240   6.003   2.613 -1.2532  1.4871  1.0810
  232ccc     C6 6463   8.305   5.992   2.817 -0.2089  0.5759  0.6376
  232ccc     O1 6464   8.251   5.946   2.935  0.3850 -0.1981 -0.2794
  232ccc     O2 6465   8.420   6.030   2.822  0.0803 -0.3380 -0.2772
  232ccc    H10 6466   8.343   5.888   2.388  1.1330 -1.9657 -1.3745
  232ccc    H11 6467   8.176   5.902   2.445  1.4595  1.7919  1.6373
  232ccc     C7 6468   8.207   5.749   2.287  0.5619 -0.4028 -0.5989
  232ccc    H12 6469   8.136   5.673   2.319 -0.8534  1.5383  1.1172
  232ccc    H13 6470   8.291   5.711   2.228  0.7574  1.5051 -1.6244
  232ccc     C8 6471   8.145   5.853   2.192 -0.2992 -0.6154 -0.0526
  232ccc     O3 6472   8.033   5.896   2.213 -0.1836  0.5477 -0.5078
  232ccc     O4 6473   8.233   5.902   2.099 -0.4832 -0.6332  0.5595
  232ccc    H14 6474   8.330   5.960   2.989  1.7649  0.0895 -2.2731
  232ccc    H15 6475   8.308   5.841   2.096  1.0185  1.1465 -0.7590
  232ccc    H16 6476   8.196   5.695   2.569 -0.1543  1.2143  0.2390
  233ccc     N1 6477   7.647   5.215   3.287 -0.3821 -0.1435 -0.6324
  233ccc     H1 6478   7.691   5.218   3.377 -2.0378  2.6140  0.2312
  233ccc     C1 6479   7.498   5.182   3.290 -0.2550 -0.9235  0.2211
  233ccc     H2 6480   7.444   5.228   3.206  1.4119 -2.0493 -1.5578
  233ccc     C2 6481   7.428   5.220   3.426  0.2190  0.0606  0.4246
  233ccc     H3 6482   7.486   5.074   3.273 -1.2905 -0.8668  0.5315
  233ccc     H4 6483   7.482   5.176   3.510 -0.6343 -2.6631 -0.3492
  233ccc     H5 6484   7.324   5.186   3.422  0.4474 -0.5013 -1.5734
  233ccc     N2 6485   7.429   5.373   3.448  0.1040  0.1989 -0.0163
  233ccc     C3 6486   7.451   5.398   3.600 -0.4562  1.0771  1.1926
  233ccc     C4 6487   7.295   5.434   3.414  0.1792  0.2867 -0.0571
  233ccc     H6 6488   7.217   5.388   3.475 -1.1093  0.5346 -1.4445
  233ccc     C5 6489   7.253   5.413   3.268  0.2723  0.9640 -0.7978
  233ccc     H7 6490   7.302   5.541   3.437  1.2396  0.1212  0.4485
  233ccc     H8 6491   7.234   5.308   3.242  1.0230  0.6438 -0.0971
  233ccc     H9 6492   7.340   5.437   3.206  0.8446  1.3852  0.1508
  233ccc     C6 6493   7.136   5.498   3.231  1.0681  0.0759 -0.2968
  233ccc     O1 6494   7.103   5.499   3.101 -0.5797 -0.4788  0.0017
  233ccc     O2 6495   7.104   5.590   3.304  0.1080  0.6194  0.9161
  233ccc    H10 6496   7.511   5.318   3.644 -2.2185 -1.4248 -0.6668
  233ccc    H11 6497   7.358   5.394   3.657 -0.8961  0.6427  0.4552
  233ccc     C7 6498   7.515   5.530   3.631  0.1766 -0.0778 -0.3398
  233ccc    H12 6499   7.448   5.604   3.587 -0.5112  0.0263  0.8412
  233ccc    H13 6500   7.616   5.529   3.587  0.7401 -1.3111  0.8907
  233ccc     C8 6501   7.525   5.565   3.771  0.0066 -0.4278 -0.4482
  233ccc     O3 6502   7.475   5.502   3.864  0.9178 -0.0063  0.0906
  233ccc     O4 6503   7.581   5.687   3.795  0.0067  0.4593 -0.2503
  233ccc    H14 6504   7.157   5.429   3.061  1.5516  2.5804 -3.0175
  233ccc    H15 6505   7.628   5.725   3.719  2.4025 -1.2702  0.2350
  233ccc    H16 6506   7.505   5.404   3.386 -0.0144 -3.5730 -2.3179
  234ccc     N1 6507   9.923   5.164   4.263 -1.0730  0.1719  0.2461
  234ccc     H1 6508   9.981   5.136   4.185  0.5114  2.9897  0.2615
  234ccc     C1 6509   9.882   5.302   4.252 -0.5911  0.3114 -0.1645
  234ccc     H2 6510   9.884   5.321   4.144  1.7093  0.2546 -0.1955
  234ccc     C2 6511   9.989   5.403   4.305 -0.5042  0.5292  0.0699
  234ccc     H3 6512   9.784   5.313   4.299 -0.4043  0.2297  0.2517
  234ccc     H4 6513   9.947   5.503   4.307  0.9106  1.2888 -3.0141
  234ccc     H5 6514  10.074   5.400   4.236 -0.6955 -1.7605 -0.1665
  234ccc     N2 6515  10.060   5.380   4.442 -0.1496  0.4313 -0.5508
  234ccc     C3 6516   9.956   5.370   4.548  0.3936 -0.3900 -0.4957
  234ccc     C4 6517  10.150   5.495   4.470  0.2400  0.4438 -0.6938
  234ccc     H6 6518  10.204   5.519   4.378  0.8035 -0.1323 -0.5205
  234ccc     C5 6519  10.254   5.475   4.589 -0.7596 -0.7203  0.2157
  234ccc     H7 6520  10.093   5.585   4.489  1.4615  0.9411  0.8342
  234ccc     H8 6521  10.346   5.418   4.571  0.3104  0.8925  0.3161
  234ccc     H9 6522  10.209   5.426   4.676 -2.1856  1.2519  0.6864
  234ccc     C6 6523  10.309   5.613   4.636  0.2486 -0.2310  0.2700
  234ccc     O1 6524  10.395   5.670   4.550  0.5955  0.7356  0.4095
  234ccc     O2 6525  10.242   5.689   4.708 -0.2047 -0.7240 -0.0705
  234ccc    H10 6526  10.001   5.322   4.634  0.8567  0.4826 -0.2374
  234ccc    H11 6527   9.877   5.302   4.514 -0.8187  1.0505 -0.6781
  234ccc     C7 6528   9.875   5.496   4.595 -0.0202 -0.6110  0.0151
  234ccc    H12 6529   9.824   5.534   4.506  0.8647 -0.6116 -0.5065
  234ccc    H13 6530   9.944   5.571   4.635  0.7148 -1.1586 -0.1952
  234ccc     C8 6531   9.782   5.463   4.710  0.1541 -0.1022  0.3148
  234ccc     O3 6532   9.764   5.352   4.754  0.0336  0.0196  0.3401
  234ccc     O4 6533   9.699   5.560   4.742  0.1919  0.3897 -0.0476
  234ccc    H14 6534  10.403   5.760   4.584  1.1029  0.4280  1.1235
  234ccc    H15 6535   9.749   5.640   4.718  1.8892 -1.0957 -1.6733
  234ccc    H16 6536  10.105   5.288   4.447 -1.4404 -0.1545  2.0395
  235ccc     N1 6537  10.162   5.033   4.875  0.6309 -0.6191 -0.0170
  235ccc     H1 6538  10.203   4.955   4.925 -0.9380 -0.3200  1.8590
  235ccc     C1 6539  10.194   5.177   4.916 -0.3778  0.5328 -0.3976
  235ccc     H2 6540  10.289   5.212   4.873  0.7165 -0.2429  1.2676
  235ccc     C2 6541  10.214   5.186   5.069 -0.3700  0.3815 -0.2515
  235ccc     H3 6542  10.121   5.249   4.879  0.6300  0.6621 -2.2107
  235ccc     H4 6543  10.258   5.283   5.090 -0.4446  0.4687 -0.4971
  235ccc     H5 6544  10.285   5.105   5.089 -1.7815 -0.6302  0.8585
  235ccc     N2 6545  10.094   5.164   5.156  0.2647 -0.0200  0.3381
  235ccc     C3 6546  10.016   5.295   5.160 -0.1505 -0.2698 -0.7252
  235ccc     C4 6547  10.121   5.118   5.293  0.0816  0.2555 -0.5179
  235ccc     H6 6548  10.029   5.109   5.351 -0.5693  0.2092 -1.5300
  235ccc     C5 6549  10.226   5.188   5.372  0.5586 -0.5711  0.0844
  235ccc     H7 6550  10.157   5.015   5.286 -0.3777  0.0061  0.6238
  235ccc     H8 6551  10.199   5.291   5.398  2.4973 -0.0197  0.1018
  235ccc     H9 6552  10.318   5.197   5.312 -0.9457  1.2350 -2.1195
  235ccc     C6 6553  10.256   5.114   5.498 -0.0230  0.0392 -0.2498
  235ccc     O1 6554  10.280   5.183   5.611  0.0394 -0.6655  0.2882
  235ccc     O2 6555  10.258   4.992   5.503  0.3368 -0.2819  0.2471
  235ccc    H10 6556  10.016   5.347   5.064 -0.3221  2.0273  0.4700
  235ccc    H11 6557  10.073   5.360   5.227  0.8714 -1.6808 -0.1751
  235ccc     C7 6558   9.870   5.289   5.214 -0.1590 -0.0495 -0.1504
  235ccc    H12 6559   9.863   5.232   5.307 -1.1635 -1.3785 -0.9934
  235ccc    H13 6560   9.813   5.232   5.140  2.2690 -0.0791 -2.1548
  235ccc     C8 6561   9.809   5.431   5.228 -0.4962 -0.3383 -0.0886
  235ccc     O3 6562   9.881   5.526   5.235 -0.0270 -0.5977  0.1639
  235ccc     O4 6563   9.697   5.435   5.302 -0.4357 -0.0210 -0.1989
  235ccc    H14 6564  10.289   5.109   5.674  0.6214  0.1206  1.1501
  235ccc    H15 6565   9.657   5.347   5.300 -2.6262  0.8698  1.2725
  235ccc    H16 6566  10.033   5.094   5.112  0.2201  2.1567 -3.5177
  236ccc     N1 6567   9.177   5.831   5.636 -0.4368 -0.0727  0.1463
  236ccc     H1 6568   9.128   5.826   5.548  0.0600 -1.0186 -0.0825
  236ccc     C1 6569   9.086   5.820   5.750 -0.7892 -0.0856  0.5430
  236ccc     H2 6570   8.989   5.787   5.712 -1.2219  2.5696 -0.9703
  236ccc     C2 6571   9.078   5.959   5.819  0.2756  0.2228 -0.0034
  236ccc     H3 6572   9.120   5.747   5.824  0.9295 -1.2541 -1.2895
  236ccc     H4 6573   9.166   5.991   5.874 -0.3201 -0.8037  1.6235
  236ccc     H5 6574   9.006   5.955   5.901  1.5045 -1.4389  1.0629
  236ccc     N2 6575   9.048   6.074   5.719 -0.0011  0.0029 -0.2636
  236ccc     C3 6576   9.058   6.215   5.792  0.2179  0.1612 -0.3948
  236ccc     C4 6577   8.907   6.046   5.669  0.2203  0.2702 -0.0969
  236ccc     H6 6578   8.904   5.956   5.607 -3.4920  0.4712 -0.4368
  236ccc     C5 6579   8.844   6.162   5.585 -0.4671 -0.6233 -0.2433
  236ccc     H7 6580   8.849   6.037   5.761 -0.5950 -0.3850 -0.6526
  236ccc     H8 6581   8.919   6.214   5.524 -0.9177 -0.7592 -0.9271
  236ccc     H9 6582   8.812   6.254   5.636  0.7109  1.9417 -3.7322
  236ccc     C6 6583   8.724   6.122   5.499  0.0173 -0.4671 -0.4892
  236ccc     O1 6584   8.697   6.202   5.390  0.2177 -0.1517 -0.0375
  236ccc     O2 6585   8.652   6.031   5.528  0.1943  0.0001  0.1552
  236ccc    H10 6586   9.001   6.209   5.884  0.2438 -0.5407 -0.4160
  236ccc    H11 6587   9.004   6.290   5.734  0.8259  1.2631  0.4369
  236ccc     C7 6588   9.204   6.264   5.828 -0.4677 -0.7238 -0.1224
  236ccc    H12 6589   9.246   6.309   5.737 -2.6691  1.6534 -0.0776
  236ccc    H13 6590   9.268   6.181   5.857 -1.8955 -2.4397 -1.5903
  236ccc     C8 6591   9.190   6.373   5.933 -0.7386 -0.2452  1.0574
  236ccc     O3 6592   9.206   6.493   5.904  0.1736  0.1984  0.6208
  236ccc     O4 6593   9.150   6.324   6.056  0.0405 -0.1165 -0.0047
  236ccc    H14 6594   8.752   6.282   5.388 -0.6386  0.4539 -2.1878
  236ccc    H15 6595   9.139   6.399   6.118 -2.1052 -0.7229  0.4562
  236ccc    H16 6596   9.110   6.067   5.637  1.3222  0.4661  0.6716
  237ccc     N1 6597   9.992   5.888   5.366 -0.2347  0.3496 -0.6603
  237ccc     H1 6598   9.988   5.898   5.467  3.3303  0.4118 -0.3949
  237ccc     C1 6599  10.094   5.797   5.310 -0.4174 -0.3454 -0.0443
  237ccc     H2 6600  10.038   5.707   5.284 -0.8741 -0.3400  0.8697
  237ccc     C2 6601  10.208   5.763   5.411 -0.1597  0.2150  0.1563
  237ccc     H3 6602  10.144   5.860   5.235 -0.3288 -1.1289 -0.6500
  237ccc     H4 6603  10.261   5.852   5.444  1.5007 -1.4742  2.3985
  237ccc     H5 6604  10.278   5.710   5.346 -1.2555  0.3449 -1.1767
  237ccc     N2 6605  10.187   5.685   5.546 -0.1066  0.0346  0.0206
  237ccc     C3 6606  10.317   5.674   5.624 -0.0824  0.1911  0.0068
  237ccc     C4 6607  10.133   5.548   5.513 -0.7637 -0.4306  0.4311
  237ccc     H6 6608  10.038   5.553   5.459 -1.7332  1.3585  2.1667
  237ccc     C5 6609  10.107   5.469   5.643  0.6821 -0.3743 -0.0677
  237ccc     H7 6610  10.215   5.507   5.453  0.4835  0.6475  1.3621
  237ccc     H8 6611  10.064   5.541   5.714 -0.9357  0.2916 -1.6512
  237ccc     H9 6612  10.200   5.434   5.688  1.5250  1.6127 -0.1630
  237ccc     C6 6613   9.994   5.365   5.637 -0.9197 -0.4147 -0.3795
  237ccc     O1 6614  10.003   5.280   5.743  0.0212  0.0694 -0.7178
  237ccc     O2 6615   9.897   5.360   5.566 -0.5993  0.0262  1.1011
  237ccc    H10 6616  10.310   5.621   5.719 -0.8123 -1.1226 -0.7550
  237ccc    H11 6617  10.344   5.774   5.660 -1.2748  1.8272 -3.2325
  237ccc     C7 6618  10.444   5.622   5.544  0.6515  0.3778  0.3343
  237ccc    H12 6619  10.475   5.697   5.470 -1.4910  1.1715  0.1682
  237ccc    H13 6620  10.422   5.533   5.483 -3.7804  0.5917  1.2797
  237ccc     C8 6621  10.563   5.591   5.631  0.0427 -0.5754 -0.5118
  237ccc     O3 6622  10.565   5.515   5.731  0.1895  0.1598 -0.3792
  237ccc     O4 6623  10.675   5.656   5.586 -0.0727  0.8667 -0.5202
  237ccc    H14 6624   9.937   5.215   5.714  2.3414 -2.5312 -0.5441
  237ccc    H15 6625  10.735   5.613   5.650 -3.0495  1.5892  3.1620
  237ccc    H16 6626  10.109   5.726   5.600 -1.3492  1.4032 -2.6079
  238ccc     N1 6627   7.921   6.557   7.173 -0.2923 -0.3816  0.5490
  238ccc     H1 6628   7.933   6.656   7.156  1.0513 -0.4897  0.7767
  238ccc     C1 6629   7.978   6.510   7.297  0.1831  0.2699 -0.0806
  238ccc     H2 6630   7.928   6.415   7.322  0.1633 -0.0791 -1.3687
  238ccc     C2 6631   7.953   6.604   7.412  0.3410 -0.5098 -0.2258
  238ccc     H3 6632   8.086   6.498   7.284  0.3740  2.0118 -0.3349
  238ccc     H4 6633   8.016   6.689   7.384  0.3741 -0.6870 -0.7069
  238ccc     H5 6634   8.001   6.574   7.505  2.0910  1.4921 -0.4073
  238ccc     N2 6635   7.806   6.648   7.427  0.3838  0.0863  0.9304
  238ccc     C3 6636   7.806   6.772   7.521 -0.1305 -0.2273 -0.6319
  238ccc     C4 6637   7.716   6.543   7.482 -0.1915 -0.0137  0.1432
  238ccc     H6 6638   7.721   6.451   7.422 -0.2736 -1.4941  2.2988
  238ccc     C5 6639   7.567   6.588   7.483  0.3016 -0.2594 -0.3796
  238ccc     H7 6640   7.754   6.525   7.583  0.7387  1.7456  0.1446
  238ccc     H8 6641   7.557   6.691   7.520  0.3574  0.7817 -3.0475
  238ccc     H9 6642   7.513   6.522   7.552  3.1792  0.3456  2.7366
  238ccc     C6 6643   7.505   6.574   7.344 -0.0478 -0.4668  0.2209
  238ccc     O1 6644   7.386   6.638   7.335 -0.0112  0.0091  0.3652
  238ccc     O2 6645   7.563   6.536   7.249  0.1233  0.2717  0.1718
  238ccc    H10 6646   7.709   6.821   7.527  0.0138  0.0500 -0.5321
  238ccc    H11 6647   7.863   6.849   7.468  0.9168 -0.6815 -0.2074
  238ccc     C7 6648   7.865   6.753   7.670 -0.2680 -0.3337 -0.4400
  238ccc    H12 6649   7.973   6.734   7.666 -0.2017  0.0136 -0.2938
  238ccc    H13 6650   7.826   6.669   7.728  0.0318 -0.0576  0.1653
  238ccc     C8 6651   7.853   6.885   7.743  0.6835  0.4670  0.2152
  238ccc     O3 6652   7.825   6.989   7.686  0.1458  0.1869  0.5806
  238ccc     O4 6653   7.782   6.866   7.854  0.5594 -0.0223 -0.2764
  238ccc    H14 6654   7.364   6.651   7.429 -0.4949 -0.8297  0.3846
  238ccc    H15 6655   7.734   6.950   7.863 -1.5506 -1.1786 -0.0944
  238ccc    H16 6656   7.771   6.670   7.333  1.0335 -0.5021  0.5396
  239ccc     N1 6657   8.281   6.742   6.747  0.1477  0.5453  0.1327
  239ccc     H1 6658   8.332   6.658   6.725  1.4356  1.1960  0.5339
  239ccc     C1 6659   8.358   6.862   6.743  0.1259 -0.3085  0.5975
  239ccc     H2 6660   8.302   6.938   6.687  0.6278  0.9256  1.7119
  239ccc     C2 6661   8.498   6.850   6.695  0.3086  0.2361  0.4937
  239ccc     H3 6662   8.359   6.900   6.846  0.4337 -2.7981  1.5677
  239ccc     H4 6663   8.551   6.792   6.771  1.1960  3.4109  2.4792
  239ccc     H5 6664   8.546   6.948   6.703  4.2986 -1.5763  1.5551
  239ccc     N2 6665   8.506   6.792   6.556 -0.3028 -0.2966 -0.1833
  239ccc     C3 6666   8.653   6.746   6.525  0.2819 -0.1353 -0.2429
  239ccc     C4 6667   8.455   6.891   6.457  0.1209  0.2176 -0.4604
  239ccc     H6 6668   8.378   6.955   6.500  1.5084  0.5671  1.6856
  239ccc     C5 6669   8.399   6.823   6.327  0.1842  0.2668  0.3019
  239ccc     H7 6670   8.529   6.969   6.437  1.4040 -0.9403 -0.3158
  239ccc     H8 6671   8.318   6.751   6.344  0.6060 -0.5450 -0.9580
  239ccc     H9 6672   8.477   6.762   6.279  0.7567  1.3385 -0.1761
  239ccc     C6 6673   8.340   6.924   6.231 -0.0220  0.5441  0.0049
  239ccc     O1 6674   8.398   6.906   6.115  0.2787 -0.1075  0.1517
  239ccc     O2 6675   8.273   7.020   6.257  0.1192 -0.5341  0.1166
  239ccc    H10 6676   8.723   6.830   6.520  0.2803  0.2623  3.6960
  239ccc    H11 6677   8.654   6.693   6.429  0.2662 -1.3912  0.4325
  239ccc     C7 6678   8.717   6.646   6.623  0.5002  0.1148 -0.0841
  239ccc    H12 6679   8.658   6.554   6.620 -0.7381  0.8890 -2.9820
  239ccc    H13 6680   8.710   6.693   6.722  0.6308 -1.1619  0.5503
  239ccc     C8 6681   8.870   6.636   6.604 -0.0981  0.2855  0.1736
  239ccc     O3 6682   8.929   6.720   6.547  0.2699 -0.5158 -0.0357
  239ccc     O4 6683   8.935   6.529   6.661 -0.2309  0.1230  0.5295
  239ccc    H14 6684   8.416   6.811   6.119  1.8304  0.0755 -1.2629
  239ccc    H15 6685   8.874   6.475   6.713  1.8299 -0.8334  2.1177
  239ccc    H16 6686   8.453   6.704   6.545  0.5679 -0.8688  0.0538
  240ccc     N1 6687   8.767   5.707   6.117  0.2573 -0.2690  0.3963
  240ccc     H1 6688   8.691   5.704   6.185  0.3721  1.7049  0.6787
  240ccc     C1 6689   8.883   5.625   6.139 -0.1498  0.4269  0.5511
  240ccc     H2 6690   8.966   5.661   6.077 -0.2819 -0.8678 -0.4149
  240ccc     C2 6691   8.850   5.481   6.104 -0.2964  0.8277  0.2182
  240ccc     H3 6692   8.919   5.633   6.242  4.3469  0.3267 -0.8200
  240ccc     H4 6693   8.946   5.429   6.095  1.1053  3.0819  1.2341
  240ccc     H5 6694   8.797   5.476   6.009 -0.9309  2.7613  0.4182
  240ccc     N2 6695   8.772   5.408   6.211  0.1308 -0.2901 -0.2458
  240ccc     C3 6696   8.867   5.356   6.314  0.0921 -0.2751  0.1573
  240ccc     C4 6697   8.703   5.283   6.156  0.3954 -0.6908  0.6699
  240ccc     H6 6698   8.767   5.211   6.105  0.7265 -0.0326  0.1448
  240ccc     C5 6699   8.591   5.315   6.071  0.5095  0.2053  0.1800
  240ccc     H7 6700   8.666   5.222   6.239  0.6046  0.1561  1.4156
  240ccc     H8 6701   8.615   5.369   5.979  0.8878 -0.5379 -0.1679
  240ccc     H9 6702   8.515   5.377   6.120  0.1045 -0.6205  0.6136
  240ccc     C6 6703   8.522   5.179   6.025  0.4560  0.5262 -0.1453
  240ccc     O1 6704   8.389   5.173   6.037  0.6202  0.5576 -0.3825
  240ccc     O2 6705   8.579   5.086   5.968 -0.4310 -0.6823 -0.2748
  240ccc    H10 6706   8.919   5.439   6.361 -0.8761  0.5394 -0.1901
  240ccc    H11 6707   8.940   5.306   6.250  1.3956  1.2116  0.4212
  240ccc     C7 6708   8.813   5.267   6.431 -0.2909  0.5160 -0.2038
  240ccc    H12 6709   8.791   5.171   6.382  0.3243  0.4103 -0.2866
  240ccc    H13 6710   8.721   5.311   6.470 -0.7278 -0.3066 -0.2770
  240ccc     C8 6711   8.920   5.235   6.540  0.2070  0.6185 -0.0851
  240ccc     O3 6712   9.028   5.293   6.540  0.3760 -0.2191 -0.1915
  240ccc     O4 6713   8.885   5.142   6.636  0.2208  0.1239  0.2659
  240ccc    H14 6714   8.365   5.265   6.054 -0.2476  0.3381 -0.4015
  240ccc    H15 6715   8.794   5.112   6.619  1.4377 -2.4866 -2.5449
  240ccc    H16 6716   8.699   5.466   6.253  1.0065 -0.0045  0.9715
  241ccc     N1 6717   8.126   5.332   5.765  0.1101  0.2197 -0.1055
  241ccc     H1 6718   8.053   5.397   5.737  0.9864  1.7957  1.0873
  241ccc     C1 6719   8.091   5.195   5.809 -0.2861 -0.4526  0.6780
  241ccc     H2 6720   8.172   5.154   5.871  0.7731 -1.2588 -1.1474
  241ccc     C2 6721   8.057   5.099   5.689 -1.0409  0.3535 -0.6538
  241ccc     H3 6722   8.006   5.206   5.877 -0.7192  1.3233 -0.0904
  241ccc     H4 6723   7.986   5.146   5.621  0.0272 -2.8193 -4.3680
  241ccc     H5 6724   8.007   5.012   5.733 -0.1848 -0.3874 -1.0950
  241ccc     N2 6725   8.178   5.059   5.598  0.2296  0.4247  0.1698
  241ccc     C3 6726   8.129   4.974   5.483 -0.2449 -0.2567  0.1292
  241ccc     C4 6727   8.285   4.983   5.686  0.2495 -0.7190  0.2318
  241ccc     H6 6728   8.288   5.040   5.779 -0.9912 -1.4384  0.7289
  241ccc     C5 6729   8.431   4.972   5.637  0.2664  0.3195 -0.4448
  241ccc     H7 6730   8.248   4.882   5.702  2.1413 -1.3564  0.8975
  241ccc     H8 6731   8.482   5.069   5.642 -2.8785  2.0480  2.6481
  241ccc     H9 6732   8.438   4.944   5.531  2.3021  0.9208 -0.5079
  241ccc     C6 6733   8.501   4.875   5.733 -0.8759  0.0190  0.1911
  241ccc     O1 6734   8.617   4.833   5.689  0.0493 -0.0724 -0.2085
  241ccc     O2 6735   8.455   4.817   5.827  0.3360 -0.3486  0.3379
  241ccc    H10 6736   8.217   4.942   5.428 -0.7746  1.3153 -1.7682
  241ccc    H11 6737   8.055   5.030   5.425  0.5956  0.7146 -0.0540
  241ccc     C7 6738   8.051   4.839   5.524 -0.2648 -0.7257  0.5384
  241ccc    H12 6739   7.958   4.871   5.573 -0.2397  0.9780 -0.4324
  241ccc    H13 6740   8.107   4.769   5.587  0.8770 -0.8279 -0.5519
  241ccc     C8 6741   8.026   4.745   5.411  0.4245  0.0283  0.4223
  241ccc     O3 6742   8.097   4.651   5.386 -0.4646 -0.2150  0.4099
  241ccc     O4 6743   7.918   4.769   5.337 -0.3329 -0.0295 -1.0710
  241ccc    H14 6744   8.637   4.895   5.616  1.5803 -0.2048  0.0641
  241ccc    H15 6745   7.891   4.858   5.367  1.2914 -0.0358  0.5601
  241ccc    H16 6746   8.228   5.138   5.554  0.6669 -0.8954 -1.7888
  242ccc     N1 6747   5.744   5.066   5.223  0.1636 -0.6444 -0.4868
  242ccc     H1 6748   5.756   5.147   5.283 -1.5520  0.5882 -1.7084
  242ccc     C1 6749   5.708   5.087   5.082 -0.7022  0.0418  0.4104
  242ccc     H2 6750   5.786   5.144   5.031  0.1078 -0.9358  0.5437
  242ccc     C2 6751   5.571   5.162   5.080 -0.0673  0.4491  0.3766
  242ccc     H3 6752   5.706   4.990   5.032 -1.5431 -0.6649  1.7424
  242ccc     H4 6753   5.501   5.108   5.144  0.6258 -0.0476  0.7314
  242ccc     H5 6754   5.539   5.170   4.976  0.0417 -0.6765  0.2502
  242ccc     N2 6755   5.562   5.304   5.134  0.2631 -0.0909 -0.4123
  242ccc     C3 6756   5.422   5.359   5.146 -0.4938 -0.3845 -0.1864
  242ccc     C4 6757   5.660   5.398   5.075  0.3382  0.5196  0.5169
  242ccc     H6 6758   5.662   5.491   5.133 -1.3087  1.6158 -1.0664
  242ccc     C5 6759   5.635   5.446   4.929  0.1280  0.4203  0.3565
  242ccc     H7 6760   5.761   5.357   5.079  0.0132 -0.6985 -1.9932
  242ccc     H8 6761   5.531   5.472   4.909 -0.1440  0.0318  1.2233
  242ccc     H9 6762   5.659   5.363   4.862 -2.1761 -0.3172  0.3647
  242ccc     C6 6763   5.731   5.559   4.883  0.5745  0.4876 -0.4509
  242ccc     O1 6764   5.710   5.597   4.762 -0.1515  0.4371 -0.0852
  242ccc     O2 6765   5.825   5.604   4.948 -0.1587  0.0005  0.8717
  242ccc    H10 6766   5.350   5.280   5.169 -0.8459  0.3401  1.3885
  242ccc    H11 6767   5.397   5.394   5.046 -1.7978  0.7651  0.4918
  242ccc     C7 6768   5.405   5.462   5.260 -0.2602  0.3952  0.5330
  242ccc    H12 6769   5.453   5.555   5.227 -0.7571  0.2777 -0.6009
  242ccc    H13 6770   5.445   5.419   5.352 -1.4981  1.3770  1.5697
  242ccc     C8 6771   5.260   5.494   5.276  0.0277  0.9913  0.6127
  242ccc     O3 6772   5.172   5.457   5.199  0.4745  0.4125  0.7790
  242ccc     O4 6773   5.231   5.578   5.381 -0.3032 -0.1468  0.2520
  242ccc    H14 6774   5.647   5.530   4.729  0.1256 -0.8640  1.8603
  242ccc    H15 6775   5.137   5.596   5.362  0.6394  2.3191 -2.8741
  242ccc    H16 6776   5.590   5.300   5.234  0.3554 -1.7494 -0.4777
  243ccc     N1 6777   5.687   4.635   6.030 -0.3246  0.7840 -0.0303
  243ccc     H1 6778   5.787   4.623   6.045 -0.1342  0.8643 -1.1068
  243ccc     C1 6779   5.600   4.513   6.053  0.6593 -0.0650  0.0460
  243ccc     H2 6780   5.503   4.540   6.010 -0.5655  1.8583  3.5639
  243ccc     C2 6781   5.601   4.488   6.207  0.0053  0.3406 -0.0970
  243ccc     H3 6782   5.652   4.429   6.006  3.4673 -0.5128  3.4889
  243ccc     H4 6783   5.701   4.469   6.246  0.1727 -0.0767 -0.7132
  243ccc     H5 6784   5.547   4.397   6.234 -0.2515  1.2885  2.9546
  243ccc     N2 6785   5.558   4.607   6.288  0.4103  0.3311  0.2590
  243ccc     C3 6786   5.556   4.565   6.434 -0.2141 -0.2793 -0.4321
  243ccc     C4 6787   5.420   4.665   6.250 -0.1163  0.0764  0.3486
  243ccc     H6 6788   5.402   4.756   6.307 -1.1784  0.2290 -0.2082
  243ccc     C5 6789   5.296   4.571   6.238  0.0312  0.4332  0.1284
  243ccc     H7 6790   5.440   4.705   6.151  0.0065 -0.9398 -0.0557
  243ccc     H8 6791   5.281   4.519   6.334  1.2459  1.4701  0.9134
  243ccc     H9 6792   5.313   4.493   6.162 -1.0643 -1.2597  1.5431
  243ccc     C6 6793   5.161   4.635   6.209 -0.5362  0.1515  0.2278
  243ccc     O1 6794   5.068   4.552   6.169  0.5669 -0.2275 -0.0165
  243ccc     O2 6795   5.163   4.741   6.147  0.0010 -0.3868 -0.3462
  243ccc    H10 6796   5.655   4.527   6.458 -0.3765  0.3406  1.3966
  243ccc    H11 6797   5.481   4.487   6.450 -0.6068  0.1419 -0.2068
  243ccc     C7 6798   5.543   4.676   6.546 -0.2243  0.0281  0.3871
  243ccc    H12 6799   5.447   4.729   6.536 -0.0455  0.3929  0.5964
  243ccc    H13 6800   5.623   4.750   6.532  0.7320 -1.1462 -0.5846
  243ccc     C8 6801   5.548   4.606   6.679  0.0142  0.9191 -1.1131
  243ccc     O3 6802   5.595   4.493   6.703 -0.1692  0.2246  0.4734
  243ccc     O4 6803   5.472   4.666   6.773 -0.3107  0.1036 -0.4772
  243ccc    H14 6804   5.107   4.465   6.186  1.8489 -0.3757 -3.0534
  243ccc    H15 6805   5.428   4.743   6.733 -1.1469 -0.9219 -1.6009
  243ccc    H16 6806   5.632   4.678   6.279  1.0692 -0.4733 -0.8410
  244ccc     N1 6807   5.637   6.291   5.587 -0.1645  0.3001  0.5886
  244ccc     H1 6808   5.652   6.196   5.556 -0.7730  0.5191 -0.3933
  244ccc     C1 6809   5.533   6.370   5.528  0.5977  0.0558  0.9174
  244ccc     H2 6810   5.563   6.474   5.508 -2.3400  1.2598  2.2932
  244ccc     C2 6811   5.397   6.374   5.612 -0.4094  0.6338  0.1797
  244ccc     H3 6812   5.510   6.325   5.431 -3.6046 -0.7241  2.0786
  244ccc     H4 6813   5.361   6.273   5.630  0.9076 -0.0561 -0.9207
  244ccc     H5 6814   5.317   6.412   5.546  2.2336  0.5850 -3.3462
  244ccc     N2 6815   5.398   6.444   5.749  0.3916 -0.0538  0.0894
  244ccc     C3 6816   5.252   6.444   5.799 -0.5493 -0.8642 -0.1558
  244ccc     C4 6817   5.456   6.589   5.734 -0.3696  0.4949  0.2100
  244ccc     H6 6818   5.549   6.584   5.678 -0.3186 -0.2252  0.3406
  244ccc     C5 6819   5.467   6.655   5.875  0.6353 -0.1715  0.0149
  244ccc     H7 6820   5.388   6.659   5.685  0.6982  2.1719  1.0345
  244ccc     H8 6821   5.365   6.677   5.907  0.8211 -1.8716  1.9618
  244ccc     H9 6822   5.512   6.592   5.953  3.0759  1.1012 -0.2794
  244ccc     C6 6823   5.543   6.787   5.875  0.5543  0.2222 -0.1772
  244ccc     O1 6824   5.584   6.821   5.999  0.4422  0.8773  0.1103
  244ccc     O2 6825   5.552   6.857   5.775 -0.0355 -0.4405  0.3834
  244ccc    H10 6826   5.189   6.439   5.710 -2.4808  0.4693  1.0703
  244ccc    H11 6827   5.232   6.537   5.853 -1.7655 -1.2872  0.1437
  244ccc     C7 6828   5.220   6.317   5.879  0.0992  0.5549  0.0153
  244ccc    H12 6829   5.251   6.226   5.825  0.1655 -1.4642  3.1612
  244ccc    H13 6830   5.278   6.322   5.972 -1.0095 -2.2000  0.9751
  244ccc     C8 6831   5.074   6.299   5.917  0.0149 -0.5397  0.4498
  244ccc     O3 6832   4.984   6.370   5.874  0.0790 -0.4149  0.5128
  244ccc     O4 6833   5.042   6.187   5.984  0.3478  0.2227  0.0913
  244ccc    H14 6834   5.566   6.744   6.056  2.7971 -0.9893 -1.4862
  244ccc    H15 6835   5.128   6.152   6.014  0.4277  1.3927  1.3287
  244ccc    H16 6836   5.458   6.398   5.819  1.0230 -0.3413 -0.6377
  245ccc     N1 6837   6.399   6.325   5.826  0.0640 -0.2385  0.7693
  245ccc     H1 6838   6.354   6.397   5.770  3.4923 -0.2713 -2.3966
  245ccc     C1 6839   6.470   6.233   5.732 -0.0808  0.0153 -0.6079
  245ccc     H2 6840   6.418   6.137   5.723  0.8174 -0.5025 -0.4509
  245ccc     C2 6841   6.621   6.228   5.765 -0.8043  0.9582 -0.3236
  245ccc     H3 6842   6.457   6.271   5.630 -0.7518 -1.2719 -1.0226
  245ccc     H4 6843   6.680   6.170   5.694 -0.0658 -0.1320  1.1289
  245ccc     H5 6844   6.625   6.166   5.855  1.6492 -1.2753 -1.8256
  245ccc     N2 6845   6.693   6.356   5.811  0.6862 -0.5802 -0.1329
  245ccc     C3 6846   6.694   6.457   5.702  0.1450  0.0143  0.3780
  245ccc     C4 6847   6.832   6.326   5.857  0.9180  0.1697 -0.0382
  245ccc     H6 6848   6.825   6.250   5.935  0.7573 -0.8962 -1.0611
  245ccc     C5 6849   6.907   6.445   5.918  0.3854  0.3687 -0.3605
  245ccc     H7 6850   6.887   6.281   5.774 -0.0943 -0.7877 -0.2075
  245ccc     H8 6851   6.835   6.479   5.994  0.6239 -1.8983  0.9766
  245ccc     H9 6852   6.927   6.526   5.847 -0.7919  1.6991  0.7750
  245ccc     C6 6853   7.037   6.415   5.998 -0.2868 -0.4087  0.7604
  245ccc     O1 6854   7.053   6.494   6.106 -0.6487  0.3933 -0.1095
  245ccc     O2 6855   7.102   6.316   5.986  0.1673  0.0726 -0.2711
  245ccc    H10 6856   6.616   6.417   5.636 -2.4238  0.5925  2.8790
  245ccc    H11 6857   6.789   6.456   5.649  0.4493  0.5695  0.9063
  245ccc     C7 6858   6.651   6.597   5.751  0.0661 -0.6539  0.5217
  245ccc    H12 6859   6.696   6.632   5.844  0.1439  0.1534  0.1903
  245ccc    H13 6860   6.543   6.588   5.771 -0.4925 -1.6089 -2.4254
  245ccc     C8 6861   6.666   6.690   5.634  0.0426 -0.8506  0.3020
  245ccc     O3 6862   6.663   6.653   5.517  0.2004  0.3009 -0.1933
  245ccc     O4 6863   6.747   6.790   5.662 -0.3169  0.4136  0.0806
  245ccc    H14 6864   6.975   6.552   6.097  0.9630  2.5904 -0.6493
  245ccc    H15 6865   6.720   6.818   5.751 -2.0124 -0.0526 -0.2450
  245ccc    H16 6866   6.638   6.395   5.889  0.5184  0.1887 -0.6199
  246ccc     N1 6867   6.665   6.185   6.305  1.0199  0.3839 -0.2538
  246ccc     H1 6868   6.630   6.188   6.400 -1.7562  1.5024 -1.2006
  246ccc     C1 6869   6.564   6.161   6.202 -0.2249 -0.2189  0.0592
  246ccc     H2 6870   6.468   6.181   6.252 -0.3770 -1.5883  0.3344
  246ccc     C2 6871   6.576   6.020   6.145  0.5215 -0.0552  0.3862
  246ccc     H3 6872   6.576   6.238   6.125  0.8855  1.7476  2.0592
  246ccc     H4 6873   6.682   6.006   6.121  0.2188 -0.0334 -1.0340
  246ccc     H5 6874   6.519   6.000   6.054  1.2721 -1.3821  0.1804
  246ccc     N2 6875   6.544   5.900   6.240  0.0526 -0.4809 -0.6819
  246ccc     C3 6876   6.598   5.781   6.165  0.1475  0.2108 -0.2327
  246ccc     C4 6877   6.394   5.884   6.274  0.5730  0.4154 -0.1927
  246ccc     H6 6878   6.346   5.895   6.177  0.4062  0.4453 -0.1074
  246ccc     C5 6879   6.337   5.964   6.397 -0.7486  0.3341  0.3585
  246ccc     H7 6880   6.368   5.780   6.292 -1.9466  0.5871 -2.2628
  246ccc     H8 6881   6.365   6.070   6.387 -2.6947  0.9412  0.9936
  246ccc     H9 6882   6.378   5.913   6.485 -0.0089 -0.7656 -0.5828
  246ccc     C6 6883   6.189   5.943   6.405  0.4845 -0.0720  0.0326
  246ccc     O1 6884   6.121   5.986   6.296  0.0080 -0.0216  0.5395
  246ccc     O2 6885   6.143   5.874   6.495  0.7166  0.4441 -0.3847
  246ccc    H10 6886   6.702   5.794   6.133  0.8583 -0.2022  1.7455
  246ccc    H11 6887   6.536   5.769   6.076  1.7020 -1.6370 -1.1541
  246ccc     C7 6888   6.587   5.652   6.251 -0.2873  0.7514  0.4715
  246ccc    H12 6889   6.483   5.619   6.263 -0.5871  1.5391  0.1246
  246ccc    H13 6890   6.636   5.662   6.349  2.1083 -0.1412 -0.5685
  246ccc     C8 6891   6.667   5.541   6.186 -0.3641 -0.0995  0.5018
  246ccc     O3 6892   6.700   5.541   6.072 -0.2435  0.3225  0.5477
  246ccc     O4 6893   6.727   5.456   6.271  0.3613 -0.5532 -0.1233
  246ccc    H14 6894   6.034   5.944   6.312 -0.4489  0.8072  0.2841
  246ccc    H15 6895   6.699   5.490   6.357 -0.6557 -1.6975  0.0144
  246ccc    H16 6896   6.601   5.910   6.325 -0.2864 -0.3119 -0.4741
  247ccc     N1 6897   7.269   6.144   6.934  0.1511  0.1971 -0.1664
  247ccc     H1 6898   7.277   6.245   6.937  1.0007  0.1241  1.4285
  247ccc     C1 6899   7.257   6.061   7.060 -0.4487  0.2830  0.8972
  247ccc     H2 6900   7.254   6.121   7.152  2.3205  0.5228  0.9324
  247ccc     C2 6901   7.378   5.959   7.088  0.7292 -0.1231 -0.2544
  247ccc     H3 6902   7.171   5.994   7.051 -0.1513 -0.0235  0.2552
  247ccc     H4 6903   7.376   5.889   7.004 -2.4173 -0.2120 -0.2368
  247ccc     H5 6904   7.353   5.905   7.180  2.8954 -2.2634 -0.8086
  247ccc     N2 6905   7.523   6.008   7.096  0.1957 -0.2861  0.2527
  247ccc     C3 6906   7.536   6.113   7.211  0.0900  0.0034 -0.3999
  247ccc     C4 6907   7.580   6.068   6.965  0.1573  0.2188 -0.1483
  247ccc     H6 6908   7.524   6.004   6.897  0.1368  0.3571 -0.2613
  247ccc     C5 6909   7.734   6.056   6.942  0.6500  0.4716  0.3688
  247ccc     H7 6910   7.545   6.170   6.948  1.3324  0.6887  0.1226
  247ccc     H8 6911   7.757   5.950   6.956 -3.4731 -0.4791  1.3346
  247ccc     H9 6912   7.790   6.120   7.012  0.8561 -1.6059  2.2011
  247ccc     C6 6913   7.775   6.106   6.799  0.1878  0.6412  0.6633
  247ccc     O1 6914   7.903   6.105   6.779  0.1818  0.1277  0.3942
  247ccc     O2 6915   7.697   6.131   6.706  0.6098 -0.0250  0.0088
  247ccc    H10 6916   7.464   6.095   7.292  0.2586 -0.5785 -0.3762
  247ccc    H11 6917   7.517   6.212   7.169  1.1994 -0.2563 -1.5407
  247ccc     C7 6918   7.669   6.101   7.292 -0.8912 -0.1130  0.3221
  247ccc    H12 6919   7.763   6.116   7.237 -1.7364  0.3457 -1.0705
  247ccc    H13 6920   7.672   6.005   7.345  1.6385  0.2661  0.9975
  247ccc     C8 6921   7.667   6.194   7.408  0.0202 -0.3211  0.2672
  247ccc     O3 6922   7.574   6.263   7.450 -0.8098 -0.0416  0.2917
  247ccc     O4 6923   7.778   6.200   7.484  0.0141  0.3488  0.5080
  247ccc    H14 6924   7.939   6.033   6.835 -1.2849  1.0591  2.6741
  247ccc    H15 6925   7.845   6.152   7.432 -1.4418 -0.1943 -0.9286
  247ccc    H16 6926   7.573   5.927   7.134 -0.1010  0.5943  2.6529
  248ccc     N1 6927   8.356   7.150   5.398 -0.6608  0.1888 -0.5002
  248ccc     H1 6928   8.414   7.067   5.390  1.2050  1.5404 -2.0137
  248ccc     C1 6929   8.416   7.282   5.379 -0.4582  0.3766 -0.6145
  248ccc     H2 6930   8.392   7.345   5.466  0.2430  3.3508 -2.4333
  248ccc     C2 6931   8.394   7.358   5.244 -0.1613  1.3787  0.3937
  248ccc     H3 6932   8.525   7.282   5.388 -0.5264  1.2852  0.4529
  248ccc     H4 6933   8.451   7.319   5.160  0.5945  2.5063  0.3542
  248ccc     H5 6934   8.440   7.457   5.253 -1.1201  1.8278  0.4310
  248ccc     N2 6935   8.244   7.368   5.192  0.1011 -0.3316 -0.0498
  248ccc     C3 6936   8.226   7.290   5.060  0.3064 -0.5822 -0.7070
  248ccc     C4 6937   8.205   7.514   5.161 -0.5085 -0.1450  0.0942
  248ccc     H6 6938   8.295   7.559   5.117  0.4272 -0.9723  1.0940
  248ccc     C5 6939   8.186   7.584   5.294  0.2886 -0.0101 -0.4968
  248ccc     H7 6940   8.125   7.527   5.089  1.4282 -1.9208 -2.5622
  248ccc     H8 6941   8.271   7.565   5.360  1.8520  0.6095 -2.2202
  248ccc     H9 6942   8.103   7.542   5.352 -0.8150 -1.9486 -3.2331
  248ccc     C6 6943   8.170   7.736   5.288  0.4237 -0.1748  0.1758
  248ccc     O1 6944   8.143   7.795   5.409  0.1451 -0.3390 -0.0426
  248ccc     O2 6945   8.183   7.799   5.185 -0.0737 -0.6456 -0.3353
  248ccc    H10 6946   8.304   7.322   4.990 -1.7546  1.1125 -2.3433
  248ccc    H11 6947   8.125   7.309   5.023  0.3686  0.7324 -0.2525
  248ccc     C7 6948   8.243   7.143   5.084  0.3101 -0.1826 -0.0163
  248ccc    H12 6949   8.165   7.102   5.149 -0.9504  0.2394 -1.2166
  248ccc    H13 6950   8.337   7.129   5.138  0.0459  0.5469  0.6470
  248ccc     C8 6951   8.239   7.059   4.959  0.2129  0.0073  0.0916
  248ccc     O3 6952   8.141   6.996   4.935  0.1179  0.4270 -0.1952
  248ccc     O4 6953   8.349   7.043   4.880  0.2972 -0.2713 -0.3092
  248ccc    H14 6954   8.136   7.720   5.470 -1.8226 -0.9816 -0.9865
  248ccc    H15 6955   8.428   7.070   4.930  1.6390 -2.4621 -1.0942
  248ccc    H16 6956   8.180   7.337   5.266  0.3023 -1.3085 -0.2805
  249ccc     N1 6957   8.390   7.367   5.897 -0.2878 -0.4995  0.5175
  249ccc     H1 6958   8.449   7.302   5.947  1.9780 -0.1958 -1.5809
  249ccc     C1 6959   8.401   7.507   5.926  0.1772 -0.5880 -0.5212
  249ccc     H2 6960   8.360   7.571   5.848 -0.4612  1.4185  1.3508
  249ccc     C2 6961   8.543   7.564   5.951  0.3370  0.8167 -0.0692
  249ccc     H3 6962   8.338   7.537   6.011  0.5727  1.8917 -1.0283
  249ccc     H4 6963   8.587   7.520   6.041  1.6544  1.9978 -0.1012
  249ccc     H5 6964   8.540   7.671   5.970  0.5116  0.5098  1.9848
  249ccc     N2 6965   8.645   7.536   5.844 -0.2911  0.4865  0.1683
  249ccc     C3 6966   8.775   7.615   5.877  0.0710 -0.4297  0.4231
  249ccc     C4 6967   8.590   7.580   5.710  1.1348  0.4484 -0.5302
  249ccc     H6 6968   8.483   7.557   5.707  1.0664  0.3097  1.5015
  249ccc     C5 6969   8.666   7.525   5.587 -0.5716  1.0468 -0.4088
  249ccc     H7 6970   8.594   7.689   5.706 -0.7870  0.7117  2.1255
  249ccc     H8 6971   8.671   7.415   5.588  1.0579  1.0991 -0.0103
  249ccc     H9 6972   8.770   7.559   5.596 -0.0164 -0.0872 -1.9451
  249ccc     C6 6973   8.611   7.558   5.453  0.5954 -0.0364 -0.0327
  249ccc     O1 6974   8.695   7.557   5.344 -0.2314 -0.7476  0.2189
  249ccc     O2 6975   8.502   7.600   5.438 -0.6308  0.5176 -0.8890
  249ccc    H10 6976   8.748   7.710   5.924  1.6337  0.1777  0.1390
  249ccc    H11 6977   8.827   7.632   5.783 -1.1645  2.1083  0.1008
  249ccc     C7 6978   8.866   7.546   5.978 -0.8430  0.7910 -0.2093
  249ccc    H12 6979   8.898   7.445   5.950  2.9585  0.7764  3.2915
  249ccc    H13 6980   8.817   7.546   6.076 -0.9702  2.5508 -0.2511
  249ccc     C8 6981   8.996   7.612   6.003  0.3886 -0.0680  0.3378
  249ccc     O3 6982   9.027   7.700   5.925  0.4766  0.2201  0.3830
  249ccc     O4 6983   9.039   7.596   6.126 -0.0354  0.3283  0.0012
  249ccc    H14 6984   8.770   7.507   5.381  0.7036  0.3059 -0.1889
  249ccc    H15 6985   8.982   7.537   6.179 -1.8937  3.0585  1.2740
  249ccc    H16 6986   8.663   7.434   5.835 -2.8978 -0.1197  0.9843
  250ccc     N1 6987   6.250   7.040   6.624 -0.5923 -0.2213 -0.0723
  250ccc     H1 6988   6.197   6.959   6.656 -0.9883 -0.4797 -1.3332
  250ccc     C1 6989   6.378   7.074   6.699  0.7170 -0.0636  0.5474
  250ccc     H2 6990   6.399   7.179   6.671 -0.8144  0.1608  0.1539
  250ccc     C2 6991   6.500   6.989   6.651 -0.9746  0.7118 -0.3299
  250ccc     H3 6992   6.362   7.065   6.807 -2.4810  0.5154  0.2032
  250ccc     H4 6993   6.491   6.887   6.688  1.0837  0.3561 -0.6864
  250ccc     H5 6994   6.588   7.029   6.702  0.1536 -1.4628 -0.4631
  250ccc     N2 6995   6.540   6.977   6.503 -0.0479 -0.0114 -0.4980
  250ccc     C3 6996   6.657   6.875   6.479 -0.0772  0.3120  0.1551
  250ccc     C4 6997   6.569   7.120   6.435 -0.6112  0.0147 -0.0955
  250ccc     H6 6998   6.578   7.109   6.327  1.4297  0.6774 -0.0349
  250ccc     C5 6999   6.700   7.184   6.479  0.3094 -0.3916 -0.8316
  250ccc     H7 7000   6.484   7.185   6.456 -0.2772  0.0666  1.1886
  250ccc     H8 7001   6.789   7.133   6.441  0.3962  0.3023 -1.5808
  250ccc     H9 7002   6.700   7.185   6.589  0.0611  1.3944 -0.8106
  250ccc     C6 7003   6.706   7.334   6.439 -0.2449  0.0390  0.2153
  250ccc     O1 7004   6.803   7.412   6.491  0.5962  0.5548 -0.2211
  250ccc     O2 7005   6.617   7.389   6.384 -0.3254 -0.2255  0.2068
  250ccc    H10 7006   6.743   6.917   6.532 -0.8433  2.2066 -0.0233
  250ccc    H11 7007   6.672   6.879   6.371  0.2206 -2.5619  0.0332
  250ccc     C7 7008   6.635   6.732   6.518 -0.5525 -0.1672  0.2104
  250ccc    H12 7009   6.534   6.698   6.489 -1.0722  2.0771 -0.8567
  250ccc    H13 7010   6.637   6.726   6.627 -2.8781 -0.5488  0.2872
  250ccc     C8 7011   6.739   6.634   6.462  0.1904 -0.2245 -0.3849
  250ccc     O3 7012   6.807   6.658   6.365  0.9195  0.4577  0.1213
  250ccc     O4 7013   6.743   6.522   6.538 -0.3104 -0.0542  0.0743
  250ccc    H14 7014   6.846   7.348   6.551  2.4404  2.6509  0.8350
  250ccc    H15 7015   6.663   6.501   6.589 -3.5628  1.2170 -3.9627
  250ccc    H16 7016   6.455   6.937   6.460 -1.3834 -1.5105  3.2048
  251ccc     N1 7017   5.708   7.614   6.382 -0.5679 -0.3990  0.0434
  251ccc     H1 7018   5.789   7.673   6.371 -0.3969 -0.6641 -0.1163
  251ccc     C1 7019   5.575   7.674   6.406 -0.5004 -0.4944  0.3467
  251ccc     H2 7020   5.567   7.782   6.385 -1.6071 -0.5079  0.6261
  251ccc     C2 7021   5.520   7.656   6.548  0.8742  0.3286 -0.0133
  251ccc     H3 7022   5.500   7.622   6.345  0.7504 -3.1186  0.9066
  251ccc     H4 7023   5.513   7.549   6.570  0.2266  0.2145 -0.7285
  251ccc     H5 7024   5.418   7.695   6.553  1.1732  1.0399  0.6810
  251ccc     N2 7025   5.594   7.727   6.656 -0.4525  0.2563 -0.1903
  251ccc     C3 7026   5.535   7.695   6.789  0.9695 -0.1639 -0.4021
  251ccc     C4 7027   5.590   7.878   6.632  0.0203 -0.9415 -0.5909
  251ccc     H6 7028   5.625   7.920   6.726 -1.0275 -1.4954  0.0696
  251ccc     C5 7029   5.446   7.931   6.619  0.6290 -1.0251  0.3563
  251ccc     H7 7030   5.656   7.905   6.549 -0.2924 -0.5605 -0.7199
  251ccc     H8 7031   5.366   7.881   6.674 -0.2688  0.5336  0.5264
  251ccc     H9 7032   5.422   7.927   6.512  1.0952 -0.0241  0.1968
  251ccc     C6 7033   5.447   8.076   6.639  0.1802 -0.0746 -0.0561
  251ccc     O1 7034   5.330   8.127   6.688 -0.3483  0.6915 -0.2625
  251ccc     O2 7035   5.541   8.151   6.624 -0.4447  0.7320  0.1717
  251ccc    H10 7036   5.427   7.685   6.776  1.2370 -2.5022 -1.2938
  251ccc    H11 7037   5.551   7.775   6.861 -1.8223 -0.6001  0.8459
  251ccc     C7 7038   5.592   7.564   6.839 -0.2301 -0.3600 -0.0579
  251ccc    H12 7039   5.684   7.583   6.895 -0.0445 -0.0013 -0.4807
  251ccc    H13 7040   5.624   7.489   6.765 -0.8413 -0.0984 -0.6001
  251ccc     C8 7041   5.501   7.503   6.940  0.4466  0.1809  0.2296
  251ccc     O3 7042   5.422   7.565   7.011 -0.1850  0.7991  0.1674
  251ccc     O4 7043   5.541   7.379   6.977 -0.6353  0.1395  0.3575
  251ccc    H14 7044   5.262   8.057   6.688  0.4890 -0.2842  2.9683
  251ccc    H15 7045   5.598   7.350   6.904 -1.1881  1.8040 -0.7908
  251ccc    H16 7046   5.695   7.713   6.661 -0.4963 -0.2522 -0.6724
  252ccc     N1 7047   5.709   7.092   4.387  0.0356  0.6210 -0.0548
  252ccc     H1 7048   5.747   7.184   4.369  0.6723  0.8288  2.0632
  252ccc     C1 7049   5.764   6.978   4.313  0.3916  0.2538  0.0485
  252ccc     H2 7050   5.872   6.990   4.326  0.0571  3.4251  0.5519
  252ccc     C2 7051   5.722   6.980   4.162  0.1772  0.0077 -0.2215
  252ccc     H3 7052   5.736   6.878   4.349  0.0647  0.8739  1.5723
  252ccc     H4 7053   5.748   6.881   4.125 -1.6233 -0.5270 -0.1430
  252ccc     H5 7054   5.773   7.061   4.110 -1.6753  1.1505 -0.3789
  252ccc     N2 7055   5.575   6.998   4.132  0.3557 -0.1829  0.0624
  252ccc     C3 7056   5.496   6.877   4.178 -0.0109 -0.8716  0.4328
  252ccc     C4 7057   5.561   7.025   3.984  0.4113  0.5052 -0.4759
  252ccc     H6 7058   5.623   6.949   3.935  0.7323  0.3696  0.1319
  252ccc     C5 7059   5.587   7.168   3.926 -0.7234 -0.3164 -0.2721
  252ccc     H7 7060   5.458   7.009   3.951 -0.1811  2.1582  0.4561
  252ccc     H8 7061   5.692   7.195   3.947 -0.6915  0.4744 -1.2997
  252ccc     H9 7062   5.529   7.244   3.979  1.3097  0.7141  0.6205
  252ccc     C6 7063   5.551   7.173   3.781 -1.0759 -0.4232  0.7471
  252ccc     O1 7064   5.660   7.180   3.695 -0.0350 -0.5561 -0.0753
  252ccc     O2 7065   5.434   7.176   3.736  0.0835 -0.3642  0.1556
  252ccc    H10 7066   5.506   6.875   4.286 -2.5415 -2.1051  0.6949
  252ccc    H11 7067   5.531   6.791   4.120  1.1099  0.5930 -1.1808
  252ccc     C7 7068   5.349   6.891   4.164 -0.7329  0.3699 -0.2713
  252ccc    H12 7069   5.308   6.919   4.066 -1.9352 -1.1718 -0.2496
  252ccc    H13 7070   5.308   6.962   4.237 -3.9303 -1.4615 -0.0982
  252ccc     C8 7071   5.283   6.762   4.188  0.6605 -0.3639 -0.3658
  252ccc     O3 7072   5.331   6.651   4.202 -0.5188  0.3366  0.0114
  252ccc     O4 7073   5.155   6.780   4.200  0.4726  0.5377 -0.0286
  252ccc    H14 7074   5.744   7.174   3.744 -1.2089  1.6328  2.3820
  252ccc    H15 7075   5.136   6.687   4.225  0.2153  0.2704 -1.1336
  252ccc    H16 7076   5.543   7.082   4.183  1.3367  1.0778 -1.3019
  253ccc     N1 7077   5.704   7.844   4.815 -0.0909  0.3386  0.1533
  253ccc     H1 7078   5.685   7.825   4.913 -0.1879  2.9008  0.6928
  253ccc     C1 7079   5.695   7.985   4.779  0.1919  0.2524 -0.2297
  253ccc     H2 7080   5.642   7.998   4.684 -2.1738 -1.6471  0.7434
  253ccc     C2 7081   5.825   8.059   4.783  0.4406  0.6333 -0.1180
  253ccc     H3 7082   5.637   8.032   4.860  0.3741 -1.3370  0.8819
  253ccc     H4 7083   5.861   8.054   4.885 -3.2513 -0.8969  1.2792
  253ccc     H5 7084   5.812   8.163   4.752  2.2556  1.1056  0.5873
  253ccc     N2 7085   5.936   8.001   4.701 -0.1505 -0.2557 -0.5222
  253ccc     C3 7086   6.065   8.066   4.743 -0.1409  0.1291 -0.1824
  253ccc     C4 7087   5.921   8.024   4.558  0.3166 -0.0302  0.1161
  253ccc     H6 7088   5.817   8.004   4.535  0.3400 -0.3388  0.2719
  253ccc     C5 7089   6.006   7.934   4.469 -0.2748 -0.4427  0.0263
  253ccc     H7 7090   5.945   8.129   4.544 -0.4628  0.3708  1.5976
  253ccc     H8 7091   5.975   7.831   4.493 -1.4352  0.5744  3.4940
  253ccc     H9 7092   6.113   7.931   4.492  0.1018  0.1747 -1.5473
  253ccc     C6 7093   6.000   7.952   4.317  0.1713  0.2236 -0.5815
  253ccc     O1 7094   6.028   8.066   4.271 -0.0543 -0.5611 -0.3577
  253ccc     O2 7095   5.958   7.868   4.242  0.2901 -0.2583 -0.4459
  253ccc    H10 7096   6.145   8.015   4.689  0.4445  0.3056  0.5010
  253ccc    H11 7097   6.082   8.047   4.849  0.7636 -1.4595 -0.5835
  253ccc     C7 7098   6.091   8.218   4.717  0.3772  0.4636  0.5015
  253ccc    H12 7099   6.003   8.270   4.759 -0.4184 -0.6698  0.3014
  253ccc    H13 7100   6.087   8.241   4.610 -0.4094  1.9027  0.8039
  253ccc     C8 7101   6.224   8.278   4.778 -0.7069 -0.2003 -0.1919
  253ccc     O3 7102   6.319   8.212   4.819 -0.6140 -0.3315 -0.1457
  253ccc     O4 7103   6.210   8.406   4.820 -0.1798 -0.0852 -0.0092
  253ccc    H14 7104   6.028   8.061   4.174 -0.2157 -0.6290 -0.3550
  253ccc    H15 7105   6.126   8.438   4.783 -1.0869 -1.1114  1.0894
  253ccc    H16 7106   5.956   7.902   4.722  0.7118  0.3441  1.8166
  254SOL     OW 7107   1.779   9.065   5.463 -0.5415  0.6270  0.0089
  254SOL    HW1 7108   1.793   8.974   5.438 -0.9763  0.6898 -0.4775
  254SOL    HW2 7109   1.867   9.103   5.462 -0.0220 -0.3037  2.4315
  255SOL     OW 7110   0.879   2.091   4.742 -0.6478 -0.8266 -0.9257
  255SOL    HW1 7111   0.854   2.008   4.700  1.2541 -1.2998 -1.2192
  255SOL    HW2 7112   0.953   2.123   4.690  0.2124 -0.1724  0.6239
  256SOL     OW 7113   8.886   5.430   6.842 -0.4091 -0.2810 -0.1133
  256SOL    HW1 7114   8.813   5.377   6.875 -1.4975  0.8697 -0.5834
  256SOL    HW2 7115   8.858   5.459   6.756  1.4620 -1.4007 -1.1655
  257SOL     OW 7116   2.191   0.935   0.644  0.2511 -0.7041 -0.1437
  257SOL    HW1 7117   2.152   1.015   0.682 -0.3027 -0.9030 -0.2860
  257SOL    HW2 7118   2.194   0.874   0.717 -0.4103 -0.9404 -0.3069
  258SOL     OW 7119   1.649   9.211   7.481  0.0917 -0.7559  0.8078
  258SOL    HW1 7120   1.693   9.172   7.557  0.0731 -0.2471  1.0840
  258SOL    HW2 7121   1.645   9.304   7.501  0.4646 -0.5572 -0.0133
  259SOL     OW 7122   7.230   5.509   6.719  0.3166  0.1349 -0.6004
  259SOL    HW1 7123   7.314   5.467   6.738  0.4429  0.4736 -0.3817
  259SOL    HW2 7124   7.240   5.597   6.756  0.0017  0.2990 -0.9086
  260SOL     OW 7125   5.560   5.403   7.629 -0.1723  0.4234  0.1294
  260SOL    HW1 7126   5.470   5.421   7.603 -0.1854  2.2734  1.2652
  260SOL    HW2 7127   5.554   5.374   7.720  0.4139  1.2976  0.4621
  261SOL     OW 7128   3.513   6.679   6.889 -0.4413 -0.0716 -0.4794
  261SOL    HW1 7129   3.452   6.668   6.962 -0.0590  0.0293 -0.1381
  261SOL    HW2 7130   3.490   6.764   6.852 -0.4692 -0.0040 -0.3105
  262SOL     OW 7131   3.230   0.053   8.823 -0.0355  0.4885 -0.0980
  262SOL    HW1 7132   3.301   0.034   8.763 -0.2165 -2.6380  0.4800
  262SOL    HW2 7133   3.164   0.097   8.770  0.7964 -0.0083 -1.5838
  263SOL     OW 7134   5.159   2.429   1.969 -0.1629 -0.2911 -0.1730
  263SOL    HW1 7135   5.240   2.392   2.003  0.5799  1.0819 -0.3898
  263SOL    HW2 7136   5.160   2.521   1.998  0.6198  1.0852 -3.9584
  264SOL     OW 7137   1.678   5.208   2.319 -0.2436  0.4376  0.6952
  264SOL    HW1 7138   1.711   5.290   2.356 -0.1053  0.5501  0.3324
  264SOL    HW2 7139   1.736   5.140   2.355  1.2677  0.7605 -0.9343
  265SOL     OW 7140   8.524   0.229   7.313 -0.2424  0.3568  0.4992
  265SOL    HW1 7141   8.524   0.245   7.219  2.1558 -1.7604  0.0078
  265SOL    HW2 7142   8.572   0.302   7.351  0.7732  0.0985 -0.2511
  266SOL     OW 7143   4.660   2.363   5.359  0.6411 -0.2690  0.4147
  266SOL    HW1 7144   4.608   2.431   5.315 -0.0069 -0.5546  0.7339
  266SOL    HW2 7145   4.735   2.410   5.396  1.0462  0.0261 -0.7305
  267SOL     OW 7146   3.156   5.432   5.609 -0.5428 -0.3588 -0.1016
  267SOL    HW1 7147   3.202   5.413   5.527  0.8201  1.5705  0.1294
  267SOL    HW2 7148   3.162   5.527   5.618 -2.3964 -0.3223  1.2699
  268SOL     OW 7149   8.897   5.850   8.505  0.2435  0.4855  0.1389
  268SOL    HW1 7150   8.971   5.886   8.554 -0.9289  0.6452  1.9151
  268SOL    HW2 7151   8.837   5.923   8.495 -0.8835 -0.2483  1.2163
  269SOL     OW 7152   7.604   3.932   1.261 -0.1488  0.9737  0.1687
  269SOL    HW1 7153   7.539   3.944   1.329  0.4701  1.6788  0.6502
  269SOL    HW2 7154   7.685   3.914   1.309 -0.3472 -2.0857 -0.4229
  270SOL     OW 7155   8.481   1.006   3.780 -0.2544 -0.2423  0.2779
  270SOL    HW1 7156   8.439   0.919   3.784 -0.4336 -0.3266 -2.2460
  270SOL    HW2 7157   8.409   1.068   3.789 -0.5250 -0.3886 -0.7552
  271SOL     OW 7158   0.482   7.167   3.968 -0.7365  0.0381 -0.3510
  271SOL    HW1 7159   0.479   7.198   3.877  1.0978 -0.4815 -0.6384
  271SOL    HW2 7160   0.409   7.211   4.011 -2.8772 -1.1590 -2.4903
  272SOL     OW 7161   8.661   3.725   6.121  0.1205 -0.2811 -0.1364
  272SOL    HW1 7162   8.692   3.639   6.150 -0.3251 -0.5288 -0.3877
  272SOL    HW2 7163   8.740   3.770   6.093  0.2916 -0.8111 -0.5199
  273SOL     OW 7164   8.512   6.602   4.785  0.0905 -0.5363 -0.3296
  273SOL    HW1 7165   8.493   6.534   4.850 -0.0989 -2.0355 -1.8715
  273SOL    HW2 7166   8.488   6.562   4.701 -1.5410  2.0011 -1.2011
  274SOL     OW 7167   6.591   3.831   3.559  0.5921  0.1672 -0.2659
  274SOL    HW1 7168   6.591   3.896   3.488 -0.4461 -0.5678 -0.9677
  274SOL    HW2 7169   6.683   3.819   3.581  0.9264  0.5069 -1.4148
  275SOL     OW 7170   8.780   1.992   6.913  0.0794  0.0117 -1.0104
  275SOL    HW1 7171   8.812   1.966   7.000 -0.6474  1.4748 -0.2674
  275SOL    HW2 7172   8.710   1.930   6.894 -0.1592  0.0439 -0.2752
  276SOL     OW 7173   5.064   0.077   8.095  0.2199 -0.1743  0.0268
  276SOL    HW1 7174   5.121   0.153   8.081  1.7207 -1.0342  1.0894
  276SOL    HW2 7175   5.099   0.010   8.037  0.1524 -0.6466  0.5224
  277SOL     OW 7176   6.260   8.917   5.591 -0.5345 -0.3241 -0.0258
  277SOL    HW1 7177   6.320   8.910   5.517  0.2871 -1.8039  0.7226
  277SOL    HW2 7178   6.174   8.932   5.551  0.1960  1.0330 -1.1496
  278SOL     OW 7179   1.108   8.515   5.101  0.3635  0.2080  0.4679
  278SOL    HW1 7180   1.112   8.460   5.179 -1.3289  1.7308  1.7477
  278SOL    HW2 7181   1.197   8.549   5.090  0.7318 -0.4055  1.4654
  279SOL     OW 7182   0.539   0.577   1.874  0.0995 -0.1905 -0.1635
  279SOL    HW1 7183   0.553   0.668   1.849  0.4749  0.0693  0.9436
  279SOL    HW2 7184   0.538   0.529   1.791 -2.1481  1.0672 -0.9590
  280SOL     OW 7185   5.216   7.753   6.785  0.5250 -0.2019 -0.0089
  280SOL    HW1 7186   5.205   7.748   6.880 -2.0434 -1.3121 -0.2791
  280SOL    HW2 7187   5.247   7.666   6.760  2.0594  0.3487 -0.1634
  281SOL     OW 7188   7.629   4.443   0.134 -0.1858  0.0965  0.2417
  281SOL    HW1 7189   7.619   4.463   0.041 -1.5904 -1.3789  0.0414
  281SOL    HW2 7190   7.704   4.384   0.138 -0.8805 -0.8143 -0.1094
  282SOL     OW 7191   4.169   1.810   8.717  0.1081  0.4484  0.0356
  282SOL    HW1 7192   4.203   1.760   8.644 -1.4084  0.2258 -0.5540
  282SOL    HW2 7193   4.241   1.811   8.781  0.8995 -0.6857 -0.7917
  283SOL     OW 7194   1.301   0.960   8.404 -0.1263  0.2318  0.2784
  283SOL    HW1 7195   1.247   1.022   8.453  1.5966  0.5265  1.9016
  283SOL    HW2 7196   1.247   0.937   8.328 -2.8083 -0.0040  2.0836
  284SOL     OW 7197   2.340   6.557   2.677  0.4049 -0.0173  0.1782
  284SOL    HW1 7198   2.435   6.565   2.692  0.9453 -2.9749 -0.8626
  284SOL    HW2 7199   2.333   6.517   2.590 -1.8535  0.4943  0.0607
  285SOL     OW 7200   2.325   0.448   4.104 -0.0686  0.3052  0.6483
  285SOL    HW1 7201   2.251   0.439   4.165 -0.3630  0.4533  0.3138
  285SOL    HW2 7202   2.287   0.432   4.018  0.5522 -0.9604  0.5939
  286SOL     OW 7203   4.415   7.038   0.395 -0.0485 -0.2077 -0.1861
  286SOL    HW1 7204   4.394   7.118   0.443  1.0165  1.6098 -2.5418
  286SOL    HW2 7205   4.418   6.970   0.462 -0.7171  1.7496  1.9631
  287SOL     OW 7206   3.386   5.633   2.874  0.1365 -0.2024  0.0180
  287SOL    HW1 7207   3.383   5.579   2.794 -0.3377  1.6731 -1.3001
  287SOL    HW2 7208   3.413   5.572   2.942 -1.5898 -2.4261 -1.1175
  288SOL     OW 7209   5.504   7.640   1.618 -0.1927 -0.2323 -0.2000
  288SOL    HW1 7210   5.484   7.728   1.588  0.2320  0.1084  0.4916
  288SOL    HW2 7211   5.537   7.595   1.540 -0.7231  0.1173 -0.6310
  289SOL     OW 7212   2.949   3.454   2.980 -0.0588 -1.2409  0.6034
  289SOL    HW1 7213   2.856   3.434   2.972  0.3439 -2.9273 -0.3661
  289SOL    HW2 7214   2.957   3.544   2.948 -1.1591 -1.5644 -0.6787
  290SOL     OW 7215   1.763   6.795   2.209  0.2670 -0.0119  0.0282
  290SOL    HW1 7216   1.776   6.704   2.184 -0.5280 -0.1239  0.0077
  290SOL    HW2 7217   1.835   6.814   2.270  0.9790 -0.3657 -0.6816
  291SOL     OW 7218   4.234   8.994   6.197 -0.0965 -0.7302  0.3854
  291SOL    HW1 7219   4.141   8.970   6.203 -0.7371  1.2364 -0.4968
  291SOL    HW2 7220   4.248   9.050   6.273 -0.4266  1.1379 -0.8536
  292SOL     OW 7221   5.213   5.745   5.938 -0.6785 -0.3371  0.0294
  292SOL    HW1 7222   5.175   5.659   5.922 -2.0552  0.1939  0.3216
  292SOL    HW2 7223   5.142   5.807   5.919  0.2922  0.7453 -0.2171
  293SOL     OW 7224   0.882   1.492   6.928  0.0750 -0.0643 -0.1374
  293SOL    HW1 7225   0.878   1.499   7.023 -1.4258  0.1907 -0.2079
  293SOL    HW2 7226   0.849   1.404   6.908  0.5289 -0.1773 -0.4220
  294SOL     OW 7227   1.712   5.730   0.360  0.4482 -0.4530 -0.4992
  294SOL    HW1 7228   1.715   5.698   0.450  2.2719  0.6421 -0.1174
  294SOL    HW2 7229   1.769   5.671   0.311  0.2792 -0.4281 -0.7300
  295SOL     OW 7230   4.779   4.867   2.221  0.1325  0.5577  0.1131
  295SOL    HW1 7231   4.786   4.962   2.228  0.6186  0.6579 -1.4972
  295SOL    HW2 7232   4.800   4.848   2.130 -0.2847 -1.0703  0.3339
  296SOL     OW 7233   2.926   7.516   8.037  0.2992  0.1317  0.0001
  296SOL    HW1 7234   2.841   7.558   8.050 -0.4742 -1.1716 -0.5628
  296SOL    HW2 7235   2.983   7.585   8.005 -0.9118  0.7683 -0.8741
  297SOL     OW 7236   9.004   8.333   0.169  0.0722 -0.4367  0.7011
  297SOL    HW1 7237   8.943   8.290   0.108  2.6944 -0.5791 -2.0360
  297SOL    HW2 7238   9.045   8.260   0.216 -0.2898 -0.4651  0.9813
  298SOL     OW 7239   5.335   5.834   2.292  0.1611 -0.1148  0.8787
  298SOL    HW1 7240   5.315   5.809   2.382  1.4565  1.1807  1.5618
  298SOL    HW2 7241   5.402   5.771   2.264 -1.9367 -2.0824 -0.1144
  299SOL     OW 7242   8.983   0.934   4.219  0.0311 -0.6150 -0.1550
  299SOL    HW1 7243   8.904   0.983   4.198 -0.8757 -2.1990 -0.5955
  299SOL    HW2 7244   8.964   0.844   4.192  2.5151 -0.7897 -1.6211
  300SOL     OW 7245   8.251   5.782   7.938 -0.1950 -0.3120 -0.4306
  300SOL    HW1 7246   8.280   5.696   7.908  0.6402 -0.7973  1.5721
  300SOL    HW2 7247   8.300   5.796   8.019 -1.6723  1.2494  0.2413
  301SOL     OW 7248   5.185   1.860   3.328  0.5075  0.2303 -0.1526
  301SOL    HW1 7249   5.278   1.877   3.344  0.3773  0.7225  0.0934
  301SOL    HW2 7250   5.173   1.878   3.235  0.1818  2.4812  0.2760
  302SOL     OW 7251   5.839   6.331   3.675  0.0965 -0.2982  0.7686
  302SOL    HW1 7252   5.845   6.237   3.658  0.6243 -0.1834  0.3264
  302SOL    HW2 7253   5.850   6.372   3.590 -0.1063  0.1725  0.9657
  303SOL     OW 7254   2.134   4.780   1.345 -0.1505  0.5445 -0.4003
  303SOL    HW1 7255   2.217   4.784   1.393 -0.3649 -3.2060  0.6156
  303SOL    HW2 7256   2.068   4.766   1.412 -0.7072 -2.8382 -1.4332
  304SOL     OW 7257   0.831   8.640   3.496 -0.4887 -0.0167 -0.3948
  304SOL    HW1 7258   0.848   8.729   3.464  1.7146  0.4332  1.7487
  304SOL    HW2 7259   0.768   8.652   3.567  0.3534 -0.0426  0.3721
  305SOL     OW 7260   4.097   7.002   5.852  0.5701  0.0876  0.8247
  305SOL    HW1 7261   4.104   7.062   5.927 -1.0608 -0.5485  1.5504
  305SOL    HW2 7262   4.106   6.915   5.891 -2.4343 -0.3847  0.7249
  306SOL     OW 7263   5.546   5.846   2.488 -0.5793 -0.4855 -1.0903
  306SOL    HW1 7264   5.626   5.897   2.497 -1.0839  0.0153  1.6954
  306SOL    HW2 7265   5.575   5.756   2.473  0.5116 -0.2339 -0.5377
  307SOL     OW 7266   7.950   0.102   6.260 -0.5963  0.1194  0.1438
  307SOL    HW1 7267   7.869   0.140   6.225 -0.4457  0.2313 -0.0826
  307SOL    HW2 7268   8.011   0.102   6.186 -0.0786  0.9258  0.5557
  308SOL     OW 7269   2.829   2.610   0.623  0.1571 -0.3976  0.4582
  308SOL    HW1 7270   2.820   2.516   0.606  0.2062 -0.3351  0.0695
  308SOL    HW2 7271   2.757   2.650   0.575 -0.2330 -0.2808  1.1235
  309SOL     OW 7272   0.660   2.151   2.857 -0.8801 -0.0622 -0.1422
  309SOL    HW1 7273   0.614   2.067   2.855 -1.0376 -0.0474  1.6597
  309SOL    HW2 7274   0.743   2.131   2.901 -1.9417  1.1409  2.6075
  310SOL     OW 7275   7.038   8.800   8.729  0.0603  0.1396 -0.1914
  310SOL    HW1 7276   7.063   8.709   8.717  0.4264  0.2917 -0.6505
  310SOL    HW2 7277   7.013   8.807   8.821 -4.0883 -1.3839 -1.0122
  311SOL     OW 7278   4.407   8.510   9.157  0.1242 -0.3988 -0.3433
  311SOL    HW1 7279   4.417   8.576   9.226  0.2242  0.1104 -0.8347
  311SOL    HW2 7280   4.394   8.428   9.204 -0.6967  0.0720  0.2816
  312SOL     OW 7281   2.677   5.849   7.920  0.0161 -0.1107  0.5705
  312SOL    HW1 7282   2.621   5.853   7.998  1.1289  1.5824  1.3478
  312SOL    HW2 7283   2.632   5.903   7.855 -0.2969 -0.5128  0.4461
  313SOL     OW 7284   1.564   1.660   9.179 -0.6959  0.6079  0.4312
  313SOL    HW1 7285   1.469   1.669   9.192 -1.3558 -1.0764 -2.2437
  313SOL    HW2 7286   1.590   1.741   9.135 -1.3520  0.2670 -0.6324
  314SOL     OW 7287   8.370   3.316   6.392  0.0761  0.0214  0.3421
  314SOL    HW1 7288   8.461   3.295   6.370  0.0924 -0.3004  0.7014
  314SOL    HW2 7289   8.329   3.337   6.308  0.4975  0.2265  0.1851
  315SOL     OW 7290   8.658   5.708   6.877  0.5152 -0.0083  0.1542
  315SOL    HW1 7291   8.685   5.789   6.833 -1.1952  1.4340  1.5979
  315SOL    HW2 7292   8.707   5.708   6.959  1.8615 -1.4202 -0.6123
  316SOL     OW 7293   4.976   4.752   1.406  0.6506  0.0820  0.2901
  316SOL    HW1 7294   5.042   4.694   1.366 -0.7013 -1.6596  0.4518
  316SOL    HW2 7295   5.019   4.787   1.484  2.4066  1.4268 -1.1874
  317SOL     OW 7296   4.672   4.448   3.469  0.0168 -0.3053 -0.1214
  317SOL    HW1 7297   4.582   4.427   3.443  0.2344 -1.3561 -0.0472
  317SOL    HW2 7298   4.697   4.520   3.410 -0.8876  0.0432 -0.1014
  318SOL     OW 7299   1.082   6.935   8.770  0.7246  0.0209 -0.1782
  318SOL    HW1 7300   0.992   6.925   8.740 -0.0126  2.9737  0.6732
  318SOL    HW2 7301   1.076   6.939   8.865  2.3486 -3.6556  0.2437
  319SOL     OW 7302   4.354   7.031   6.763 -0.3228 -0.4140 -0.4061
  319SOL    HW1 7303   4.425   7.030   6.827 -0.4568  1.2899 -0.1930
  319SOL    HW2 7304   4.389   7.077   6.687 -0.5888 -1.2774 -1.0711
  320SOL     OW 7305   5.705   8.274   2.677 -0.2981 -0.3527  0.1620
  320SOL    HW1 7306   5.754   8.354   2.696 -2.5859  1.2745 -0.3628
  320SOL    HW2 7307   5.713   8.263   2.582 -2.3164  0.9659 -0.2155
  321SOL     OW 7308   3.587   2.282   2.930 -0.0019 -0.4693  0.7581
  321SOL    HW1 7309   3.519   2.224   2.897 -0.8281 -0.6999  2.7403
  321SOL    HW2 7310   3.553   2.370   2.914  0.6887 -0.4795 -1.0824
  322SOL     OW 7311   3.879   3.344   4.491  0.6090 -0.6016 -0.1254
  322SOL    HW1 7312   3.862   3.295   4.411  0.7947 -0.8043 -0.0441
  322SOL    HW2 7313   3.815   3.310   4.554  1.8231 -1.9832  0.4338
  323SOL     OW 7314   8.730   8.229   0.539 -0.0792 -0.1828 -0.4554
  323SOL    HW1 7315   8.706   8.197   0.452  0.9955 -2.6159  0.0625
  323SOL    HW2 7316   8.822   8.252   0.531 -0.2520  0.6342 -0.2046
  324SOL     OW 7317   3.173   1.844   2.502  0.0696 -0.3082  0.2421
  324SOL    HW1 7318   3.149   1.930   2.538  0.7152 -0.4468  1.0421
  324SOL    HW2 7319   3.147   1.848   2.410  1.4492  1.2820 -0.1201
  325SOL     OW 7320   6.475   2.845   8.692  0.0201 -0.4141 -0.3011
  325SOL    HW1 7321   6.506   2.919   8.640 -0.8734  0.6052  0.5566
  325SOL    HW2 7322   6.445   2.781   8.627 -3.0000  1.6500 -1.1580
  326SOL     OW 7323   0.274   4.015   7.393 -0.4599  0.1074  0.4307
  326SOL    HW1 7324   0.294   4.064   7.472 -0.2034  0.3974  0.1879
  326SOL    HW2 7325   0.357   3.973   7.369 -0.5733 -0.1024  0.3988
  327SOL     OW 7326   4.147   7.013   5.250 -1.0122 -0.0502 -0.3059
  327SOL    HW1 7327   4.144   6.931   5.300 -2.3481  0.2610  0.1666
  327SOL    HW2 7328   4.085   7.071   5.296  0.4189  1.4707 -0.2216
  328SOL     OW 7329   8.564   4.998   2.003  0.0072 -0.2905 -0.3982
  328SOL    HW1 7330   8.573   5.010   1.909 -0.8556  1.4694 -0.2998
  328SOL    HW2 7331   8.522   4.913   2.012  0.9227 -0.9011 -1.5328
  329SOL     OW 7332   6.788   7.902   8.002  0.5049  0.2634 -0.6726
  329SOL    HW1 7333   6.743   7.976   8.043  1.3427  0.0178  0.7319
  329SOL    HW2 7334   6.718   7.852   7.960 -0.2177  1.2106 -0.6159
  330SOL     OW 7335   2.389   2.030   8.893  0.3031  0.1466 -0.2159
  330SOL    HW1 7336   2.445   1.954   8.876  0.2030 -0.3491  1.4836
  330SOL    HW2 7337   2.302   2.002   8.865  0.5286  0.1781 -0.9657
  331SOL     OW 7338   6.455   0.144   7.817 -0.6205 -0.5075 -0.3972
  331SOL    HW1 7339   6.422   0.212   7.758  2.9133  0.8499 -1.0857
  331SOL    HW2 7340   6.413   0.162   7.901 -1.1538  1.3859 -1.0306
  332SOL     OW 7341   8.537   3.200   2.561  0.2938 -0.0201  0.0236
  332SOL    HW1 7342   8.594   3.232   2.631 -1.3277  0.5663  1.1359
  332SOL    HW2 7343   8.506   3.115   2.592 -0.1609  0.0884 -0.1244
  333SOL     OW 7344   8.668   0.978   6.512  0.0063  0.2806 -0.4124
  333SOL    HW1 7345   8.578   0.961   6.541  0.6656 -1.2331  0.9500
  333SOL    HW2 7346   8.671   1.072   6.498 -1.5625  0.4977  0.4156
  334SOL     OW 7347   7.178   1.559   0.701  0.4796 -0.4275 -0.2119
  334SOL    HW1 7348   7.227   1.637   0.727  0.6719  0.1531 -2.1032
  334SOL    HW2 7349   7.243   1.503   0.659 -0.2849  0.1254 -2.2795
  335SOL     OW 7350   5.551   3.481   5.698 -0.3476  0.4402 -0.0546
  335SOL    HW1 7351   5.576   3.561   5.743  0.3285  0.6749 -0.8338
  335SOL    HW2 7352   5.509   3.428   5.766 -2.1283  2.0078  0.1852
  336SOL     OW 7353   5.308   1.878   2.717 -0.4916 -0.7471 -0.2405
  336SOL    HW1 7354   5.259   1.804   2.682 -1.7470  0.8088 -1.9508
  336SOL    HW2 7355   5.360   1.909   2.643 -0.4969  0.4788  0.2440
  337SOL     OW 7356   2.665   4.126   3.506 -0.6785  0.4570 -0.6435
  337SOL    HW1 7357   2.672   4.165   3.419 -0.3416  0.0618 -0.7966
  337SOL    HW2 7358   2.632   4.196   3.562  1.8277  1.6025 -0.4743
  338SOL     OW 7359   0.651   3.946   3.911  0.9074 -0.0009  0.2895
  338SOL    HW1 7360   0.599   3.888   3.967  1.6098 -0.1320  0.8296
  338SOL    HW2 7361   0.729   3.965   3.964  2.0967 -0.9865 -1.0283
  339SOL     OW 7362   1.560   6.923   7.887  0.4887 -0.7180 -0.0584
  339SOL    HW1 7363   1.576   7.015   7.867  0.5170 -0.4100  1.2910
  339SOL    HW2 7364   1.597   6.875   7.812 -1.7456  0.4385 -2.0546
  340SOL     OW 7365   4.789   4.833   5.619 -0.1679 -0.1989  0.0686
  340SOL    HW1 7366   4.804   4.913   5.567 -0.5564  0.1274  0.4459
  340SOL    HW2 7367   4.810   4.859   5.709  0.5895 -0.7871  0.0698
  341SOL     OW 7368   5.003   7.734   8.562 -0.1473  0.7077  0.4438
  341SOL    HW1 7369   4.978   7.714   8.471  1.7011 -0.7083  0.2086
  341SOL    HW2 7370   5.035   7.652   8.597  2.1875  1.9282  1.3583
  342SOL     OW 7371   2.816   3.140   1.668  0.3415  0.2352 -0.0435
  342SOL    HW1 7372   2.888   3.078   1.657 -0.1124 -0.3855  0.3923
  342SOL    HW2 7373   2.831   3.207   1.601 -0.3356 -1.4584 -1.9718
  343SOL     OW 7374   8.572   2.575   5.718  0.1995 -0.4517  0.1654
  343SOL    HW1 7375   8.490   2.527   5.704 -0.4444  0.2583  1.3604
  343SOL    HW2 7376   8.547   2.667   5.717  0.9015 -0.2403  0.9674
  344SOL     OW 7377   8.177   7.753   6.285  0.1258 -0.3462  0.7694
  344SOL    HW1 7378   8.174   7.688   6.354 -0.3647 -0.7235  0.3973
  344SOL    HW2 7379   8.086   7.764   6.257  0.4912 -1.8897 -1.3505
  345SOL     OW 7380   7.773   4.267   3.415 -0.3113  0.2395  0.3377
  345SOL    HW1 7381   7.845   4.328   3.434  0.5929 -0.6442 -0.1475
  345SOL    HW2 7382   7.756   4.278   3.322 -0.4920  0.1074  0.3545
  346SOL     OW 7383   1.775   6.218   5.713  0.1720  0.6786 -0.2809
  346SOL    HW1 7384   1.865   6.249   5.719  0.2241  0.4670  0.0829
  346SOL    HW2 7385   1.780   6.141   5.655  0.5572 -0.5234  1.2857
  347SOL     OW 7386   4.339   0.301   4.621 -0.3561  0.5019  0.3626
  347SOL    HW1 7387   4.378   0.385   4.595 -0.9432  0.5679 -0.3175
  347SOL    HW2 7388   4.246   0.320   4.632 -0.1287  0.5476  2.8261
  348SOL     OW 7389   2.940   6.623   1.315  0.1031  0.6716  0.2719
  348SOL    HW1 7390   2.886   6.575   1.252 -0.8484  2.5690 -0.4495
  348SOL    HW2 7391   3.029   6.592   1.298 -0.6724 -2.6636  1.6138
  349SOL     OW 7392   2.808   6.417   0.844  0.5377 -0.5635 -0.0347
  349SOL    HW1 7393   2.791   6.421   0.750 -2.1744 -0.2470  0.3959
  349SOL    HW2 7394   2.878   6.352   0.853  0.0147 -1.4914 -2.1592
  350SOL     OW 7395   0.790   3.471   0.886  0.8173 -0.0822 -0.1018
  350SOL    HW1 7396   0.757   3.456   0.798 -0.5365  0.5045  0.2841
  350SOL    HW2 7397   0.852   3.544   0.877 -0.9414  1.4516 -0.2655
  351SOL     OW 7398   5.670   5.564   3.211  0.1365 -0.4383  0.3291
  351SOL    HW1 7399   5.637   5.475   3.199  0.8674 -0.4258 -2.4904
  351SOL    HW2 7400   5.757   5.554   3.248  0.1577 -0.8778  0.1570
  352SOL     OW 7401   3.265   8.254   2.789 -0.6084  0.1031  0.1654
  352SOL    HW1 7402   3.195   8.266   2.852 -0.1511 -0.2167  0.7477
  352SOL    HW2 7403   3.254   8.164   2.758 -0.8984  0.2943 -0.3023
  353SOL     OW 7404   8.983   3.404   2.885 -0.1450 -0.3495  0.4201
  353SOL    HW1 7405   9.004   3.470   2.819 -1.3626 -0.4845 -0.1394
  353SOL    HW2 7406   9.013   3.321   2.848 -0.9043 -0.4373 -0.0246
  354SOL     OW 7407   4.999   7.577   4.700  0.5983  0.7280  0.4200
  354SOL    HW1 7408   4.933   7.629   4.745  0.8785  0.2215  1.4330
  354SOL    HW2 7409   5.071   7.569   4.763  0.7735 -0.4521  0.0958
  355SOL     OW 7410   5.388   2.839   6.944  0.7010  0.4419 -0.6282
  355SOL    HW1 7411   5.301   2.869   6.970  1.0320  1.0278 -0.1813
  355SOL    HW2 7412   5.392   2.858   6.850  0.1707 -0.0325 -0.7503
  356SOL     OW 7413   5.980   2.336   6.158  0.0567 -0.2794  0.0614
  356SOL    HW1 7414   5.980   2.286   6.076  0.5562  0.0912 -0.1697
  356SOL    HW2 7415   5.963   2.270   6.226 -1.4038 -0.4261 -0.4174
  357SOL     OW 7416   8.915   6.168   1.599  0.0096  0.3400  0.1651
  357SOL    HW1 7417   8.986   6.193   1.658  0.5110 -1.4831  0.3828
  357SOL    HW2 7418   8.856   6.244   1.599  0.7875  0.9866  1.7673
  358SOL     OW 7419   8.057   1.997   7.670 -0.1769  0.2138 -0.6776
  358SOL    HW1 7420   7.973   1.982   7.714  0.2582  0.4679  0.2596
  358SOL    HW2 7421   8.033   2.014   7.579 -1.0124 -1.5561 -0.8372
  359SOL     OW 7422   9.060   3.558   1.750  0.0024  0.2305 -0.2019
  359SOL    HW1 7423   9.009   3.601   1.681 -0.2642  0.8933  0.3890
  359SOL    HW2 7424   9.146   3.545   1.712  0.1710  1.5645 -0.3132
  360SOL     OW 7425   3.395   2.137   0.317 -0.1138 -0.2533 -0.2240
  360SOL    HW1 7426   3.332   2.179   0.259 -0.2374  0.8126  0.6340
  360SOL    HW2 7427   3.480   2.169   0.287 -0.0593 -0.8314 -0.6992
  361SOL     OW 7428   8.412   0.356   7.606  0.2090  0.7013 -0.6261
  361SOL    HW1 7429   8.498   0.391   7.628  0.6908  0.2886 -1.7913
  361SOL    HW2 7430   8.378   0.417   7.540 -0.4451  0.9116 -0.1138
  362SOL     OW 7431   0.756   9.012   8.188 -0.5737 -0.5808 -0.4321
  362SOL    HW1 7432   0.816   8.980   8.256 -0.3529  1.1428  0.2508
  362SOL    HW2 7433   0.671   9.018   8.232 -0.5393  0.0535 -0.4397
  363SOL     OW 7434   0.086   4.504   5.691 -0.7102  0.2912  0.1938
  363SOL    HW1 7435  -0.000   4.517   5.730 -0.4184  0.0436  0.9457
  363SOL    HW2 7436   0.146   4.552   5.748 -0.1153 -1.1023  0.7884
  364SOL     OW 7437   4.697   5.849   2.662  0.0311  0.2113 -0.3536
  364SOL    HW1 7438   4.780   5.890   2.637 -1.9710  3.5371 -2.3614
  364SOL    HW2 7439   4.638   5.923   2.678 -2.0821 -1.9447  3.1550
  365SOL     OW 7440   2.757   5.768   6.998 -0.1794  0.9272  0.1363
  365SOL    HW1 7441   2.850   5.753   7.018 -0.4418  0.7206  1.2518
  365SOL    HW2 7442   2.732   5.692   6.945  0.1673  0.7384  0.2392
  366SOL     OW 7443   0.307   0.631   8.396  0.3051  0.0090 -0.6687
  366SOL    HW1 7444   0.377   0.674   8.444  2.0159 -3.3940  0.1291
  366SOL    HW2 7445   0.330   0.643   8.304  0.6916  0.7865 -0.4774
  367SOL     OW 7446   1.835   7.559   0.272 -0.0284 -0.0189  0.3217
  367SOL    HW1 7447   1.815   7.648   0.299  0.2353  0.9543 -2.4373
  367SOL    HW2 7448   1.908   7.533   0.329 -0.2750  1.3920  1.3489
  368SOL     OW 7449   0.714   1.839   0.041  0.1942  0.5131  0.2700
  368SOL    HW1 7450   0.719   1.907  -0.026  0.5331  0.7349  0.5200
  368SOL    HW2 7451   0.667   1.767  -0.002 -0.5660  1.0679  0.1441
  369SOL     OW 7452   5.657   5.110   4.766 -0.0318  0.7476 -0.0989
  369SOL    HW1 7453   5.726   5.171   4.740 -0.2257  0.1031 -2.3346
  369SOL    HW2 7454   5.598   5.107   4.690 -1.5198 -0.1376  1.0373
  370SOL     OW 7455   2.348   0.396   6.960 -0.3779 -0.1907  0.1859
  370SOL    HW1 7456   2.267   0.444   6.978 -0.4722 -0.5125  0.6268
  370SOL    HW2 7457   2.385   0.441   6.884 -1.3718 -0.5117 -0.5179
  371SOL     OW 7458   4.060   9.120   8.660 -0.1328 -0.3338  0.1959
  371SOL    HW1 7459   3.971   9.102   8.690 -0.7060  0.1963 -1.1066
  371SOL    HW2 7460   4.052   9.131   8.565  1.2236  0.3051  0.1269
  372SOL     OW 7461   3.771   5.195   0.173 -0.4527  0.3886  0.2304
  372SOL    HW1 7462   3.829   5.119   0.180 -0.5121  0.2661 -0.4661
  372SOL    HW2 7463   3.686   5.158   0.146 -0.2446  0.7668 -1.0351
  373SOL     OW 7464   1.781   4.671   8.571 -0.7740 -0.6179  0.6535
  373SOL    HW1 7465   1.692   4.708   8.573 -0.9063 -0.9250  0.5263
  373SOL    HW2 7466   1.767   4.577   8.563 -0.4251 -0.5539 -1.0109
  374SOL     OW 7467   0.255   3.458   0.292  0.1910  0.6233 -0.5440
  374SOL    HW1 7468   0.236   3.418   0.207 -0.1152 -0.6803  0.1063
  374SOL    HW2 7469   0.177   3.510   0.313 -0.6576 -0.7461 -0.1330
  375SOL     OW 7470   3.450   7.056   3.647 -0.4032  0.3279  0.3887
  375SOL    HW1 7471   3.423   7.081   3.735  0.3039 -0.1725  0.7589
  375SOL    HW2 7472   3.518   7.119   3.623 -0.5876  0.4575  0.1989
  376SOL     OW 7473   8.090   0.581   7.803 -0.0487 -0.0829 -0.4582
  376SOL    HW1 7474   8.119   0.654   7.748 -1.0167  1.0505  0.4824
  376SOL    HW2 7475   8.152   0.510   7.784  1.1796  1.1133 -1.0876
  377SOL     OW 7476   0.371   8.827   1.740  0.6018  0.1501 -0.0565
  377SOL    HW1 7477   0.367   8.861   1.651 -0.0817 -0.8203 -0.4084
  377SOL    HW2 7478   0.379   8.906   1.795 -2.6133  1.0939 -0.7166
  378SOL     OW 7479   3.403   6.034   3.976 -0.3616  0.3757 -0.3964
  378SOL    HW1 7480   3.308   6.022   3.976 -0.5866  1.6587  1.3804
  378SOL    HW2 7481   3.433   5.983   4.051 -0.0352  2.0599  0.6877
  379SOL     OW 7482   5.553   0.999   1.849 -0.3925 -0.0378  0.2936
  379SOL    HW1 7483   5.479   1.012   1.908  1.1292  0.9135  2.0989
  379SOL    HW2 7484   5.591   0.916   1.877 -0.2578 -0.0858 -0.0282
  380SOL     OW 7485   0.818   0.230   1.237 -0.1895  0.0266  0.1412
  380SOL    HW1 7486   0.856   0.304   1.189  0.0971 -1.3957 -1.9456
  380SOL    HW2 7487   0.856   0.153   1.195 -0.9352 -1.3359  1.8746
  381SOL     OW 7488   6.577   2.145   3.710  0.1410  0.5137 -0.1707
  381SOL    HW1 7489   6.583   2.071   3.771  1.0670  2.1840  1.8891
  381SOL    HW2 7490   6.661   2.146   3.666  1.1506  1.7925  1.6695
  382SOL     OW 7491   0.091   7.966   0.349  0.3331  0.4412 -0.2297
  382SOL    HW1 7492   0.097   7.874   0.326  0.0702  0.5115 -0.5858
  382SOL    HW2 7493   0.182   7.996   0.351  0.4081  0.2185 -0.2896
  383SOL     OW 7494   9.172   6.765   2.330  0.1344 -0.2903 -0.2609
  383SOL    HW1 7495   9.212   6.756   2.244  0.5521 -1.8400  0.0634
  383SOL    HW2 7496   9.241   6.804   2.385 -0.2359  0.9859 -0.6883
  384SOL     OW 7497   4.588   0.301   8.102 -0.0783 -0.6650  0.4401
  384SOL    HW1 7498   4.606   0.247   8.025 -1.4145 -0.9792  0.3146
  384SOL    HW2 7499   4.586   0.239   8.175  2.2039 -0.2369  0.9429
  385SOL     OW 7500   0.002   3.849   7.223 -0.3099 -0.3861 -0.8755
  385SOL    HW1 7501   0.075   3.787   7.214 -1.1298 -1.6450  0.6236
  385SOL    HW2 7502  -0.038   3.826   7.306 -2.9250 -0.3140 -2.0286
  386SOL     OW 7503   2.444   4.610   0.266 -0.7007 -0.1165 -0.0590
  386SOL    HW1 7504   2.513   4.565   0.314 -0.2003  0.5402 -0.1521
  386SOL    HW2 7505   2.375   4.624   0.331  0.6616  2.3342  1.0215
  387SOL     OW 7506   2.471   6.625   5.072  0.2465 -0.3928  0.0315
  387SOL    HW1 7507   2.449   6.626   5.165 -0.2243 -0.3949 -0.0798
  387SOL    HW2 7508   2.499   6.714   5.053  1.0351 -0.5660  0.3360
  388SOL     OW 7509   7.003   5.051   4.901  0.3350  0.7157 -0.0435
  388SOL    HW1 7510   7.098   5.055   4.899  0.4016 -0.7196 -0.8209
  388SOL    HW2 7511   6.977   5.041   4.810 -0.4346 -0.7785  0.3111
  389SOL     OW 7512   3.717   9.181   0.843 -0.1603  0.0163 -0.0564
  389SOL    HW1 7513   3.765   9.149   0.919  1.3670 -0.1570 -1.0320
  389SOL    HW2 7514   3.669   9.258   0.874 -1.8888 -1.6722  1.7301
  390SOL     OW 7515   2.012   3.543   8.462 -0.0773  0.1180  0.0452
  390SOL    HW1 7516   1.999   3.599   8.385 -0.0715 -1.4745 -1.1700
  390SOL    HW2 7517   2.103   3.513   8.454 -0.3514 -0.7679  0.1711
  391SOL     OW 7518   3.664   3.015   5.608  0.2680  0.4608 -0.0995
  391SOL    HW1 7519   3.711   2.937   5.637  1.6945  0.6663 -1.6633
  391SOL    HW2 7520   3.573   3.001   5.635  0.4454 -1.8426 -0.5237
  392SOL     OW 7521   3.506   3.257   4.284  0.4353 -0.3480 -0.1092
  392SOL    HW1 7522   3.519   3.222   4.372 -0.0406 -0.8908 -0.2493
  392SOL    HW2 7523   3.593   3.287   4.257  0.6794 -0.6318  0.3552
  393SOL     OW 7524   6.507   1.321   7.102  0.2054  0.3662  0.2937
  393SOL    HW1 7525   6.433   1.339   7.160 -0.4308 -0.1817 -0.3177
  393SOL    HW2 7526   6.468   1.318   7.015  0.8579 -0.4779  0.0215
  394SOL     OW 7527   5.651   2.764   3.609 -0.5421 -0.3083 -0.1203
  394SOL    HW1 7528   5.635   2.680   3.566  3.4963 -0.6583 -1.4244
  394SOL    HW2 7529   5.564   2.802   3.622 -2.6101 -4.7889  0.9727
  395SOL     OW 7530   8.253   3.780   1.368 -0.0879  0.6149 -0.4568
  395SOL    HW1 7531   8.164   3.747   1.367 -0.1912  0.8571  0.1070
  395SOL    HW2 7532   8.308   3.704   1.348 -0.1442 -0.5592  3.0835
  396SOL     OW 7533   4.175   4.890   7.065 -0.0961  0.0498 -0.3949
  396SOL    HW1 7534   4.233   4.848   7.128 -0.8344 -1.4612 -0.6697
  396SOL    HW2 7535   4.152   4.820   7.003 -1.4755  0.8242 -0.8068
  397SOL     OW 7536   1.883   1.698   9.025  0.0509 -0.4083  0.1179
  397SOL    HW1 7537   1.948   1.630   9.009 -1.4393 -2.0154  0.6055
  397SOL    HW2 7538   1.802   1.663   8.989 -0.6401  1.4391 -0.2616
  398SOL     OW 7539   6.166   2.285   7.946  0.0396 -0.0706 -0.1264
  398SOL    HW1 7540   6.256   2.254   7.945  0.4167  0.9732  0.1091
  398SOL    HW2 7541   6.129   2.249   8.027  0.3394 -0.2390 -0.0651
  399SOL     OW 7542   4.589   5.260   1.359  0.5460 -0.5329  0.0059
  399SOL    HW1 7543   4.627   5.229   1.277 -1.3684  0.3836 -1.3122
  399SOL    HW2 7544   4.649   5.229   1.427  2.4743 -0.8794 -1.7538
  400SOL     OW 7545   4.852   1.197   7.547  0.0246  0.6213 -0.3161
  400SOL    HW1 7546   4.931   1.148   7.521  1.2033  2.5466 -0.5610
  400SOL    HW2 7547   4.803   1.136   7.602  1.0013 -1.1054 -1.2797
  401SOL     OW 7548   7.325   8.926   8.352 -0.3295  0.0151 -0.2909
  401SOL    HW1 7549   7.416   8.896   8.349  0.6284  2.7224 -1.0490
  401SOL    HW2 7550   7.312   8.971   8.269 -2.5335 -0.6328 -0.3562
  402SOL     OW 7551   2.059   0.760   0.459  0.2505 -0.3876 -0.5893
  402SOL    HW1 7552   2.097   0.832   0.511  0.2588 -0.2008 -0.8517
  402SOL    HW2 7553   2.053   0.687   0.521  2.2972 -0.8471 -0.8666
  403SOL     OW 7554   2.746   6.572   6.060  0.4866 -0.0826 -0.2573
  403SOL    HW1 7555   2.660   6.554   6.099 -0.5307  0.1809 -2.2766
  403SOL    HW2 7556   2.770   6.658   6.095 -0.1809 -0.0373  0.1143
  404SOL     OW 7557   3.784   2.418   5.019  0.0293 -0.1717 -0.1844
  404SOL    HW1 7558   3.802   2.340   4.967  0.4758  0.7311 -1.4399
  404SOL    HW2 7559   3.747   2.384   5.100  0.1971 -1.6831 -0.6944
  405SOL     OW 7560   4.197   3.826   0.445  0.2310 -0.1505 -0.0340
  405SOL    HW1 7561   4.118   3.802   0.396  0.4819  1.9272 -1.5974
  405SOL    HW2 7562   4.259   3.852   0.378  1.4780  0.4129  1.2880
  406SOL     OW 7563   8.867   8.083   7.865 -0.3473  0.4177  0.7209
  406SOL    HW1 7564   8.822   8.152   7.914 -0.5504  0.3038  0.6951
  406SOL    HW2 7565   8.851   8.104   7.773  0.9541  1.2594  0.6557
  407SOL     OW 7566   2.127   0.603   8.972  0.1976  0.2171  0.1573
  407SOL    HW1 7567   2.213   0.561   8.977 -0.0881 -0.3466  0.5253
  407SOL    HW2 7568   2.086   0.582   9.056 -0.3693  0.3139 -0.0915
  408SOL     OW 7569   1.170   3.906   4.328 -0.5416  0.1672 -0.1290
  408SOL    HW1 7570   1.159   3.985   4.275 -1.5234 -0.7165 -1.3046
  408SOL    HW2 7571   1.237   3.929   4.392 -0.8375  1.9558 -0.4235
  409SOL     OW 7572   7.392   6.542   6.669 -0.3671  0.0681  0.3722
  409SOL    HW1 7573   7.388   6.631   6.633  0.4056  0.2152  0.6321
  409SOL    HW2 7574   7.433   6.552   6.755  0.3048 -0.6028  0.1504
  410SOL     OW 7575   8.280   5.911   7.579  0.1359 -0.4585  0.0592
  410SOL    HW1 7576   8.270   5.967   7.656  0.2644 -0.9067  0.4045
  410SOL    HW2 7577   8.190   5.890   7.553  0.0179  1.2321 -1.0676
  411SOL     OW 7578   3.270   7.355   6.516 -0.4916  0.0220 -0.2306
  411SOL    HW1 7579   3.205   7.296   6.477  0.2253  0.0284 -1.5184
  411SOL    HW2 7580   3.354   7.311   6.500 -0.1368  0.2150  1.0247
  412SOL     OW 7581   4.857   3.564   6.461 -0.1033  0.0294 -0.1899
  412SOL    HW1 7582   4.826   3.475   6.476 -0.5308  0.0464 -0.9501
  412SOL    HW2 7583   4.952   3.558   6.468 -0.0721 -0.6609 -1.0540
  413SOL     OW 7584   8.107   4.827   3.086  1.0524  0.4427  0.4021
  413SOL    HW1 7585   8.037   4.871   3.038  1.1250 -0.4922 -0.5827
  413SOL    HW2 7586   8.063   4.788   3.162  0.2071 -1.3374 -0.9387
  414SOL     OW 7587   7.656   1.190   2.422  0.3889 -0.4305 -0.5727
  414SOL    HW1 7588   7.699   1.264   2.465 -1.7411 -0.0279  1.0195
  414SOL    HW2 7589   7.725   1.147   2.372  1.6128  2.8865 -1.9422
  415SOL     OW 7590   4.269   4.583   1.716 -0.5486  0.2084  0.1934
  415SOL    HW1 7591   4.176   4.602   1.713 -0.0188  3.1233 -0.7185
  415SOL    HW2 7592   4.284   4.552   1.806 -2.3923 -0.5780  0.2671
  416SOL     OW 7593   8.326   0.584   2.489 -0.0163 -0.8741  0.3930
  416SOL    HW1 7594   8.353   0.521   2.556  2.1765 -0.2766  0.1319
  416SOL    HW2 7595   8.407   0.624   2.459 -1.2325  1.1511 -0.3914
  417SOL     OW 7596   8.690   0.610   7.891 -0.2515 -0.1390  0.1878
  417SOL    HW1 7597   8.774   0.639   7.928 -1.1285  0.8077  1.5332
  417SOL    HW2 7598   8.640   0.691   7.880 -0.1750 -0.3881 -2.9111
  418SOL     OW 7599   7.761   2.878   6.436  0.0752 -0.4741  0.2666
  418SOL    HW1 7600   7.834   2.856   6.494 -0.6093 -1.5988  0.7169
  418SOL    HW2 7601   7.782   2.832   6.354 -0.7130 -1.7886  0.7877
  419SOL     OW 7602   1.660   9.157   3.383  0.2768  0.0452  0.2537
  419SOL    HW1 7603   1.654   9.252   3.395 -0.4690 -0.0865  1.1212
  419SOL    HW2 7604   1.606   9.121   3.454 -2.5136 -0.9375 -2.1421
  420SOL     OW 7605   5.231   5.138   7.658  0.7969  0.4076  0.8195
  420SOL    HW1 7606   5.155   5.112   7.711  0.4224 -0.9085 -0.3089
  420SOL    HW2 7607   5.263   5.217   7.700  0.0156 -0.1288  2.5221
  421SOL     OW 7608   2.742   1.670   2.792  0.2384  0.1503 -0.3442
  421SOL    HW1 7609   2.798   1.610   2.841  1.5456  1.8232  0.2989
  421SOL    HW2 7610   2.760   1.757   2.829 -1.0248  1.0692 -1.7351
  422SOL     OW 7611   3.080   2.630   1.898 -0.3392  0.3553 -0.1474
  422SOL    HW1 7612   3.099   2.683   1.975 -2.5576 -0.4514  1.0770
  422SOL    HW2 7613   3.156   2.572   1.889 -0.0513  0.4102  1.5248
  423SOL     OW 7614   4.708   8.961   4.264 -0.5963  0.4708  0.3579
  423SOL    HW1 7615   4.706   9.015   4.185 -0.1382  0.4802  0.3508
  423SOL    HW2 7616   4.619   8.925   4.270 -0.0478 -1.4157 -1.4911
  424SOL     OW 7617   5.635   6.069   4.320 -0.2575 -1.3468  0.4526
  424SOL    HW1 7618   5.539   6.066   4.327 -0.3020 -1.9254 -0.2711
  424SOL    HW2 7619   5.658   5.987   4.275  0.3972 -0.2955 -1.2028
  425SOL     OW 7620   7.373   0.430   7.853  0.6016  0.5613 -0.4633
  425SOL    HW1 7621   7.290   0.460   7.889  0.7786  0.1701  0.3168
  425SOL    HW2 7622   7.349   0.373   7.780  0.2563  2.1863 -1.6641
  426SOL     OW 7623   7.068   3.396   3.285  0.4354  0.0167 -0.1044
  426SOL    HW1 7624   7.116   3.470   3.247  1.1092  0.4140  1.4501
  426SOL    HW2 7625   6.983   3.432   3.310  0.3322 -0.0254 -0.3885
  427SOL     OW 7626   2.920   8.039   8.029 -0.0185  0.1433  0.2808
  427SOL    HW1 7627   2.947   8.088   7.951  0.1412 -0.5544 -0.1119
  427SOL    HW2 7628   2.945   7.949   8.010  0.0655 -0.0275  1.1656
  428SOL     OW 7629   6.471   0.705   5.035  0.0747  0.1301 -0.4663
  428SOL    HW1 7630   6.391   0.740   4.995 -0.5826 -0.6781  0.1025
  428SOL    HW2 7631   6.522   0.782   5.059 -2.9444  1.0768  4.1583
  429SOL     OW 7632   5.159   3.205   6.821 -0.1258 -0.5948  0.3047
  429SOL    HW1 7633   5.239   3.238   6.780 -0.8909  0.5690 -0.2978
  429SOL    HW2 7634   5.121   3.281   6.864 -0.2207 -1.4352  1.7551
  430SOL     OW 7635   8.085   7.988   0.896 -1.0850  0.1750 -0.0422
  430SOL    HW1 7636   8.036   8.056   0.850 -0.0202  0.8316 -0.2550
  430SOL    HW2 7637   8.177   8.010   0.879 -0.7173 -0.9464  0.4347
  431SOL     OW 7638   7.358   2.299   0.807 -0.1886 -0.5394 -0.4154
  431SOL    HW1 7639   7.303   2.361   0.759 -1.2600 -0.6896  0.5650
  431SOL    HW2 7640   7.295   2.244   0.855  0.7957 -1.3282  0.0067
  432SOL     OW 7641   1.526   7.264   1.518  0.6345  0.0299 -0.5412
  432SOL    HW1 7642   1.466   7.204   1.563  1.6538  0.4606  1.5008
  432SOL    HW2 7643   1.493   7.268   1.428 -1.8904 -0.3899  0.2937
  433SOL     OW 7644   6.467   5.354   5.009  0.3984  0.0695 -0.4161
  433SOL    HW1 7645   6.537   5.330   4.947  1.7607  0.5432  0.8831
  433SOL    HW2 7646   6.433   5.437   4.975  1.1287  0.3261 -0.5474
  434SOL     OW 7647   0.128   4.591   0.987 -0.1273  0.0546  0.7968
  434SOL    HW1 7648   0.211   4.563   1.025  1.2677  1.2204 -1.1844
  434SOL    HW2 7649   0.128   4.686   0.997 -1.5608  0.0221  1.3542
  435SOL     OW 7650   8.266   1.797   7.682  0.6273  0.2245 -0.4688
  435SOL    HW1 7651   8.200   1.846   7.633 -1.4049 -2.7090 -0.9059
  435SOL    HW2 7652   8.255   1.827   7.772 -1.6277 -0.3961 -0.4621
  436SOL     OW 7653   0.493   5.616   6.970 -0.3777  0.5437  0.1545
  436SOL    HW1 7654   0.543   5.697   6.962 -0.1734  0.2997 -1.2848
  436SOL    HW2 7655   0.560   5.548   6.985 -0.2956  0.3048 -1.1636
  437SOL     OW 7656   2.405   4.741   5.066 -0.4949 -0.0080 -0.3977
  437SOL    HW1 7657   2.349   4.664   5.067  1.5966 -1.6329  1.5520
  437SOL    HW2 7658   2.345   4.814   5.048 -2.7842 -1.8915 -0.8438
  438SOL     OW 7659   7.586   2.826   6.859  0.1158  0.1604  0.1539
  438SOL    HW1 7660   7.677   2.850   6.844 -0.2091  0.7287 -1.0401
  438SOL    HW2 7661   7.558   2.881   6.932  0.2524  1.2217 -0.5768
  439SOL     OW 7662   4.975   3.247   2.277 -0.5302  0.6877 -0.1878
  439SOL    HW1 7663   4.908   3.252   2.209 -1.9762 -1.7865  0.9099
  439SOL    HW2 7664   5.005   3.156   2.275  0.1875  0.8338  1.7292
  440SOL     OW 7665   0.760   6.185   8.763 -0.4432 -0.6121  0.0655
  440SOL    HW1 7666   0.830   6.174   8.829 -2.2859 -0.0230  2.2573
  440SOL    HW2 7667   0.740   6.278   8.765  1.0529 -0.0683 -3.2328
  441SOL     OW 7668   7.648   6.900   6.543  0.1622 -0.2699 -0.1033
  441SOL    HW1 7669   7.673   6.921   6.633  0.5896 -0.5633 -0.1521
  441SOL    HW2 7670   7.667   6.979   6.493  1.1679 -0.5406 -0.1723
  442SOL     OW 7671   8.268   8.541   0.538 -0.0816  0.1647  0.4069
  442SOL    HW1 7672   8.188   8.553   0.487 -0.4552 -0.9440  0.7142
  442SOL    HW2 7673   8.339   8.556   0.475 -0.5082  1.3298  0.1751
  443SOL     OW 7674   5.505   1.169   9.015  0.3403 -0.2893  0.1685
  443SOL    HW1 7675   5.418   1.190   8.981  0.3195 -0.1047  0.3337
  443SOL    HW2 7676   5.492   1.093   9.071  0.4426 -0.8565 -0.5672
  444SOL     OW 7677   5.271   1.979   1.906  0.2248  0.1688 -0.0333
  444SOL    HW1 7678   5.307   1.891   1.892 -1.0054 -0.1113 -1.6366
  444SOL    HW2 7679   5.249   1.981   1.999  1.4353 -0.7495  0.3043
  445SOL     OW 7680   1.330   8.123   5.168  0.0748 -0.1903 -0.2266
  445SOL    HW1 7681   1.419   8.131   5.135  0.5582  0.3389  1.1373
  445SOL    HW2 7682   1.309   8.030   5.159  0.3857 -0.1508 -1.4533
  446SOL     OW 7683   9.095   6.416   8.043  0.3598  0.2030 -0.1022
  446SOL    HW1 7684   9.098   6.509   8.022 -0.3899  0.0122 -1.1353
  446SOL    HW2 7685   9.141   6.374   7.970 -2.1272 -0.4686 -1.3962
  447SOL     OW 7686   0.762   0.494   6.044  0.3894  0.0842  0.5117
  447SOL    HW1 7687   0.804   0.416   6.079  0.6815  0.8152  1.8629
  447SOL    HW2 7688   0.809   0.567   6.085  0.3848  0.9888 -1.0212
  448SOL     OW 7689   5.235   7.633   1.635 -0.0157  0.0819  0.1852
  448SOL    HW1 7690   5.328   7.639   1.653  0.0117 -0.5793  0.2748
  448SOL    HW2 7691   5.198   7.585   1.709 -0.5419  0.9193  0.4886
  449SOL     OW 7692   9.152   6.173   3.307  0.0540  0.1076 -0.1414
  449SOL    HW1 7693   9.153   6.237   3.378 -0.2077 -0.2860  0.2273
  449SOL    HW2 7694   9.153   6.225   3.227 -0.4243  0.5738  0.1499
  450SOL     OW 7695   5.808   4.546   1.877  0.2955 -0.1329  0.0792
  450SOL    HW1 7696   5.780   4.524   1.789  0.3170  1.4439 -0.3601
  450SOL    HW2 7697   5.784   4.470   1.930  0.2052 -1.0599 -1.2593
  451SOL     OW 7698   6.705   8.459   3.170 -0.0222  0.5115  0.2045
  451SOL    HW1 7699   6.740   8.448   3.258  0.7476 -0.0199 -0.1572
  451SOL    HW2 7700   6.665   8.375   3.149 -1.3404  1.0287  0.5135
  452SOL     OW 7701   3.486   2.342   2.570 -0.6436 -0.2788  0.0448
  452SOL    HW1 7702   3.421   2.339   2.641  0.0607 -2.1563  0.6544
  452SOL    HW2 7703   3.474   2.429   2.531 -1.8775  0.3403  1.6770
  453SOL     OW 7704   8.915   6.652   2.388 -0.2367 -0.0585  0.1787
  453SOL    HW1 7705   8.998   6.697   2.373 -0.7691  0.9764  0.3152
  453SOL    HW2 7706   8.940   6.559   2.395  0.8999  0.2322  0.2185
  454SOL     OW 7707   6.753   2.189   3.486 -0.2499  0.3593 -1.1012
  454SOL    HW1 7708   6.763   2.279   3.454  0.4289 -0.2429 -2.6946
  454SOL    HW2 7709   6.841   2.153   3.484 -0.0656  0.3603  1.9805
  455SOL     OW 7710   5.589   5.108   6.647  0.0547  0.2834  0.2601
  455SOL    HW1 7711   5.534   5.186   6.641 -0.2965  0.1279  1.1700
  455SOL    HW2 7712   5.654   5.118   6.577 -0.7190  0.7963 -0.4017
  456SOL     OW 7713   1.934   7.509   2.651 -0.0788  0.0317 -0.4118
  456SOL    HW1 7714   1.979   7.493   2.735 -0.6148  2.1585  0.3254
  456SOL    HW2 7715   1.846   7.474   2.664  0.1237 -0.5034 -0.4431
  457SOL     OW 7716   3.823   3.755   9.057  0.2215 -0.5506  0.3163
  457SOL    HW1 7717   3.845   3.806   8.979 -0.2395 -1.4176 -0.4015
  457SOL    HW2 7718   3.896   3.769   9.117  0.4972  0.2705 -0.2041
  458SOL     OW 7719   7.295   4.255   4.627  0.1800 -0.2635  0.4757
  458SOL    HW1 7720   7.372   4.237   4.573  0.3793  0.1426  0.6124
  458SOL    HW2 7721   7.230   4.191   4.600  0.5685 -0.6062  0.3506
  459SOL     OW 7722   1.594   6.793   7.487  0.6954 -0.5835 -0.1761
  459SOL    HW1 7723   1.651   6.817   7.560  2.2116 -2.7130 -0.5509
  459SOL    HW2 7724   1.561   6.706   7.509  2.7479 -2.1955 -2.7533
  460SOL     OW 7725   5.009   8.549   5.353 -0.1293 -0.0624 -0.6497
  460SOL    HW1 7726   5.089   8.498   5.365  0.0034 -0.4029 -2.6128
  460SOL    HW2 7727   4.943   8.485   5.326 -1.4333  0.0338  1.9683
  461SOL     OW 7728   3.386   5.185   4.653  0.4760 -0.2637 -0.1791
  461SOL    HW1 7729   3.383   5.203   4.747  3.0841  0.6378 -0.1891
  461SOL    HW2 7730   3.385   5.271   4.612 -2.3319 -0.6596 -1.1571
  462SOL     OW 7731   7.042   0.088   1.466 -0.5266 -0.3234  0.1471
  462SOL    HW1 7732   7.055   0.182   1.456 -0.6330 -0.3685 -0.4675
  462SOL    HW2 7733   7.123   0.058   1.508  0.9168 -0.3901 -2.4179
  463SOL     OW 7734   1.175   7.696   1.926  0.3064  0.2177  0.1307
  463SOL    HW1 7735   1.102   7.636   1.909  0.3462  0.0527  0.5204
  463SOL    HW2 7736   1.141   7.782   1.903  0.9535 -0.1575 -2.5830
  464SOL     OW 7737   8.647   6.906   0.163  0.0328 -0.1862 -0.6865
  464SOL    HW1 7738   8.713   6.975   0.157 -0.5568  0.7175  1.9111
  464SOL    HW2 7739   8.574   6.938   0.109 -0.2592  1.3286  0.5267
  465SOL     OW 7740   7.430   5.965   7.575  0.0697 -0.0526 -0.2194
  465SOL    HW1 7741   7.482   5.885   7.563  0.0397 -0.1350  0.1714
  465SOL    HW2 7742   7.350   5.949   7.524  0.2156 -0.1254 -0.4269
  466SOL     OW 7743   6.339   4.263   9.110  0.4597  0.0160 -0.0404
  466SOL    HW1 7744   6.293   4.179   9.120  2.8326 -1.8921 -3.0450
  466SOL    HW2 7745   6.426   4.246   9.145  0.8727  1.3545 -0.3933
  467SOL     OW 7746   2.364   4.515   7.836  0.2137 -0.0978 -0.0059
  467SOL    HW1 7747   2.327   4.491   7.920  0.9984  0.5422  0.5387
  467SOL    HW2 7748   2.420   4.591   7.855 -1.8718  1.9997 -1.5373
  468SOL     OW 7749   5.897   9.223   5.093 -0.1353  0.1016 -0.5289
  468SOL    HW1 7750   5.831   9.288   5.120 -0.3736 -0.2818 -0.1812
  468SOL    HW2 7751   5.941   9.264   5.019 -0.0207  0.8271 -0.0746
  469SOL     OW 7752   8.524   2.607   8.959  0.4906  0.3025  0.5673
  469SOL    HW1 7753   8.584   2.638   8.891 -0.5749 -2.3406 -1.8204
  469SOL    HW2 7754   8.550   2.516   8.974  0.3860  0.6757  3.4678
  470SOL     OW 7755   6.770   2.995   5.066  0.1673 -0.1038 -0.0682
  470SOL    HW1 7756   6.768   3.042   4.983  0.4798 -0.4774 -0.2971
  470SOL    HW2 7757   6.690   2.943   5.067 -0.3176  0.6431  0.3163
  471SOL     OW 7758   2.302   0.039   4.075  0.2167  0.3127 -0.2230
  471SOL    HW1 7759   2.380   0.089   4.100  1.1564 -0.0636 -2.2258
  471SOL    HW2 7760   2.239   0.106   4.048  0.9208  0.5330 -1.4072
  472SOL     OW 7761   3.152   1.656   8.301  0.3514 -0.1003 -0.0377
  472SOL    HW1 7762   3.076   1.601   8.284  1.9365 -1.7088 -2.4921
  472SOL    HW2 7763   3.137   1.736   8.250  0.0659 -0.1838 -0.0824
  473SOL     OW 7764   8.278   3.370   6.141 -0.1028 -0.4141  0.6482
  473SOL    HW1 7765   8.206   3.308   6.127 -0.5891  0.1782  0.4820
  473SOL    HW2 7766   8.291   3.411   6.055 -0.1331  0.0890  0.8830
  474SOL     OW 7767   0.652   5.759   8.453  0.1986 -0.5921 -0.1711
  474SOL    HW1 7768   0.733   5.734   8.497 -0.6377  0.4994  2.1609
  474SOL    HW2 7769   0.650   5.854   8.458 -2.7087 -0.6252  2.9798
  475SOL     OW 7770   2.878   5.474   8.825  0.3680  0.1682  0.3831
  475SOL    HW1 7771   2.898   5.414   8.897  1.5604  0.7818  0.5982
  475SOL    HW2 7772   2.820   5.539   8.864 -0.1788 -0.3170  0.3918
  476SOL     OW 7773   8.969   5.822   7.807  0.6619  0.0643  0.1255
  476SOL    HW1 7774   8.985   5.884   7.879 -1.3280 -1.0923  1.6830
  476SOL    HW2 7775   8.877   5.797   7.818  1.2008 -2.6382 -0.8720
  477SOL     OW 7776   6.047   8.871   6.130  0.3647 -0.1940 -0.7662
  477SOL    HW1 7777   5.958   8.901   6.110  0.3587  1.9172  2.0162
  477SOL    HW2 7778   6.035   8.781   6.162 -0.5308 -0.5037 -1.9007
  478SOL     OW 7779   3.304   1.551   8.555 -0.4551  0.8988  0.0646
  478SOL    HW1 7780   3.272   1.611   8.487 -0.6612  1.5922  0.7574
  478SOL    HW2 7781   3.232   1.490   8.570 -0.9305  1.5863  0.6177
  479SOL     OW 7782   3.558   3.508   8.147  0.0735  0.9576  0.0022
  479SOL    HW1 7783   3.475   3.466   8.170  0.3536  0.2235 -0.2968
  479SOL    HW2 7784   3.615   3.491   8.222  0.8307 -1.0079 -0.9393
  480SOL     OW 7785   0.725   4.205   7.739 -0.7515 -0.8543  0.4660
  480SOL    HW1 7786   0.753   4.273   7.801 -2.1435 -0.5238  0.7661
  480SOL    HW2 7787   0.806   4.163   7.712  0.2279  1.2117 -0.0581
  481SOL     OW 7788   4.959   9.147   4.198  0.2604 -0.8211 -0.3711
  481SOL    HW1 7789   5.000   9.072   4.155  0.8210 -0.9904  0.4309
  481SOL    HW2 7790   4.871   9.151   4.161  0.1068 -2.0876 -0.1823
  482SOL     OW 7791   7.773   3.945   7.475 -0.4911 -1.6256  0.1405
  482SOL    HW1 7792   7.830   3.868   7.476 -0.9005 -1.9332  0.6707
  482SOL    HW2 7793   7.832   4.019   7.466  0.0739 -1.8804  1.4481
  483SOL     OW 7794   1.279   1.923   4.629 -0.9600 -0.2155 -0.0576
  483SOL    HW1 7795   1.224   1.852   4.596 -1.4751  0.9722 -1.9232
  483SOL    HW2 7796   1.327   1.884   4.702 -3.0639 -1.7527  0.6041
  484SOL     OW 7797   1.470   6.271   6.515  0.6894  0.0979  0.1279
  484SOL    HW1 7798   1.421   6.334   6.569  0.3203  0.2648 -0.3884
  484SOL    HW2 7799   1.561   6.283   6.542  0.5268  0.2681  0.6237
  485SOL     OW 7800   6.715   2.662   4.876  0.0689 -0.4749 -1.5285
  485SOL    HW1 7801   6.665   2.601   4.823 -0.2544 -1.8522  0.2517
  485SOL    HW2 7802   6.656   2.686   4.948  1.3681 -0.8477 -0.2830
  486SOL     OW 7803   3.453   5.435   0.912 -0.3800 -0.4079 -0.4858
  486SOL    HW1 7804   3.546   5.439   0.888 -0.7770  0.0008 -2.0702
  486SOL    HW2 7805   3.409   5.407   0.832 -1.6728 -0.1656  0.1176
  487SOL     OW 7806   4.522   2.790   0.266  0.2246 -0.1747  0.5443
  487SOL    HW1 7807   4.597   2.828   0.221 -0.3933 -0.2250 -0.5686
  487SOL    HW2 7808   4.476   2.866   0.303  0.0553 -0.0214  0.0158
  488SOL     OW 7809   0.551   5.671   0.189 -0.0774 -0.1120 -0.1943
  488SOL    HW1 7810   0.605   5.733   0.238 -0.9460  0.5920 -0.0927
  488SOL    HW2 7811   0.464   5.712   0.187  0.0641  0.2335 -2.8895
  489SOL     OW 7812   3.057   6.944   4.849  0.3028 -0.4922 -0.1346
  489SOL    HW1 7813   3.132   6.961   4.906  0.4123 -1.8544  0.1611
  489SOL    HW2 7814   2.998   6.892   4.903 -0.4228 -0.2610 -0.6933
  490SOL     OW 7815   0.633   0.473   8.331  0.1175  0.2139  0.3317
  490SOL    HW1 7816   0.578   0.459   8.254 -2.8693 -1.2637  2.5455
  490SOL    HW2 7817   0.599   0.413   8.397  2.3785  1.5360  2.9303
  491SOL     OW 7818   3.126   8.954   0.444 -0.2247 -0.0687 -0.0711
  491SOL    HW1 7819   3.147   8.867   0.412  0.2203 -0.2924  0.8119
  491SOL    HW2 7820   3.202   8.981   0.496 -0.7774  0.4156  0.5204
  492SOL     OW 7821   4.478   2.883   4.401 -0.3372  0.5334  0.1415
  492SOL    HW1 7822   4.546   2.817   4.417 -1.7640 -0.4053  3.2585
  492SOL    HW2 7823   4.460   2.878   4.307  0.4051 -2.7637  0.0580
  493SOL     OW 7824   8.724   6.800   1.600  0.2016 -0.2727 -0.1070
  493SOL    HW1 7825   8.780   6.870   1.566  1.1688 -1.4738 -1.0640
  493SOL    HW2 7826   8.782   6.724   1.607 -1.0463 -1.2508 -0.0457
  494SOL     OW 7827   3.282   6.642   6.522  0.1096 -0.2249  0.3916
  494SOL    HW1 7828   3.277   6.717   6.463  1.2855  0.5127  1.2016
  494SOL    HW2 7829   3.216   6.659   6.589 -0.4493 -0.5210 -0.0670
  495SOL     OW 7830   2.720   3.597   7.275 -0.1884  0.1550  0.0126
  495SOL    HW1 7831   2.672   3.541   7.336 -0.9794  1.1612  0.3426
  495SOL    HW2 7832   2.811   3.569   7.283 -0.4679 -0.5913  0.7051
  496SOL     OW 7833   3.572   6.779   7.370 -0.0377  0.0086 -0.1898
  496SOL    HW1 7834   3.568   6.869   7.340 -0.9619 -0.2102 -0.7711
  496SOL    HW2 7835   3.636   6.780   7.440 -0.0292  1.1136 -0.1938
  497SOL     OW 7836   8.931   4.861   8.987  0.2754  0.0780  0.1340
  497SOL    HW1 7837   9.016   4.887   8.951  1.8536 -3.6233  0.7662
  497SOL    HW2 7838   8.939   4.879   9.081  0.3436 -0.1855  0.1801
  498SOL     OW 7839   1.216   5.702   5.164  0.0676 -0.4218 -0.1762
  498SOL    HW1 7840   1.304   5.708   5.201 -0.0690 -1.2468  0.3115
  498SOL    HW2 7841   1.230   5.703   5.069  0.6348 -0.9096 -0.1069
  499SOL     OW 7842   6.952   3.300   7.211 -0.5944  0.0679  0.0797
  499SOL    HW1 7843   6.906   3.227   7.254  1.3466 -0.7041  0.9781
  499SOL    HW2 7844   6.983   3.263   7.128  1.8556 -0.7842  1.2631
  500SOL     OW 7845   1.985   3.007   1.067  0.0755 -0.2740 -0.1284
  500SOL    HW1 7846   1.892   3.025   1.055  0.4400  1.8226 -0.1274
  500SOL    HW2 7847   2.026   3.038   0.986  0.8507 -0.5060  0.1643
  501SOL     OW 7848   6.137   4.047   9.137  0.1558  0.0538 -0.2579
  501SOL    HW1 7849   6.055   4.096   9.142 -1.2337 -1.9093 -2.2578
  501SOL    HW2 7850   6.111   3.956   9.149  2.5972 -0.4169  2.9014
  502SOL     OW 7851   3.601   3.533   3.765  0.0812  0.0948  0.0799
  502SOL    HW1 7852   3.575   3.453   3.719  0.1382  0.5451 -0.7595
  502SOL    HW2 7853   3.655   3.580   3.702  1.0565  0.2410  0.9911
  503SOL     OW 7854   0.228   0.251   3.122  0.5486 -0.3287  0.1518
  503SOL    HW1 7855   0.281   0.173   3.104 -0.2309 -0.7815 -0.1876
  503SOL    HW2 7856   0.157   0.220   3.178  1.4989  0.5681  1.9598
  504SOL     OW 7857   3.340   7.629   3.187  1.1741 -0.5316  0.0364
  504SOL    HW1 7858   3.301   7.708   3.224 -2.6052 -2.3277  0.3730
  504SOL    HW2 7859   3.297   7.618   3.102  1.4051 -2.3434  0.1033
  505SOL     OW 7860   9.198   4.741   6.443  0.1621 -0.6898  0.3600
  505SOL    HW1 7861   9.208   4.752   6.349  0.4802  1.4834  0.5915
  505SOL    HW2 7862   9.204   4.647   6.458 -0.5583 -1.1309 -1.8494
  506SOL     OW 7863   7.345   8.063   2.904  0.0300  0.1931 -0.3631
  506SOL    HW1 7864   7.270   8.009   2.930 -1.4264  2.4971  0.5499
  506SOL    HW2 7865   7.392   8.080   2.986 -0.7473  1.9562 -0.2275
  507SOL     OW 7866   5.371   2.474   4.154  0.4098 -0.4150 -0.0157
  507SOL    HW1 7867   5.461   2.471   4.120 -0.2595 -0.2780 -1.9401
  507SOL    HW2 7868   5.374   2.542   4.222  1.7418 -0.3371 -0.1221
  508SOL     OW 7869   0.793   6.310   8.340 -0.2474 -0.1763 -0.8633
  508SOL    HW1 7870   0.818   6.224   8.375  0.7024  0.8081  1.0537
  508SOL    HW2 7871   0.697   6.308   8.336 -0.3390 -0.7325  0.8757
  509SOL     OW 7872   7.293   7.662   2.538  0.5834 -0.0530 -0.0777
  509SOL    HW1 7873   7.343   7.603   2.594 -0.4313 -1.7430 -0.8873
  509SOL    HW2 7874   7.231   7.705   2.597  0.3195 -0.9381  0.2990
  510SOL     OW 7875   5.765   2.278   3.493  0.0635  0.5571  0.5326
  510SOL    HW1 7876   5.702   2.253   3.560 -1.7179 -0.1107 -1.2771
  510SOL    HW2 7877   5.849   2.244   3.524 -0.7361  0.1006  2.2868
  511SOL     OW 7878   2.682   7.430   8.520  0.0013  0.3147 -0.3714
  511SOL    HW1 7879   2.610   7.475   8.564 -0.3026 -1.6045  1.2275
  511SOL    HW2 7880   2.642   7.353   8.481  0.7750  0.5840 -1.7773
  512SOL     OW 7881   3.008   8.176   0.069 -0.1172 -0.3966 -0.1747
  512SOL    HW1 7882   3.101   8.195   0.079 -0.2394 -0.1221  0.5781
  512SOL    HW2 7883   2.990   8.107   0.132 -0.8831  1.1986  1.4524
  513SOL     OW 7884   3.762   2.064   6.854 -0.9581  0.4999  0.0992
  513SOL    HW1 7885   3.719   2.076   6.769 -1.6685  0.5767  0.4581
  513SOL    HW2 7886   3.835   2.126   6.853  0.0152 -0.6114 -1.0716
  514SOL     OW 7887   8.365   8.018   0.731 -0.3110 -0.1587 -0.0583
  514SOL    HW1 7888   8.297   7.981   0.675 -0.9685 -2.4796  2.0952
  514SOL    HW2 7889   8.360   8.113   0.715 -1.4275 -0.5841 -2.7227
  515SOL     OW 7890   4.170   8.701   5.514 -0.1594 -0.3784  0.1648
  515SOL    HW1 7891   4.211   8.776   5.557 -1.5331  1.1736 -1.1084
  515SOL    HW2 7892   4.242   8.652   5.476  0.6890  1.0672 -0.1567
  516SOL     OW 7893   1.630   3.984   1.965 -0.2982 -0.7952 -0.0938
  516SOL    HW1 7894   1.711   4.030   1.943 -0.1254 -0.5215  1.0432
  516SOL    HW2 7895   1.657   3.913   2.023 -0.9344 -0.2569  0.8939
  517SOL     OW 7896   6.761   1.216   7.189  0.7141 -0.4239  0.0828
  517SOL    HW1 7897   6.679   1.211   7.141  0.7568 -0.3883  0.0056
  517SOL    HW2 7898   6.767   1.307   7.217  1.9448  0.2592 -2.0919
  518SOL     OW 7899   8.653   2.346   8.070  0.4647 -0.4091 -0.1114
  518SOL    HW1 7900   8.614   2.259   8.063 -2.1302  0.7324 -1.4763
  518SOL    HW2 7901   8.599   2.391   8.134  0.7981  0.6640 -0.5660
  519SOL     OW 7902   2.268   2.982   4.283 -0.2117  1.4008 -0.1269
  519SOL    HW1 7903   2.306   3.057   4.238 -0.0534  1.4187  0.0356
  519SOL    HW2 7904   2.189   2.962   4.233  0.2391  1.0918 -0.7282
  520SOL     OW 7905   2.245   4.909   3.490  0.1250  0.4890  0.7955
  520SOL    HW1 7906   2.191   4.830   3.477  0.3980  0.4710 -0.3564
  520SOL    HW2 7907   2.316   4.880   3.547 -1.1232  0.5508  2.4792
  521SOL     OW 7908   8.334   4.026   0.935  0.2679 -0.2441  0.1366
  521SOL    HW1 7909   8.399   4.056   0.999 -1.4472 -0.4378  2.0630
  521SOL    HW2 7910   8.281   3.962   0.982 -1.5247  0.1290 -1.2571
  522SOL     OW 7911   2.974   5.301   9.027  0.4014 -0.4418  0.2000
  522SOL    HW1 7912   2.937   5.220   8.992 -0.2464 -0.2020  0.3084
  522SOL    HW2 7913   2.981   5.286   9.121 -2.6089  0.6489  0.7365
  523SOL     OW 7914   3.510   1.917   1.316  0.4071 -0.2557  0.8171
  523SOL    HW1 7915   3.507   2.010   1.336 -2.1456 -0.4244  1.5441
  523SOL    HW2 7916   3.568   1.880   1.383 -0.1832  0.5550  1.8105
  524SOL     OW 7917   1.447   6.329   7.342  0.2563 -0.4007  0.1759
  524SOL    HW1 7918   1.507   6.267   7.383  1.1078 -0.9063 -1.7124
  524SOL    HW2 7919   1.405   6.278   7.273 -2.5928 -0.1426  1.5671
  525SOL     OW 7920   3.276   3.313   2.493  0.0105  0.0560 -0.1986
  525SOL    HW1 7921   3.305   3.222   2.487  0.0803 -0.0194  1.0126
  525SOL    HW2 7922   3.312   3.355   2.415 -0.2787 -1.0167 -0.9364
  526SOL     OW 7923   4.178   1.420   4.655  0.4692 -0.3558  0.6514
  526SOL    HW1 7924   4.132   1.441   4.573  2.6273  0.5668 -0.4029
  526SOL    HW2 7925   4.184   1.325   4.656 -1.7365 -0.5501  1.0355
  527SOL     OW 7926   6.901   5.871   6.149 -0.7316  0.7935  0.5445
  527SOL    HW1 7927   6.941   5.812   6.084 -1.4789  1.8435 -0.8979
  527SOL    HW2 7928   6.976   5.908   6.197 -0.1606  0.2339  0.0985
  528SOL     OW 7929   0.375   5.782   6.297 -0.2026 -0.5389 -0.4456
  528SOL    HW1 7930   0.296   5.735   6.324  0.2099 -2.8117 -2.7747
  528SOL    HW2 7931   0.446   5.720   6.316  0.6268  0.0536 -1.5447
  529SOL     OW 7932   2.404   0.026   8.239 -0.3224 -0.4247 -0.3503
  529SOL    HW1 7933   2.453   0.087   8.294 -0.6438  0.7502 -1.3345
  529SOL    HW2 7934   2.464  -0.046   8.224  0.6316  0.3770 -0.4546
  530SOL     OW 7935   2.163   3.921   6.529 -0.1087  0.1368 -0.2999
  530SOL    HW1 7936   2.143   3.874   6.610  1.9456  0.9623  0.7647
  530SOL    HW2 7937   2.142   4.012   6.547  3.6268  0.9747  0.7229
  531SOL     OW 7938   9.019   1.848   3.022  0.5435  0.2528  0.6988
  531SOL    HW1 7939   8.950   1.799   3.066 -0.1032  0.9606  0.4902
  531SOL    HW2 7940   9.006   1.939   3.050  0.6145  0.5920 -0.3013
  532SOL     OW 7941   3.936   2.165   1.269  0.6584  0.2125  0.0182
  532SOL    HW1 7942   3.971   2.086   1.310  1.4489 -0.5484 -2.0038
  532SOL    HW2 7943   3.850   2.138   1.236 -0.1360  0.9261  1.4191
  533SOL     OW 7944   5.858   0.352   2.485  0.1589  0.1803  0.3511
  533SOL    HW1 7945   5.833   0.407   2.559  0.5502 -1.4725  1.7735
  533SOL    HW2 7946   5.786   0.291   2.475 -0.2782  0.9012 -1.2248
  534SOL     OW 7947   0.153   6.000   5.083 -0.4106 -0.0012 -0.0117
  534SOL    HW1 7948   0.086   6.024   5.018 -0.2640  1.7837  0.4390
  534SOL    HW2 7949   0.187   6.084   5.114  0.7579 -0.8524  1.1110
  535SOL     OW 7950   2.707   0.812   3.967  0.3611  0.3558  0.4330
  535SOL    HW1 7951   2.665   0.896   3.949  0.2382  0.4921  1.3009
  535SOL    HW2 7952   2.637   0.756   3.999  0.5338  0.0695  0.3141
  536SOL     OW 7953   3.464   1.653   8.267  0.7288 -0.2187  0.4015
  536SOL    HW1 7954   3.371   1.633   8.272  1.1349 -2.6312 -0.0427
  536SOL    HW2 7955   3.479   1.676   8.176  0.5656  0.1187  0.4613
  537SOL     OW 7956   9.118   8.531   2.809  0.2333 -0.0674 -0.6714
  537SOL    HW1 7957   9.058   8.499   2.876  0.7834 -2.6575 -1.3142
  537SOL    HW2 7958   9.191   8.570   2.859 -0.4144  0.1184  0.1580
  538SOL     OW 7959   4.688   7.184   0.423 -0.0228  0.2429  0.0697
  538SOL    HW1 7960   4.738   7.103   0.418 -0.1233  0.0363  1.8453
  538SOL    HW2 7961   4.600   7.160   0.396  0.1981  0.0144 -0.4633
  539SOL     OW 7962   0.719   6.000   3.389  0.2907  0.0969 -0.2572
  539SOL    HW1 7963   0.776   6.037   3.457  1.4303 -2.6446  0.3905
  539SOL    HW2 7964   0.753   6.036   3.307  0.6161  1.3217  0.3844
  540SOL     OW 7965   0.054   1.899   4.377 -0.3014  0.6403  0.5371
  540SOL    HW1 7966   0.049   1.977   4.322  0.1779  0.4186  0.1626
  540SOL    HW2 7967   0.147   1.877   4.379 -0.6300 -1.2425 -1.2899
  541SOL     OW 7968   5.897   3.751   2.209 -0.4154  0.7166  0.1590
  541SOL    HW1 7969   5.977   3.702   2.192 -1.0780 -0.9286  1.4516
  541SOL    HW2 7970   5.874   3.729   2.300 -2.7024  0.5241 -0.3860
  542SOL     OW 7971   7.023   7.249   8.739  0.7299 -0.5437  0.4574
  542SOL    HW1 7972   7.083   7.181   8.707  0.3473 -0.5369 -0.2874
  542SOL    HW2 7973   7.080   7.309   8.787  1.4836 -0.0899 -0.9502
  543SOL     OW 7974   8.967   2.491   8.018  0.3859  0.2291  0.3059
  543SOL    HW1 7975   8.884   2.498   7.972 -0.3741 -3.9650  0.6882
  543SOL    HW2 7976   9.031   2.469   7.950 -0.0903 -2.5475  0.6445
  544SOL     OW 7977   0.654   2.957   7.896  0.7346  0.2090 -0.3266
  544SOL    HW1 7978   0.611   3.010   7.829 -0.7772 -0.9113 -0.2846
  544SOL    HW2 7979   0.747   2.962   7.875  0.5536  2.0837 -0.8754
  545SOL     OW 7980   3.476   2.952   1.752 -0.0465 -0.4557  0.1374
  545SOL    HW1 7981   3.541   2.909   1.808 -1.1028 -0.9431  1.0123
  545SOL    HW2 7982   3.445   3.027   1.802  0.8440  0.6166 -0.8614
  546SOL     OW 7983   5.809   4.407   1.561  0.5038  0.2387 -0.2046
  546SOL    HW1 7984   5.867   4.361   1.501  1.2957  0.4435  0.3851
  546SOL    HW2 7985   5.738   4.345   1.579 -0.1548  0.4193 -1.8842
  547SOL     OW 7986   1.485   8.525   4.150 -0.3118  0.2147  0.1001
  547SOL    HW1 7987   1.457   8.567   4.231 -1.2124 -1.9048  0.9830
  547SOL    HW2 7988   1.419   8.456   4.136 -0.5611  0.9263 -2.8065
  548SOL     OW 7989   4.278   5.964   6.824 -0.2887  0.4224  0.1418
  548SOL    HW1 7990   4.329   6.012   6.889  1.2506 -0.9061 -0.0031
  548SOL    HW2 7991   4.341   5.944   6.755 -0.2687 -3.3312  1.0203
  549SOL     OW 7992   8.000   3.869   0.130 -0.1325 -0.2105 -0.3393
  549SOL    HW1 7993   8.027   3.904   0.215 -0.1091  0.6787 -0.7029
  549SOL    HW2 7994   8.079   3.825   0.097  0.2781  0.6261 -0.5008
  550SOL     OW 7995   3.176   5.497   0.294 -0.2004 -0.0411  0.9268
  550SOL    HW1 7996   3.178   5.542   0.379  0.7843  0.1653  0.8033
  550SOL    HW2 7997   3.256   5.526   0.250  0.6864 -2.2321  1.0014
  551SOL     OW 7998   0.582   3.904   8.485 -0.4709  0.4253 -0.5149
  551SOL    HW1 7999   0.581   3.994   8.518 -3.0424  0.1511  0.3854
  551SOL    HW2 8000   0.671   3.873   8.503 -0.1369  2.1073  1.0712
  552SOL     OW 8001   7.015   3.233   8.684  0.3049  0.7334  0.1122
  552SOL    HW1 8002   7.013   3.187   8.600  0.1479  0.9237  0.0090
  552SOL    HW2 8003   7.080   3.186   8.736 -2.6632 -2.2733  1.5326
  553SOL     OW 8004   5.906   1.222   4.558 -0.1431 -0.4919 -0.7029
  553SOL    HW1 8005   5.997   1.231   4.532  0.6588  0.8962  2.2390
  553SOL    HW2 8006   5.858   1.279   4.497  1.4475  1.5605 -0.1282
  554SOL     OW 8007   8.017   6.442   7.727  0.3021 -0.6669 -0.2642
  554SOL    HW1 8008   8.093   6.468   7.779 -0.6903  0.6175  0.6335
  554SOL    HW2 8009   7.953   6.412   7.792 -1.7866  2.9900 -0.3095
  555SOL     OW 8010   0.203   8.585   2.967  0.3505 -0.1898  0.6539
  555SOL    HW1 8011   0.195   8.496   2.932  0.4167 -0.0265  0.2150
  555SOL    HW2 8012   0.292   8.591   2.999 -0.0025 -0.6645  1.7679
  556SOL     OW 8013   4.061   2.623   2.511  0.1310 -0.2232 -0.0078
  556SOL    HW1 8014   4.105   2.539   2.498  4.8425  1.7635  1.0716
  556SOL    HW2 8015   4.017   2.614   2.596  1.1112 -1.4320  0.3993
  557SOL     OW 8016   8.744   0.856   7.566 -0.4905  1.2096 -0.2104
  557SOL    HW1 8017   8.733   0.951   7.565  1.0408  1.4273  0.2295
  557SOL    HW2 8018   8.838   0.844   7.581 -0.6166 -0.3753 -0.5921
  558SOL     OW 8019   6.403   6.176   4.542 -0.4972 -0.6197 -0.0993
  558SOL    HW1 8020   6.481   6.212   4.585 -1.8862 -0.0878  2.1757
  558SOL    HW2 8021   6.395   6.088   4.578  0.4422 -1.7073 -2.3403
  559SOL     OW 8022   2.008   8.498   8.331 -0.3534  0.2056  0.4266
  559SOL    HW1 8023   1.977   8.516   8.420 -0.8219 -0.2787  0.3673
  559SOL    HW2 8024   2.060   8.575   8.308 -0.3559  0.4054  1.0598
  560SOL     OW 8025   4.426   8.837   7.613 -0.0544 -0.6351  0.0149
  560SOL    HW1 8026   4.394   8.769   7.672 -0.0088 -0.9128 -0.2785
  560SOL    HW2 8027   4.521   8.824   7.611 -0.1164 -1.0548 -0.6351
  561SOL     OW 8028   8.596   8.393   0.688  0.4222  0.2937  0.4479
  561SOL    HW1 8029   8.654   8.333   0.640  0.4749  0.1180  0.7299
  561SOL    HW2 8030   8.603   8.365   0.779  0.7623  0.9953  0.6359
  562SOL     OW 8031   5.563   2.847   1.836 -0.6032 -0.1814  0.5310
  562SOL    HW1 8032   5.491   2.843   1.774 -1.0032 -0.9821  1.0350
  562SOL    HW2 8033   5.605   2.932   1.819 -0.8121 -0.3154 -0.6934
  563SOL     OW 8034   5.211   2.075   6.340  0.0438  0.0381  0.1703
  563SOL    HW1 8035   5.246   2.147   6.393 -0.5415 -0.5133  1.3418
  563SOL    HW2 8036   5.287   2.021   6.319  0.1910 -0.1598  1.1393
  564SOL     OW 8037   8.760   6.784   7.309 -0.4476 -0.3310 -0.3892
  564SOL    HW1 8038   8.830   6.727   7.276  2.4967  1.4125  2.2295
  564SOL    HW2 8039   8.737   6.747   7.394 -0.8985  0.4990 -0.1422
  565SOL     OW 8040   4.626   5.846   2.296  0.5429 -0.1055  0.2473
  565SOL    HW1 8041   4.721   5.840   2.297  0.5523 -0.0991 -0.1909
  565SOL    HW2 8042   4.608   5.925   2.245  0.3211  0.4564  1.1716
  566SOL     OW 8043   5.328   6.851   6.464 -0.3809 -0.2253  0.1651
  566SOL    HW1 8044   5.233   6.843   6.454 -0.3074 -1.0957  0.0195
  566SOL    HW2 8045   5.361   6.765   6.438  0.5309  0.3910 -0.7627
  567SOL     OW 8046   7.647   3.369   5.432  1.1961  0.0943  0.2374
  567SOL    HW1 8047   7.667   3.462   5.444  0.7936  0.3698 -1.0717
  567SOL    HW2 8048   7.728   3.323   5.452  1.6001  0.7869  0.1957
  568SOL     OW 8049   8.245   0.021   4.193 -0.3616 -0.6010  0.4846
  568SOL    HW1 8050   8.221   0.020   4.101  0.6535  1.5425  0.1394
  568SOL    HW2 8051   8.338  -0.004   4.194  0.1946  1.3007  0.6523
  569SOL     OW 8052   8.313   1.598   5.592  0.7186 -0.6874 -0.6954
  569SOL    HW1 8053   8.306   1.503   5.601 -0.3913 -0.5704 -0.1189
  569SOL    HW2 8054   8.391   1.621   5.643 -0.4680 -1.0420  1.4473
  570SOL     OW 8055   0.919   5.290   9.101  0.1714  0.1623 -0.0887
  570SOL    HW1 8056   0.950   5.333   9.022  0.1227 -0.3432 -0.3852
  570SOL    HW2 8057   0.891   5.203   9.072  3.5152 -1.4553  0.9895
  571SOL     OW 8058   9.045   8.614   3.214  0.1436  0.1749  0.5662
  571SOL    HW1 8059   9.083   8.697   3.241  0.4930 -0.0370  0.7475
  571SOL    HW2 8060   9.095   8.548   3.263 -0.1866 -0.1344  0.4924
  572SOL     OW 8061   2.049   5.666   9.081 -0.3723 -0.0264  0.7041
  572SOL    HW1 8062   2.099   5.585   9.073 -0.7700 -0.0863 -1.9223
  572SOL    HW2 8063   1.959   5.640   9.059 -0.1022  1.4615 -2.7890
  573SOL     OW 8064   1.809   1.371   7.544 -0.2232 -0.0521  0.0165
  573SOL    HW1 8065   1.769   1.324   7.471  1.7816 -1.8737 -0.0179
  573SOL    HW2 8066   1.808   1.307   7.616  1.1938  0.3735  0.4357
  574SOL     OW 8067   8.741   6.083   0.502  0.2056  0.0311 -0.0173
  574SOL    HW1 8068   8.821   6.128   0.530  0.2061 -1.0605  1.9527
  574SOL    HW2 8069   8.690   6.074   0.583 -0.3171 -2.4090 -0.5525
  575SOL     OW 8070   6.430   8.072   6.498 -0.3887  0.1721 -0.7748
  575SOL    HW1 8071   6.371   8.059   6.572 -0.5306  1.2680 -0.6806
  575SOL    HW2 8072   6.481   8.149   6.521 -0.0329  0.1818 -1.5609
  576SOL     OW 8073   9.065   5.000   0.496  0.2093  0.4446 -0.6238
  576SOL    HW1 8074   9.039   4.920   0.541 -0.6585  1.8167  1.4775
  576SOL    HW2 8075   9.133   5.038   0.552  1.4349  0.6369 -2.1791
  577SOL     OW 8076   8.048   2.074   8.904  0.0376  0.1385 -0.2459
  577SOL    HW1 8077   8.038   1.980   8.916 -1.2951  0.3114  0.1925
  577SOL    HW2 8078   8.104   2.102   8.977 -0.0027 -0.2316 -0.0702
  578SOL     OW 8079   7.611   1.512   6.458  0.0969  0.9437 -0.2119
  578SOL    HW1 8080   7.572   1.443   6.404 -0.2948  1.6600 -0.8535
  578SOL    HW2 8081   7.553   1.587   6.447  1.9424  2.2348 -1.6649
  579SOL     OW 8082   6.810   1.470   7.282 -0.1778 -0.4908 -0.0927
  579SOL    HW1 8083   6.808   1.543   7.343 -0.6518  0.6587 -1.4350
  579SOL    HW2 8084   6.803   1.510   7.195 -2.1740 -2.2077 -0.8128
  580SOL     OW 8085   3.967   2.427   2.204  0.4116 -0.1719  0.3728
  580SOL    HW1 8086   3.968   2.481   2.125 -1.4192 -0.9829 -0.2731
  580SOL    HW2 8087   4.043   2.456   2.255  1.0757  1.0356 -1.2298
  581SOL     OW 8088   0.400   8.578   5.329 -0.2303  0.5738 -0.2878
  581SOL    HW1 8089   0.334   8.551   5.265  1.4241 -0.0951 -1.8003
  581SOL    HW2 8090   0.437   8.658   5.293 -0.8092  1.4510  1.0099
  582SOL     OW 8091   2.844   4.878   4.500  0.8145 -0.2871  0.2520
  582SOL    HW1 8092   2.824   4.839   4.415 -0.3525  2.2191 -0.7010
  582SOL    HW2 8093   2.761   4.874   4.548  0.6043  1.1997  0.0363
  583SOL     OW 8094   2.712   2.831   8.318 -0.1639 -0.2108 -0.0819
  583SOL    HW1 8095   2.630   2.818   8.366 -0.5808  1.8397 -0.1671
  583SOL    HW2 8096   2.740   2.919   8.341  2.0980 -0.8846  0.0009
  584SOL     OW 8097   2.968   5.905   2.491  0.0724 -0.9059  0.1822
  584SOL    HW1 8098   2.874   5.890   2.491  0.0190 -0.6185 -0.4621
  584SOL    HW2 8099   2.984   5.957   2.412  0.1744  2.6523  2.3104
  585SOL     OW 8100   0.714   5.800   5.679 -0.1871 -0.2727 -0.3998
  585SOL    HW1 8101   0.637   5.747   5.657 -0.1202  0.8278 -4.0060
  585SOL    HW2 8102   0.680   5.876   5.725 -1.2164 -0.0487 -1.5043
  586SOL     OW 8103   0.534   3.175   6.052 -0.2236  0.4505 -0.0304
  586SOL    HW1 8104   0.439   3.164   6.048 -0.3128  0.6216  1.2918
  586SOL    HW2 8105   0.546   3.269   6.066  0.1675  0.5199 -0.7996
  587SOL     OW 8106   8.359   5.152   0.276 -0.4413  0.7034 -0.1556
  587SOL    HW1 8107   8.358   5.193   0.362 -0.1576  0.0005  0.1837
  587SOL    HW2 8108   8.435   5.189   0.232  1.6884 -1.7042  1.2725
  588SOL     OW 8109   8.432   8.990   1.711  0.1219 -0.1883 -0.0990
  588SOL    HW1 8110   8.401   8.940   1.636  0.2049 -1.2892  0.5769
  588SOL    HW2 8111   8.527   8.981   1.709  0.2924  1.4253 -0.9614
  589SOL     OW 8112   4.770   6.197   0.877  0.2230  0.0832  0.0818
  589SOL    HW1 8113   4.714   6.122   0.896 -1.8037  1.4984  0.0984
  589SOL    HW2 8114   4.767   6.205   0.781  1.2672 -0.4236 -0.0079
  590SOL     OW 8115   0.947   0.857   5.886 -0.2916  0.1986 -0.5110
  590SOL    HW1 8116   0.941   0.951   5.868 -0.8651  0.3853  0.5702
  590SOL    HW2 8117   0.860   0.824   5.867 -2.2695  1.0667  5.1632
  591SOL     OW 8118   5.363   1.897   3.584 -0.2019  0.0255 -0.3353
  591SOL    HW1 8119   5.386   1.979   3.541 -1.4987  0.7863  0.3608
  591SOL    HW2 8120   5.442   1.872   3.633  0.2462  0.7833 -0.6639
  592SOL     OW 8121   5.051   6.989   6.276 -0.1747  0.2957 -0.1482
  592SOL    HW1 8122   5.040   6.943   6.359  0.9455 -1.7081 -1.0550
  592SOL    HW2 8123   5.076   7.078   6.302  3.7038 -1.1176  1.7784
  593SOL     OW 8124   7.192   5.832   2.402  0.3987  0.1072  0.1944
  593SOL    HW1 8125   7.271   5.793   2.365  0.3549 -0.8406  1.0695
  593SOL    HW2 8126   7.208   5.926   2.401  1.2322 -0.0360 -0.3127
  594SOL     OW 8127   6.936   6.296   6.849  0.0833  0.2047  0.1523
  594SOL    HW1 8128   6.998   6.364   6.876  0.5603 -0.8407  1.8038
  594SOL    HW2 8129   6.851   6.325   6.883  0.4059 -0.3352  1.4510
  595SOL     OW 8130   5.425   4.968   6.324  0.0493  0.2043  0.1610
  595SOL    HW1 8131   5.469   5.052   6.337  0.1622 -0.0208  1.3889
  595SOL    HW2 8132   5.407   4.964   6.230  1.8526  0.6866 -0.2389
  596SOL     OW 8133   3.095   1.950   2.231  0.6868 -0.3860 -0.1627
  596SOL    HW1 8134   3.057   2.029   2.194 -0.3597 -1.1382 -0.7701
  596SOL    HW2 8135   3.189   1.960   2.219  0.4586  0.0217 -1.7502
  597SOL     OW 8136   5.821   2.063   2.512 -0.2453 -0.2366  0.1500
  597SOL    HW1 8137   5.772   1.981   2.509 -1.7378  0.6351 -0.7957
  597SOL    HW2 8138   5.849   2.078   2.422 -3.5641  2.2693 -0.6309
  598SOL     OW 8139   0.450   4.192   4.090  0.1734  0.0069 -0.4845
  598SOL    HW1 8140   0.411   4.150   4.014  1.5717 -0.5267 -0.9419
  598SOL    HW2 8141   0.415   4.281   4.090 -2.0554 -0.8012 -0.0883
  599SOL     OW 8142   3.105   1.168   1.435 -0.0626 -0.4953  0.4979
  599SOL    HW1 8143   3.063   1.245   1.394  0.2442 -0.6136 -0.0470
  599SOL    HW2 8144   3.164   1.135   1.368 -0.1283 -1.1611  0.7681
  600SOL     OW 8145   6.476   0.866   0.072 -0.0194  0.2941  0.0038
  600SOL    HW1 8146   6.487   0.789   0.017 -2.0801 -1.1450  1.4599
  600SOL    HW2 8147   6.517   0.843   0.155 -1.1364  0.5145  0.6367
  601SOL     OW 8148   0.101   4.879   0.946  0.0546  0.4982  0.2185
  601SOL    HW1 8149   0.187   4.864   0.986  1.2465  2.4802 -1.3687
  601SOL    HW2 8150   0.115   4.864   0.853 -1.2825  1.0108 -0.0864
  602SOL     OW 8151   9.036   7.779   5.656 -0.5361  0.1791  0.5478
  602SOL    HW1 8152   9.042   7.872   5.681  0.6122  0.6794 -1.3650
  602SOL    HW2 8153   9.073   7.732   5.730  1.4765  1.4693  0.4359
  603SOL     OW 8154   6.708   2.060   7.413 -0.1489 -0.3436  0.5477
  603SOL    HW1 8155   6.687   2.037   7.504  1.3621  0.3915  1.0989
  603SOL    HW2 8156   6.658   2.140   7.397 -0.8533 -0.7704  0.5199
  604SOL     OW 8157   6.107   7.380   9.111 -0.1582  0.6417 -0.2748
  604SOL    HW1 8158   6.153   7.441   9.170  0.2555 -0.4881  0.6032
  604SOL    HW2 8159   6.176   7.345   9.055 -0.5812  1.8711 -1.6320
  605SOL     OW 8160   5.019   3.136   5.567  0.0273  0.2888  0.0169
  605SOL    HW1 8161   4.975   3.213   5.602  0.8908 -0.0362  1.9374
  605SOL    HW2 8162   4.982   3.062   5.616 -0.3727 -0.4789 -1.3889
  606SOL     OW 8163   2.248   6.913   0.722 -0.2947 -0.0073  0.1320
  606SOL    HW1 8164   2.225   6.847   0.787  0.9362  1.7632  2.5162
  606SOL    HW2 8165   2.185   6.983   0.736  0.9323  1.0526  0.5313
  607SOL     OW 8166   0.539   2.443   1.539 -0.2619  0.2254 -0.5428
  607SOL    HW1 8167   0.503   2.446   1.451  0.2193 -0.3477 -0.7691
  607SOL    HW2 8168   0.599   2.368   1.538 -1.4157 -0.7661  0.7158
  608SOL     OW 8169   7.261   6.523   7.934  0.2625 -0.6226  0.3684
  608SOL    HW1 8170   7.183   6.470   7.948  0.4930 -0.6711  1.5924
  608SOL    HW2 8171   7.231   6.614   7.943 -0.2151 -0.4787 -2.1452
  609SOL     OW 8172   5.466   4.016   7.654 -0.1654  0.3311 -0.5160
  609SOL    HW1 8173   5.380   3.974   7.658 -0.8426  1.7051  1.8605
  609SOL    HW2 8174   5.487   4.036   7.746  1.8854  1.6207 -1.1885
  610SOL     OW 8175   0.989   6.344   6.228 -0.4376  0.1753  0.0411
  610SOL    HW1 8176   1.025   6.345   6.139 -0.9797  0.0187 -0.1850
  610SOL    HW2 8177   1.053   6.296   6.280 -0.2043  0.1110 -0.3074
  611SOL     OW 8178   5.371   9.118   4.546  0.1474 -0.2152 -0.6523
  611SOL    HW1 8179   5.333   9.159   4.623  1.9015  2.1706 -0.9718
  611SOL    HW2 8180   5.385   9.027   4.572  1.6788  0.7381  2.2668
  612SOL     OW 8181   5.695   0.709   3.369  0.7145  0.5420  0.0957
  612SOL    HW1 8182   5.714   0.617   3.385  0.3227  0.8005  2.4514
  612SOL    HW2 8183   5.781   0.751   3.364  0.9152  0.3614  1.4641
  613SOL     OW 8184   8.614   2.150   7.781 -0.6249  0.4980 -0.1874
  613SOL    HW1 8185   8.524   2.122   7.765  0.2159 -1.3646 -2.2379
  613SOL    HW2 8186   8.651   2.081   7.835 -0.1427  0.6906 -0.2646
  614SOL     OW 8187   0.908   5.252   7.286  0.8506  0.2839  0.5053
  614SOL    HW1 8188   0.870   5.173   7.248 -0.6603  1.8907 -1.5308
  614SOL    HW2 8189   0.967   5.219   7.355 -1.3560 -2.4959  1.2481
  615SOL     OW 8190   5.884   0.232   4.495  0.2770  0.2344 -0.0482
  615SOL    HW1 8191   5.847   0.192   4.416 -1.2218  1.2435  0.1237
  615SOL    HW2 8192   5.838   0.190   4.568 -0.9883  1.8709  0.1500
  616SOL     OW 8193   2.709   8.088   6.674  0.1771  0.3905  0.1000
  616SOL    HW1 8194   2.659   8.132   6.604 -1.6060  0.4539  1.3405
  616SOL    HW2 8195   2.783   8.147   6.690 -0.2547  1.1765 -0.6585
  617SOL     OW 8196   0.964   6.332   6.599 -0.5376  0.8299 -0.5695
  617SOL    HW1 8197   1.037   6.295   6.549 -0.3185 -0.0011  0.3540
  617SOL    HW2 8198   1.006   6.381   6.670 -0.8773  0.4884 -0.1322
  618SOL     OW 8199   5.515   5.958   0.640 -0.0662  0.1693 -0.1400
  618SOL    HW1 8200   5.580   5.964   0.711 -1.6480 -0.7054  1.4629
  618SOL    HW2 8201   5.459   6.035   0.653 -0.4960 -0.1160 -0.2975
  619SOL     OW 8202   8.332   2.504   3.632  0.2033 -0.5541  0.0907
  619SOL    HW1 8203   8.321   2.506   3.536  0.2022 -1.4347  0.0639
  619SOL    HW2 8204   8.244   2.520   3.666 -0.0720 -1.6635 -0.0754
  620SOL     OW 8205   7.723   2.004   0.372  0.2665  0.1181 -0.0756
  620SOL    HW1 8206   7.634   1.999   0.337  0.9845 -1.3054 -1.9097
  620SOL    HW2 8207   7.749   2.095   0.358 -0.9163  0.5682  0.5617
  621SOL     OW 8208   3.898   5.740   4.081  0.1480 -0.4483  0.1605
  621SOL    HW1 8209   3.973   5.765   4.027  0.7274 -1.0149  0.6844
  621SOL    HW2 8210   3.933   5.733   4.170 -0.9940  1.4559  0.8234
  622SOL     OW 8211   8.445   3.198   4.191 -0.0289  0.2461 -0.1068
  622SOL    HW1 8212   8.466   3.108   4.167  0.5136  0.3376  0.0170
  622SOL    HW2 8213   8.528   3.236   4.220 -0.5380  0.3336  1.2995
  623SOL     OW 8214   1.779   8.942   2.539  0.0055  0.3678  0.1143
  623SOL    HW1 8215   1.863   8.938   2.585 -0.8442  1.3964  1.8743
  623SOL    HW2 8216   1.742   8.855   2.548  0.1564  0.3690  0.8422
  624SOL     OW 8217   7.171   1.273   4.757  0.0113 -0.5440  0.1160
  624SOL    HW1 8218   7.157   1.367   4.749  1.9620 -0.1947  0.3467
  624SOL    HW2 8219   7.084   1.238   4.777 -0.8582  1.1213 -0.4721
  625SOL     OW 8220   7.694   4.193   6.670 -0.1802  0.1182 -0.1893
  625SOL    HW1 8221   7.752   4.269   6.678  0.3610 -0.4124  1.3432
  625SOL    HW2 8222   7.606   4.230   6.672  0.0613  0.6923  1.4090
  626SOL     OW 8223   0.079   6.466   5.473  0.2263 -0.2059 -0.2429
  626SOL    HW1 8224  -0.014   6.481   5.489  0.1856  0.2408 -0.8630
  626SOL    HW2 8225   0.123   6.539   5.516  0.0584  1.5632 -2.8244
  627SOL     OW 8226   3.847   2.761   3.590 -0.0149 -0.5113 -0.2565
  627SOL    HW1 8227   3.804   2.680   3.561  0.5493 -1.7347  2.1062
  627SOL    HW2 8228   3.940   2.746   3.572 -0.1335  0.8439 -2.4122
  628SOL     OW 8229   2.986   6.751   4.384  0.0151 -0.2069 -0.1474
  628SOL    HW1 8230   2.895   6.779   4.385  0.3376  0.8678  0.8481
  628SOL    HW2 8231   3.031   6.811   4.444  1.8555  0.8871 -2.4437
  629SOL     OW 8232   0.345   2.879   0.954 -0.0755  0.6890 -0.1581
  629SOL    HW1 8233   0.437   2.884   0.980  0.3720  2.5863 -1.8711
  629SOL    HW2 8234   0.341   2.808   0.891  0.9226  2.4763 -2.3710
  630SOL     OW 8235   3.901   3.886   0.366 -0.2720 -0.4160  0.1784
  630SOL    HW1 8236   3.887   3.951   0.297 -2.2444 -1.7063 -0.7376
  630SOL    HW2 8237   3.909   3.803   0.319  3.0159 -0.8447  1.2463
  631SOL     OW 8238   6.936   0.575   5.352 -0.1551  0.3042  0.6044
  631SOL    HW1 8239   6.962   0.666   5.343 -0.1954  0.3747  1.1536
  631SOL    HW2 8240   6.984   0.544   5.429  1.1692 -0.6201 -0.5132
  632SOL     OW 8241   4.817   0.143   1.343 -0.7400 -0.0243 -0.6151
  632SOL    HW1 8242   4.859   0.118   1.426 -2.2437 -0.7798 -0.0509
  632SOL    HW2 8243   4.841   0.073   1.282  0.4341  0.5724 -0.8735
  633SOL     OW 8244   5.100   7.195   6.449  0.0018 -0.3203 -0.1627
  633SOL    HW1 8245   5.071   7.164   6.535 -0.8225 -0.0501 -0.3289
  633SOL    HW2 8246   5.169   7.258   6.469 -0.7443  0.3641  0.3606
  634SOL     OW 8247   6.371   4.507   3.243  0.0623  0.0031  0.3663
  634SOL    HW1 8248   6.320   4.581   3.274  0.5449  0.8293 -0.7430
  634SOL    HW2 8249   6.373   4.517   3.148  2.6960  0.3396  0.3627
  635SOL     OW 8250   0.911   8.039   7.094 -0.8104  0.5002  0.5474
  635SOL    HW1 8251   0.873   8.064   7.179 -0.6940 -0.2115  0.8106
  635SOL    HW2 8252   0.870   7.955   7.073  0.1457  0.0338  0.5255
  636SOL     OW 8253   6.735   0.710   9.068 -0.1798 -0.2365 -0.1994
  636SOL    HW1 8254   6.770   0.627   9.034  0.2905  0.0904 -0.5266
  636SOL    HW2 8255   6.722   0.695   9.162 -0.5670 -0.8360 -0.3418
  637SOL     OW 8256   1.335   1.041   8.941 -0.6182  0.2312 -0.5950
  637SOL    HW1 8257   1.354   1.135   8.949 -2.4624  0.6662 -0.9540
  637SOL    HW2 8258   1.250   1.030   8.982 -0.4746 -1.2893 -0.6524
  638SOL     OW 8259   2.004   6.717   8.948 -1.0661  0.7059  0.3004
  638SOL    HW1 8260   1.998   6.626   8.977  0.0636  0.3289 -0.5945
  638SOL    HW2 8261   2.077   6.718   8.886 -1.9037  1.9624 -0.7103
  639SOL     OW 8262   8.951   5.244   2.925 -0.3024 -0.1072  0.2961
  639SOL    HW1 8263   8.995   5.166   2.892  1.2293  1.0847 -0.6683
  639SOL    HW2 8264   9.012   5.315   2.906 -0.8820  1.1300  2.6419
  640SOL     OW 8265   2.194   5.664   2.902  0.2148  0.0119  0.0881
  640SOL    HW1 8266   2.163   5.616   2.979  1.6635 -1.1878 -0.0248
  640SOL    HW2 8267   2.127   5.649   2.836 -0.8005  0.6345  0.9626
  641SOL     OW 8268   6.794   5.723   4.486  0.1542 -0.2241  0.1818
  641SOL    HW1 8269   6.793   5.818   4.499  2.4737 -0.1398  0.2521
  641SOL    HW2 8270   6.744   5.688   4.559 -1.1133  0.9500 -0.0838
  642SOL     OW 8271   1.112   0.707   4.875 -0.1601  0.2157  0.1121
  642SOL    HW1 8272   1.123   0.627   4.925 -0.1555  0.1200 -0.0437
  642SOL    HW2 8273   1.031   0.694   4.825  0.9663 -0.5845 -1.6019
  643SOL     OW 8274   0.748   6.538   0.571 -0.5701 -0.2791  0.0981
  643SOL    HW1 8275   0.745   6.631   0.594 -1.3432 -0.2883  0.0716
  643SOL    HW2 8276   0.824   6.504   0.617  0.8189  0.7474 -1.3588
  644SOL     OW 8277   7.046   0.762   2.389  0.1713 -0.4371 -1.0978
  644SOL    HW1 8278   7.065   0.708   2.466 -0.2394  0.1404 -0.5837
  644SOL    HW2 8279   7.104   0.838   2.399 -0.8265  0.2825 -0.6549
  645SOL     OW 8280   6.150   9.008   7.812 -0.1095  0.2295 -0.1068
  645SOL    HW1 8281   6.059   8.981   7.802 -0.1660  0.1263  0.6042
  645SOL    HW2 8282   6.160   9.025   7.906  0.9445 -1.0742  0.0616
  646SOL     OW 8283   1.566   2.155   7.297 -0.7592  0.0730  0.0911
  646SOL    HW1 8284   1.497   2.221   7.311  0.8539  1.4596  2.0405
  646SOL    HW2 8285   1.547   2.086   7.360 -1.6357 -0.7114 -0.9827
  647SOL     OW 8286   5.260   1.845   4.001 -0.2292 -0.1134 -0.0930
  647SOL    HW1 8287   5.244   1.813   4.090  0.0310  1.3385  0.5051
  647SOL    HW2 8288   5.255   1.940   4.009  0.0637  0.0446 -1.5914
  648SOL     OW 8289   5.518   2.865   8.452 -0.1307 -0.1750 -0.4425
  648SOL    HW1 8290   5.449   2.897   8.510  0.9632 -1.4122  1.7106
  648SOL    HW2 8291   5.567   2.943   8.427 -0.5524  0.3882  0.4348
  649SOL     OW 8292   7.550   6.088   2.635 -0.0840 -0.7880 -0.0907
  649SOL    HW1 8293   7.564   6.017   2.573 -2.0105 -0.3012 -1.1537
  649SOL    HW2 8294   7.592   6.164   2.595 -2.1746 -0.2314 -1.3995
  650SOL     OW 8295   8.095   2.897   8.767 -0.0249  0.0746 -0.2165
  650SOL    HW1 8296   8.068   2.849   8.846  0.6336 -0.4869 -0.3182
  650SOL    HW2 8297   8.176   2.853   8.740 -0.6236 -0.2156 -1.6216
  651SOL     OW 8298   0.455   3.247   0.503  0.5238  0.2746  0.2247
  651SOL    HW1 8299   0.418   3.296   0.576 -0.3963 -0.8147  0.5176
  651SOL    HW2 8300   0.434   3.156   0.522  2.9359 -0.3668  0.1369
  652SOL     OW 8301   5.608   1.080   8.766 -0.6229 -0.3930  0.7234
  652SOL    HW1 8302   5.586   1.137   8.840 -1.1113 -0.0879  0.3470
  652SOL    HW2 8303   5.691   1.039   8.792 -0.3200  0.3928  1.0541
  653SOL     OW 8304   3.929   7.756   1.989 -0.4837 -0.0854  0.1723
  653SOL    HW1 8305   3.970   7.842   2.001 -1.4025  0.1193  2.4378
  653SOL    HW2 8306   4.002   7.697   1.968  0.2703  1.0783 -0.6040
  654SOL     OW 8307   5.110   1.560   8.058  0.4923 -0.6553 -0.3342
  654SOL    HW1 8308   5.122   1.465   8.061 -0.2101 -0.7777  3.0202
  654SOL    HW2 8309   5.021   1.572   8.027  0.4177 -1.1119 -0.3040
  655SOL     OW 8310   6.371   7.410   7.862  0.5528 -0.1522  0.0313
  655SOL    HW1 8311   6.401   7.330   7.818  0.5183  0.4035 -1.0287
  655SOL    HW2 8312   6.449   7.443   7.907  0.7047 -0.4852  0.0173
  656SOL     OW 8313   5.126   7.504   1.843  0.5114  0.0203  0.4942
  656SOL    HW1 8314   5.188   7.522   1.913  1.6064  1.0433 -0.6797
  656SOL    HW2 8315   5.042   7.495   1.888  0.9125  2.0802  1.8449
  657SOL     OW 8316   0.316   4.049   5.261 -0.9393 -0.0794  0.0452
  657SOL    HW1 8317   0.323   3.954   5.247 -1.7756  0.0689 -1.6121
  657SOL    HW2 8318   0.365   4.065   5.342  0.1947 -1.7631 -0.2522
  658SOL     OW 8319   8.893   5.022   3.585  0.4670 -0.2391 -0.0844
  658SOL    HW1 8320   8.800   5.045   3.588  0.4637  0.3221 -2.4705
  658SOL    HW2 8321   8.897   4.932   3.616 -1.1718 -0.9470 -1.7530
  659SOL     OW 8322   2.392   2.151   3.439 -0.1891 -0.2803 -0.1972
  659SOL    HW1 8323   2.345   2.074   3.408  0.9655 -0.3291 -1.9639
  659SOL    HW2 8324   2.385   2.147   3.534  0.0873 -2.7260 -0.2168
  660SOL     OW 8325   9.138   1.881   8.621  0.0373  0.1951 -0.3653
  660SOL    HW1 8326   9.159   1.936   8.696  0.7875 -0.6028  0.0264
  660SOL    HW2 8327   9.120   1.943   8.550 -1.3601  0.9659  0.6379
  661SOL     OW 8328   7.810   5.886   4.477 -0.0757  0.3487 -0.2924
  661SOL    HW1 8329   7.886   5.863   4.423  0.0404  0.0733 -0.0175
  661SOL    HW2 8330   7.844   5.951   4.538  0.2782 -0.6944  0.6679
  662SOL     OW 8331   1.792   3.123   7.159 -0.1231 -0.0672  0.7071
  662SOL    HW1 8332   1.772   3.209   7.120  0.2591 -0.2991 -0.0197
  662SOL    HW2 8333   1.799   3.141   7.252 -0.3917  0.6337  0.6019
  663SOL     OW 8334   7.459   6.309   8.022  0.8246  0.0468  0.5603
  663SOL    HW1 8335   7.542   6.283   7.982  0.1781  1.6542 -2.0793
  663SOL    HW2 8336   7.460   6.405   8.019 -1.3572  0.1084 -0.0805
  664SOL     OW 8337   6.603   4.669   1.070  0.0540 -0.1393  0.2244
  664SOL    HW1 8338   6.531   4.730   1.090 -0.2422 -0.5586  0.4457
  664SOL    HW2 8339   6.572   4.584   1.101 -0.2482 -0.7415 -1.5952
  665SOL     OW 8340   2.278   8.180   8.444 -0.1949  0.5259 -0.0099
  665SOL    HW1 8341   2.343   8.217   8.383  1.5731 -2.3122 -0.0277
  665SOL    HW2 8342   2.316   8.194   8.530 -1.4300  2.1520  0.3221
  666SOL     OW 8343   4.743   9.185   8.566 -0.5174  0.2048  0.1847
  666SOL    HW1 8344   4.765   9.270   8.529 -0.8942  1.7268  3.1794
  666SOL    HW2 8345   4.827   9.140   8.577  0.1124  1.6350  1.6886
  667SOL     OW 8346   0.468   1.496   7.087  0.3174  0.0244 -0.0833
  667SOL    HW1 8347   0.531   1.549   7.137  1.3633 -1.3139  0.0817
  667SOL    HW2 8348   0.445   1.425   7.146  0.3810 -0.7367 -0.9589
  668SOL     OW 8349   7.501   9.048   2.926 -0.0506 -0.6268  0.2876
  668SOL    HW1 8350   7.519   8.961   2.891 -0.2685 -0.3637 -0.4904
  668SOL    HW2 8351   7.412   9.068   2.898  0.0354 -0.1085  0.3670
  669SOL     OW 8352   1.220   7.791   0.616  0.3318 -0.7723  0.1953
  669SOL    HW1 8353   1.281   7.746   0.558 -1.6907 -0.3805 -2.4363
  669SOL    HW2 8354   1.247   7.882   0.614 -0.0788 -0.6621 -0.6549
  670SOL     OW 8355   7.928   0.310   8.052  0.2220 -0.0069  0.2453
  670SOL    HW1 8356   7.927   0.379   8.119 -0.6356  0.0567  0.1744
  670SOL    HW2 8357   7.916   0.356   7.969 -0.0238 -0.2059  0.1676
  671SOL     OW 8358   9.082   8.097   0.282 -0.4187  0.2687 -0.0151
  671SOL    HW1 8359   9.058   8.033   0.215  0.8172 -1.5162  1.1350
  671SOL    HW2 8360   9.163   8.063   0.320  1.0847  3.2656 -0.2360
  672SOL     OW 8361   6.528   8.718   7.141  0.2064 -0.2917 -1.0348
  672SOL    HW1 8362   6.606   8.686   7.096  0.8730 -0.9436  0.5197
  672SOL    HW2 8363   6.488   8.639   7.179 -0.4379  0.2097 -0.6551
  673SOL     OW 8364   2.417   2.527   6.145 -0.2356  0.1325 -0.2095
  673SOL    HW1 8365   2.422   2.432   6.156  0.9522  0.1991 -0.0098
  673SOL    HW2 8366   2.433   2.541   6.051 -2.2996  0.0487 -0.6209
  674SOL     OW 8367   8.813   7.500   6.928  0.4595 -0.3260 -0.1013
  674SOL    HW1 8368   8.829   7.444   7.004 -0.0957 -1.3917 -0.7499
  674SOL    HW2 8369   8.839   7.448   6.853  3.6861  1.7152 -0.5734
  675SOL     OW 8370   6.236   2.191   2.308  0.6241  0.2748  0.5720
  675SOL    HW1 8371   6.142   2.187   2.292  0.6544 -0.8604  0.5992
  675SOL    HW2 8372   6.245   2.179   2.403  0.9189 -2.6282  0.2446
  676SOL     OW 8373   9.200   1.505   5.682  0.3740 -0.0941 -0.0363
  676SOL    HW1 8374   9.176   1.466   5.766 -2.2641  0.7908 -0.2839
  676SOL    HW2 8375   9.206   1.431   5.622 -2.0876 -0.4634  0.0441
  677SOL     OW 8376   0.311   5.453   6.469  0.5297 -0.1981  0.1734
  677SOL    HW1 8377   0.222   5.485   6.455  0.9857  1.0333 -0.0114
  677SOL    HW2 8378   0.316   5.437   6.563  0.9429  2.4213  0.6620
  678SOL     OW 8379   3.802   5.451   4.235 -0.1672 -0.2295  0.7275
  678SOL    HW1 8380   3.753   5.515   4.183  0.4886  0.5172  1.0112
  678SOL    HW2 8381   3.838   5.502   4.308  0.0037 -1.0124  1.2045
  679SOL     OW 8382   5.329   0.040   8.507  0.2477 -0.0276  0.3695
  679SOL    HW1 8383   5.272   0.114   8.485 -0.7922 -0.3594  1.8684
  679SOL    HW2 8384   5.346  -0.002   8.422 -0.7000  0.8177 -0.2701
  680SOL     OW 8385   5.194   2.715   8.959 -0.0144 -0.5807 -0.1685
  680SOL    HW1 8386   5.255   2.763   9.016 -1.2239 -0.0029  0.6830
  680SOL    HW2 8387   5.201   2.759   8.874  0.2822 -0.0962  0.0995
  681SOL     OW 8388   2.733   0.451   4.103  0.0087  0.9681 -0.2560
  681SOL    HW1 8389   2.779   0.479   4.183 -0.2913  3.3540 -0.8199
  681SOL    HW2 8390   2.757   0.517   4.038 -2.6780  1.2476 -1.0929
  682SOL     OW 8391   4.477   1.890   1.664 -0.2357  0.3592  0.7109
  682SOL    HW1 8392   4.465   1.834   1.740  0.3705 -1.1390 -0.2522
  682SOL    HW2 8393   4.444   1.838   1.590 -0.2009  1.5066 -0.1477
  683SOL     OW 8394   8.940   2.458   8.300 -0.2012 -0.6056 -0.1613
  683SOL    HW1 8395   8.948   2.466   8.205 -0.8265 -0.5483 -0.2177
  683SOL    HW2 8396   8.870   2.520   8.323  0.5924  0.0913  0.4588
  684SOL     OW 8397   5.926   1.975   1.351  0.3650 -0.5950 -0.0398
  684SOL    HW1 8398   5.995   1.955   1.414 -1.3327 -0.3452  1.9899
  684SOL    HW2 8399   5.893   2.061   1.377 -0.3333 -0.4241 -1.3606
  685SOL     OW 8400   7.851   3.219   0.232  0.5624 -0.2049 -0.3933
  685SOL    HW1 8401   7.908   3.293   0.210  1.2392 -1.2412 -2.4260
  685SOL    HW2 8402   7.900   3.142   0.204 -0.4358 -1.3970  0.9810
  686SOL     OW 8403   5.225   6.979   3.015 -0.4774 -0.1070  0.3993
  686SOL    HW1 8404   5.172   6.930   3.078  1.2876 -0.1411  1.9527
  686SOL    HW2 8405   5.244   7.062   3.059  1.8612 -0.6343  0.5585
  687SOL     OW 8406   4.258   2.421   2.349  0.0072 -0.0104  0.2585
  687SOL    HW1 8407   4.316   2.345   2.354  1.2392  0.8274 -0.6508
  687SOL    HW2 8408   4.287   2.468   2.271 -0.8584  1.2827  0.6895
  688SOL     OW 8409   1.850   4.866   6.856 -0.5695 -0.1998 -0.1756
  688SOL    HW1 8410   1.815   4.807   6.921  0.4051  0.4545  0.9866
  688SOL    HW2 8411   1.927   4.906   6.898 -0.6116  1.1299 -1.2688
  689SOL     OW 8412   4.353   3.803   4.074  0.2043  0.0716 -0.2829
  689SOL    HW1 8413   4.266   3.819   4.036 -0.0909 -0.6185  0.0829
  689SOL    HW2 8414   4.372   3.883   4.123 -0.2843  0.1761 -0.2515
  690SOL     OW 8415   2.505   2.751   1.137  0.2580 -0.0096  0.5763
  690SOL    HW1 8416   2.487   2.771   1.045 -1.9175  1.4245  1.2260
  690SOL    HW2 8417   2.600   2.758   1.145  0.3514  1.8224 -1.1800
  691SOL     OW 8418   4.409   5.892   6.586 -0.8542 -0.1270  0.2969
  691SOL    HW1 8419   4.416   5.797   6.594  0.0151 -0.1490 -0.4607
  691SOL    HW2 8420   4.494   5.919   6.552 -1.6718  0.7187 -1.1930
  692SOL     OW 8421   2.481   4.890   2.709  0.3759 -0.1423 -0.4488
  692SOL    HW1 8422   2.451   4.853   2.626  1.4107  1.4500 -1.5850
  692SOL    HW2 8423   2.575   4.875   2.710  0.8231  2.3051 -0.9266
  693SOL     OW 8424   5.918   0.215   8.654  0.2652 -0.2352  0.2576
  693SOL    HW1 8425   5.966   0.217   8.571 -2.4546 -0.3868 -1.4574
  693SOL    HW2 8426   5.900   0.122   8.668 -0.4883 -0.0951  0.2484
  694SOL     OW 8427   8.821   2.629   7.027 -0.8678 -0.2407  0.8628
  694SOL    HW1 8428   8.864   2.700   7.075 -0.4711  0.2536 -0.1729
  694SOL    HW2 8429   8.750   2.673   6.979 -0.5928 -0.5154  0.1828
  695SOL     OW 8430   6.640   2.865   6.253 -0.1523 -0.1027 -0.0539
  695SOL    HW1 8431   6.678   2.945   6.217  0.6646  0.4015  1.7879
  695SOL    HW2 8432   6.646   2.877   6.348 -2.3886 -1.2442  0.2991
  696SOL     OW 8433   3.784   2.347   1.720  0.0210 -0.3465  0.2253
  696SOL    HW1 8434   3.869   2.360   1.679 -0.1448  0.2246  0.0577
  696SOL    HW2 8435   3.802   2.292   1.796  0.4850 -0.5155 -0.0028
  697SOL     OW 8436   8.681   9.203   5.710  0.0269  0.3084 -0.2796
  697SOL    HW1 8437   8.588   9.209   5.733  0.3004 -1.8964  1.8067
  697SOL    HW2 8438   8.685   9.234   5.619 -2.2899  2.9328  0.3498
  698SOL     OW 8439   8.960   7.289   6.774 -0.6609  0.0895  0.2391
  698SOL    HW1 8440   8.910   7.272   6.694 -1.1758 -0.5492  0.6919
  698SOL    HW2 8441   8.975   7.203   6.812  1.1795  0.1990 -0.1070
  699SOL     OW 8442   1.088   3.552   1.603  0.3999 -0.1363 -0.2998
  699SOL    HW1 8443   1.132   3.625   1.559 -0.5787  0.6356 -0.0409
  699SOL    HW2 8444   1.031   3.514   1.535 -1.1413  1.0803  0.2424
  700SOL     OW 8445   3.920   1.185   4.729 -0.0243 -0.5220 -0.0456
  700SOL    HW1 8446   3.931   1.234   4.810  0.9690 -2.8169  1.2908
  700SOL    HW2 8447   3.933   1.094   4.754 -0.0404 -1.3363 -2.7260
  701SOL     OW 8448   5.323   6.850   8.524  0.6339  0.3000 -0.6389
  701SOL    HW1 8449   5.238   6.806   8.522  0.2648  0.9496  0.3312
  701SOL    HW2 8450   5.310   6.926   8.581  1.2640  1.7045 -2.2844
  702SOL     OW 8451   3.778   3.470   9.002  0.0001  0.1046 -0.3806
  702SOL    HW1 8452   3.769   3.544   9.061  0.6487  2.4640 -3.0319
  702SOL    HW2 8453   3.859   3.487   8.954 -1.2533 -0.7723 -3.0211
  703SOL     OW 8454   3.831   3.428   6.053 -0.2340 -1.0475  0.5779
  703SOL    HW1 8455   3.744   3.468   6.051  0.7980  1.6805  2.7554
  703SOL    HW2 8456   3.826   3.361   6.121 -1.0630 -2.2016 -0.5901
  704SOL     OW 8457   4.355   7.686   8.725  0.0435  0.0274 -0.0729
  704SOL    HW1 8458   4.357   7.658   8.633  1.0820 -2.0053  0.5012
  704SOL    HW2 8459   4.364   7.605   8.775  0.9147  1.2054  1.8001
  705SOL     OW 8460   6.978   4.924   7.483  0.1352  0.5537 -0.2477
  705SOL    HW1 8461   7.043   4.962   7.542  0.1968 -0.8353  0.6310
  705SOL    HW2 8462   6.896   4.964   7.509  0.5867  2.3040 -1.3475
  706SOL     OW 8463   3.465   8.870   3.630  0.3349  0.0738 -0.4803
  706SOL    HW1 8464   3.527   8.877   3.703 -0.5312 -1.5858  0.4819
  706SOL    HW2 8465   3.404   8.944   3.644  0.1531 -0.2467  0.5314
  707SOL     OW 8466   3.316   2.653   4.008  0.2760 -0.4051 -0.7279
  707SOL    HW1 8467   3.281   2.577   3.962 -0.2467  0.1384 -1.2442
  707SOL    HW2 8468   3.265   2.659   4.089  0.1583 -0.4580 -0.7997
  708SOL     OW 8469   4.135   5.249   6.852  0.4666  0.7178 -0.0775
  708SOL    HW1 8470   4.160   5.292   6.934  0.1526  0.0476  0.3834
  708SOL    HW2 8471   4.043   5.226   6.864  1.1579 -2.0563  0.6363
  709SOL     OW 8472   1.564   0.527   7.784  0.1835  0.1576 -0.3312
  709SOL    HW1 8473   1.563   0.616   7.819 -0.2673  0.1365 -0.2791
  709SOL    HW2 8474   1.471   0.502   7.782  0.2164  0.0656 -1.2963
  710SOL     OW 8475   5.338   0.642   3.838 -0.0883 -0.8681  0.8511
  710SOL    HW1 8476   5.423   0.623   3.799 -0.2366 -2.3218  1.1506
  710SOL    HW2 8477   5.335   0.737   3.846  0.6418 -0.6527 -1.0569
  711SOL     OW 8478   2.608   5.844   2.537 -0.4715  0.4587 -0.0974
  711SOL    HW1 8479   2.639   5.815   2.622 -0.1092  0.5896 -0.1821
  711SOL    HW2 8480   2.524   5.798   2.525  1.1201 -2.4335 -1.2235
  712SOL     OW 8481   1.571   0.461   1.887 -0.2716  0.0046  0.1241
  712SOL    HW1 8482   1.575   0.506   1.972 -0.4938 -0.6120  0.4706
  712SOL    HW2 8483   1.505   0.393   1.899  1.4075 -1.7074  0.2698
  713SOL     OW 8484   2.637   2.596   1.941  0.5986  0.3757 -0.2498
  713SOL    HW1 8485   2.687   2.533   1.889  0.6035 -0.4378  0.7092
  713SOL    HW2 8486   2.683   2.679   1.929  0.8785  0.1055 -1.1414
  714SOL     OW 8487   1.493   1.440   7.258  0.2928 -0.2501  0.3049
  714SOL    HW1 8488   1.555   1.370   7.241  0.9025  0.3227  0.1292
  714SOL    HW2 8489   1.534   1.493   7.327  0.3539  0.5505 -0.3264
  715SOL     OW 8490   4.021   8.412   7.520  0.6301  0.3769 -0.0701
  715SOL    HW1 8491   4.078   8.403   7.443 -1.2139 -3.5415 -1.2268
  715SOL    HW2 8492   4.047   8.339   7.577 -0.9044  0.6193  0.9832
  716SOL     OW 8493   2.298   7.086   7.164  0.1805  0.4107  0.0125
  716SOL    HW1 8494   2.298   6.994   7.191 -2.8141  0.2010 -0.3659
  716SOL    HW2 8495   2.390   7.107   7.152  0.9961 -2.4143  0.4940
  717SOL     OW 8496   8.046   0.305   2.389 -0.0549  0.3944 -0.4981
  717SOL    HW1 8497   8.023   0.213   2.402  1.0155 -0.1716 -2.2137
  717SOL    HW2 8498   8.120   0.320   2.448  0.7627 -0.3180 -1.3106
  718SOL     OW 8499   3.689   1.051   3.450  0.2615 -0.6157  0.0564
  718SOL    HW1 8500   3.643   1.102   3.517  2.2760  1.9372 -0.3445
  718SOL    HW2 8501   3.723   0.974   3.497 -0.5552 -0.2114  1.3501
  719SOL     OW 8502   3.703   6.504   0.667 -0.1467  0.4397 -0.1945
  719SOL    HW1 8503   3.784   6.498   0.717 -0.4601 -1.1766  0.1951
  719SOL    HW2 8504   3.686   6.414   0.639 -0.8640  1.0477 -1.8118
  720SOL     OW 8505   0.258   0.113   9.215  0.3860  0.3476  0.0251
  720SOL    HW1 8506   0.253   0.131   9.309 -0.0221 -0.1204  0.0957
  720SOL    HW2 8507   0.213   0.187   9.174  0.9226  0.7601  0.1714
  721SOL     OW 8508   5.452   5.146   5.496  0.3197  0.4562 -0.0849
  721SOL    HW1 8509   5.363   5.180   5.488  0.3926  1.0449  1.4352
  721SOL    HW2 8510   5.443   5.069   5.552  0.3589 -1.3820 -2.4123
  722SOL     OW 8511   1.598   1.040   8.014 -0.5191  0.1315  0.0674
  722SOL    HW1 8512   1.590   0.972   8.082 -0.5036 -0.7399 -0.7846
  722SOL    HW2 8513   1.544   1.112   8.046 -0.9574 -0.4844  0.7458
  723SOL     OW 8514   0.362   3.444   8.421 -0.0987 -0.1377  0.0813
  723SOL    HW1 8515   0.334   3.530   8.452 -1.0500 -0.8688  1.3312
  723SOL    HW2 8516   0.453   3.437   8.447  0.0636  0.5877 -0.2645
  724SOL     OW 8517   5.087   8.169   5.856 -0.1048  0.4947  0.3008
  724SOL    HW1 8518   5.118   8.258   5.876  2.2787 -0.8278  3.3749
  724SOL    HW2 8519   5.019   8.152   5.922 -1.8826  0.5864 -1.4276
  725SOL     OW 8520   8.856   5.350   4.776 -0.0471  0.0275  0.5020
  725SOL    HW1 8521   8.872   5.422   4.837  1.0161 -1.6644  2.3854
  725SOL    HW2 8522   8.768   5.320   4.797 -0.7684  1.1438 -0.7663
  726SOL     OW 8523   2.615   8.448   3.503 -0.4269 -0.5365  0.9739
  726SOL    HW1 8524   2.588   8.382   3.567 -1.7061 -0.8733  0.1255
  726SOL    HW2 8525   2.534   8.493   3.479  0.0682 -0.2040 -0.1604
  727SOL     OW 8526   3.230   6.778   5.839 -0.1894 -0.4638  0.1098
  727SOL    HW1 8527   3.252   6.736   5.755 -1.0392  0.9442 -0.8635
  727SOL    HW2 8528   3.311   6.823   5.864  0.4506 -1.8877  0.7089
  728SOL     OW 8529   2.244   2.935   2.274  0.3856 -0.1460 -0.6430
  728SOL    HW1 8530   2.269   2.979   2.193  0.3734  0.8641 -0.1169
  728SOL    HW2 8531   2.293   2.853   2.274 -0.1383 -0.4867 -1.9965
  729SOL     OW 8532   0.004   4.705   9.237 -0.0314  0.2745 -0.1738
  729SOL    HW1 8533   0.047   4.773   9.185  3.0959 -1.3043  0.1558
  729SOL    HW2 8534   0.069   4.636   9.246 -1.8473 -1.2872  2.4582
  730SOL     OW 8535   3.385   0.186   2.328 -0.1557 -0.3941 -0.1659
  730SOL    HW1 8536   3.394   0.265   2.275  1.0629  0.1177  0.7330
  730SOL    HW2 8537   3.336   0.215   2.405 -0.2163 -0.6605 -0.1045
  731SOL     OW 8538   2.615   8.121   7.909 -0.3109 -0.5874 -0.4369
  731SOL    HW1 8539   2.620   8.115   8.004 -0.2116 -1.8530 -0.5001
  731SOL    HW2 8540   2.707   8.123   7.881 -0.3196 -1.2283 -0.5378
  732SOL     OW 8541   3.282   4.233   5.198 -0.3449  0.6665  0.4708
  732SOL    HW1 8542   3.333   4.295   5.251 -0.0968  0.3251  0.6305
  732SOL    HW2 8543   3.252   4.167   5.260 -0.3379  0.4492  0.2448
  733SOL     OW 8544   8.205   0.246   4.626  0.3538 -0.1423  0.5874
  733SOL    HW1 8545   8.160   0.236   4.710 -1.3534 -0.9978 -0.3664
  733SOL    HW2 8546   8.208   0.340   4.612  0.2719 -0.0061  1.3928
  734SOL     OW 8547   2.600   5.069   7.186 -0.2194  0.0974  0.1407
  734SOL    HW1 8548   2.531   5.060   7.252 -0.0839 -0.1123  0.2570
  734SOL    HW2 8549   2.682   5.061   7.236 -0.1011  0.7457  0.0644
  735SOL     OW 8550   8.706   8.479   2.603  0.2937 -0.1363 -0.2399
  735SOL    HW1 8551   8.644   8.552   2.611  0.0280 -0.1638 -1.8522
  735SOL    HW2 8552   8.768   8.508   2.537  1.1809 -0.7097  0.3279
  736SOL     OW 8553   2.162   2.461   2.369 -0.0011 -0.4672  0.4749
  736SOL    HW1 8554   2.249   2.443   2.406  0.7093  2.1640  0.3358
  736SOL    HW2 8555   2.122   2.521   2.432 -1.3673 -0.9229  0.0674
  737SOL     OW 8556   7.606   0.432   5.439  0.1324 -0.5676  0.2913
  737SOL    HW1 8557   7.624   0.464   5.351 -0.8895  0.1222  0.3165
  737SOL    HW2 8558   7.600   0.511   5.493 -1.2293 -0.8528  0.5863
  738SOL     OW 8559   5.801   0.679   5.992 -0.1832  0.1344  0.2485
  738SOL    HW1 8560   5.874   0.717   6.039  0.6137  0.9802 -1.5621
  738SOL    HW2 8561   5.758   0.753   5.950 -0.3971 -0.6176 -0.9340
  739SOL     OW 8562   6.898   5.605   1.653 -0.2621 -0.3102 -0.0190
  739SOL    HW1 8563   6.928   5.515   1.643  1.8443  0.4651 -1.3640
  739SOL    HW2 8564   6.973   5.651   1.692 -1.0128  1.0057 -0.0605
  740SOL     OW 8565   2.012   5.550   3.428  0.0211 -0.1698  0.4375
  740SOL    HW1 8566   2.062   5.574   3.351 -0.9730  1.0240  0.1216
  740SOL    HW2 8567   2.016   5.455   3.432 -1.8344 -0.4727 -2.4539
  741SOL     OW 8568   6.677   7.057   2.558  0.0811  0.5841  0.0203
  741SOL    HW1 8569   6.621   7.102   2.621  0.1449  0.7879 -0.0657
  741SOL    HW2 8570   6.766   7.076   2.588  0.1353  1.5771 -0.7348
  742SOL     OW 8571   1.858   1.002   9.223  0.1813 -0.7795 -0.1382
  742SOL    HW1 8572   1.875   1.075   9.283  0.3299 -1.4332  0.6332
  742SOL    HW2 8573   1.940   0.991   9.175 -0.8135  1.6603 -2.6509
  743SOL     OW 8574   6.702   4.499   7.474  0.4809  0.0223 -0.8305
  743SOL    HW1 8575   6.699   4.561   7.547  0.4985 -0.1006 -0.7230
  743SOL    HW2 8576   6.612   4.495   7.442 -0.2114 -2.1693  1.1042
  744SOL     OW 8577   7.242   4.319   5.791 -0.6507  0.7915 -0.1059
  744SOL    HW1 8578   7.335   4.329   5.808 -0.7733  0.4696  0.7852
  744SOL    HW2 8579   7.235   4.234   5.746 -0.5699  0.5655  0.3065
  745SOL     OW 8580   0.376   1.365   3.785 -0.4311  0.2491  0.1192
  745SOL    HW1 8581   0.337   1.444   3.747  0.1410 -0.4950 -2.2225
  745SOL    HW2 8582   0.302   1.313   3.816 -0.9344  0.8877  0.0109
  746SOL     OW 8583   6.453   3.539   1.671 -0.5551  0.2068 -0.0798
  746SOL    HW1 8584   6.394   3.470   1.639 -1.1750  0.9305 -0.5425
  746SOL    HW2 8585   6.532   3.529   1.618 -1.3430  1.0084 -1.4710
  747SOL     OW 8586   3.761   6.567   8.828  0.5251 -0.1225  0.3370
  747SOL    HW1 8587   3.768   6.597   8.919 -0.7126 -0.4790  0.5713
  747SOL    HW2 8588   3.756   6.647   8.777  1.4908  0.0845  0.5482
  748SOL     OW 8589   3.152   0.347   5.654 -0.0873 -0.2767  0.5556
  748SOL    HW1 8590   3.084   0.392   5.603 -2.5829 -3.1923  0.9527
  748SOL    HW2 8591   3.208   0.306   5.588 -1.1618 -1.1072  0.1309
  749SOL     OW 8592   9.002   7.021   3.032 -0.1352 -0.0604 -0.3794
  749SOL    HW1 8593   8.907   7.017   3.023 -0.5915  1.4775  2.5278
  749SOL    HW2 8594   9.026   7.109   3.004  0.1333  0.2420  0.7485
  750SOL     OW 8595   6.540   8.165   3.411 -0.4954  0.1211 -0.4747
  750SOL    HW1 8596   6.497   8.115   3.481  0.3201 -1.0286 -0.7493
  750SOL    HW2 8597   6.569   8.246   3.453  1.3870 -1.2177  1.0091
  751SOL     OW 8598   4.384   3.532   7.814 -0.2942  0.0881  0.0401
  751SOL    HW1 8599   4.290   3.536   7.835  0.0302  1.7856  1.3558
  751SOL    HW2 8600   4.405   3.620   7.784  0.9143 -0.2323 -0.0721
  752SOL     OW 8601   2.475   5.308   0.768 -0.0309 -0.4683  0.3863
  752SOL    HW1 8602   2.504   5.394   0.736 -0.1893 -0.1225  1.1389
  752SOL    HW2 8603   2.379   5.315   0.771  0.0144 -0.0843  1.9661
  753SOL     OW 8604   7.991   8.533   7.228  0.1025  0.3403  0.1802
  753SOL    HW1 8605   8.077   8.566   7.256  2.0857 -2.0245 -2.5407
  753SOL    HW2 8606   7.960   8.596   7.163  0.7340  0.2028 -0.2576
  754SOL     OW 8607   2.123   1.928   0.110 -0.2111 -0.2488 -0.4418
  754SOL    HW1 8608   2.186   1.857   0.114 -2.0835 -1.9483  1.6928
  754SOL    HW2 8609   2.049   1.892   0.060 -0.8197  0.5037 -0.1086
  755SOL     OW 8610   1.897   2.643   8.715 -0.5499  0.0140 -0.2655
  755SOL    HW1 8611   1.896   2.584   8.639 -0.5559 -0.6990  0.2876
  755SOL    HW2 8612   1.895   2.585   8.791  1.8168  0.6335  0.3467
  756SOL     OW 8613   1.161   9.137   7.858  0.4834 -0.6069 -0.2216
  756SOL    HW1 8614   1.067   9.151   7.868  0.7884  2.5462 -0.7195
  756SOL    HW2 8615   1.169   9.088   7.776 -0.7401 -0.7001 -0.3037
  757SOL     OW 8616   6.640   8.013   0.063  0.2836  0.1347 -0.4257
  757SOL    HW1 8617   6.658   7.921   0.041  1.2398 -0.2161  1.5726
  757SOL    HW2 8618   6.715   8.040   0.116 -0.3364  1.8549 -0.3674
  758SOL     OW 8619   4.076   6.346   6.122  0.1487  0.1811  0.1674
  758SOL    HW1 8620   4.141   6.404   6.081  0.8120  0.5965  1.7283
  758SOL    HW2 8621   3.992   6.383   6.095  0.5345  0.0225 -1.3559
  759SOL     OW 8622   3.913   7.946   8.263 -0.2912  0.3879  0.1288
  759SOL    HW1 8623   3.912   7.950   8.167 -0.2356  0.6519  0.1399
  759SOL    HW2 8624   3.837   7.997   8.290  2.0360  4.1311  0.3614
  760SOL     OW 8625   0.198   3.740   4.147 -0.0234  0.0043  0.2740
  760SOL    HW1 8626   0.199   3.789   4.229  0.1840  0.8698 -0.2303
  760SOL    HW2 8627   0.140   3.790   4.090  1.2768  0.4640 -0.7096
  761SOL     OW 8628   8.838   6.360   4.867  0.0274 -0.3625  0.2083
  761SOL    HW1 8629   8.862   6.282   4.918  1.0221 -0.3583 -0.2123
  761SOL    HW2 8630   8.824   6.428   4.932 -0.0577 -0.7001  0.5444
  762SOL     OW 8631   8.574   8.153   8.397 -0.0586  0.2562  0.1124
  762SOL    HW1 8632   8.498   8.211   8.401 -0.1060  0.3201 -1.1319
  762SOL    HW2 8633   8.618   8.165   8.480 -1.2761  0.3998  0.7666
  763SOL     OW 8634   3.218   9.031   9.119  0.2126 -0.0795  0.0623
  763SOL    HW1 8635   3.140   8.996   9.161  0.0396  1.2096  0.9114
  763SOL    HW2 8636   3.234   8.974   9.045  0.1801 -2.1290  1.5407
  764SOL     OW 8637   9.173   5.992   4.532  0.0953 -0.4064  0.0473
  764SOL    HW1 8638   9.267   5.977   4.541  0.1966 -0.4334 -0.9064
  764SOL    HW2 8639   9.133   5.933   4.594  0.7239 -0.1384  0.7214
  765SOL     OW 8640   1.723   1.834   1.928  0.1747 -0.4528  0.0550
  765SOL    HW1 8641   1.759   1.857   2.013 -1.6118 -0.3204  0.8264
  765SOL    HW2 8642   1.703   1.741   1.935  2.5277 -1.1190 -1.2185
  766SOL     OW 8643   6.860   3.861   5.617  0.2901 -0.4396 -0.5047
  766SOL    HW1 8644   6.914   3.865   5.696 -0.2971 -1.5315 -0.0313
  766SOL    HW2 8645   6.807   3.941   5.621  0.8521 -0.0646 -0.2454
  767SOL     OW 8646   1.683   4.074   3.839 -0.0279  0.4967  0.0684
  767SOL    HW1 8647   1.661   4.082   3.932 -1.4149  0.6501 -0.2515
  767SOL    HW2 8648   1.704   4.164   3.812  0.2825  0.4673  0.2046
  768SOL     OW 8649   6.987   2.009   0.335  0.0058  0.2882  0.3255
  768SOL    HW1 8650   6.929   2.054   0.396 -1.5397 -0.8195 -0.2815
  768SOL    HW2 8651   6.929   1.965   0.274  1.4876 -0.7235 -0.4217
  769SOL     OW 8652   2.929   1.766   9.073 -0.3315 -0.1152  0.0890
  769SOL    HW1 8653   2.914   1.774   9.167 -0.2060  2.3719 -0.0231
  769SOL    HW2 8654   3.014   1.810   9.058 -1.1948  1.1920 -1.3549
  770SOL     OW 8655   2.737   7.615   4.782 -0.4177 -0.5316  0.4821
  770SOL    HW1 8656   2.772   7.623   4.871  1.0653 -1.6274  0.0467
  770SOL    HW2 8657   2.812   7.637   4.726 -1.0844 -0.7311 -0.5016
  771SOL     OW 8658   0.066   7.131   1.517 -0.1980 -0.6630  0.3052
  771SOL    HW1 8659   0.097   7.158   1.604  1.3117 -0.7206 -0.1969
  771SOL    HW2 8660   0.136   7.077   1.482 -0.1283  0.5108 -1.5215
  772SOL     OW 8661   1.594   6.948   6.799 -0.2522 -0.0080 -0.8500
  772SOL    HW1 8662   1.619   7.039   6.787  0.5715 -0.1771 -0.4922
  772SOL    HW2 8663   1.567   6.943   6.891 -1.2934  0.0953 -1.1402
  773SOL     OW 8664   3.379   3.940   3.885  0.0202  0.2703 -0.0588
  773SOL    HW1 8665   3.329   3.979   3.814 -0.3220  2.1521  1.1442
  773SOL    HW2 8666   3.432   3.873   3.842 -0.7147  0.8243 -1.9598
  774SOL     OW 8667   0.824   5.165   1.483 -0.3221 -0.0278 -0.2523
  774SOL    HW1 8668   0.730   5.158   1.497 -0.4338 -1.5206 -1.4626
  774SOL    HW2 8669   0.833   5.234   1.417 -0.6425 -0.4170 -0.7115
  775SOL     OW 8670   2.991   7.437   4.772  0.8140  0.0344 -0.3366
  775SOL    HW1 8671   2.907   7.448   4.726  0.3902 -0.1194  0.3906
  775SOL    HW2 8672   3.056   7.434   4.701  0.2773  0.7459 -0.8844
  776SOL     OW 8673   6.565   7.351   6.903  0.1566  0.4354  0.8355
  776SOL    HW1 8674   6.487   7.384   6.860 -0.2740  0.2486  1.4493
  776SOL    HW2 8675   6.617   7.429   6.924  0.1661  0.5533  0.3649
  777SOL     OW 8676   4.552   1.019   0.689 -0.6689  0.6285  0.1290
  777SOL    HW1 8677   4.608   0.968   0.632  1.3506  1.2559  1.4389
  777SOL    HW2 8678   4.491   0.956   0.726 -0.0881 -0.3017 -0.4604
  778SOL     OW 8679   7.732   3.744   1.440 -0.3978 -0.2120  0.1475
  778SOL    HW1 8680   7.770   3.658   1.457 -2.2325 -1.1609 -0.4293
  778SOL    HW2 8681   7.723   3.783   1.527  0.2254 -0.6831  0.4322
  779SOL     OW 8682   8.544   7.918   2.705  0.1556  0.5298 -0.6176
  779SOL    HW1 8683   8.505   7.879   2.784 -0.6105 -0.5983 -1.5194
  779SOL    HW2 8684   8.636   7.894   2.710  0.0239  0.0687 -0.2945
  780SOL     OW 8685   3.746   6.890   0.351 -0.0348  0.3027  0.0423
  780SOL    HW1 8686   3.724   6.964   0.294 -0.4002 -0.0767 -0.3076
  780SOL    HW2 8687   3.841   6.896   0.361  0.0877  0.1309 -0.9400
  781SOL     OW 8688   6.056   4.051   4.797  0.2604  0.0517 -0.0687
  781SOL    HW1 8689   6.053   4.002   4.715 -2.0220 -1.2919  0.7280
  781SOL    HW2 8690   6.010   3.995   4.860  0.4446  1.7955  1.7048
  782SOL     OW 8691   1.194   6.167   8.932 -0.3058 -0.5756 -0.1039
  782SOL    HW1 8692   1.259   6.150   9.001 -0.2892 -0.4110 -0.0779
  782SOL    HW2 8693   1.205   6.260   8.912 -0.8283 -0.4402  0.2044
  783SOL     OW 8694   0.234   3.273   6.259 -0.0050 -0.1724  0.0237
  783SOL    HW1 8695   0.265   3.351   6.304  0.9275 -1.1459  1.1288
  783SOL    HW2 8696   0.218   3.301   6.169  0.1114  1.3196  0.4521
  784SOL     OW 8697   1.653   0.364   6.866  0.0898 -0.2429  0.3748
  784SOL    HW1 8698   1.615   0.422   6.933  1.1746 -0.3119  1.0702
  784SOL    HW2 8699   1.629   0.405   6.783 -0.3357  0.4512  0.8258
  785SOL     OW 8700   7.535   0.281   3.461  0.2504  0.0068  0.1933
  785SOL    HW1 8701   7.543   0.359   3.517  1.0106 -0.6100  0.9770
  785SOL    HW2 8702   7.621   0.272   3.420  0.8030 -1.4379  1.5365
  786SOL     OW 8703   1.573   0.936   2.791 -0.2628 -0.3154 -0.2476
  786SOL    HW1 8704   1.609   0.930   2.879  1.0574  0.0385 -0.7461
  786SOL    HW2 8705   1.505   1.003   2.797 -1.2140 -1.3233  0.8115
  787SOL     OW 8706   0.757   1.741   2.956  0.0929 -0.6015 -0.0758
  787SOL    HW1 8707   0.817   1.810   2.927 -0.2910 -0.3300 -0.2244
  787SOL    HW2 8708   0.796   1.709   3.038  0.8288 -0.9264 -0.5446
  788SOL     OW 8709   5.770   7.707   7.284 -0.6111 -0.5582 -0.4486
  788SOL    HW1 8710   5.757   7.613   7.288 -3.3939 -0.2073  0.7328
  788SOL    HW2 8711   5.790   7.733   7.374 -0.7562  0.0764 -0.5911
  789SOL     OW 8712   5.432   4.176   7.447  0.7181  0.2537  0.1270
  789SOL    HW1 8713   5.462   4.121   7.519  1.8025 -0.2280 -0.6644
  789SOL    HW2 8714   5.394   4.253   7.489 -0.5557 -0.9442  1.2621
  790SOL     OW 8715   1.975   0.855   1.936  0.4255  0.3728 -0.0235
  790SOL    HW1 8716   1.882   0.864   1.958  0.8605  2.1111  1.2881
  790SOL    HW2 8717   1.998   0.937   1.892  1.6778  0.6446  1.0652
  791SOL     OW 8718   5.142   4.105   8.012 -0.2133  0.1709  0.8158
  791SOL    HW1 8719   5.069   4.047   7.991  0.0908 -0.2720  0.9795
  791SOL    HW2 8720   5.172   4.076   8.098  1.8246 -1.3924 -0.3359
  792SOL     OW 8721   7.077   8.900   6.567 -0.0860 -0.4574 -0.6018
  792SOL    HW1 8722   7.051   8.966   6.503 -1.6046 -0.4060  0.0366
  792SOL    HW2 8723   6.997   8.852   6.587  0.4096 -0.6792  1.0256
  793SOL     OW 8724   5.316   8.778   2.491 -0.6350 -0.2391 -0.2579
  793SOL    HW1 8725   5.253   8.721   2.446 -0.1892 -0.3983 -0.6878
  793SOL    HW2 8726   5.401   8.754   2.454 -0.0942 -1.1817  1.4856
  794SOL     OW 8727   7.465   6.283   4.252 -0.3417 -0.0502 -0.0280
  794SOL    HW1 8728   7.558   6.267   4.241 -0.5262 -1.1730 -0.0661
  794SOL    HW2 8729   7.425   6.250   4.171 -0.8205 -0.0135  0.1894
  795SOL     OW 8730   3.580   5.950   2.416 -0.0717  0.5358  0.2618
  795SOL    HW1 8731   3.576   5.987   2.328 -0.3370  0.0695  0.0780
  795SOL    HW2 8732   3.653   5.996   2.458  2.4981 -1.7676 -1.3815
  796SOL     OW 8733   6.263   7.103   2.482 -0.4154  0.1141  0.1122
  796SOL    HW1 8734   6.182   7.057   2.459 -0.5756  0.3409  0.2211
  796SOL    HW2 8735   6.306   7.044   2.544 -0.8675  0.3361  0.6464
  797SOL     OW 8736   7.973   0.480   6.357 -0.1714 -0.1239  0.3926
  797SOL    HW1 8737   8.010   0.567   6.376  0.9670 -0.4340 -0.2764
  797SOL    HW2 8738   8.037   0.440   6.297 -0.3715 -1.6613  1.1707
  798SOL     OW 8739   1.198   9.094   0.541  0.7546  0.3548 -0.3198
  798SOL    HW1 8740   1.105   9.113   0.527  0.4095  1.3468  2.6281
  798SOL    HW2 8741   1.205   9.000   0.524 -1.4190 -0.3072  1.8934
  799SOL     OW 8742   0.558   9.033   3.916 -0.5603 -0.1662  0.3294
  799SOL    HW1 8743   0.608   9.030   3.998 -1.6162 -0.9816  0.9685
  799SOL    HW2 8744   0.621   9.059   3.850  0.6160 -0.7667  1.1873
  800SOL     OW 8745   3.573   2.625   3.815 -0.2534 -0.4280 -0.2871
  800SOL    HW1 8746   3.528   2.706   3.791 -2.8539 -1.1732  1.6179
  800SOL    HW2 8747   3.595   2.584   3.731  0.4683  1.8253 -1.2915
  801SOL     OW 8748   6.143   4.375   3.538 -0.1716  0.2368 -0.1164
  801SOL    HW1 8749   6.232   4.405   3.557 -1.1016  1.9979  1.9538
  801SOL    HW2 8750   6.145   4.280   3.551  1.1220  0.4232  1.2020
  802SOL     OW 8751   5.601   1.660   3.286 -0.3728  0.5423  0.4791
  802SOL    HW1 8752   5.679   1.618   3.252 -1.6277 -0.1102 -1.8249
  802SOL    HW2 8753   5.572   1.604   3.358 -1.1217 -1.7458 -1.4972
  803SOL     OW 8754   4.381   2.832   4.115 -0.5536  0.1426  0.4549
  803SOL    HW1 8755   4.386   2.767   4.045  0.7526 -0.2061  0.8415
  803SOL    HW2 8756   4.339   2.907   4.074 -0.9161 -0.4767 -0.3619
  804SOL     OW 8757   2.869   5.761   5.658  0.5192 -0.1231  0.0267
  804SOL    HW1 8758   2.858   5.727   5.747  0.6694 -0.5232 -0.1032
  804SOL    HW2 8759   2.781   5.788   5.632  0.0781 -1.8002 -0.4005
  805SOL     OW 8760   5.333   1.540   8.658 -0.4318 -0.6445  0.1110
  805SOL    HW1 8761   5.400   1.606   8.643 -0.9205 -0.3800 -1.0483
  805SOL    HW2 8762   5.340   1.519   8.750  1.9205 -1.3797 -0.1889
  806SOL     OW 8763   0.815   3.588   4.255 -0.2402 -0.1140 -0.7764
  806SOL    HW1 8764   0.809   3.538   4.174  1.4493 -0.5194 -0.6953
  806SOL    HW2 8765   0.795   3.525   4.324 -0.4983 -0.0692 -0.8102
  807SOL     OW 8766   1.381   7.621   1.742  0.4341  0.1569  1.1929
  807SOL    HW1 8767   1.324   7.672   1.799 -1.2287 -0.6067  0.2605
  807SOL    HW2 8768   1.322   7.579   1.679  2.0769 -0.0779 -0.2740
  808SOL     OW 8769   6.397   3.009   2.051  1.1280  0.4923 -0.4180
  808SOL    HW1 8770   6.337   3.039   1.982 -0.9214 -1.1968  0.5094
  808SOL    HW2 8771   6.361   3.047   2.131 -0.4606 -2.6792  0.5353
  809SOL     OW 8772   4.753   4.599   4.850 -0.0358 -0.2363 -0.3572
  809SOL    HW1 8773   4.791   4.590   4.937  0.4885  0.3245 -0.5198
  809SOL    HW2 8774   4.715   4.687   4.849  0.3010 -0.0927 -0.8260
  810SOL     OW 8775   4.244   1.084   5.090  0.4872  0.0928 -0.5679
  810SOL    HW1 8776   4.154   1.104   5.065  0.4153 -2.4123 -2.6607
  810SOL    HW2 8777   4.296   1.151   5.046 -0.1590 -0.2954 -1.9695
  811SOL     OW 8778   1.119   2.435   7.767 -0.8754  0.1272 -1.0393
  811SOL    HW1 8779   1.060   2.477   7.829  1.5462 -1.3434  2.6195
  811SOL    HW2 8780   1.068   2.364   7.729 -2.7304  1.6759 -1.6324
  812SOL     OW 8781   1.088   2.375   8.799 -0.2175 -0.1074  0.5038
  812SOL    HW1 8782   1.071   2.387   8.706  0.1166 -2.0357  0.1669
  812SOL    HW2 8783   1.175   2.413   8.812  0.0722 -0.5494 -0.1276
  813SOL     OW 8784   1.210   8.715   5.880 -0.3592  0.2669  0.0993
  813SOL    HW1 8785   1.255   8.736   5.961 -0.6646  0.1298  0.3075
  813SOL    HW2 8786   1.271   8.658   5.832 -0.1780  0.3530  0.2284
  814SOL     OW 8787   1.806   1.047   5.621 -0.1264 -0.1401 -0.0332
  814SOL    HW1 8788   1.890   1.085   5.647  0.2710 -0.4183 -0.8696
  814SOL    HW2 8789   1.803   1.059   5.526 -2.3550  2.4970  0.2474
  815SOL     OW 8790   5.000   2.749   1.433  0.4547  0.5072 -0.5073
  815SOL    HW1 8791   4.983   2.658   1.407  0.1055  0.8119 -1.4006
  815SOL    HW2 8792   5.085   2.770   1.395  0.3400  0.6862 -0.6673
  816SOL     OW 8793   1.278   5.473   4.885 -0.1211 -0.1613  0.4989
  816SOL    HW1 8794   1.312   5.442   4.801 -3.8799 -0.8301 -0.9780
  816SOL    HW2 8795   1.306   5.406   4.948 -0.3110 -1.6828 -0.9545
  817SOL     OW 8796   3.928   8.843   6.899  0.0320 -0.3440  0.0832
  817SOL    HW1 8797   3.972   8.795   6.970  0.2129  2.1739  1.8088
  817SOL    HW2 8798   3.992   8.842   6.827  0.9974 -0.6799  0.9105
  818SOL     OW 8799   3.088   0.798   4.126  0.0225  0.5352  0.6706
  818SOL    HW1 8800   3.012   0.847   4.095 -0.7713 -1.9107 -1.5977
  818SOL    HW2 8801   3.064   0.769   4.214 -1.2891  0.5476  0.3313
  819SOL     OW 8802   7.873   0.405   6.733 -0.0660 -0.4496  0.5370
  819SOL    HW1 8803   7.824   0.451   6.665  0.5225 -0.1708  0.2987
  819SOL    HW2 8804   7.806   0.378   6.797 -0.4779  0.2883  0.4245
  820SOL     OW 8805   4.117   8.565   0.078 -0.0623  0.2631 -1.0062
  820SOL    HW1 8806   4.129   8.570  -0.017  0.8285 -0.1993 -0.9261
  820SOL    HW2 8807   4.136   8.473   0.099 -1.4458  0.0664 -0.5351
  821SOL     OW 8808   6.586   6.171   2.186 -0.3284  0.2381  0.2135
  821SOL    HW1 8809   6.641   6.094   2.195 -0.5178  0.0368 -0.3140
  821SOL    HW2 8810   6.611   6.227   2.260  2.4433  1.3260 -1.3970
  822SOL     OW 8811   3.855   3.001   6.010 -0.0475  0.0605  0.5815
  822SOL    HW1 8812   3.784   3.037   5.956  0.6932  0.9866  0.1992
  822SOL    HW2 8813   3.842   2.906   6.005 -0.8477  0.1875 -0.0439
  823SOL     OW 8814   5.575   6.558   6.699 -0.5207 -0.6040  0.1767
  823SOL    HW1 8815   5.663   6.523   6.696  0.9495  2.7586 -0.6783
  823SOL    HW2 8816   5.546   6.544   6.789  2.2243  0.9813  1.4235
  824SOL     OW 8817   7.535   8.160   4.075  0.4267  0.1456 -0.1233
  824SOL    HW1 8818   7.467   8.140   4.010  1.6304 -0.2977 -1.2933
  824SOL    HW2 8819   7.547   8.079   4.123  0.2668  0.1678 -0.0462
  825SOL     OW 8820   7.222   5.117   7.644 -0.1825  0.0844 -0.3986
  825SOL    HW1 8821   7.265   5.032   7.635 -1.0875 -0.3972 -0.3747
  825SOL    HW2 8822   7.228   5.156   7.557  0.5675  0.1657 -0.3160
  826SOL     OW 8823   5.434   5.893   4.504  0.4186 -0.2928 -0.1516
  826SOL    HW1 8824   5.522   5.887   4.540  0.0919 -1.1803  0.5354
  826SOL    HW2 8825   5.415   5.804   4.471 -0.8689 -0.6124  1.3123
  827SOL     OW 8826   9.153   1.346   7.303 -0.5410 -0.2442 -0.5005
  827SOL    HW1 8827   9.110   1.275   7.256 -0.6228 -0.0113 -0.7761
  827SOL    HW2 8828   9.092   1.369   7.372 -1.7447  1.3738 -2.0378
  828SOL     OW 8829   7.957   2.698   5.775  0.0797  0.0148  1.0435
  828SOL    HW1 8830   7.917   2.672   5.692  0.5598  0.1515  0.7643
  828SOL    HW2 8831   7.897   2.667   5.842 -0.4271  0.1083  0.6319
  829SOL     OW 8832   1.719   6.711   1.438 -0.3013  0.1155  0.4290
  829SOL    HW1 8833   1.736   6.723   1.531 -1.0126  0.4568  0.5227
  829SOL    HW2 8834   1.721   6.800   1.402 -0.5463  0.0351  0.2135
  830SOL     OW 8835   2.975   7.755   4.697 -0.1922  0.0026  0.0443
  830SOL    HW1 8836   2.955   7.829   4.640  2.1489  0.6159 -0.0969
  830SOL    HW2 8837   3.028   7.697   4.642  1.6019  0.3164  1.3183
  831SOL     OW 8838   5.709   1.952   6.970 -0.1265  0.1689 -0.0189
  831SOL    HW1 8839   5.733   2.045   6.974  0.3611  0.1343 -1.4464
  831SOL    HW2 8840   5.626   1.951   6.921 -0.8910 -0.0529  1.2434
  832SOL     OW 8841   1.723   4.969   5.869 -0.1845 -0.1457 -0.5963
  832SOL    HW1 8842   1.782   5.035   5.905 -0.9283 -0.2534  0.8853
  832SOL    HW2 8843   1.643   5.017   5.847 -0.1492 -0.2864 -1.0506
  833SOL     OW 8844   0.959   2.855   2.271  0.7384 -0.4494  0.0669
  833SOL    HW1 8845   0.959   2.886   2.362 -0.3890  0.9361 -0.3807
  833SOL    HW2 8846   0.945   2.761   2.278  2.6763 -0.7116  1.3988
  834SOL     OW 8847   0.008   7.791   6.455 -0.3558 -0.1846 -0.2622
  834SOL    HW1 8848   0.076   7.802   6.522 -1.1758  1.7481  0.3356
  834SOL    HW2 8849  -0.030   7.879   6.445  0.1955 -0.1906 -3.8026
  835SOL     OW 8850   5.376   9.151   7.768 -0.1014  0.0891  0.1748
  835SOL    HW1 8851   5.342   9.133   7.680  0.7603 -1.2218  0.0726
  835SOL    HW2 8852   5.339   9.081   7.822  0.4537  0.1025  0.5743
  836SOL     OW 8853   2.409   4.037   0.786 -0.2734 -0.1390  0.3450
  836SOL    HW1 8854   2.475   4.107   0.778 -1.1039  0.6752  0.4326
  836SOL    HW2 8855   2.326   4.084   0.790 -0.8276 -1.1410  0.6822
  837SOL     OW 8856   0.707   6.299   4.698 -0.2702 -1.1430 -0.1763
  837SOL    HW1 8857   0.790   6.269   4.660  0.7040  1.3052 -0.1781
  837SOL    HW2 8858   0.640   6.258   4.644  0.8794 -3.4797  0.0316
  838SOL     OW 8859   8.041   0.423   2.919  0.3542 -0.4920 -0.6818
  838SOL    HW1 8860   8.052   0.372   3.000  3.1987 -0.6152 -1.0433
  838SOL    HW2 8861   8.125   0.467   2.908 -0.5108  0.7341 -2.7922
  839SOL     OW 8862   4.490   6.439   4.289  0.1592 -0.1497 -0.1078
  839SOL    HW1 8863   4.529   6.492   4.358  0.9000 -0.6636 -0.1211
  839SOL    HW2 8864   4.456   6.362   4.334 -1.2130  0.4605 -0.0416
  840SOL     OW 8865   8.177   9.014   5.209 -0.0628 -0.2944 -0.4641
  840SOL    HW1 8866   8.211   8.957   5.139  0.7844 -1.3270  0.7324
  840SOL    HW2 8867   8.181   8.959   5.288 -1.3722  0.7071  0.3264
  841SOL     OW 8868   1.840   7.523   3.104  0.1821 -0.3830 -0.4549
  841SOL    HW1 8869   1.820   7.583   3.033 -0.0009 -1.7548 -1.6121
  841SOL    HW2 8870   1.902   7.570   3.159  0.3062  0.7212 -1.5078
  842SOL     OW 8871   3.145   5.717   6.127  0.3754 -0.7915  0.5065
  842SOL    HW1 8872   3.191   5.799   6.143 -0.5910 -0.0697 -0.3513
  842SOL    HW2 8873   3.060   5.728   6.169  0.1061 -1.2146  0.0801
  843SOL     OW 8874   8.097   7.263   0.778 -0.1961  0.3760  0.1863
  843SOL    HW1 8875   8.067   7.262   0.687 -1.8228 -1.2911  0.6897
  843SOL    HW2 8876   8.174   7.320   0.776  0.2751 -0.1983 -2.3554
  844SOL     OW 8877   3.331   8.796   6.143 -0.2568 -0.3931 -0.2155
  844SOL    HW1 8878   3.424   8.787   6.122 -0.0843  0.2600  0.2386
  844SOL    HW2 8879   3.319   8.745   6.223 -0.5717 -1.5322 -0.9597
  845SOL     OW 8880   2.185   8.690   0.314  0.0818 -0.5751  0.1157
  845SOL    HW1 8881   2.228   8.773   0.337 -2.0726  0.2611  1.3742
  845SOL    HW2 8882   2.138   8.665   0.394 -0.7522 -2.0762 -0.8166
  846SOL     OW 8883   0.083   3.323   8.083  0.0088 -0.0964 -0.2769
  846SOL    HW1 8884   0.046   3.235   8.082 -1.7710  0.6197  0.1125
  846SOL    HW2 8885   0.108   3.338   8.174 -3.5770  1.2818  0.6435
  847SOL     OW 8886   2.895   3.988   2.976 -0.7074 -0.0543  0.4578
  847SOL    HW1 8887   2.803   4.015   2.977 -0.3531  1.3549  2.6205
  847SOL    HW2 8888   2.897   3.908   3.028 -0.8623 -0.8540 -0.7261
  848SOL     OW 8889   2.042   7.437   2.916 -0.0580  0.1645 -0.0336
  848SOL    HW1 8890   2.015   7.408   3.004  2.1014 -0.2864  0.5385
  848SOL    HW2 8891   2.045   7.532   2.922 -0.0576  0.1425  0.3396
  849SOL     OW 8892   5.038   1.367   8.297  0.4727 -0.2198 -0.8357
  849SOL    HW1 8893   4.986   1.352   8.376  0.4815  0.1527 -0.7611
  849SOL    HW2 8894   4.987   1.327   8.227  1.1344 -1.8463 -0.4485
  850SOL     OW 8895   0.742   5.800   0.310 -0.1943 -0.1956  0.4096
  850SOL    HW1 8896   0.781   5.819   0.224  0.1754  0.3247  0.6870
  850SOL    HW2 8897   0.816   5.784   0.368 -0.4468 -0.6234  0.6207
  851SOL     OW 8898   6.543   3.776   6.536  0.1432  0.0804 -0.3876
  851SOL    HW1 8899   6.514   3.738   6.620 -0.4361 -1.1219 -1.0995
  851SOL    HW2 8900   6.467   3.768   6.479  0.1933  1.8477 -0.7566
  852SOL     OW 8901   4.715   6.072   4.261  0.6596 -0.0245 -0.1092
  852SOL    HW1 8902   4.698   6.121   4.341  1.3091  0.5076 -0.2859
  852SOL    HW2 8903   4.668   6.119   4.193  4.3526  2.8474 -1.0457
  853SOL     OW 8904   2.593   4.798   7.198  0.2353  0.1959 -0.3765
  853SOL    HW1 8905   2.534   4.810   7.272 -1.2296 -2.3558 -0.9956
  853SOL    HW2 8906   2.603   4.885   7.159 -3.6800  0.6817 -0.6284
  854SOL     OW 8907   2.539   1.232   2.091  0.3139 -0.1663 -0.7651
  854SOL    HW1 8908   2.618   1.179   2.101 -0.3793 -0.8153  2.4023
  854SOL    HW2 8909   2.549   1.303   2.155 -1.5258 -0.0932 -0.5053
  855SOL     OW 8910   2.943   3.343   1.499  0.0530 -0.4277 -0.2751
  855SOL    HW1 8911   2.942   3.323   1.406 -2.5994  0.5078 -0.5155
  855SOL    HW2 8912   2.903   3.430   1.506 -1.5286 -1.2336  1.8253
  856SOL     OW 8913   1.780   5.931   5.948  0.0955 -0.2868 -0.1052
  856SOL    HW1 8914   1.841   5.864   5.916  0.3960 -0.1573  0.2020
  856SOL    HW2 8915   1.834   6.008   5.962 -0.2152 -0.0410 -0.2505
  857SOL     OW 8916   9.147   5.370   9.077  0.3883 -0.2842 -0.0160
  857SOL    HW1 8917   9.065   5.414   9.052 -0.1595 -0.4693  1.3565
  857SOL    HW2 8918   9.180   5.422   9.150  1.2448 -0.5101 -0.2391
  858SOL     OW 8919   4.356   6.295   7.256  0.2812  0.1007 -0.3735
  858SOL    HW1 8920   4.296   6.369   7.263 -0.2493 -0.4110  0.8471
  858SOL    HW2 8921   4.312   6.224   7.303  1.2310 -0.6965 -0.6443
  859SOL     OW 8922   0.615   4.365   3.863  0.0497  0.4390  0.0510
  859SOL    HW1 8923   0.622   4.280   3.820 -0.3543  0.4662 -0.0750
  859SOL    HW2 8924   0.686   4.366   3.926  0.3404  0.1916 -0.2659
  860SOL     OW 8925   0.153   8.907   0.481  0.1805  0.2096  0.4845
  860SOL    HW1 8926   0.140   8.862   0.398 -0.9426 -1.5140  1.5326
  860SOL    HW2 8927   0.247   8.921   0.486  0.6779 -2.5128  0.2849
  861SOL     OW 8928   6.386   1.095   0.194  0.0763 -0.2505  0.3399
  861SOL    HW1 8929   6.433   1.031   0.141  0.5744  0.3553  0.0302
  861SOL    HW2 8930   6.342   1.043   0.261  1.5876 -0.8128  0.9445
  862SOL     OW 8931   3.228   9.062   3.187  0.4505  0.1837  0.5215
  862SOL    HW1 8932   3.254   8.972   3.173  0.1573  0.1295  0.3085
  862SOL    HW2 8933   3.147   9.056   3.238  0.0645  0.3020 -0.0610
  863SOL     OW 8934   7.408   5.408   0.509  0.0329 -0.0848 -0.0233
  863SOL    HW1 8935   7.336   5.389   0.450 -0.2723 -0.9480  0.6037
  863SOL    HW2 8936   7.389   5.496   0.542 -0.4504 -0.0934 -0.2660
  864SOL     OW 8937   0.451   1.978   8.930 -0.7903  0.4558  0.2625
  864SOL    HW1 8938   0.404   2.061   8.935 -0.5910  0.6383 -0.7123
  864SOL    HW2 8939   0.482   1.962   9.019 -1.5929  0.9691  0.6485
  865SOL     OW 8940   0.383   6.537   2.639 -0.3206  0.2757  1.0178
  865SOL    HW1 8941   0.310   6.596   2.661 -1.3963 -0.5088 -0.2519
  865SOL    HW2 8942   0.438   6.535   2.717 -1.4333  1.2362  1.8543
  866SOL     OW 8943   7.664   1.890   1.175  0.3899  0.2970 -0.3390
  866SOL    HW1 8944   7.617   1.861   1.253 -0.4586  1.6810 -0.3148
  866SOL    HW2 8945   7.667   1.812   1.119 -1.2818 -0.0311 -0.0245
  867SOL     OW 8946   6.368   8.419   3.809  0.8495 -0.2106 -0.5137
  867SOL    HW1 8947   6.463   8.404   3.808  0.9647  0.3767  0.4347
  867SOL    HW2 8948   6.331   8.337   3.777  1.6891 -0.3173 -1.2541
  868SOL     OW 8949   4.406   7.797   7.373 -0.2549  0.2980 -0.1150
  868SOL    HW1 8950   4.474   7.739   7.340  2.0837  2.1403  1.1688
  868SOL    HW2 8951   4.443   7.885   7.365 -2.2247  1.3321  1.2435
  869SOL     OW 8952   5.087   7.731   2.956  0.0527  0.0454  0.0576
  869SOL    HW1 8953   5.114   7.737   2.864  0.5825  4.4686  0.2655
  869SOL    HW2 8954   5.166   7.755   3.005 -1.0381  1.0947  1.3846
  870SOL     OW 8955   5.797   6.534   2.343  0.2227 -0.1894 -0.0941
  870SOL    HW1 8956   5.723   6.502   2.393 -0.7808  1.7110 -0.2758
  870SOL    HW2 8957   5.818   6.462   2.283  0.5104 -1.9257  1.9456
  871SOL     OW 8958   3.202   6.756   0.195  0.2400 -0.2042  0.3060
  871SOL    HW1 8959   3.113   6.728   0.217  0.3358 -0.4958  0.3245
  871SOL    HW2 8960   3.190   6.820   0.125 -0.0673  0.7515  1.2112
  872SOL     OW 8961   9.103   1.615   3.689  0.6492 -0.2450 -0.3624
  872SOL    HW1 8962   9.018   1.627   3.733  0.7171 -0.3697 -0.1950
  872SOL    HW2 8963   9.080   1.593   3.599  0.5052 -0.1274 -0.3545
  873SOL     OW 8964   2.752   6.476   5.123 -0.1933  0.6436 -0.5113
  873SOL    HW1 8965   2.716   6.413   5.186  0.0626  0.2051 -0.8012
  873SOL    HW2 8966   2.698   6.464   5.045 -1.5632  2.2913  0.0977
  874SOL     OW 8967   3.373   3.841   7.677 -0.5384 -0.2458 -0.1116
  874SOL    HW1 8968   3.309   3.883   7.619 -1.0218  0.6840  1.0341
  874SOL    HW2 8969   3.452   3.832   7.624 -0.9789  0.5259 -0.9220
  875SOL     OW 8970   2.485   8.348   0.869 -0.0581 -0.0003 -0.7280
  875SOL    HW1 8971   2.471   8.291   0.793 -0.9964  0.4825 -0.9333
  875SOL    HW2 8972   2.529   8.425   0.834 -0.9432  0.4444 -0.8850
  876SOL     OW 8973   0.335   8.762   4.605 -0.3488  0.0535 -0.4520
  876SOL    HW1 8974   0.259   8.741   4.552  0.1245 -2.1262 -0.3558
  876SOL    HW2 8975   0.358   8.852   4.580 -1.1599 -0.2991 -2.6831
  877SOL     OW 8976   4.233   0.193   7.320  0.0556 -0.4946 -0.4324
  877SOL    HW1 8977   4.278   0.114   7.348  0.0237 -0.4663 -0.3027
  877SOL    HW2 8978   4.283   0.265   7.358  1.2223 -0.3631 -2.1269
  878SOL     OW 8979   2.539   5.037   7.660 -0.1093  0.0342 -0.0875
  878SOL    HW1 8980   2.444   5.037   7.668 -0.0777 -0.0732  0.3123
  878SOL    HW2 8981   2.570   5.093   7.731  0.1159  0.2414 -0.3477
  879SOL     OW 8982   3.395   3.278   5.077  0.7564  0.4832 -0.3692
  879SOL    HW1 8983   3.482   3.276   5.117  0.5326  2.6800  0.3854
  879SOL    HW2 8984   3.340   3.323   5.141 -1.3147 -1.9633 -0.2564
  880SOL     OW 8985   7.733   2.852   1.974 -0.0728 -0.2089  0.1907
  880SOL    HW1 8986   7.803   2.911   2.001 -0.7106 -0.3586  2.3300
  880SOL    HW2 8987   7.653   2.893   2.007 -1.2549  0.6407 -3.2793
  881SOL     OW 8988   7.187   6.702   6.908  0.1521 -0.1789 -0.2365
  881SOL    HW1 8989   7.112   6.676   6.854 -0.7589  0.3017  0.7465
  881SOL    HW2 8990   7.191   6.798   6.898  1.4386 -0.3188 -1.2698
  882SOL     OW 8991   7.549   2.859   2.532  0.3114 -0.2903  0.6146
  882SOL    HW1 8992   7.518   2.924   2.470 -1.0928 -0.7730  0.7675
  882SOL    HW2 8993   7.513   2.887   2.616  1.3503 -0.1929  1.0370
  883SOL     OW 8994   9.123   1.685   4.121 -0.1250  0.3368  0.3744
  883SOL    HW1 8995   9.129   1.613   4.058 -0.6769  0.9764 -0.4370
  883SOL    HW2 8996   9.138   1.764   4.069 -0.2560  0.8631  1.1123
  884SOL     OW 8997   9.126   4.818   1.896  0.0643 -0.1527  0.8107
  884SOL    HW1 8998   9.070   4.878   1.946 -1.0494 -0.6560  0.2251
  884SOL    HW2 8999   9.088   4.731   1.912 -1.5517 -0.1905 -2.2934
  885SOL     OW 9000   1.546   7.596   5.628  0.4857  0.1103 -0.1067
  885SOL    HW1 9001   1.488   7.574   5.702 -1.0285  1.9943 -0.6462
  885SOL    HW2 9002   1.486   7.612   5.555  1.8544  0.0509 -1.2857
  886SOL     OW 9003   1.215   8.270   8.666 -0.0386 -0.5657 -0.2916
  886SOL    HW1 9004   1.217   8.275   8.762  0.6737 -0.8496 -0.2895
  886SOL    HW2 9005   1.194   8.178   8.648 -0.4690 -0.4471 -0.4130
  887SOL     OW 9006   1.769   0.678   7.501  0.2498 -0.0399  0.7270
  887SOL    HW1 9007   1.768   0.627   7.420  0.3585 -1.3417  1.5171
  887SOL    HW2 9008   1.697   0.739   7.491 -0.9242 -1.4148  0.3874
  888SOL     OW 9009   3.423   8.525   1.699 -0.0331  0.2804 -0.2039
  888SOL    HW1 9010   3.413   8.615   1.670 -1.3944  0.1195 -0.3210
  888SOL    HW2 9011   3.356   8.515   1.768 -0.3354 -0.8065 -0.6369
  889SOL     OW 9012   2.323   7.481   6.392 -0.0208  0.7179 -0.0068
  889SOL    HW1 9013   2.281   7.485   6.307 -0.7098  2.3532  0.3696
  889SOL    HW2 9014   2.270   7.419   6.442  1.6066 -1.9090 -1.3361
  890SOL     OW 9015   3.081   0.066   5.684 -0.5321 -0.1272  0.5686
  890SOL    HW1 9016   3.111   0.147   5.642 -0.9737  0.1605  0.8019
  890SOL    HW2 9017   3.041   0.015   5.614  0.6380 -0.6009  0.2069
  891SOL     OW 9018   3.599   2.601   1.313 -0.3365  0.5133 -0.2407
  891SOL    HW1 9019   3.504   2.593   1.301 -0.1133  0.3499 -2.2201
  891SOL    HW2 9020   3.622   2.530   1.372 -1.6777  1.7633  1.9431
  892SOL     OW 9021   8.144   2.019   0.877  0.3120 -0.0371 -0.4193
  892SOL    HW1 9022   8.210   2.049   0.940  1.4172  1.4888 -2.2091
  892SOL    HW2 9023   8.063   2.013   0.927  1.4016 -0.1398  1.4179
  893SOL     OW 9024   2.513   5.280   2.218 -0.0375  0.4448 -0.0616
  893SOL    HW1 9025   2.530   5.284   2.312  0.4721 -0.5933 -0.0880
  893SOL    HW2 9026   2.436   5.223   2.210 -1.3735  2.1678 -0.1735
  894SOL     OW 9027   4.438   5.209   8.408  0.1150 -0.3348 -0.4060
  894SOL    HW1 9028   4.513   5.188   8.465  0.7262 -1.1336 -1.4643
  894SOL    HW2 9029   4.371   5.146   8.433 -0.8266  1.3368  1.6033
  895SOL     OW 9030   8.063   1.770   4.006 -0.4332  0.2175  0.0365
  895SOL    HW1 9031   8.044   1.745   4.097 -1.4466 -0.6798 -0.4090
  895SOL    HW2 9032   8.159   1.772   4.002 -0.3687 -0.1565  1.0121
  896SOL     OW 9033   0.700   6.171   4.189 -0.3571  0.7555 -0.1642
  896SOL    HW1 9034   0.632   6.222   4.234 -0.6521  0.6271 -0.4613
  896SOL    HW2 9035   0.755   6.138   4.260 -1.2085 -0.0027  0.1641
  897SOL     OW 9036   0.023   2.883   3.107 -0.4309 -0.0819 -0.5851
  897SOL    HW1 9037   0.094   2.874   3.043 -2.5755 -1.2294 -3.0096
  897SOL    HW2 9038   0.012   2.795   3.143 -0.7181  0.0577 -0.3288
  898SOL     OW 9039   8.235   8.870   0.503 -0.1181  0.6886  0.1446
  898SOL    HW1 9040   8.268   8.789   0.542 -0.2639  0.5632  0.0126
  898SOL    HW2 9041   8.140   8.860   0.507 -0.1692  1.5673  1.6174
  899SOL     OW 9042   7.663   1.829   2.025  0.0147  0.0488 -0.5114
  899SOL    HW1 9043   7.720   1.808   1.952  0.1016 -2.6256  0.2257
  899SOL    HW2 9044   7.634   1.744   2.059 -1.0762  1.2114  1.7422
  900SOL     OW 9045   1.855   8.540   8.593 -0.0617  0.3766 -0.6380
  900SOL    HW1 9046   1.869   8.556   8.686  0.9147  1.8331 -0.9916
  900SOL    HW2 9047   1.792   8.469   8.589  0.8174 -0.5513  1.1352
  901SOL     OW 9048   3.053   7.511   7.176  0.2442  0.2933 -0.1312
  901SOL    HW1 9049   3.112   7.585   7.166  0.8110 -0.1704 -0.2371
  901SOL    HW2 9050   2.969   7.543   7.142  0.3364  1.0593  0.3348
  902SOL     OW 9051   6.896   3.599   8.988  0.3674 -0.8110 -0.1762
  902SOL    HW1 9052   6.874   3.691   8.974  3.0040 -0.1776 -0.7111
  902SOL    HW2 9053   6.834   3.551   8.933 -1.4843  0.5562  0.6246
  903SOL     OW 9054   3.451   1.991   5.731  0.3025 -0.1173 -0.0860
  903SOL    HW1 9055   3.356   1.991   5.724  0.3097  0.8088 -0.2822
  903SOL    HW2 9056   3.469   1.968   5.822 -0.0891 -0.8230 -0.1832
  904SOL     OW 9057   1.829   8.399   7.150  0.5706  0.0771 -0.2497
  904SOL    HW1 9058   1.851   8.345   7.074 -2.1749 -2.0426  0.3150
  904SOL    HW2 9059   1.764   8.461   7.117  0.7923  0.4579  0.0086
  905SOL     OW 9060   7.912   3.693   7.443 -0.2525  0.3332 -0.6059
  905SOL    HW1 9061   7.933   3.609   7.483  1.3037  0.8527 -0.2331
  905SOL    HW2 9062   7.987   3.711   7.385  0.0977  2.0483  0.3225
  906SOL     OW 9063   1.397   2.906   6.305 -0.1593  0.4967 -0.4563
  906SOL    HW1 9064   1.366   2.842   6.241 -1.0744 -0.3325  0.7670
  906SOL    HW2 9065   1.319   2.957   6.327 -0.2245 -0.2200  1.0858
  907SOL     OW 9066   8.060   1.033   6.410  0.1686 -0.6820 -0.1907
  907SOL    HW1 9067   8.093   1.115   6.449 -0.3917 -0.3327 -0.4421
  907SOL    HW2 9068   8.014   1.061   6.331  1.3604 -1.3876 -1.1700
  908SOL     OW 9069   7.119   8.750   8.023  0.0397  0.3177 -0.5355
  908SOL    HW1 9070   7.056   8.817   7.995 -1.5282 -0.4713  0.9399
  908SOL    HW2 9071   7.181   8.798   8.079 -2.3584  0.2943  2.3838
  909SOL     OW 9072   5.530   1.016   2.261 -0.2595 -0.3057 -0.5649
  909SOL    HW1 9073   5.485   1.004   2.344  0.8091 -1.9087 -0.1690
  909SOL    HW2 9074   5.623   1.008   2.283  0.0483 -0.6694 -1.8930
  910SOL     OW 9075   1.825   0.168   2.071  0.2941 -0.2926 -0.2526
  910SOL    HW1 9076   1.832   0.260   2.095  1.2049 -0.4470  0.1154
  910SOL    HW2 9077   1.832   0.121   2.154 -2.5928 -0.6332 -0.1230
  911SOL     OW 9078   6.993   8.606   2.245  0.1465 -0.2311 -0.3264
  911SOL    HW1 9079   7.009   8.673   2.179 -1.4544  1.3719  0.8124
  911SOL    HW2 9080   7.059   8.622   2.312  0.1200 -0.1451 -0.3207
  912SOL     OW 9081   0.591   1.483   0.430 -0.5725  0.5758  0.2768
  912SOL    HW1 9082   0.627   1.395   0.442 -2.2365 -0.0303  1.2585
  912SOL    HW2 9083   0.645   1.522   0.361  0.9853 -0.7515  0.6841
  913SOL     OW 9084   1.128   7.995   3.273  0.3142 -0.2533  0.2830
  913SOL    HW1 9085   1.120   8.069   3.334 -1.2361 -0.3346  0.2121
  913SOL    HW2 9086   1.107   7.918   3.326  0.0612 -0.4441 -0.0979
  914SOL     OW 9087   4.387   8.114   0.317  0.0457 -1.1597  0.0490
  914SOL    HW1 9088   4.356   8.194   0.358 -0.2078 -0.5108 -1.3369
  914SOL    HW2 9089   4.312   8.055   0.318 -0.2594 -0.7874 -0.3502
  915SOL     OW 9090   7.042   4.094   6.794  0.3232  0.0728 -0.1424
  915SOL    HW1 9091   7.119   4.136   6.833  0.3892 -1.6054  1.7030
  915SOL    HW2 9092   7.019   4.024   6.855 -2.9871  0.7928 -0.3699
  916SOL     OW 9093   2.478   4.935   1.970  0.0584  0.1480  0.0187
  916SOL    HW1 9094   2.549   4.936   2.035 -0.7653  1.1974  0.9394
  916SOL    HW2 9095   2.399   4.920   2.022 -0.4718 -0.4656 -0.9332
  917SOL     OW 9096   1.527   2.746   2.165 -0.0411 -0.3997 -0.1776
  917SOL    HW1 9097   1.559   2.664   2.201  1.5240  0.1076 -0.3522
  917SOL    HW2 9098   1.596   2.776   2.107 -1.1087  0.4548 -1.0514
  918SOL     OW 9099   0.690   5.031   7.135  0.0563 -0.2735 -0.1662
  918SOL    HW1 9100   0.656   5.037   7.046  0.1063 -1.0113 -0.2345
  918SOL    HW2 9101   0.767   4.976   7.128  0.3913  0.1341  0.2463
  919SOL     OW 9102   1.495   0.934   5.354  0.1886 -0.2284 -0.3894
  919SOL    HW1 9103   1.516   0.843   5.377 -0.4249 -0.2560  0.0814
  919SOL    HW2 9104   1.531   0.945   5.266 -2.0850 -1.7764 -1.6333
  920SOL     OW 9105   3.008   7.342   0.197  0.0052 -0.1027  0.1132
  920SOL    HW1 9106   3.021   7.248   0.207 -1.1346 -0.3688 -0.6622
  920SOL    HW2 9107   2.917   7.351   0.167 -0.4803  1.3657  1.8347
  921SOL     OW 9108   0.928   5.126   4.435  0.1662 -0.3594  0.0172
  921SOL    HW1 9109   0.964   5.124   4.524 -0.9318 -2.6270  0.4873
  921SOL    HW2 9110   0.991   5.077   4.383  1.5050  2.1105 -0.8255
  922SOL     OW 9111   7.741   8.376   7.621  0.2137 -0.0216 -0.1653
  922SOL    HW1 9112   7.766   8.436   7.691 -0.0257 -0.0035 -0.0944
  922SOL    HW2 9113   7.695   8.305   7.666  0.6470 -0.3488 -0.2248
  923SOL     OW 9114   0.340   0.351   4.972  0.1186  0.8177 -0.1628
  923SOL    HW1 9115   0.317   0.381   4.884  0.1301  0.3000 -0.3471
  923SOL    HW2 9116   0.316   0.424   5.029 -0.5901  0.8705 -0.5136
  924SOL     OW 9117   0.336   6.355   9.134  0.1724  0.3790 -0.4127
  924SOL    HW1 9118   0.286   6.415   9.190  0.6672  0.3644  0.0524
  924SOL    HW2 9119   0.387   6.412   9.077  1.6436  0.4333  0.9192
  925SOL     OW 9120   0.750   4.278   3.222  0.3351  0.2818 -0.2375
  925SOL    HW1 9121   0.796   4.341   3.278  0.6884  0.7099 -1.0022
  925SOL    HW2 9122   0.810   4.205   3.214  1.6369  1.5045 -2.5471
  926SOL     OW 9123   7.314   9.175   8.127  0.0182  0.2865  0.4242
  926SOL    HW1 9124   7.237   9.231   8.121  0.5081  1.0439  1.1512
  926SOL    HW2 9125   7.356   9.199   8.209  1.6739  0.7193 -0.5020
  927SOL     OW 9126   7.035   3.588   5.700 -0.0177 -0.0814 -0.7532
  927SOL    HW1 9127   7.042   3.680   5.725 -1.0756  0.1258 -1.1872
  927SOL    HW2 9128   7.094   3.579   5.625  0.5794  0.0801 -0.3122
  928SOL     OW 9129   2.692   1.377   2.309 -0.1393  0.7442  0.1538
  928SOL    HW1 9130   2.659   1.394   2.397 -2.2771  3.1505 -0.9758
  928SOL    HW2 9131   2.743   1.454   2.287  0.2985  0.2113 -0.7427
  929SOL     OW 9132   3.663   0.345   7.087 -0.5017 -0.0664 -0.1491
  929SOL    HW1 9133   3.712   0.327   7.007 -0.4778 -1.0386  0.0716
  929SOL    HW2 9134   3.582   0.294   7.078 -0.3679 -0.4299  0.5612
  930SOL     OW 9135   5.565   3.914   8.897  0.0601 -0.5060  0.1593
  930SOL    HW1 9136   5.575   3.992   8.843 -1.8201  0.3604  0.9625
  930SOL    HW2 9137   5.525   3.946   8.978  0.2922 -2.1448  0.9658
  931SOL     OW 9138   9.194   3.252   7.436 -0.1176  0.2655 -0.1479
  931SOL    HW1 9139   9.246   3.323   7.474 -0.7478  1.2890 -1.1561
  931SOL    HW2 9140   9.120   3.242   7.497  1.0435 -0.9840  1.1214
  932SOL     OW 9141   2.974   3.329   0.276  0.4571  0.3509 -0.4323
  932SOL    HW1 9142   3.037   3.396   0.251 -0.3604  1.1919 -0.3006
  932SOL    HW2 9143   2.889   3.364   0.247 -0.2871  0.4961  1.7312
  933SOL     OW 9144   6.410   0.825   5.725 -0.6327 -0.2180  0.2209
  933SOL    HW1 9145   6.481   0.817   5.661  0.2183 -1.1062  1.2420
  933SOL    HW2 9146   6.452   0.861   5.803 -1.4447 -0.1671  0.6487
  934SOL     OW 9147   6.948   5.709   8.681  0.2145 -0.3786  0.2135
  934SOL    HW1 9148   7.016   5.722   8.746 -0.1136 -0.5305  0.5899
  934SOL    HW2 9149   6.990   5.658   8.612  0.2187 -1.3299  0.8961
  935SOL     OW 9150   1.907   4.515   1.580 -0.2007  0.1332 -0.1968
  935SOL    HW1 9151   1.928   4.488   1.490  0.5041 -0.4039  0.1177
  935SOL    HW2 9152   1.969   4.586   1.598  2.3539 -2.2085  1.1400
  936SOL     OW 9153   9.105   8.245   5.605 -0.2994 -0.1968 -0.0829
  936SOL    HW1 9154   9.049   8.227   5.530  0.4900 -1.7414 -0.3425
  936SOL    HW2 9155   9.101   8.166   5.658  0.6624  0.1368  0.5128
  937SOL     OW 9156   2.214   4.248   3.464 -0.4216 -0.3906  0.4770
  937SOL    HW1 9157   2.119   4.256   3.472 -0.4179 -1.4246  1.7731
  937SOL    HW2 9158   2.246   4.246   3.554  0.8940  0.4437  0.0650
  938SOL     OW 9159   9.119   4.542   4.225 -0.1075  0.0045  0.1108
  938SOL    HW1 9160   9.048   4.605   4.238 -1.5166 -1.0779 -1.7863
  938SOL    HW2 9161   9.164   4.572   4.146  0.8748  0.0372  0.6573
  939SOL     OW 9162   2.846   5.034   3.984 -0.4097  0.3565 -0.3098
  939SOL    HW1 9163   2.801   5.083   3.915  1.5196  0.8920 -1.2672
  939SOL    HW2 9164   2.840   4.943   3.956  1.3685  0.6522 -1.9218
  940SOL     OW 9165   1.863   9.076   7.367  0.4966  0.1910  0.1336
  940SOL    HW1 9166   1.884   9.090   7.275  0.9720  1.1353  0.3637
  940SOL    HW2 9167   1.770   9.094   7.374  0.6376  1.0509 -0.0125
  941SOL     OW 9168   6.273   6.199   3.391 -0.0522 -0.2893  0.1047
  941SOL    HW1 9169   6.356   6.243   3.409  1.3822 -2.0515 -1.7220
  941SOL    HW2 9170   6.284   6.111   3.427 -0.2659 -1.2075 -1.9323
  942SOL     OW 9171   7.710   3.724   6.966  0.0633  0.0960 -0.0684
  942SOL    HW1 9172   7.668   3.809   6.956  1.8254  0.9996 -0.1778
  942SOL    HW2 9173   7.705   3.706   7.060 -0.3854  0.2720 -0.0551
  943SOL     OW 9174   3.438   2.627   6.104 -0.6163 -0.4534 -0.7508
  943SOL    HW1 9175   3.394   2.548   6.135  1.9749 -1.4785  0.6722
  943SOL    HW2 9176   3.522   2.595   6.070  0.3292  1.6400 -0.5294
  944SOL     OW 9177   6.479   7.977   1.837  0.6208 -0.3597 -0.0326
  944SOL    HW1 9178   6.545   7.912   1.864  0.3806  0.2031  2.0317
  944SOL    HW2 9179   6.421   7.928   1.778  2.1249 -1.2014 -0.8925
  945SOL     OW 9180   2.444   3.651   9.146 -0.2499  0.1891  0.3185
  945SOL    HW1 9181   2.475   3.735   9.111 -0.2789  0.6320  1.3131
  945SOL    HW2 9182   2.515   3.590   9.128 -0.5364  0.2468 -1.0843
  946SOL     OW 9183   5.541   2.361   3.106  0.2025  0.1120  0.2102
  946SOL    HW1 9184   5.541   2.402   3.020  0.1953 -0.4911 -0.0824
  946SOL    HW2 9185   5.602   2.414   3.158 -0.5000  1.0453  0.1189
  947SOL     OW 9186   3.272   4.607   3.192 -0.3756 -0.2841  0.3237
  947SOL    HW1 9187   3.229   4.581   3.110  0.3101  3.4567 -1.4661
  947SOL    HW2 9188   3.200   4.617   3.254 -1.3428 -0.1312 -0.7854
  948SOL     OW 9189   5.995   8.573   6.887  0.6810  0.7132 -0.1019
  948SOL    HW1 9190   5.909   8.614   6.880  0.1583 -0.2582  0.3524
  948SOL    HW2 9191   6.042   8.626   6.952 -0.5748 -0.3105  1.7448
  949SOL     OW 9192   0.163   8.617   2.183 -0.3959 -0.1895  0.2356
  949SOL    HW1 9193   0.094   8.678   2.209 -1.8374 -2.2005  1.5006
  949SOL    HW2 9194   0.138   8.588   2.095 -0.5895 -0.1145  0.2661
  950SOL     OW 9195   1.336   3.366   0.869 -0.1390 -0.2718 -0.3189
  950SOL    HW1 9196   1.420   3.348   0.828 -0.2914 -0.2891 -0.6244
  950SOL    HW2 9197   1.358   3.411   0.951  0.1447  0.3511 -0.7244
  951SOL     OW 9198   2.150   8.248   6.737  0.4124 -0.3118 -0.2471
  951SOL    HW1 9199   2.131   8.337   6.768 -0.4829 -0.7747  0.6027
  951SOL    HW2 9200   2.223   8.218   6.793  0.3623 -0.2970 -0.1733
  952SOL     OW 9201   5.108   3.923   6.690 -0.1382 -0.1128 -0.3668
  952SOL    HW1 9202   5.094   3.837   6.731  0.0023  0.4791  1.0018
  952SOL    HW2 9203   5.163   3.905   6.614 -1.3110 -1.4027 -0.9573
  953SOL     OW 9204   0.758   1.753   4.386 -0.1780 -0.0279 -0.3568
  953SOL    HW1 9205   0.811   1.679   4.357  0.0942  0.4510 -1.1030
  953SOL    HW2 9206   0.678   1.747   4.333 -1.0281 -0.9071  0.9501
  954SOL     OW 9207   0.078   5.330   5.755 -0.3070 -0.1436 -0.0345
  954SOL    HW1 9208   0.110   5.270   5.688  0.2943  0.1228  0.0148
  954SOL    HW2 9209   0.046   5.406   5.706  0.6180  0.2767  0.0082
  955SOL     OW 9210   3.977   7.246   5.325 -0.6607 -0.3159 -0.4747
  955SOL    HW1 9211   3.953   7.334   5.299 -0.7716 -1.0087 -2.9662
  955SOL    HW2 9212   3.894   7.198   5.328 -0.6585 -0.2721  1.3233
  956SOL     OW 9213   7.944   4.426   1.272  0.0207 -0.2026  0.0192
  956SOL    HW1 9214   7.965   4.460   1.359  0.4057 -0.6009  0.0868
  956SOL    HW2 9215   7.858   4.385   1.282 -0.7996  1.3856 -0.2435
  957SOL     OW 9216   6.534   0.321   5.627  0.7713  0.1637 -0.3183
  957SOL    HW1 9217   6.528   0.410   5.663 -2.0669 -0.3632  0.8163
  957SOL    HW2 9218   6.586   0.273   5.692 -2.1746 -0.1638  2.0174
  958SOL     OW 9219   0.342   3.785   0.299 -0.0144  0.3861  0.4118
  958SOL    HW1 9220   0.251   3.758   0.286  0.3802  0.2977 -3.1014
  958SOL    HW2 9221   0.362   3.758   0.389 -2.8388 -1.3350  0.6624
  959SOL     OW 9222   1.028   4.423   1.895  0.0704 -0.1173  0.3773
  959SOL    HW1 9223   0.996   4.510   1.875 -0.2296 -0.6419 -1.6418
  959SOL    HW2 9224   0.950   4.371   1.912 -0.0220 -0.6877 -1.5545
  960SOL     OW 9225   0.580   5.057   5.754 -0.0423 -0.0999 -0.7116
  960SOL    HW1 9226   0.555   5.009   5.675 -1.8084  0.9424 -0.8497
  960SOL    HW2 9227   0.567   4.994   5.825  2.0196 -1.1973 -1.2322
  961SOL     OW 9228   2.604   5.311   5.275  0.2660 -0.6467  0.3959
  961SOL    HW1 9229   2.596   5.379   5.341 -0.0117  0.6737 -0.9446
  961SOL    HW2 9230   2.604   5.358   5.191 -0.4223 -2.3227 -0.6057
  962SOL     OW 9231   7.498   1.966   6.718  0.3198  0.3188  0.0014
  962SOL    HW1 9232   7.524   2.058   6.724  2.3397 -0.2043  0.1946
  962SOL    HW2 9233   7.411   1.962   6.758  0.2923  2.0961  0.1828
  963SOL     OW 9234   4.501   0.526   4.503 -0.0672  0.2369  0.2869
  963SOL    HW1 9235   4.566   0.543   4.572  0.6246  0.0454 -0.3158
  963SOL    HW2 9236   4.550   0.482   4.434 -0.5140  1.4363 -0.8143
  964SOL     OW 9237   6.636   5.417   1.586 -0.3961 -0.4954  0.0944
  964SOL    HW1 9238   6.582   5.355   1.537 -0.2924  0.2588 -1.0310
  964SOL    HW2 9239   6.721   5.375   1.593  0.3366  0.3395 -2.5769
  965SOL     OW 9240   1.535   2.873   3.452  0.3229 -0.0560  0.0845
  965SOL    HW1 9241   1.443   2.868   3.478  0.5022 -1.5931  0.4975
  965SOL    HW2 9242   1.535   2.860   3.358  0.0602  0.8938 -0.0615
  966SOL     OW 9243   4.829   1.587   3.417  0.6565  0.0466 -0.3529
  966SOL    HW1 9244   4.919   1.555   3.408  0.2999 -0.5798 -2.0641
  966SOL    HW2 9245   4.838   1.670   3.466  1.9174 -1.0197  1.3506
  967SOL     OW 9246   1.371   5.244   7.353  0.2272  0.1092  0.0690
  967SOL    HW1 9247   1.328   5.183   7.293 -0.8932 -0.3675  1.3190
  967SOL    HW2 9248   1.305   5.310   7.372  0.6728  0.4278  0.5405
  968SOL     OW 9249   3.171   6.167   8.272 -0.2566 -0.1771 -0.7523
  968SOL    HW1 9250   3.140   6.097   8.214  0.9729 -0.6818 -0.8301
  968SOL    HW2 9251   3.266   6.159   8.269 -0.1397  0.8690  0.0334
  969SOL     OW 9252   4.016   1.171   2.038  0.6822 -0.1987 -0.5751
  969SOL    HW1 9253   4.050   1.135   2.119  1.3964 -0.1156 -0.8279
  969SOL    HW2 9254   3.927   1.200   2.059  0.9568  0.0734  0.2436
  970SOL     OW 9255   6.757   3.565   4.329 -0.1684  0.1859  0.1915
  970SOL    HW1 9256   6.701   3.512   4.385  0.7394 -0.0014  0.9343
  970SOL    HW2 9257   6.703   3.641   4.308 -1.0716 -0.4676  0.0445
  971SOL     OW 9258   8.806   8.655   6.823 -0.2350  0.6355 -0.6156
  971SOL    HW1 9259   8.880   8.716   6.826  1.8816 -1.6360 -2.3132
  971SOL    HW2 9260   8.731   8.710   6.799  1.4223  2.6693 -1.4871
  972SOL     OW 9261   4.830   1.621   6.396 -0.3911  0.5490 -0.5029
  972SOL    HW1 9262   4.756   1.563   6.412  0.7017 -1.0321 -0.9909
  972SOL    HW2 9263   4.900   1.564   6.364  0.7393  2.1310 -1.0102
  973SOL     OW 9264   6.601   2.583   9.185 -0.4020 -0.0538 -0.5546
  973SOL    HW1 9265   6.615   2.657   9.126  4.1859  0.2052  0.4389
  973SOL    HW2 9266   6.584   2.623   9.271  2.1119  0.0731 -0.0100
  974SOL     OW 9267   3.119   7.358   5.935  0.3446 -0.0224  0.0195
  974SOL    HW1 9268   3.182   7.424   5.965 -0.8712  0.8415  0.7616
  974SOL    HW2 9269   3.112   7.372   5.840 -0.3191  1.3215  0.2463
  975SOL     OW 9270   8.394   8.921   8.854  0.3565  0.1363  0.2812
  975SOL    HW1 9271   8.304   8.907   8.824 -0.1034 -1.4803  2.1605
  975SOL    HW2 9272   8.385   8.972   8.934  1.1124  0.0150  0.4510
  976SOL     OW 9273   7.324   1.420   5.166 -0.1909 -0.5378 -0.3357
  976SOL    HW1 9274   7.389   1.485   5.137 -0.6613  0.4432  0.7409
  976SOL    HW2 9275   7.363   1.381   5.244 -1.2793  0.7830  0.9289
  977SOL     OW 9276   4.076   0.028   3.215  0.4413 -0.1791 -0.6964
  977SOL    HW1 9277   4.114  -0.039   3.158 -0.2297  0.7351 -2.2548
  977SOL    HW2 9278   4.129   0.106   3.199  0.5069 -0.0110  0.2655
  978SOL     OW 9279   0.037   2.656   8.067  0.1238 -0.0704  0.4464
  978SOL    HW1 9280   0.008   2.586   8.009 -0.7666  0.6282  0.0251
  978SOL    HW2 9281   0.096   2.613   8.128  2.7520 -0.4929 -2.1667
  979SOL     OW 9282   3.703   1.440   2.641 -0.4198 -0.0576 -0.1371
  979SOL    HW1 9283   3.702   1.408   2.551  0.9419 -0.1282 -0.1543
  979SOL    HW2 9284   3.783   1.493   2.646 -0.1661 -0.5376  1.1885
  980SOL     OW 9285   7.994   5.555   0.258  0.7009 -0.0871 -0.4385
  980SOL    HW1 9286   7.987   5.576   0.165 -0.9414 -1.1692 -0.5916
  980SOL    HW2 9287   7.916   5.502   0.277 -0.4932  2.3679  2.1735
  981SOL     OW 9288   2.798   2.349   0.564  0.1876  0.0542 -0.4033
  981SOL    HW1 9289   2.758   2.355   0.477 -0.4633  0.5875 -0.0771
  981SOL    HW2 9290   2.781   2.259   0.593 -2.7152  0.8110  0.6058
  982SOL     OW 9291   5.965   2.956   0.720  0.4117 -0.0644  0.2874
  982SOL    HW1 9292   5.969   2.885   0.783  0.6645  0.1819  0.5500
  982SOL    HW2 9293   5.987   2.915   0.636  0.6760 -0.2679  0.4583
  983SOL     OW 9294   2.862   3.173   2.582 -0.0231 -0.2866  0.5457
  983SOL    HW1 9295   2.943   3.175   2.633 -0.7154 -0.0461  1.6685
  983SOL    HW2 9296   2.818   3.255   2.604 -1.5476 -1.3439  1.6298
  984SOL     OW 9297   7.695   2.558   0.859 -0.1106 -0.2509 -0.1945
  984SOL    HW1 9298   7.608   2.549   0.819  0.0433  0.1921 -0.6273
  984SOL    HW2 9299   7.749   2.493   0.814 -0.5602 -1.5732  1.0862
  985SOL     OW 9300   2.088   4.672   5.909 -0.8061 -0.0609 -0.1579
  985SOL    HW1 9301   2.140   4.738   5.862 -1.1466 -0.0297 -0.4990
  985SOL    HW2 9302   1.998   4.689   5.881 -1.2058  0.8539  1.5811
  986SOL     OW 9303   7.256   5.256   9.094 -0.0277  0.0183 -0.0307
  986SOL    HW1 9304   7.261   5.279   9.001 -2.7415  0.6042 -0.1106
  986SOL    HW2 9305   7.197   5.321   9.132 -2.3475 -2.6031  1.2154
  987SOL     OW 9306   8.725   1.032   8.662  0.0410 -0.1357 -0.2829
  987SOL    HW1 9307   8.811   1.054   8.628 -0.5329  0.2545 -1.5382
  987SOL    HW2 9308   8.723   1.069   8.750  0.7556  0.7979 -0.6531
  988SOL     OW 9309   1.533   3.292   7.120 -0.3359  0.3302  0.1928
  988SOL    HW1 9310   1.495   3.353   7.183  0.4968  1.0910 -0.0253
  988SOL    HW2 9311   1.535   3.208   7.166 -1.5981  0.4291  0.4556
  989SOL     OW 9312   3.022   4.884   3.686  0.5472  0.0997 -0.3421
  989SOL    HW1 9313   2.945   4.940   3.687 -0.3320 -1.0557  0.7592
  989SOL    HW2 9314   3.094   4.942   3.661 -0.8298  0.9559 -2.6138
  990SOL     OW 9315   8.494   6.366   0.212 -0.5091  0.0590  0.2462
  990SOL    HW1 9316   8.510   6.460   0.199  1.3768 -0.4601 -1.7724
  990SOL    HW2 9317   8.434   6.342   0.141  0.7218 -0.6100 -0.6220
  991SOL     OW 9318   4.896   7.808   4.824 -0.8075 -0.1590  0.0970
  991SOL    HW1 9319   4.960   7.817   4.895 -1.0814  0.3950  0.2779
  991SOL    HW2 9320   4.813   7.791   4.868 -0.5995 -2.1794 -0.1741
  992SOL     OW 9321   2.682   7.953   5.298 -0.0500  0.2053 -0.0061
  992SOL    HW1 9322   2.681   8.007   5.220  1.9852 -0.4233 -0.5291
  992SOL    HW2 9323   2.621   7.882   5.279 -0.2404  0.5411 -0.6520
  993SOL     OW 9324   7.879   1.159   5.903  0.3883  0.2540  0.6656
  993SOL    HW1 9325   7.931   1.199   5.834  0.1524 -1.2122 -0.4071
  993SOL    HW2 9326   7.807   1.116   5.858 -0.7651  0.7451  1.9868
  994SOL     OW 9327   6.989   3.107   0.219  0.2844  0.4598 -0.4489
  994SOL    HW1 9328   6.986   3.201   0.235  0.1272  0.1396  1.6428
  994SOL    HW2 9329   6.924   3.092   0.151  2.2492  2.1841 -2.9171
  995SOL     OW 9330   3.012   4.846   6.611  0.1237 -0.2992 -0.0361
  995SOL    HW1 9331   3.046   4.874   6.696 -1.4361  1.7481 -0.0131
  995SOL    HW2 9332   2.978   4.758   6.627  1.0979 -0.4868  1.1082
  996SOL     OW 9333   1.988   7.242   7.357  0.2350  0.3264 -0.0486
  996SOL    HW1 9334   1.994   7.338   7.353  0.4156  0.2973 -0.6414
  996SOL    HW2 9335   1.958   7.223   7.446  2.5413  0.8235  0.9062
  997SOL     OW 9336   5.926   5.922   4.356  0.2808  0.5675  0.0938
  997SOL    HW1 9337   5.926   6.005   4.309 -0.9372 -0.3485 -1.6139
  997SOL    HW2 9338   5.858   5.870   4.314 -0.4433 -0.5693  2.4700
  998SOL     OW 9339   8.873   1.510   1.234  0.0647  0.0388  0.3860
  998SOL    HW1 9340   8.961   1.536   1.262 -0.8943  1.8475  1.9252
  998SOL    HW2 9341   8.841   1.453   1.304  0.4081 -1.6510 -0.7634
  999SOL     OW 9342   5.288   3.671   6.919  0.5717 -0.4797 -0.4368
  999SOL    HW1 9343   5.353   3.609   6.953  1.4042  0.6257  0.0232
  999SOL    HW2 9344   5.208   3.619   6.911  1.9783 -2.4859 -3.1787
 1000SOL     OW 9345   3.123   7.008   0.875 -0.1455 -0.5227 -0.4801
 1000SOL    HW1 9346   3.064   6.991   0.948 -0.8063  0.3516 -0.7854
 1000SOL    HW2 9347   3.156   7.097   0.891  0.2475 -0.5937 -0.8782
 1001SOL     OW 9348   8.903   5.305   1.756  0.5707  0.0226 -0.0464
 1001SOL    HW1 9349   8.845   5.324   1.830  1.7988  1.4612  0.6042
 1001SOL    HW2 9350   8.901   5.210   1.748 -1.9796  0.0006 -0.1715
 1002SOL     OW 9351   0.241   5.987   0.434  0.1378 -0.1011 -0.2509
 1002SOL    HW1 9352   0.323   5.981   0.384  0.1754  1.0998 -0.3635
 1002SOL    HW2 9353   0.197   6.064   0.398 -0.7680 -0.3941  0.2131
 1003SOL     OW 9354   4.596   5.408   6.555  0.4000  0.1317  0.2935
 1003SOL    HW1 9355   4.675   5.375   6.512  0.3629 -0.1088  0.4032
 1003SOL    HW2 9356   4.586   5.352   6.632  1.1337  1.3203  1.2921
 1004SOL     OW 9357   1.763   7.062   9.079 -0.2419 -0.1424  0.0496
 1004SOL    HW1 9358   1.778   6.979   9.124 -2.5452 -0.4957  0.2656
 1004SOL    HW2 9359   1.668   7.071   9.077 -0.0545  2.1491 -0.6266
 1005SOL     OW 9360   5.381   3.179   3.177 -0.4077 -0.5652 -0.9000
 1005SOL    HW1 9361   5.370   3.163   3.084 -0.3600 -0.5819 -0.9031
 1005SOL    HW2 9362   5.405   3.271   3.183  2.2064 -1.1327 -1.1345
 1006SOL     OW 9363   6.904   1.242   5.516  0.1456 -0.1216 -0.4564
 1006SOL    HW1 9364   6.980   1.230   5.573 -2.7522 -1.9194  3.4758
 1006SOL    HW2 9365   6.881   1.153   5.488 -0.8926  0.3241 -1.0806
 1007SOL     OW 9366   5.120   0.545   8.964  0.5604 -0.2289 -0.8304
 1007SOL    HW1 9367   5.083   0.608   8.902 -0.7124  0.7451  0.8379
 1007SOL    HW2 9368   5.214   0.549   8.949  0.3610  0.7679 -1.9441
 1008SOL     OW 9369   0.025   5.277   6.388 -0.8094 -0.8025 -0.0665
 1008SOL    HW1 9370  -0.053   5.278   6.443  0.8611  1.3981  2.4912
 1008SOL    HW2 9371   0.070   5.195   6.410  0.6617  0.7434  3.3568
 1009SOL     OW 9372   7.838   2.746   1.759  0.1364  0.1395  0.8851
 1009SOL    HW1 9373   7.780   2.785   1.824 -0.3673  2.7850 -0.9797
 1009SOL    HW2 9374   7.924   2.782   1.780  0.0897  0.4872  0.4879
 1010SOL     OW 9375   7.975   7.849   4.456 -0.2589  0.0205  0.3531
 1010SOL    HW1 9376   7.895   7.845   4.404  0.2935 -1.9580 -0.3985
 1010SOL    HW2 9377   8.040   7.889   4.398 -0.5656  1.2541  0.8275
 1011SOL     OW 9378   5.762   4.472   1.279 -0.2032  0.5695 -0.0850
 1011SOL    HW1 9379   5.849   4.445   1.308 -0.7807 -0.2317  0.9643
 1011SOL    HW2 9380   5.751   4.430   1.194  0.8923  1.6587 -0.7917
 1012SOL     OW 9381   2.041   6.942   8.070  0.2390  0.5058  0.1323
 1012SOL    HW1 9382   2.031   7.026   8.024 -0.0435 -0.1406 -1.0194
 1012SOL    HW2 9383   1.969   6.888   8.037  0.6679 -0.3310  0.5409
 1013SOL     OW 9384   7.751   4.068   8.785 -0.0402 -0.1734  0.0089
 1013SOL    HW1 9385   7.805   4.022   8.849 -0.3699  0.7655  1.0005
 1013SOL    HW2 9386   7.706   4.136   8.836  0.4743  1.2971 -1.4029
 1014SOL     OW 9387   6.142   2.822   0.933 -0.4197 -0.1782 -0.3799
 1014SOL    HW1 9388   6.191   2.753   0.887  0.1985  1.0217 -1.5769
 1014SOL    HW2 9389   6.199   2.848   1.005  0.0734  0.2108 -0.9061
 1015SOL     OW 9390   1.042   4.671   8.399 -0.5817  0.0760  0.3385
 1015SOL    HW1 9391   1.093   4.594   8.374  2.0606  1.8058 -0.0653
 1015SOL    HW2 9392   1.091   4.709   8.473 -0.7486  2.2651 -0.5832
 1016SOL     OW 9393   4.283   2.436   7.410 -0.3765  0.4631  0.4952
 1016SOL    HW1 9394   4.216   2.377   7.444  0.6253 -1.3147 -0.4320
 1016SOL    HW2 9395   4.238   2.492   7.347 -0.8648 -1.3868 -0.8843
 1017SOL     OW 9396   4.057   6.793   6.530 -0.3704 -0.3396  0.2169
 1017SOL    HW1 9397   4.147   6.804   6.558 -0.1824 -1.1120 -0.0488
 1017SOL    HW2 9398   4.050   6.845   6.449  0.0446 -0.8535 -0.1563
 1018SOL     OW 9399   0.271   6.936   3.340  0.3240  0.6800 -0.1373
 1018SOL    HW1 9400   0.231   6.966   3.258 -2.1051  1.2218  1.1642
 1018SOL    HW2 9401   0.255   6.842   3.340 -1.5975  0.9554  0.6149
 1019SOL     OW 9402   4.195   1.528   1.876  0.6539  0.4568  0.1362
 1019SOL    HW1 9403   4.221   1.610   1.918  0.2854 -0.6050  2.5688
 1019SOL    HW2 9404   4.278   1.483   1.858  0.8035  0.8490 -0.1838
 1020SOL     OW 9405   6.921   2.446   3.813  0.0434  0.2515 -0.5085
 1020SOL    HW1 9406   6.888   2.517   3.759  1.4606  0.5784 -0.9932
 1020SOL    HW2 9407   6.974   2.489   3.880 -1.5306 -0.1625  1.0608
 1021SOL     OW 9408   0.079   2.925   5.930  0.3422  0.3327  0.0244
 1021SOL    HW1 9409   0.093   2.841   5.973  0.3593  0.0230 -0.5836
 1021SOL    HW2 9410   0.063   2.903   5.839 -0.9455  0.8904  0.0965
 1022SOL     OW 9411   5.109   2.752   7.760  0.2514 -0.2128  0.1966
 1022SOL    HW1 9412   5.081   2.761   7.668 -1.5115 -0.4946  0.6707
 1022SOL    HW2 9413   5.029   2.767   7.811  0.9365 -1.2811  1.6457
 1023SOL     OW 9414   6.034   0.175   2.622 -0.3290  0.1018 -0.0671
 1023SOL    HW1 9415   6.014   0.265   2.597 -0.8556  0.0208  0.0541
 1023SOL    HW2 9416   6.129   0.173   2.632 -0.0617  0.0914 -2.1916
 1024SOL     OW 9417   5.108   3.077   5.285  0.0245 -0.0821 -0.2814
 1024SOL    HW1 9418   5.083   3.143   5.349  0.0354 -2.0320  1.8879
 1024SOL    HW2 9419   5.168   3.121   5.226  0.3718  1.7101  1.3278
 1025SOL     OW 9420   0.865   4.560   3.731  0.0507  0.4982  0.3870
 1025SOL    HW1 9421   0.955   4.592   3.728  0.0304  0.4726 -1.9070
 1025SOL    HW2 9422   0.864   4.500   3.806  1.8631  0.6572  0.5920
 1026SOL     OW 9423   4.233   2.351   2.617  0.2960  0.7111 -0.0785
 1026SOL    HW1 9424   4.224   2.256   2.626 -0.8486  0.9900  2.7325
 1026SOL    HW2 9425   4.207   2.369   2.526  0.6751 -1.6424 -0.7190
 1027SOL     OW 9426   2.899   4.695   3.880 -0.6797  0.1426 -0.4824
 1027SOL    HW1 9427   2.953   4.740   3.815 -0.3853  0.4244 -0.0446
 1027SOL    HW2 9428   2.961   4.645   3.934 -1.0578 -1.4184 -1.4215
 1028SOL     OW 9429   6.108   3.275   2.005 -0.0643 -0.0484  0.3710
 1028SOL    HW1 9430   6.043   3.343   1.989 -0.2976 -0.5157 -0.8247
 1028SOL    HW2 9431   6.057   3.196   2.020  0.1496 -0.8283 -2.4420
 1029SOL     OW 9432   1.195   7.499   3.057 -0.2767 -0.0455  0.3104
 1029SOL    HW1 9433   1.241   7.582   3.071  0.9462 -0.7291  0.5208
 1029SOL    HW2 9434   1.248   7.452   2.993 -2.1534  0.2090 -1.5596
 1030SOL     OW 9435   7.763   8.697   0.064  0.0932  0.2136 -0.1055
 1030SOL    HW1 9436   7.719   8.636   0.004 -0.7948  0.7740 -0.0454
 1030SOL    HW2 9437   7.714   8.689   0.145 -0.7329  1.7950 -0.4180
 1031SOL     OW 9438   2.910   5.157   4.802  0.0522 -0.0938  0.4228
 1031SOL    HW1 9439   2.816   5.139   4.798 -0.2369  1.1612  1.1030
 1031SOL    HW2 9440   2.922   5.205   4.884  0.8111  2.3362 -0.9944
 1032SOL     OW 9441   7.827   2.188   5.598  0.1266  0.3426  0.0804
 1032SOL    HW1 9442   7.878   2.129   5.653 -0.5914 -2.2769 -1.9031
 1032SOL    HW2 9443   7.737   2.178   5.630  0.0083  0.4641 -0.2107
 1033SOL     OW 9444   5.584   0.846   2.904  0.1731  0.9020 -0.4727
 1033SOL    HW1 9445   5.613   0.925   2.950 -1.6083  0.4054  1.6727
 1033SOL    HW2 9446   5.491   0.859   2.890  0.1805 -0.1307 -1.6133
 1034SOL     OW 9447   8.772   8.758   8.651 -0.4469  0.3182  0.1958
 1034SOL    HW1 9448   8.764   8.801   8.566  0.4125  1.2527  0.5705
 1034SOL    HW2 9449   8.744   8.668   8.635 -0.4360  0.5166 -1.0381
 1035SOL     OW 9450   0.777   1.487   0.751 -0.3840 -0.0234 -0.1002
 1035SOL    HW1 9451   0.785   1.466   0.657  0.6149 -0.8469  0.1529
 1035SOL    HW2 9452   0.865   1.511   0.778 -0.9181  1.6329  0.3377
 1036SOL     OW 9453   2.791   5.707   0.374 -0.0053  0.0891  0.0671
 1036SOL    HW1 9454   2.866   5.723   0.431  0.7703  0.9233 -1.1446
 1036SOL    HW2 9455   2.822   5.645   0.309 -0.4190  0.2962 -0.3365
 1037SOL     OW 9456   6.190   5.640   6.933 -0.3326 -0.4302 -0.2624
 1037SOL    HW1 9457   6.236   5.690   7.001 -0.3029 -2.4300  1.2898
 1037SOL    HW2 9458   6.197   5.694   6.855  0.4727  1.5426  1.0853
 1038SOL     OW 9459   3.675   6.456   6.701  0.2641  0.1870  0.2525
 1038SOL    HW1 9460   3.725   6.375   6.686  1.2099  0.8361 -0.2158
 1038SOL    HW2 9461   3.675   6.500   6.616 -0.2484  0.6725  0.5031
 1039SOL     OW 9462   6.483   5.760   1.370 -0.0815  0.1650 -0.2753
 1039SOL    HW1 9463   6.543   5.721   1.307  0.2816  0.6810 -0.2565
 1039SOL    HW2 9464   6.465   5.690   1.432 -0.4882 -0.3693 -0.9733
 1040SOL     OW 9465   2.636   4.261   7.147  0.0450 -0.2713 -0.0196
 1040SOL    HW1 9466   2.654   4.355   7.137 -1.3246  0.0069 -0.0443
 1040SOL    HW2 9467   2.662   4.223   7.063  1.0647 -0.0073  0.1587
 1041SOL     OW 9468   3.074   5.351   3.799 -0.0143 -0.0178  0.0076
 1041SOL    HW1 9469   3.012   5.341   3.726 -0.1561 -0.9365  0.2450
 1041SOL    HW2 9470   3.072   5.445   3.819  0.5684  0.3722 -1.6320
 1042SOL     OW 9471   7.252   3.052   6.837  0.5453  0.0696  0.6208
 1042SOL    HW1 9472   7.287   3.111   6.903  1.2364  0.6858 -0.2689
 1042SOL    HW2 9473   7.325   3.035   6.778  0.3077 -1.5371  0.7370
 1043SOL     OW 9474   0.732   3.445   0.325  0.0856  0.2842  0.3860
 1043SOL    HW1 9475   0.823   3.423   0.341 -0.2555 -0.4730  1.4012
 1043SOL    HW2 9476   0.686   3.414   0.403 -0.6536  3.2385  1.2651
 1044SOL     OW 9477   4.207   2.331   8.713 -0.2861  0.0108  0.3827
 1044SOL    HW1 9478   4.275   2.309   8.777 -1.4559 -1.1494  1.2816
 1044SOL    HW2 9479   4.167   2.247   8.692 -1.8186  0.7343  0.3024
 1045SOL     OW 9480   3.426   8.537   5.329 -0.2747  0.0702 -0.9475
 1045SOL    HW1 9481   3.475   8.615   5.357 -0.9712  0.8207 -1.7382
 1045SOL    HW2 9482   3.475   8.504   5.254 -0.5084  0.3404 -1.2260
 1046SOL     OW 9483   8.398   2.413   0.895 -0.3683 -0.3242 -0.2203
 1046SOL    HW1 9484   8.314   2.409   0.850 -0.1887  0.6848 -0.6632
 1046SOL    HW2 9485   8.433   2.325   0.888 -1.3053 -0.7131 -0.1806
 1047SOL     OW 9486   1.977   5.765   0.847 -0.3383 -0.2200  0.8991
 1047SOL    HW1 9487   2.013   5.794   0.931 -0.8316  1.5043  0.5573
 1047SOL    HW2 9488   1.926   5.840   0.816 -0.2054 -0.8356 -0.9249
 1048SOL     OW 9489   3.161   5.512   4.702 -0.0774 -0.2726  0.7179
 1048SOL    HW1 9490   3.081   5.473   4.666 -0.9466  0.5861  1.6622
 1048SOL    HW2 9491   3.137   5.535   4.792 -0.0977  3.6741 -0.1317
 1049SOL     OW 9492   6.061   8.877   8.210  0.2024  0.0532  0.3058
 1049SOL    HW1 9493   6.044   8.854   8.301 -2.3391  1.3069  0.2505
 1049SOL    HW2 9494   5.977   8.864   8.166  0.9545  0.9771 -1.5305
 1050SOL     OW 9495   8.412   4.236   7.109 -0.3704 -0.2185  0.3433
 1050SOL    HW1 9496   8.457   4.287   7.042 -0.1307 -1.3444 -0.3802
 1050SOL    HW2 9497   8.475   4.229   7.181 -0.1264 -0.1395  0.1373
 1051SOL     OW 9498   4.366   3.571   3.820  0.6685 -0.2004 -0.2809
 1051SOL    HW1 9499   4.284   3.525   3.804  0.2241 -0.1847  1.6176
 1051SOL    HW2 9500   4.339   3.660   3.846  1.3789  0.3200 -1.2721
 1052SOL     OW 9501   7.113   5.762   9.100 -0.6119  0.3688  0.0162
 1052SOL    HW1 9502   7.032   5.801   9.068 -0.3368  1.4184  0.5517
 1052SOL    HW2 9503   7.140   5.818   9.172  1.3085  0.8822 -1.0302
 1053SOL     OW 9504   0.622   6.350   3.968 -0.2777  0.2418 -0.4650
 1053SOL    HW1 9505   0.685   6.413   3.932 -0.9331  0.7694 -0.7062
 1053SOL    HW2 9506   0.672   6.302   4.034  0.4854  0.3946 -0.9153
 1054SOL     OW 9507   0.114   3.099   4.963 -0.2662  0.1600  0.1163
 1054SOL    HW1 9508   0.059   3.172   4.993 -0.7722  1.6926 -3.9118
 1054SOL    HW2 9509   0.052   3.034   4.932  0.2041 -0.3179  0.1704
 1055SOL     OW 9510   0.206   4.601   1.315  0.1812 -0.5391  0.2825
 1055SOL    HW1 9511   0.260   4.604   1.393  0.9607 -0.5379 -0.2457
 1055SOL    HW2 9512   0.263   4.563   1.248 -0.4482 -0.4707 -0.2997
 1056SOL     OW 9513   2.730   5.359   7.466 -0.1162  0.1718 -0.0082
 1056SOL    HW1 9514   2.679   5.383   7.543 -0.7465 -0.4213 -0.2241
 1056SOL    HW2 9515   2.676   5.294   7.421  0.0035  0.8772 -1.2194
 1057SOL     OW 9516   5.244   8.556   7.406  0.4461  0.6993 -0.2470
 1057SOL    HW1 9517   5.166   8.510   7.436  1.5128 -0.7320  0.4411
 1057SOL    HW2 9518   5.243   8.546   7.311  0.9127 -1.2771 -0.0963
 1058SOL     OW 9519   2.989   4.567   4.534  0.1327 -0.0231 -0.8901
 1058SOL    HW1 9520   2.899   4.578   4.503 -0.0236 -1.5305 -1.0561
 1058SOL    HW2 9521   3.036   4.641   4.497 -1.0690  0.8787 -0.6642
 1059SOL     OW 9522   9.186   2.045   7.064  0.5587  0.2965 -0.1245
 1059SOL    HW1 9523   9.250   1.986   7.104  0.4577 -1.0837 -1.8518
 1059SOL    HW2 9524   9.197   2.032   6.970 -0.9526  1.4761 -0.5113
 1060SOL     OW 9525   8.759   6.174   8.744 -0.0012  0.0416  0.2850
 1060SOL    HW1 9526   8.809   6.180   8.826  0.1406 -1.2237  0.3011
 1060SOL    HW2 9527   8.668   6.184   8.772 -0.0534 -1.5170  0.7797
 1061SOL     OW 9528   6.189   2.389   5.676  0.2057  0.3383  0.0008
 1061SOL    HW1 9529   6.243   2.311   5.665  0.3621  0.2812  1.0477
 1061SOL    HW2 9530   6.101   2.356   5.691  0.4527  0.2904  1.5383
 1062SOL     OW 9531   2.458   0.691   2.919 -0.2722 -0.1776 -0.5129
 1062SOL    HW1 9532   2.428   0.634   2.848  0.1924 -0.0692 -0.7988
 1062SOL    HW2 9533   2.548   0.713   2.896 -0.2716  0.2396 -0.1287
 1063SOL     OW 9534   3.291   1.659   6.584  0.0434 -0.2873 -0.0425
 1063SOL    HW1 9535   3.246   1.728   6.633  1.6441 -0.6215  2.0248
 1063SOL    HW2 9536   3.271   1.678   6.493 -1.5190  1.4904  0.5978
 1064SOL     OW 9537   5.668   4.725   0.521  0.2896  0.4120 -0.0284
 1064SOL    HW1 9538   5.591   4.769   0.486 -1.1079 -1.3512  0.7095
 1064SOL    HW2 9539   5.721   4.705   0.444 -0.3238  0.9854 -0.6119
 1065SOL     OW 9540   6.383   7.108   4.618 -0.0393  0.1349 -0.4239
 1065SOL    HW1 9541   6.424   7.060   4.545 -1.1401  0.5723 -1.3425
 1065SOL    HW2 9542   6.454   7.162   4.653  0.5822 -0.3054 -0.9680
 1066SOL     OW 9543   2.525   0.159   7.647  0.0163  0.2270  0.1266
 1066SOL    HW1 9544   2.579   0.125   7.575  0.4212 -1.5641  1.2158
 1066SOL    HW2 9545   2.584   0.218   7.694  0.5848 -0.5531  0.4264
 1067SOL     OW 9546   6.409   4.490   7.394 -0.4623 -0.0597  0.4447
 1067SOL    HW1 9547   6.353   4.424   7.354  1.3277 -0.4108 -1.5907
 1067SOL    HW2 9548   6.373   4.573   7.364 -1.0997 -0.1843  0.8376
 1068SOL     OW 9549   3.974   3.558   0.539  0.0842  0.1312  0.1490
 1068SOL    HW1 9550   3.963   3.620   0.466  0.4720 -1.8008 -1.6725
 1068SOL    HW2 9551   4.062   3.576   0.572 -0.5515  1.8530  1.0091
 1069SOL     OW 9552   3.984   6.702   2.054  0.3109 -0.0888 -0.0045
 1069SOL    HW1 9553   4.031   6.631   2.011 -0.3994  0.0770 -1.1026
 1069SOL    HW2 9554   3.986   6.774   1.990 -1.2132 -0.0027 -0.0058
 1070SOL     OW 9555   4.606   2.452   4.872  0.1507  0.3187  0.2081
 1070SOL    HW1 9556   4.674   2.480   4.933  2.1285 -0.3390 -1.5797
 1070SOL    HW2 9557   4.567   2.534   4.841 -0.2148  0.6903  1.5582
 1071SOL     OW 9558   5.810   9.162   2.167  0.3053  0.3375 -1.0335
 1071SOL    HW1 9559   5.800   9.208   2.250  1.0151  1.8921 -1.7532
 1071SOL    HW2 9560   5.889   9.201   2.128  0.7367 -1.2709 -1.8629
 1072SOL     OW 9561   7.411   0.551   0.693  0.1177  0.9087 -0.1127
 1072SOL    HW1 9562   7.444   0.481   0.638  1.4772  1.6945 -0.3522
 1072SOL    HW2 9563   7.365   0.507   0.765 -0.2502 -0.1598 -0.9814
 1073SOL     OW 9564   9.155   1.476   3.936  0.1883  0.8523 -0.3684
 1073SOL    HW1 9565   9.168   1.498   3.844  0.0624 -0.7067 -0.7895
 1073SOL    HW2 9566   9.087   1.408   3.935  1.2215 -0.2427  0.7400
 1074SOL     OW 9567   4.057   5.427   7.479  0.2581 -0.1451 -0.9639
 1074SOL    HW1 9568   4.024   5.409   7.567  1.2469 -0.3127 -0.6173
 1074SOL    HW2 9569   3.987   5.398   7.421 -0.1975 -0.5026 -0.2514
 1075SOL     OW 9570   0.072   4.524   0.725  0.5644  0.4188  0.4071
 1075SOL    HW1 9571   0.088   4.600   0.781  2.4619  0.1268  0.3261
 1075SOL    HW2 9572   0.148   4.468   0.739 -0.5544 -1.2461  0.0780
 1076SOL     OW 9573   2.643   1.639   1.591  0.3283  0.0170 -0.2184
 1076SOL    HW1 9574   2.621   1.697   1.518  1.7973  1.8257  0.7099
 1076SOL    HW2 9575   2.609   1.553   1.564  0.2318  0.7587 -2.7124
 1077SOL     OW 9576   4.649   7.103   2.302 -0.1712  0.5470  0.3199
 1077SOL    HW1 9577   4.739   7.120   2.330  0.1531 -1.2844  0.5481
 1077SOL    HW2 9578   4.596   7.119   2.380  0.0479  0.8917  0.3995
 1078SOL     OW 9579   6.372   1.611   7.782 -0.2648  0.4417 -0.5385
 1078SOL    HW1 9580   6.437   1.600   7.713  0.6109 -0.4244  0.4063
 1078SOL    HW2 9581   6.295   1.564   7.750  0.4884 -0.8618 -0.4774
 1079SOL     OW 9582   2.857   6.648   3.239  0.1927  0.2784 -0.0997
 1079SOL    HW1 9583   2.840   6.559   3.271  0.6228 -0.0119 -0.6450
 1079SOL    HW2 9584   2.838   6.643   3.145 -0.3124  0.9108 -0.0396
 1080SOL     OW 9585   0.580   4.130   8.184  0.2188  0.3541  0.3127
 1080SOL    HW1 9586   0.654   4.078   8.153  0.2172  0.0860  0.7520
 1080SOL    HW2 9587   0.546   4.173   8.105  0.4213 -0.0507  0.0015
 1081SOL     OW 9588   7.769   8.139   5.749  0.4080  0.3517  0.2373
 1081SOL    HW1 9589   7.769   8.197   5.825 -1.7837 -0.0807  0.6382
 1081SOL    HW2 9590   7.823   8.065   5.774  0.8231  0.8497  0.8330
 1082SOL     OW 9591   0.384   3.299   3.685  0.4043 -0.0099  0.1218
 1082SOL    HW1 9592   0.368   3.226   3.625 -0.4083  0.3980 -0.1730
 1082SOL    HW2 9593   0.375   3.260   3.772  0.9591 -0.4680 -0.0165
 1083SOL     OW 9594   5.146   9.097   8.625 -0.0666 -0.1485  0.0779
 1083SOL    HW1 9595   5.225   9.149   8.607 -1.6724  2.2999 -0.3470
 1083SOL    HW2 9596   5.116   9.069   8.539  0.1068 -0.7620  0.2122
 1084SOL     OW 9597   1.513   0.722   0.485  0.2767  0.0347  0.1764
 1084SOL    HW1 9598   1.545   0.704   0.396 -1.0595  2.2424 -0.8351
 1084SOL    HW2 9599   1.558   0.803   0.510  2.8310 -2.0089  2.7680
 1085SOL     OW 9600   8.801   1.677   3.458 -0.0187 -0.6140 -0.3534
 1085SOL    HW1 9601   8.825   1.768   3.446 -0.9699 -0.6184 -2.9597
 1085SOL    HW2 9602   8.725   1.664   3.401 -0.4141 -2.8348  0.5614
 1086SOL     OW 9603   4.250   7.204   6.969  0.1339  0.4490  0.7827
 1086SOL    HW1 9604   4.310   7.142   6.929 -0.4827  0.0880  0.4022
 1086SOL    HW2 9605   4.276   7.289   6.934 -0.7288  0.0902 -0.8510
 1087SOL     OW 9606   1.675   5.367   4.685  0.4642 -0.3107  0.0784
 1087SOL    HW1 9607   1.675   5.288   4.739  0.1918 -0.5832 -0.3130
 1087SOL    HW2 9608   1.717   5.341   4.604 -2.0654 -0.8512 -1.1544
 1088SOL     OW 9609   4.160   4.751   8.880 -0.8263 -0.1195  0.6926
 1088SOL    HW1 9610   4.166   4.684   8.948 -0.9338 -0.9267 -0.0599
 1088SOL    HW2 9611   4.195   4.708   8.802  2.0909  1.7281  0.8672
 1089SOL     OW 9612   1.025   4.819   7.988 -0.0101 -0.1744 -0.1413
 1089SOL    HW1 9613   1.020   4.897   7.933 -1.8123  1.0039  1.5258
 1089SOL    HW2 9614   1.118   4.810   8.009  0.2409  1.6943 -0.2253
 1090SOL     OW 9615   0.373   3.480   4.783 -0.0997 -0.0779 -0.0413
 1090SOL    HW1 9616   0.452   3.436   4.815 -0.8114 -1.3022  0.0629
 1090SOL    HW2 9617   0.304   3.414   4.788 -0.8462  0.5517 -1.4319
 1091SOL     OW 9618   6.536   1.616   3.073 -0.2066  0.1327  0.4189
 1091SOL    HW1 9619   6.442   1.608   3.060 -0.3688  2.0671  0.0621
 1091SOL    HW2 9620   6.554   1.566   3.152 -1.9980  1.8387  1.9955
 1092SOL     OW 9621   3.168   7.536   1.129 -0.6824 -0.9265  0.0318
 1092SOL    HW1 9622   3.111   7.556   1.055 -0.8352 -0.3677  0.2957
 1092SOL    HW2 9623   3.141   7.598   1.197  0.5503 -0.3527  0.0143
 1093SOL     OW 9624   5.465   4.443   1.283 -0.1874  0.0800 -0.1071
 1093SOL    HW1 9625   5.547   4.406   1.316 -0.1463 -0.4785 -0.8052
 1093SOL    HW2 9626   5.402   4.371   1.289 -0.1825 -0.0452 -1.2002
 1094SOL     OW 9627   1.683   0.516   7.258  0.3679 -0.2795 -0.3171
 1094SOL    HW1 9628   1.600   0.471   7.274  0.0371  0.4577  0.0439
 1094SOL    HW2 9629   1.667   0.572   7.182  0.6036 -0.3068 -0.3897
 1095SOL     OW 9630   1.266   3.763   2.706 -0.0025 -0.1975 -0.9598
 1095SOL    HW1 9631   1.183   3.806   2.686 -0.3059 -1.6518 -3.1869
 1095SOL    HW2 9632   1.332   3.832   2.698 -0.8725  0.7951  0.0343
 1096SOL     OW 9633   6.827   7.986   6.637  0.2820  0.0509  0.5758
 1096SOL    HW1 9634   6.786   8.010   6.554  0.2946 -0.4450  0.4248
 1096SOL    HW2 9635   6.765   7.927   6.679  0.7937 -0.6405  0.3813
 1097SOL     OW 9636   4.321   0.146   9.139  0.0448 -0.0197  0.1900
 1097SOL    HW1 9637   4.379   0.109   9.072 -0.3495  0.9463 -0.7063
 1097SOL    HW2 9638   4.369   0.135   9.221  0.4799 -1.3565 -0.2095
 1098SOL     OW 9639   1.526   2.541   3.297  0.2430 -0.2674  0.5529
 1098SOL    HW1 9640   1.583   2.579   3.230 -1.1238 -0.9154 -1.0414
 1098SOL    HW2 9641   1.539   2.596   3.374  0.6322  1.5348 -0.7494
 1099SOL     OW 9642   7.271   8.334   5.279  0.3099 -0.1684 -0.3132
 1099SOL    HW1 9643   7.270   8.428   5.298 -1.6876 -0.4510  1.2653
 1099SOL    HW2 9644   7.304   8.294   5.360 -1.4734 -0.9655  0.0607
 1100SOL     OW 9645   4.030   1.571   7.075 -0.1124  0.6660  0.2078
 1100SOL    HW1 9646   3.977   1.504   7.117  1.8414 -1.1371 -0.0569
 1100SOL    HW2 9647   4.095   1.596   7.141 -0.1699  1.5539 -0.0528
 1101SOL     OW 9648   3.286   5.663   2.468  0.2616  0.0425 -0.2229
 1101SOL    HW1 9649   3.312   5.580   2.507  1.4554  0.3236 -0.4033
 1101SOL    HW2 9650   3.347   5.676   2.395 -0.0240  0.9957 -0.3035
 1102SOL     OW 9651   6.868   5.287   2.890  0.0868 -0.2059  0.1124
 1102SOL    HW1 9652   6.905   5.204   2.861  0.3875  0.4918 -1.5794
 1102SOL    HW2 9653   6.800   5.308   2.826  0.8507  1.4395 -0.2267
 1103SOL     OW 9654   1.033   0.436   3.430 -0.0976  0.3820 -0.1669
 1103SOL    HW1 9655   1.030   0.509   3.492 -0.3879  1.0036 -0.8972
 1103SOL    HW2 9656   1.043   0.358   3.485 -2.0868  0.7477  0.7839
 1104SOL     OW 9657   6.393   7.551   4.193 -0.9022  0.2884  0.2868
 1104SOL    HW1 9658   6.404   7.518   4.283 -2.7056  0.6523  0.6905
 1104SOL    HW2 9659   6.434   7.484   4.138  0.4296  0.1641  1.3747
 1105SOL     OW 9660   8.935   3.319   1.458 -0.2074  0.0204 -0.1116
 1105SOL    HW1 9661   8.964   3.299   1.369 -0.3397 -0.8453  0.0341
 1105SOL    HW2 9662   9.010   3.299   1.513  0.1834  1.4074 -0.0935
 1106SOL     OW 9663   5.980   7.617   3.431  0.3262  0.6681 -0.3670
 1106SOL    HW1 9664   6.003   7.642   3.342 -1.0364  1.7674 -0.4506
 1106SOL    HW2 9665   5.890   7.584   3.425  0.2946  0.5379  0.5562
 1107SOL     OW 9666   1.038   0.978   3.197  0.2531  0.6758  0.0019
 1107SOL    HW1 9667   1.003   0.922   3.266 -0.9971  0.0560 -1.0873
 1107SOL    HW2 9668   1.060   1.060   3.241  2.0610 -0.6053  1.6237
 1108SOL     OW 9669   8.794   0.608   5.543 -0.2939  0.1099 -0.1495
 1108SOL    HW1 9670   8.864   0.555   5.505  0.1306  1.2434 -1.0031
 1108SOL    HW2 9671   8.835   0.653   5.617  0.0400  1.1141 -0.9136
 1109SOL     OW 9672   0.185   7.033   8.847  0.5003 -0.1925 -0.1518
 1109SOL    HW1 9673   0.146   7.109   8.802  1.0967 -1.0209 -2.1998
 1109SOL    HW2 9674   0.221   6.980   8.776  0.6430 -2.1032  1.2822
 1110SOL     OW 9675   7.384   3.788   5.888  0.4043 -0.7243 -0.5833
 1110SOL    HW1 9676   7.441   3.862   5.904  0.9034 -1.2374  0.1050
 1110SOL    HW2 9677   7.295   3.824   5.893  0.6087 -0.3675  0.8482
 1111SOL     OW 9678   2.477   7.903   7.832 -0.2594 -0.4537 -0.6721
 1111SOL    HW1 9679   2.458   7.858   7.915 -1.8057 -1.2074 -1.4002
 1111SOL    HW2 9680   2.509   7.989   7.858 -1.0928 -0.5343  0.7079
 1112SOL     OW 9681   1.468   8.564   7.546 -0.1896  0.2114 -0.0833
 1112SOL    HW1 9682   1.412   8.498   7.588  0.5124 -0.2817  0.1058
 1112SOL    HW2 9683   1.553   8.520   7.536 -0.2243  0.4480 -1.6783
 1113SOL     OW 9684   6.410   0.892   0.544 -0.3875  0.0291  0.3799
 1113SOL    HW1 9685   6.437   0.981   0.567  1.3161 -0.7296  1.4524
 1113SOL    HW2 9686   6.396   0.848   0.628 -0.6757 -0.8882 -0.1299
 1114SOL     OW 9687   3.679   1.417   5.075  0.0776  0.4662  0.2655
 1114SOL    HW1 9688   3.722   1.475   5.012  1.3806 -0.2550  0.4533
 1114SOL    HW2 9689   3.750   1.388   5.133 -1.1329  1.4374  2.3487
 1115SOL     OW 9690   3.380   6.841   6.321 -0.3058 -0.0377  0.4748
 1115SOL    HW1 9691   3.401   6.919   6.373 -0.2674  0.3315 -0.0816
 1115SOL    HW2 9692   3.358   6.876   6.235 -1.5538 -0.5327  0.5616
 1116SOL     OW 9693   1.588   1.989   3.580 -0.5710 -0.0758 -0.4871
 1116SOL    HW1 9694   1.603   1.901   3.546  0.4549 -0.0809 -0.0504
 1116SOL    HW2 9695   1.541   2.035   3.510 -0.6233 -0.7959 -0.9308
 1117SOL     OW 9696   3.116   1.611   0.899  0.6796 -0.2260 -0.4127
 1117SOL    HW1 9697   3.083   1.671   0.966 -0.5684  0.0525 -1.2455
 1117SOL    HW2 9698   3.079   1.526   0.923 -0.4066  0.0182 -1.1447
 1118SOL     OW 9699   4.687   8.730   6.866  0.2541  0.2961 -0.3224
 1118SOL    HW1 9700   4.760   8.695   6.918 -0.1084  1.4688  1.0457
 1118SOL    HW2 9701   4.616   8.667   6.880  0.3337  0.3082  0.1723
 1119SOL     OW 9702   3.586   9.099   3.289 -0.0389 -0.0755  0.3163
 1119SOL    HW1 9703   3.520   9.134   3.229 -0.3558  1.7490  1.6221
 1119SOL    HW2 9704   3.669   9.112   3.243 -0.3089  0.8772  0.0659
 1120SOL     OW 9705   2.135   8.555   0.974 -0.2205  0.6964  0.3174
 1120SOL    HW1 9706   2.225   8.532   0.994 -0.0968  0.9023  0.0134
 1120SOL    HW2 9707   2.083   8.481   1.005  0.0876  0.4099  0.1574
 1121SOL     OW 9708   5.119   7.677   4.064  0.2105  0.2098  0.1468
 1121SOL    HW1 9709   5.181   7.642   3.999  2.7519 -0.0822  2.5507
 1121SOL    HW2 9710   5.145   7.769   4.075 -0.8792  0.5452  0.0337
 1122SOL     OW 9711   9.176   7.275   6.379 -0.4265 -0.1336 -0.1137
 1122SOL    HW1 9712   9.098   7.283   6.324  0.5975 -0.0907 -1.6489
 1122SOL    HW2 9713   9.249   7.280   6.317  0.8024 -0.1249  1.2741
 1123SOL     OW 9714   0.407   0.650   3.535 -0.2293  0.0483  0.3966
 1123SOL    HW1 9715   0.413   0.705   3.457  0.5730 -0.4379  0.0916
 1123SOL    HW2 9716   0.416   0.711   3.609  0.7591  0.3269  0.0631
 1124SOL     OW 9717   8.620   2.618   7.653 -0.2747  0.1352  0.0495
 1124SOL    HW1 9718   8.708   2.618   7.690 -0.6676 -0.0043  1.0286
 1124SOL    HW2 9719   8.574   2.551   7.703 -1.4289  1.4319  0.7945
 1125SOL     OW 9720   9.025   7.524   3.431  0.0227 -0.1522 -0.4682
 1125SOL    HW1 9721   9.049   7.469   3.357  0.2167 -0.0414 -0.4904
 1125SOL    HW2 9722   9.004   7.609   3.391  0.3222 -0.0347 -0.3791
 1126SOL     OW 9723   6.179   5.303   8.512  0.3481 -0.3154 -0.2641
 1126SOL    HW1 9724   6.129   5.354   8.576 -0.2312  0.6954 -1.4881
 1126SOL    HW2 9725   6.157   5.212   8.532  0.7327 -0.0660  1.4096
 1127SOL     OW 9726   6.129   5.922   1.173 -0.1830 -0.0638 -0.4530
 1127SOL    HW1 9727   6.098   5.902   1.261  0.5700  0.4144 -0.0752
 1127SOL    HW2 9728   6.222   5.943   1.184 -0.5818  2.2611 -1.0092
 1128SOL     OW 9729   4.904   1.639   3.848 -0.2099 -0.5442  0.2243
 1128SOL    HW1 9730   4.843   1.581   3.803  0.1706  0.0789 -1.1511
 1128SOL    HW2 9731   4.977   1.649   3.786 -0.4501  1.7154  0.2461
 1129SOL     OW 9732   3.719   7.463   9.236  0.0528  0.7530  0.1428
 1129SOL    HW1 9733   3.752   7.448   9.324  2.7739 -1.1785 -1.0399
 1129SOL    HW2 9734   3.643   7.406   9.228 -0.0319  0.7165  1.1525
 1130SOL     OW 9735   0.030   8.186   5.834 -0.0678 -0.2880 -0.6119
 1130SOL    HW1 9736   0.084   8.150   5.764  0.9081 -2.1557  1.0048
 1130SOL    HW2 9737   0.057   8.138   5.912 -1.8787  0.9485  0.8569
 1131SOL     OW 9738   1.419   2.187   0.969 -0.4416 -0.0517  0.3698
 1131SOL    HW1 9739   1.379   2.171   1.054 -0.1687 -1.0746  0.3145
 1131SOL    HW2 9740   1.501   2.139   0.971 -0.5451 -0.3003 -0.5602
 1132SOL     OW 9741   0.591   1.054   1.275  0.1320  1.0067 -0.5692
 1132SOL    HW1 9742   0.634   1.137   1.255 -0.8520  1.5957 -0.3334
 1132SOL    HW2 9743   0.518   1.079   1.332  0.3884 -0.1416  0.2944
 1133SOL     OW 9744   1.302   4.173   5.119  0.3944  0.2981  0.7409
 1133SOL    HW1 9745   1.397   4.186   5.127  0.4466 -0.5596  1.7556
 1133SOL    HW2 9746   1.271   4.174   5.209 -0.6242  0.9489  0.3899
 1134SOL     OW 9747   5.869   4.838   7.683 -0.4428  0.1790  0.0480
 1134SOL    HW1 9748   5.863   4.893   7.760  0.0663 -0.7870  0.8044
 1134SOL    HW2 9749   5.963   4.834   7.663 -0.3425 -1.2143  0.6397
 1135SOL     OW 9750   4.412   5.142   2.518  0.4112  0.2014  0.1037
 1135SOL    HW1 9751   4.403   5.062   2.571 -1.8904  0.4516  0.1985
 1135SOL    HW2 9752   4.363   5.208   2.567  1.5567  1.4715 -0.4190
 1136SOL     OW 9753   0.344   1.872   8.703  0.4484  0.1559 -0.0480
 1136SOL    HW1 9754   0.388   1.789   8.687  0.1221 -0.0938  0.3433
 1136SOL    HW2 9755   0.387   1.908   8.781 -0.3133 -0.2891  0.5899
 1137SOL     OW 9756   6.653   0.465   0.168  0.3742  0.2096  0.0735
 1137SOL    HW1 9757   6.706   0.542   0.146  0.2191  0.2615 -0.1228
 1137SOL    HW2 9758   6.675   0.446   0.259  0.3275  0.5587  0.1589
 1138SOL     OW 9759   7.737   8.474   0.406 -0.4672 -0.1290 -0.1334
 1138SOL    HW1 9760   7.749   8.393   0.358 -0.7893  0.7098 -1.6712
 1138SOL    HW2 9761   7.695   8.534   0.344  0.6158  1.5216  0.6416
 1139SOL     OW 9762   5.167   0.140   7.541  0.1655  0.3124  0.0183
 1139SOL    HW1 9763   5.171   0.127   7.635  1.9399 -1.8860 -0.2815
 1139SOL    HW2 9764   5.077   0.119   7.517 -0.6256  2.0074  1.2929
 1140SOL     OW 9765   4.682   4.232   7.801 -0.3519  0.2911 -0.3807
 1140SOL    HW1 9766   4.620   4.286   7.752 -0.1780  0.8841  0.0501
 1140SOL    HW2 9767   4.766   4.247   7.757 -0.0201  1.5380  0.6529
 1141SOL     OW 9768   3.394   0.925   1.490  0.0563 -0.1061  0.1006
 1141SOL    HW1 9769   3.378   1.016   1.464  2.0901  0.0890 -0.6973
 1141SOL    HW2 9770   3.486   0.910   1.468  0.1773 -1.9125  1.5830
 1142SOL     OW 9771   6.287   3.544   4.131 -0.8475  0.1421  0.1818
 1142SOL    HW1 9772   6.378   3.515   4.139 -0.8956 -0.0804 -0.0481
 1142SOL    HW2 9773   6.291   3.620   4.072 -0.9222 -0.4822 -0.6435
 1143SOL     OW 9774   4.439   3.971   8.030  0.1387  0.1058  0.0966
 1143SOL    HW1 9775   4.504   3.961   7.961  0.1482 -0.1252  0.1400
 1143SOL    HW2 9776   4.378   4.037   7.996  0.1116 -0.0474 -0.1552
 1144SOL     OW 9777   4.458   1.633   1.480  0.0472  0.0464 -0.1457
 1144SOL    HW1 9778   4.546   1.601   1.502 -0.2199 -1.9743 -1.7738
 1144SOL    HW2 9779   4.467   1.667   1.390 -0.8001 -0.0085 -0.2565
 1145SOL     OW 9780   3.711   1.285   3.032 -0.3836  0.0594 -0.3653
 1145SOL    HW1 9781   3.661   1.367   3.038  0.8818  0.7785  1.2029
 1145SOL    HW2 9782   3.669   1.227   3.096 -0.7770 -0.2405 -0.8910
 1146SOL     OW 9783   3.827   3.664   7.449  0.2910  0.1575 -0.5221
 1146SOL    HW1 9784   3.830   3.574   7.482 -0.7448  0.7545  1.3041
 1146SOL    HW2 9785   3.895   3.710   7.497 -0.4186  0.7624 -0.0715
 1147SOL     OW 9786   5.370   3.329   6.687 -0.0952 -0.2655  0.1088
 1147SOL    HW1 9787   5.405   3.288   6.608  0.9328  0.4692  0.1744
 1147SOL    HW2 9788   5.436   3.392   6.713 -1.1856  0.7186  0.5954
 1148SOL     OW 9789   5.738   7.066   7.895  0.1982  0.1192 -0.2899
 1148SOL    HW1 9790   5.680   6.998   7.859 -1.6898  1.5972 -0.2134
 1148SOL    HW2 9791   5.812   7.018   7.931  0.5881 -1.6697 -3.1977
 1149SOL     OW 9792   5.274   5.031   4.085 -0.2516  0.5858  0.0881
 1149SOL    HW1 9793   5.310   5.047   3.998 -0.3526 -1.1767 -0.3081
 1149SOL    HW2 9794   5.233   5.114   4.110 -0.5881  0.9887 -1.7065
 1150SOL     OW 9795   2.575   4.797   3.289 -0.5679 -0.3181  0.1590
 1150SOL    HW1 9796   2.510   4.866   3.305 -0.7152 -0.1793 -0.9412
 1150SOL    HW2 9797   2.652   4.824   3.340  0.5442  2.4307 -2.6237
 1151SOL     OW 9798   3.506   9.082   8.018  0.1237  0.4126  0.4702
 1151SOL    HW1 9799   3.531   9.079   8.110  2.1096  1.6925  0.0455
 1151SOL    HW2 9800   3.586   9.108   7.972 -0.7392 -0.4071 -1.6555
 1152SOL     OW 9801   8.276   8.695   2.267 -0.3258 -0.3284 -0.2404
 1152SOL    HW1 9802   8.335   8.650   2.206  0.4188 -0.4571  0.5390
 1152SOL    HW2 9803   8.333   8.756   2.314 -1.0016  0.1926 -0.0955
 1153SOL     OW 9804   4.998   3.601   2.786 -0.2179  0.0816  0.1755
 1153SOL    HW1 9805   4.931   3.564   2.843 -1.4443  1.0444 -0.5787
 1153SOL    HW2 9806   5.011   3.534   2.719  0.3139 -0.5295  0.8865
 1154SOL     OW 9807   4.168   7.066   1.125  0.3244 -0.1332 -0.4069
 1154SOL    HW1 9808   4.232   7.133   1.150  2.0074 -1.7975  0.0065
 1154SOL    HW2 9809   4.196   7.038   1.038 -0.4393 -0.2395 -0.6256
 1155SOL     OW 9810   0.237   1.118   4.619 -0.0143  0.1401 -0.3216
 1155SOL    HW1 9811   0.150   1.153   4.638 -0.0091 -0.7049  1.5133
 1155SOL    HW2 9812   0.224   1.025   4.606  0.2495  0.4132 -3.1889
 1156SOL     OW 9813   7.770   7.957   7.403  0.6586 -0.2900  0.3353
 1156SOL    HW1 9814   7.833   8.020   7.438 -0.0681  0.0056  1.1378
 1156SOL    HW2 9815   7.695   8.011   7.376 -0.6935 -0.9007  2.5859
 1157SOL     OW 9816   1.107   6.737   4.075 -0.1254  0.5973  0.0774
 1157SOL    HW1 9817   1.155   6.752   3.994 -1.8065  0.5948 -0.9717
 1157SOL    HW2 9818   1.078   6.646   4.069 -0.1669  0.5553  0.7577
 1158SOL     OW 9819   3.702   6.611   7.565  1.0353  0.1510 -0.5624
 1158SOL    HW1 9820   3.753   6.630   7.644  1.7181 -1.6099 -0.5434
 1158SOL    HW2 9821   3.712   6.517   7.551 -0.9591  0.0141 -1.4576
 1159SOL     OW 9822   0.354   6.349   1.109 -0.2164 -0.0180 -0.5910
 1159SOL    HW1 9823   0.312   6.319   1.028 -1.7920 -1.6569  0.7323
 1159SOL    HW2 9824   0.320   6.437   1.122 -0.3575  0.0640 -1.4190
 1160SOL     OW 9825   2.152   2.233   4.253  0.5700 -0.1745  0.6467
 1160SOL    HW1 9826   2.137   2.250   4.346 -0.2664 -3.0183  1.1341
 1160SOL    HW2 9827   2.078   2.179   4.226  1.1700 -0.0169 -1.5097
 1161SOL     OW 9828   8.317   4.011   4.710 -0.1187  0.0361 -0.0532
 1161SOL    HW1 9829   8.272   3.979   4.788  0.3999  0.2649  0.3440
 1161SOL    HW2 9830   8.398   3.959   4.706 -0.2911 -0.2029 -0.6237
 1162SOL     OW 9831   0.213   2.099   0.317  0.1049  0.3199  0.1712
 1162SOL    HW1 9832   0.196   2.114   0.224 -0.1715 -0.6436  0.0563
 1162SOL    HW2 9833   0.304   2.127   0.329  0.5817 -0.7728 -0.6913
 1163SOL     OW 9834   4.453   7.801   2.909  0.2164  0.1704 -0.3415
 1163SOL    HW1 9835   4.502   7.860   2.852 -0.7553  2.0381  0.6677
 1163SOL    HW2 9836   4.381   7.854   2.943 -2.1796 -2.2402 -1.2341
 1164SOL     OW 9837   3.956   6.113   6.465 -1.1288  0.4262 -0.3415
 1164SOL    HW1 9838   4.020   6.072   6.524 -0.3412  1.1632 -0.6596
 1164SOL    HW2 9839   3.948   6.202   6.498 -0.9160  0.7516 -1.1571
 1165SOL     OW 9840   2.568   4.238   5.151  0.2395 -0.0424  0.0622
 1165SOL    HW1 9841   2.661   4.242   5.128  0.0727 -2.0868 -1.1775
 1165SOL    HW2 9842   2.524   4.279   5.077  0.0894 -0.1154  0.1114
 1166SOL     OW 9843   3.402   1.364   0.833 -0.5254  0.0794 -0.1800
 1166SOL    HW1 9844   3.442   1.446   0.864 -0.7125  0.4564 -0.9074
 1166SOL    HW2 9845   3.355   1.389   0.754  0.4549 -0.9660 -1.1226
 1167SOL     OW 9846   7.467   2.520   2.220  0.2937  0.4031 -0.0002
 1167SOL    HW1 9847   7.493   2.428   2.213  0.5482  0.6137 -3.4854
 1167SOL    HW2 9848   7.549   2.568   2.212 -0.1103  0.9639 -0.7833
 1168SOL     OW 9849   3.117   9.193   4.785  0.0895  0.5260 -0.2829
 1168SOL    HW1 9850   3.130   9.250   4.861  0.2061  0.1057  0.0137
 1168SOL    HW2 9851   3.025   9.208   4.760  0.0659  0.7050 -0.0936
 1169SOL     OW 9852   5.038   3.834   8.377  0.1039  1.0429 -0.2466
 1169SOL    HW1 9853   4.953   3.844   8.334  1.0519  2.3713 -1.9549
 1169SOL    HW2 9854   5.021   3.776   8.451 -2.1042  0.5816 -1.0358
 1170SOL     OW 9855   1.700   7.155   2.413 -0.2616 -0.1198 -0.7316
 1170SOL    HW1 9856   1.623   7.213   2.415  0.4516  0.8387  0.2661
 1170SOL    HW2 9857   1.668   7.072   2.449 -0.6152  0.5716  0.6187
 1171SOL     OW 9858   3.949   0.015   8.870  0.6155 -0.3547  0.2439
 1171SOL    HW1 9859   3.921  -0.072   8.897  1.7923 -0.6971  0.3912
 1171SOL    HW2 9860   3.922   0.022   8.778  1.4601 -1.2936 -0.0905
 1172SOL     OW 9861   8.731   6.756   5.160 -0.3132  0.3617 -0.0154
 1172SOL    HW1 9862   8.821   6.727   5.172 -1.2915 -2.8761  0.5831
 1172SOL    HW2 9863   8.705   6.789   5.246  0.2172  1.0900 -0.1309
 1173SOL     OW 9864   4.837   5.807   1.948  0.3944 -0.3770  0.2240
 1173SOL    HW1 9865   4.932   5.814   1.936  0.2911 -1.2393 -1.4829
 1173SOL    HW2 9866   4.813   5.883   2.001  2.1575 -0.6558  1.4825
 1174SOL     OW 9867   6.647   1.936   7.742 -0.2541  0.6113  0.0771
 1174SOL    HW1 9868   6.680   1.850   7.768  1.9248  1.4964  0.4410
 1174SOL    HW2 9869   6.647   1.988   7.823 -1.7455  0.9337 -0.0944
 1175SOL     OW 9870   3.656   1.033   7.999 -0.0650  0.1532  0.1014
 1175SOL    HW1 9871   3.599   1.089   8.051 -0.5089 -1.1970  1.1154
 1175SOL    HW2 9872   3.605   0.954   7.983  1.3906 -0.9980  0.8348
 1176SOL     OW 9873   6.507   7.231   1.445  0.0758 -0.1831  0.3274
 1176SOL    HW1 9874   6.491   7.252   1.537  1.6379 -2.2343  1.1419
 1176SOL    HW2 9875   6.421   7.239   1.403 -0.8366 -0.0267  2.1421
 1177SOL     OW 9876   6.325   8.000   5.515  0.4844 -0.0184 -0.2982
 1177SOL    HW1 9877   6.332   8.055   5.593  0.9922  0.3705 -0.6113
 1177SOL    HW2 9878   6.406   7.949   5.514  0.5268  0.0531 -0.6247
 1178SOL     OW 9879   2.391   3.170   0.206  0.4967 -0.3638 -0.2720
 1178SOL    HW1 9880   2.340   3.090   0.212  0.0665 -0.1476 -0.9269
 1178SOL    HW2 9881   2.327   3.241   0.217  1.1700 -0.0799  2.6387
 1179SOL     OW 9882   5.636   4.582   8.430 -0.0896 -0.3546 -0.2706
 1179SOL    HW1 9883   5.549   4.566   8.467 -0.1923 -1.0244 -0.7824
 1179SOL    HW2 9884   5.627   4.665   8.382  0.1674  0.7845  1.5392
 1180SOL     OW 9885   8.294   8.856   1.911  0.0015  0.1768 -0.5937
 1180SOL    HW1 9886   8.277   8.774   1.863  1.5367 -1.2423  1.1534
 1180SOL    HW2 9887   8.323   8.917   1.843 -2.0428 -0.3690 -2.0813
 1181SOL     OW 9888   0.150   1.600   0.923  0.0165 -0.5699 -0.0763
 1181SOL    HW1 9889   0.239   1.612   0.958 -0.1727 -0.3820  0.3396
 1181SOL    HW2 9890   0.164   1.583   0.829  0.6004 -2.4502  0.3196
 1182SOL     OW 9891   2.222   4.544   5.250 -0.2587  0.0578 -0.5663
 1182SOL    HW1 9892   2.185   4.474   5.304 -0.1490  0.5501  0.1540
 1182SOL    HW2 9893   2.316   4.527   5.250 -0.3110 -0.2628 -1.0732
 1183SOL     OW 9894   8.025   5.581   2.059 -0.4116  0.5930  0.7476
 1183SOL    HW1 9895   7.946   5.603   2.108  0.4743  0.4557  2.3089
 1183SOL    HW2 9896   8.054   5.497   2.096  0.5135  0.6853  0.2826
 1184SOL     OW 9897   0.359   1.906   9.241  0.0109  0.4753  0.0823
 1184SOL    HW1 9898   0.318   1.992   9.226 -1.4023 -0.0352  0.8252
 1184SOL    HW2 9899   0.286   1.847   9.259  0.9900 -0.8199 -0.0310
 1185SOL     OW 9900   8.079   4.984   8.880 -0.0684  0.4227  0.2596
 1185SOL    HW1 9901   8.045   5.073   8.890  0.2892  0.7258 -1.0318
 1185SOL    HW2 9902   8.107   4.959   8.968 -0.5952  1.4093  0.7216
 1186SOL     OW 9903   5.003   3.116   0.908  0.2529 -0.3159 -0.2413
 1186SOL    HW1 9904   4.999   3.199   0.954  1.0289  1.0671 -2.4877
 1186SOL    HW2 9905   4.994   3.140   0.815  0.1350 -2.7790 -0.9316
 1187SOL     OW 9906   8.869   1.850   5.075  0.2187  0.0880  0.1235
 1187SOL    HW1 9907   8.854   1.766   5.031 -1.8338  0.2783  0.3473
 1187SOL    HW2 9908   8.930   1.829   5.146  0.9324 -0.8918 -0.7405
 1188SOL     OW 9909   9.097   4.258   5.485  0.1699  0.3145  0.0470
 1188SOL    HW1 9910   9.045   4.290   5.558  0.5184 -0.8096  0.8229
 1188SOL    HW2 9911   9.188   4.274   5.511  0.2679  1.1476 -0.7560
 1189SOL     OW 9912   4.524   7.098   8.833 -0.0842  0.1653  1.2063
 1189SOL    HW1 9913   4.516   7.192   8.817  0.0734  0.2587  1.6441
 1189SOL    HW2 9914   4.447   7.059   8.793  0.2899  0.3827  0.2493
 1190SOL     OW 9915   8.084   2.420   6.108  0.2777  0.9930  0.2531
 1190SOL    HW1 9916   8.084   2.331   6.144 -1.1388  0.9842  0.2908
 1190SOL    HW2 9917   8.160   2.422   6.049  1.0087  0.1363  1.1241
 1191SOL     OW 9918   3.892   7.127   6.121 -0.0806 -0.2901 -0.2152
 1191SOL    HW1 9919   3.820   7.186   6.100 -0.1113 -0.6674 -1.1975
 1191SOL    HW2 9920   3.876   7.101   6.212 -0.4557  0.6476 -0.0016
 1192SOL     OW 9921   0.821   9.134   6.146  0.1410  0.5740 -0.0864
 1192SOL    HW1 9922   0.740   9.088   6.170 -0.4146  1.5867  0.0310
 1192SOL    HW2 9923   0.891   9.079   6.181 -0.5214  0.0578  0.4524
 1193SOL     OW 9924   5.309   3.274   8.712 -0.4386 -0.3744  0.4027
 1193SOL    HW1 9925   5.389   3.280   8.764 -0.7664 -1.0588  1.0004
 1193SOL    HW2 9926   5.297   3.181   8.696 -0.2573 -0.1757 -1.0739
 1194SOL     OW 9927   4.543   0.502   6.221 -0.1065 -0.1865 -0.2297
 1194SOL    HW1 9928   4.548   0.424   6.278  2.1493 -0.3495 -0.5590
 1194SOL    HW2 9929   4.450   0.524   6.219 -0.4703 -1.1753  2.1743
 1195SOL     OW 9930   2.202   3.680   2.979 -0.4661 -0.0987 -0.0960
 1195SOL    HW1 9931   2.130   3.721   2.932 -0.4533 -1.1391 -1.0530
 1195SOL    HW2 9932   2.179   3.587   2.984  0.4490 -0.3258  0.2366
 1196SOL     OW 9933   5.231   7.205   8.399 -0.1159  0.0907 -0.1035
 1196SOL    HW1 9934   5.239   7.150   8.477 -0.4297  0.8442  0.4745
 1196SOL    HW2 9935   5.153   7.172   8.355 -1.0612  0.8717  0.9187
 1197SOL     OW 9936   7.197   1.101   7.997  0.1442 -0.4883 -0.4408
 1197SOL    HW1 9937   7.215   1.165   7.928 -2.8372  1.4536  0.3794
 1197SOL    HW2 9938   7.234   1.140   8.076 -0.1437 -0.6354 -0.2330
 1198SOL     OW 9939   1.880   1.551   1.201 -0.5482  0.1378  0.3011
 1198SOL    HW1 9940   1.897   1.545   1.107  0.0339  0.6315  0.3677
 1198SOL    HW2 9941   1.860   1.644   1.215 -1.0999 -0.0240  0.5902
 1199SOL     OW 9942   0.744   4.807   1.062  0.2336  0.0462  0.2753
 1199SOL    HW1 9943   0.768   4.878   1.123 -1.8118  2.5009 -1.5708
 1199SOL    HW2 9944   0.657   4.780   1.090 -0.8210  1.3427 -1.5326
 1200SOL     OW 9945   2.437   7.812   0.382  0.4026  0.4165  0.8510
 1200SOL    HW1 9946   2.387   7.837   0.459  0.3189  1.4092  0.4880
 1200SOL    HW2 9947   2.422   7.883   0.320  0.3275 -0.4407 -0.1505
 1201SOL     OW 9948   5.264   7.574   3.160  0.0501  0.3869 -0.1910
 1201SOL    HW1 9949   5.233   7.660   3.134  1.0599  0.5015 -1.0714
 1201SOL    HW2 9950   5.262   7.576   3.256 -0.6373  1.1072 -0.2090
 1202SOL     OW 9951   0.532   7.539   5.479 -0.2464 -0.3485 -0.2382
 1202SOL    HW1 9952   0.520   7.571   5.389 -1.8472  0.0210  0.0849
 1202SOL    HW2 9953   0.494   7.606   5.534  2.3505  0.3106  0.8948
 1203SOL     OW 9954   6.556   3.390   7.758  0.1489 -0.5476 -0.3552
 1203SOL    HW1 9955   6.537   3.395   7.852  0.5799 -0.6868 -0.2568
 1203SOL    HW2 9956   6.644   3.428   7.750 -1.0276  2.3398 -1.0955
 1204SOL     OW 9957   9.144   6.240   2.044  0.1054 -0.6570 -0.1803
 1204SOL    HW1 9958   9.167   6.222   2.136  0.7076 -0.4839 -0.2944
 1204SOL    HW2 9959   9.227   6.265   2.003  0.1380 -2.1502 -1.1194
 1205SOL     OW 9960   6.374   5.556   3.251 -0.0719  0.5211  0.0996
 1205SOL    HW1 9961   6.439   5.603   3.302 -1.3194  0.4751  1.7860
 1205SOL    HW2 9962   6.290   5.579   3.290 -0.9811 -0.4539 -1.1839
 1206SOL     OW 9963   1.442   6.353   2.216  0.0649  0.1113  0.1263
 1206SOL    HW1 9964   1.409   6.391   2.297 -1.3052 -0.2860 -0.2202
 1206SOL    HW2 9965   1.536   6.341   2.231 -0.1744 -0.0078  1.6714
 1207SOL     OW 9966   6.154   3.435   5.779  0.9226 -0.4803 -0.4383
 1207SOL    HW1 9967   6.128   3.356   5.733  0.5258 -0.5497 -0.1043
 1207SOL    HW2 9968   6.105   3.432   5.862  0.3769  0.4427 -0.7043
 1208SOL     OW 9969   0.912   2.286   0.907 -0.4744  0.1040  0.7586
 1208SOL    HW1 9970   0.918   2.354   0.839 -1.6408  0.3649  0.8892
 1208SOL    HW2 9971   1.002   2.257   0.920 -0.0291  1.2123  0.2779
 1209SOL     OW 9972   0.568   0.163   2.469  0.3483 -0.0092 -0.1229
 1209SOL    HW1 9973   0.551   0.240   2.523  4.3253 -0.7330  2.6159
 1209SOL    HW2 9974   0.516   0.093   2.509 -1.1696  0.5822 -0.9587
 1210SOL     OW 9975   3.035   5.700   2.938  0.1487  0.3598 -0.7720
 1210SOL    HW1 9976   3.061   5.621   2.985  2.9719  1.0018 -1.0767
 1210SOL    HW2 9977   2.956   5.675   2.891 -0.1083 -1.6896  0.6264
 1211SOL     OW 9978   5.351   0.621   0.070 -0.1540 -0.0989  0.0712
 1211SOL    HW1 9979   5.425   0.681   0.080 -0.2810 -0.0973  1.0815
 1211SOL    HW2 9980   5.299   0.660  -0.000  1.4793 -0.8336 -1.6478
 1212SOL     OW 9981   2.550   6.342   5.370  0.4467  0.4550 -0.5734
 1212SOL    HW1 9982   2.488   6.287   5.321  1.4610  0.4457 -1.8855
 1212SOL    HW2 9983   2.509   6.428   5.373 -0.8743 -0.1757  0.9612
 1213SOL     OW 9984   3.604   6.016   0.548  0.2915  0.3196 -0.0173
 1213SOL    HW1 9985   3.660   6.042   0.621  1.7373  0.4828 -1.1425
 1213SOL    HW2 9986   3.523   5.987   0.589  1.2350 -0.0313  1.6831
 1214SOL     OW 9987   4.968   5.718   7.742 -0.1961 -0.4460  0.2218
 1214SOL    HW1 9988   4.893   5.760   7.784 -0.1256 -0.4380  0.3405
 1214SOL    HW2 9989   4.955   5.624   7.755  0.8091 -0.3829  1.9763
 1215SOL     OW 9990   6.951   1.986   7.505 -0.5897 -0.1003  0.0297
 1215SOL    HW1 9991   6.959   1.920   7.574  0.0536  0.8332  0.8701
 1215SOL    HW2 9992   6.858   2.010   7.505 -0.3455  0.9525  1.6011
 1216SOL     OW 9993   7.010   6.740   4.274  0.4351  0.2272  0.2989
 1216SOL    HW1 9994   7.013   6.789   4.356  1.1427  0.3967  0.1770
 1216SOL    HW2 9995   6.918   6.742   4.248  0.0631 -0.5423  1.5152
 1217SOL     OW 9996   7.610   6.784   1.334 -0.2755  0.5047 -0.0382
 1217SOL    HW1 9997   7.585   6.874   1.314 -0.5072  0.6189  0.7489
 1217SOL    HW2 9998   7.528   6.741   1.358  0.1231  0.6961  1.8463
 1218SOL     OW 9999   2.159   7.428   0.128  0.0472 -0.0497 -0.0608
 1218SOL    HW110000   2.120   7.492   0.187  1.5177  2.0185 -1.2216
 1218SOL    HW210001   2.237   7.471   0.094  1.7706 -2.8899 -0.0536
 1219SOL     OW10002   2.103   0.473   0.508 -0.2387 -0.2490  0.2541
 1219SOL    HW110003   2.103   0.498   0.415 -0.8118  0.2531  0.3803
 1219SOL    HW210004   2.185   0.509   0.542  0.6341 -1.6017 -0.3476
 1220SOL     OW10005   4.128   4.414   5.947  0.1291 -0.2247 -0.2389
 1220SOL    HW110006   4.100   4.387   5.859 -2.3178 -1.8586  0.9239
 1220SOL    HW210007   4.223   4.403   5.946  0.0977 -0.8943 -2.4430
 1221SOL     OW10008   8.337   7.356   1.307 -0.2050 -0.0738  0.0923
 1221SOL    HW110009   8.347   7.444   1.343 -2.1280 -0.2174  1.0711
 1221SOL    HW210010   8.363   7.364   1.215  1.5732  1.0348  0.6450
 1222SOL     OW10011   5.042   4.983   4.762  0.5647  0.1123 -0.1042
 1222SOL    HW110012   4.954   5.009   4.787  0.3961 -1.5420  1.1995
 1222SOL    HW210013   5.098   5.055   4.792 -0.0213 -0.2933  2.1334
 1223SOL     OW10014   0.639   3.105   1.206  0.0344  0.6829  0.5778
 1223SOL    HW110015   0.645   3.166   1.279  0.7652  2.1619 -0.6534
 1223SOL    HW210016   0.645   3.161   1.128 -0.2294 -0.8844 -0.6103
 1224SOL     OW10017   2.524   4.423   4.636  0.1805 -0.0378 -0.4601
 1224SOL    HW110018   2.560   4.347   4.681 -0.1334 -0.3002 -0.6466
 1224SOL    HW210019   2.517   4.490   4.704 -1.6884 -0.8967  0.2695
 1225SOL     OW10020   2.309   2.921   0.587  0.1935  0.0337  0.2392
 1225SOL    HW110021   2.271   2.872   0.660 -0.0119 -1.0221 -0.5469
 1225SOL    HW210022   2.400   2.891   0.583  0.1648 -0.0168 -0.0288
 1226SOL     OW10023   1.548   5.205   5.805 -0.5637 -0.3052 -0.2354
 1226SOL    HW110024   1.515   5.231   5.719  0.2846 -0.0934 -0.5092
 1226SOL    HW210025   1.553   5.287   5.855 -0.0389 -0.2652 -0.3460
 1227SOL     OW10026   2.262   5.477   3.272  0.2679  0.4528 -0.1224
 1227SOL    HW110027   2.261   5.484   3.367  1.9791  1.5448 -0.1393
 1227SOL    HW210028   2.305   5.394   3.253  0.5863  0.5718  0.0697
 1228SOL     OW10029   0.123   0.990   5.274  0.0518 -0.3513 -0.1301
 1228SOL    HW110030   0.094   1.028   5.357 -0.2514 -0.8231 -0.0187
 1228SOL    HW210031   0.212   1.023   5.263 -0.5913  1.3465 -0.6169
 1229SOL     OW10032   3.752   2.615   2.521  0.1393 -0.4045  0.3847
 1229SOL    HW110033   3.660   2.643   2.515  0.0716  0.3781  3.5126
 1229SOL    HW210034   3.747   2.523   2.549  0.3398 -0.7072 -0.5450
 1230SOL     OW10035   7.017   4.093   4.300  0.2893  0.3816  0.7290
 1230SOL    HW110036   7.105   4.088   4.263  0.1948  0.1903  0.5249
 1230SOL    HW210037   7.002   4.186   4.316  0.2333  0.4920  0.0513
 1231SOL     OW10038   3.454   3.663   2.247 -0.0896 -0.0833 -0.5580
 1231SOL    HW110039   3.512   3.594   2.216  0.7299  0.1428  0.4399
 1231SOL    HW210040   3.372   3.649   2.199  0.6330 -0.6671 -1.6615
 1232SOL     OW10041   1.423   1.918   4.189  0.0287 -0.0350  0.2292
 1232SOL    HW110042   1.354   1.962   4.238  0.7159  1.1077  0.2190
 1232SOL    HW210043   1.392   1.829   4.178 -2.4209  0.9195 -1.6105
 1233SOL     OW10044   3.613   9.077   4.421  0.0554 -0.0625  0.2565
 1233SOL    HW110045   3.642   9.166   4.402  0.1338 -0.4616 -1.7121
 1233SOL    HW210046   3.687   9.036   4.464  0.3896  0.5389  0.2650
 1234SOL     OW10047   1.122   3.167   4.512 -0.0229  0.1299 -0.0494
 1234SOL    HW110048   1.148   3.104   4.445  1.9965  0.5833  0.2227
 1234SOL    HW210049   1.120   3.116   4.593 -0.7373 -0.0535 -0.1749
 1235SOL     OW10050   5.611   1.363   1.814 -0.1130 -0.1201  0.3388
 1235SOL    HW110051   5.700   1.395   1.800  0.5741 -1.5426  1.2796
 1235SOL    HW210052   5.622   1.280   1.861 -1.9291 -0.3986  0.3388
 1236SOL     OW10053   1.277   2.678   7.646 -0.4487  0.4598 -0.0147
 1236SOL    HW110054   1.323   2.654   7.726  1.4395  0.6029 -1.0151
 1236SOL    HW210055   1.185   2.661   7.666 -0.1332  1.2265  2.4440
 1237SOL     OW10056   4.011   8.279   0.888  0.3312 -0.3512  0.3474
 1237SOL    HW110057   4.060   8.207   0.848  0.7862 -0.3488  0.8884
 1237SOL    HW210058   4.031   8.272   0.981  1.0661  1.0005  0.3064
 1238SOL     OW10059   9.232   1.232   5.528 -0.2395  0.0587 -0.2141
 1238SOL    HW110060   9.141   1.245   5.556 -0.7008  2.0573 -2.3497
 1238SOL    HW210061   9.280   1.216   5.609 -2.5701 -1.8619  0.9239
 1239SOL     OW10062   0.418   5.210   3.920  0.3037 -0.3175 -0.0156
 1239SOL    HW110063   0.449   5.293   3.953  1.6404 -1.1256  0.8364
 1239SOL    HW210064   0.467   5.196   3.839  0.0058 -0.2439 -0.2130
 1240SOL     OW10065   1.352   5.040   7.676  0.4187 -0.2090 -0.1201
 1240SOL    HW110066   1.402   5.030   7.595  0.9236  2.0646 -0.1606
 1240SOL    HW210067   1.305   5.123   7.666 -0.7836 -0.6666  1.2816
 1241SOL     OW10068   7.422   3.197   3.324 -0.0023 -0.3815 -0.5098
 1241SOL    HW110069   7.327   3.193   3.329 -0.3988  3.0821 -2.1767
 1241SOL    HW210070   7.441   3.214   3.232  2.1958 -0.2372 -0.1043
 1242SOL     OW10071   2.164   0.373   7.303 -0.2518  0.4288  0.0241
 1242SOL    HW110072   2.185   0.314   7.230  0.3900  1.1124 -0.3573
 1242SOL    HW210073   2.230   0.354   7.369 -0.6858 -0.0180  0.3337
 1243SOL     OW10074   8.962   6.835   2.117  0.2273 -0.5204 -0.2037
 1243SOL    HW110075   8.874   6.809   2.087 -1.1319  2.6913  0.5280
 1243SOL    HW210076   8.970   6.796   2.204 -0.5778 -0.7095 -0.2019
 1244SOL     OW10077   6.430   2.702   8.448  0.1882 -0.1027  0.1882
 1244SOL    HW110078   6.432   2.777   8.388  2.4325  2.1522  2.8012
 1244SOL    HW210079   6.501   2.646   8.417  0.0903  0.0612 -0.3532
 1245SOL     OW10080   4.815   5.629   2.823 -0.2819 -0.1940 -0.3454
 1245SOL    HW110081   4.778   5.682   2.752 -0.9830 -0.1689  0.0321
 1245SOL    HW210082   4.796   5.679   2.903  1.0361  0.0822 -0.1706
 1246SOL     OW10083   7.847   2.550   8.201  0.1021  0.3036 -0.5023
 1246SOL    HW110084   7.912   2.530   8.267 -1.2590 -0.7419  0.5788
 1246SOL    HW210085   7.853   2.645   8.188 -0.1030  0.6528  1.6875
 1247SOL     OW10086   2.118   0.627   1.918  0.2547  0.2100  0.1548
 1247SOL    HW110087   2.043   0.687   1.915 -0.6638 -0.9159  0.0640
 1247SOL    HW210088   2.194   0.684   1.905 -0.5437  1.4321  0.6567
 1248SOL     OW10089   3.169   5.721   6.749 -0.8319 -0.9413 -0.6388
 1248SOL    HW110090   3.161   5.756   6.837 -0.0377 -1.2782 -0.4256
 1248SOL    HW210091   3.237   5.774   6.707  0.2788 -2.0970 -0.3565
 1249SOL     OW10092   0.844   4.658   7.832 -0.5137 -0.3178  0.5563
 1249SOL    HW110093   0.790   4.697   7.765 -1.9889  0.2244  1.9978
 1249SOL    HW210094   0.913   4.722   7.848 -1.5385  0.6525  1.2172
 1250SOL     OW10095   4.631   5.126   5.150 -0.4426 -0.4386  0.3500
 1250SOL    HW110096   4.629   5.037   5.115 -1.1644 -1.0482  1.8652
 1250SOL    HW210097   4.663   5.179   5.078 -1.5354 -1.6815 -1.1194
 1251SOL     OW10098   2.493   5.762   0.412 -0.1517  0.2044  0.1206
 1251SOL    HW110099   2.585   5.737   0.402 -0.3692 -0.1647 -0.9949
 1251SOL    HW210100   2.489   5.802   0.499  0.7740 -1.0875  0.7951
 1252SOL     OW10101   8.333   9.046   0.687 -0.1109 -0.2585 -0.1866
 1252SOL    HW110102   8.283   9.008   0.615  0.6512 -0.6660 -0.5159
 1252SOL    HW210103   8.422   9.015   0.672  0.0956 -0.1671  0.8120
 1253SOL     OW10104   6.429   5.287   3.293 -0.3556 -0.1142 -0.0265
 1253SOL    HW110105   6.419   5.371   3.248  0.3133  0.5385  0.9963
 1253SOL    HW210106   6.499   5.242   3.246 -1.5485 -0.6787 -1.3639
 1254SOL     OW10107   0.567   6.556   4.649 -0.0581 -0.3135 -0.0789
 1254SOL    HW110108   0.650   6.508   4.645  1.7524  2.4124  1.2702
 1254SOL    HW210109   0.536   6.542   4.739  0.5878  1.0425  0.3915
 1255SOL     OW10110   2.134   4.941   5.500  0.2285 -0.1595 -0.0616
 1255SOL    HW110111   2.101   4.937   5.410 -0.3498 -0.8531  0.1751
 1255SOL    HW210112   2.216   4.991   5.493  0.7945 -1.1955 -1.1549
 1256SOL     OW10113   6.788   5.195   6.527  0.2607  0.4052 -0.0422
 1256SOL    HW110114   6.862   5.153   6.572 -1.3380 -0.9893  1.4147
 1256SOL    HW210115   6.732   5.227   6.598 -1.2383  0.1618 -1.0691
 1257SOL     OW10116   7.344   2.587   0.399 -0.1353 -0.5197  0.0327
 1257SOL    HW110117   7.293   2.575   0.319  1.3158 -1.7952 -0.7407
 1257SOL    HW210118   7.408   2.654   0.377 -0.0501 -0.5094  0.3080
 1258SOL     OW10119   3.366   7.760   7.582  0.3817  0.3705  0.5029
 1258SOL    HW110120   3.338   7.747   7.491  1.1889  1.1585  0.1397
 1258SOL    HW210121   3.333   7.846   7.606  1.3229  0.7363  0.5126
 1259SOL     OW10122   3.247   1.042   1.231 -0.2732  0.9904  0.1945
 1259SOL    HW110123   3.185   0.993   1.177  0.2482  0.3162  0.1931
 1259SOL    HW210124   3.281   1.110   1.173 -0.3745  0.8236 -0.0607
 1260SOL     OW10125   7.425   1.771   2.264  0.4143  0.3054  0.0715
 1260SOL    HW110126   7.496   1.794   2.324  0.7260  0.2977 -0.2896
 1260SOL    HW210127   7.445   1.682   2.236 -0.7151 -0.3856  1.3567
 1261SOL     OW10128   8.561   0.898   2.930 -0.1811  0.1067  0.4841
 1261SOL    HW110129   8.546   0.807   2.903 -2.1172 -0.1474  2.1808
 1261SOL    HW210130   8.500   0.948   2.876  1.0284  0.4840 -0.5960
 1262SOL     OW10131   2.940   0.808   1.931 -0.0417  0.1072 -0.0049
 1262SOL    HW110132   2.894   0.891   1.946  0.7024  0.4088  0.6574
 1262SOL    HW210133   2.893   0.768   1.858  1.7730  2.7845 -2.9231
 1263SOL     OW10134   6.569   6.965   8.352 -0.5208 -0.0939  0.0963
 1263SOL    HW110135   6.591   6.903   8.282  0.2063 -0.0459  0.2762
 1263SOL    HW210136   6.552   7.048   8.308  1.5472  0.3569  0.0893
 1264SOL     OW10137   2.114   5.914   1.100 -0.1287 -0.5956 -0.4469
 1264SOL    HW110138   2.096   6.008   1.111  0.9507 -0.3152 -0.9594
 1264SOL    HW210139   2.198   5.901   1.144 -0.9776 -1.6378  0.9280
 1265SOL     OW10140   1.260   7.899   4.396 -0.0565 -0.3459  0.2734
 1265SOL    HW110141   1.166   7.890   4.414 -0.1194  0.0504  0.1486
 1265SOL    HW210142   1.267   7.980   4.345  0.4066 -0.1141  0.6989
 1266SOL     OW10143   7.873   5.985   8.854 -1.0838  0.7415 -0.9687
 1266SOL    HW110144   7.927   5.907   8.844 -1.6083  0.0416  1.0574
 1266SOL    HW210145   7.784   5.951   8.866 -1.3268  1.6271 -0.1272
 1267SOL     OW10146   0.691   0.771   5.875 -0.4814  0.4708 -0.4024
 1267SOL    HW110147   0.684   0.680   5.847  1.0514 -0.1532  1.0232
 1267SOL    HW210148   0.622   0.781   5.940  1.1663 -0.6743  1.6735
 1268SOL     OW10149   4.813   6.136   7.080  0.0108  0.8859  0.1319
 1268SOL    HW110150   4.773   6.087   7.009  0.1318  1.6976 -0.5062
 1268SOL    HW210151   4.755   6.211   7.094  0.7404  1.5113 -0.1004
 1269SOL     OW10152   3.662   7.860   2.455  0.3680 -0.1755 -0.0745
 1269SOL    HW110153   3.672   7.883   2.547 -0.3824 -1.1824  0.2639
 1269SOL    HW210154   3.568   7.865   2.438  0.2775 -1.8579 -0.2634
 1270SOL     OW10155   1.313   4.956   4.964  0.1150 -0.2751 -0.5270
 1270SOL    HW110156   1.241   4.918   5.014  0.4676  1.8533  1.8034
 1270SOL    HW210157   1.389   4.902   4.986  0.0199 -0.0798  0.3032
 1271SOL     OW10158   7.901   9.040   7.007 -0.8322 -0.3352 -0.2923
 1271SOL    HW110159   7.916   9.088   6.926 -0.6590  0.1199 -0.0011
 1271SOL    HW210160   7.985   9.045   7.053 -1.1313  0.0455  0.2326
 1272SOL     OW10161   4.970   0.960   1.546  0.1342  0.6324 -0.1629
 1272SOL    HW110162   5.007   1.033   1.496 -0.6706  1.0351 -0.1805
 1272SOL    HW210163   4.946   0.896   1.479  1.4907  0.0168 -0.1084
 1273SOL     OW10164   7.187   4.201   7.558  0.5996 -0.1638 -0.4066
 1273SOL    HW110165   7.114   4.262   7.567  0.8313  0.1912 -0.8905
 1273SOL    HW210166   7.241   4.218   7.636 -0.0584 -0.7600  0.2016
 1274SOL     OW10167   8.622   0.973   8.373 -0.2346  0.3021 -0.1713
 1274SOL    HW110168   8.693   0.979   8.437 -0.9903  2.0040  0.5854
 1274SOL    HW210169   8.650   0.905   8.312  1.1784 -0.3602  1.1492
 1275SOL     OW10170   8.408   5.278   7.178  0.3866  0.1239  0.1780
 1275SOL    HW110171   8.354   5.199   7.170  1.1161 -0.1973 -2.0913
 1275SOL    HW210172   8.348   5.350   7.160 -0.2751  0.1497  2.2254
 1276SOL     OW10173   1.060   1.555   4.042  0.0249 -0.8141  0.5688
 1276SOL    HW110174   1.011   1.502   3.979 -0.1192 -1.3289  1.1106
 1276SOL    HW210175   1.048   1.645   4.011 -0.8126 -0.9778  0.3782
 1277SOL     OW10176   1.343   0.134   5.934 -0.4518 -0.3291 -0.5068
 1277SOL    HW110177   1.359   0.082   6.013  2.2434  1.9405  0.6075
 1277SOL    HW210178   1.400   0.095   5.868 -0.2082 -0.2369 -0.3532
 1278SOL     OW10179   1.166   4.649   7.132 -0.4188  0.1720 -0.1177
 1278SOL    HW110180   1.248   4.658   7.084 -1.4738 -0.3850 -2.1425
 1278SOL    HW210181   1.189   4.602   7.211  1.9063  3.6264  1.5053
 1279SOL     OW10182   3.658   3.942   0.782  0.0390  0.4255 -0.0059
 1279SOL    HW110183   3.602   3.945   0.705 -1.2777 -2.0900  0.7455
 1279SOL    HW210184   3.599   3.955   0.856  1.0912  1.5734  0.6670
 1280SOL     OW10185   0.683   5.959   3.997 -0.3759 -0.3079 -0.2199
 1280SOL    HW110186   0.607   5.978   3.942 -0.1014 -1.9832 -1.2568
 1280SOL    HW210187   0.672   6.016   4.073 -2.6157 -0.4064 -0.3815
 1281SOL     OW10188   0.341   4.078   8.332 -0.0270  0.3717  0.3194
 1281SOL    HW110189   0.369   4.160   8.372  0.1545  0.0951  0.7741
 1281SOL    HW210190   0.410   4.056   8.270  0.3358  0.1474  0.7920
 1282SOL     OW10191   3.822   8.440   7.079  0.1780  0.2983  0.3137
 1282SOL    HW110192   3.864   8.521   7.051 -0.3036  0.6727  0.6412
 1282SOL    HW210193   3.753   8.469   7.139 -0.3892 -0.3134 -0.0288
 1283SOL     OW10194   5.303   9.081   5.162 -0.1953  0.5528 -0.1238
 1283SOL    HW110195   5.353   9.034   5.095 -0.7462 -1.4389  0.8149
 1283SOL    HW210196   5.214   9.048   5.153 -0.3132  0.3998  1.4507
 1284SOL     OW10197   6.090   5.099   5.124  0.0230 -0.0273 -0.4476
 1284SOL    HW110198   6.047   5.147   5.195  1.9567  0.7836  0.2470
 1284SOL    HW210199   6.103   5.164   5.055  2.0051  0.3634  0.2125
 1285SOL     OW10200   1.188   6.145   3.789  0.5693  0.1688 -0.0781
 1285SOL    HW110201   1.093   6.149   3.777  0.4906 -1.4303 -0.1296
 1285SOL    HW210202   1.211   6.054   3.774  2.0770  0.4551  0.3003
 1286SOL     OW10203   7.670   1.708   0.897 -0.2862  0.4151  0.1076
 1286SOL    HW110204   7.764   1.693   0.902 -0.5446 -1.7177 -0.4224
 1286SOL    HW210205   7.631   1.640   0.951 -1.5505  0.7696 -0.3083
 1287SOL     OW10206   3.693   3.532   7.256  0.2087 -0.4479  0.2125
 1287SOL    HW110207   3.645   3.600   7.209 -1.8784 -0.0258  2.7388
 1287SOL    HW210208   3.740   3.579   7.325 -0.9382 -1.4461  1.7423
 1288SOL     OW10209   2.985   8.753   3.181 -0.1332  0.0812 -0.3063
 1288SOL    HW110210   3.068   8.762   3.228  0.3165  0.4206 -1.1383
 1288SOL    HW210211   2.930   8.702   3.239  0.0374  1.3857  1.0550
 1289SOL     OW10212   7.961   8.619   7.719 -0.1104 -0.1937  0.0279
 1289SOL    HW110213   8.052   8.649   7.731 -0.0916 -0.5366  0.8198
 1289SOL    HW210214   7.921   8.631   7.805 -0.5001 -1.0974 -0.0190
 1290SOL     OW10215   8.781   0.390   5.978  0.2111  0.0510 -0.3285
 1290SOL    HW110216   8.688   0.372   5.960  0.2411  1.0312 -1.6095
 1290SOL    HW210217   8.783   0.415   6.070 -1.0069  1.2646 -0.5985
 1291SOL     OW10218   5.938   2.261   8.340  0.1249 -0.9075  0.3813
 1291SOL    HW110219   5.912   2.173   8.367  0.1298 -0.7850  0.7992
 1291SOL    HW210220   6.028   2.251   8.308  0.2677 -0.9863  0.8019
 1292SOL     OW10221   7.789   5.379   8.364  0.7571 -0.0301  0.7622
 1292SOL    HW110222   7.787   5.308   8.300 -1.0920 -0.0078  0.7185
 1292SOL    HW210223   7.759   5.455   8.316 -0.3228  0.0641  1.5305
 1293SOL     OW10224   1.708   1.960   7.584 -0.0362 -0.0118  0.0126
 1293SOL    HW110225   1.732   2.052   7.593  0.6392 -0.0447 -1.2120
 1293SOL    HW210226   1.791   1.913   7.590 -0.4977 -0.6692  1.8332
 1294SOL     OW10227   3.634   3.278   5.238  0.0639 -0.0584 -0.1969
 1294SOL    HW110228   3.628   3.310   5.328  1.5503  0.9097 -0.4129
 1294SOL    HW210229   3.659   3.186   5.247 -2.4134 -0.7601  0.3837
 1295SOL     OW10230   6.326   0.329   7.317  1.0605  0.5646  0.1974
 1295SOL    HW110231   6.284   0.414   7.332 -1.6552 -0.2157 -2.0405
 1295SOL    HW210232   6.298   0.304   7.229  1.1308 -2.9643  1.0289
 1296SOL     OW10233   8.992   0.990   9.070  0.4075  0.2818 -0.1612
 1296SOL    HW110234   8.917   0.958   9.021  0.8187  0.0946 -0.6859
 1296SOL    HW210235   9.066   0.978   9.010  0.8687  0.3595  0.3852
 1297SOL     OW10236   1.205   7.183   0.325  0.0403 -0.0491  0.3288
 1297SOL    HW110237   1.207   7.186   0.229 -1.5414  0.5024  0.2858
 1297SOL    HW210238   1.237   7.269   0.352 -2.0059  0.8135  0.1927
 1298SOL     OW10239   6.263   1.083   6.600  0.4316  0.3189  0.1692
 1298SOL    HW110240   6.266   0.992   6.630  0.1985 -0.0142 -0.7807
 1298SOL    HW210241   6.173   1.111   6.615  0.0930 -0.1169 -0.9443
 1299SOL     OW10242   1.590   3.963   1.304 -0.0190  0.1044  0.3673
 1299SOL    HW110243   1.499   3.977   1.331  0.8235  1.9869  2.5244
 1299SOL    HW210244   1.642   3.979   1.382  2.3234  0.8762 -1.2226
 1300SOL     OW10245   4.293   8.739   5.859 -0.5433  0.1471  0.6711
 1300SOL    HW110246   4.272   8.765   5.949 -2.2008  2.1596 -0.2068
 1300SOL    HW210247   4.222   8.681   5.833 -1.3509  1.3777 -0.0160
 1301SOL     OW10248   2.157   1.735   7.090  0.3010  0.4065  0.5331
 1301SOL    HW110249   2.155   1.747   6.995 -0.5900  2.7911  0.7884
 1301SOL    HW210250   2.198   1.814   7.123 -0.7756  0.2923  2.2315
 1302SOL     OW10251   3.086   6.751   1.494  0.3861 -0.4168 -0.0498
 1302SOL    HW110252   3.065   6.835   1.453 -0.9003  0.6595  2.6003
 1302SOL    HW210253   3.039   6.686   1.441 -3.2176  1.1517  0.9263
 1303SOL     OW10254   5.491   8.564   6.419 -0.0736 -0.1445  0.3934
 1303SOL    HW110255   5.511   8.656   6.438 -1.3398  0.6432 -1.7308
 1303SOL    HW210256   5.576   8.520   6.423  0.7062  1.2942  0.5011
 1304SOL     OW10257   7.201   2.331   3.008 -0.1491  0.1958 -0.1763
 1304SOL    HW110258   7.288   2.345   2.971 -0.0804 -0.9711 -0.5072
 1304SOL    HW210259   7.170   2.250   2.966 -1.6266  0.8976 -0.4868
 1305SOL     OW10260   6.106   0.528   3.545  0.4404 -0.6031  0.3093
 1305SOL    HW110261   6.146   0.555   3.462 -0.7839 -0.9968 -0.4270
 1305SOL    HW210262   6.181   0.504   3.600  1.3976  1.4750  0.0105
 1306SOL     OW10263   3.447   2.639   6.744 -0.4231  0.0880 -0.0734
 1306SOL    HW110264   3.504   2.569   6.714  3.0715  3.4994 -2.3909
 1306SOL    HW210265   3.459   2.641   6.839  1.4116 -0.9069 -0.2417
 1307SOL     OW10266   3.134   3.001   6.741  0.5164  0.1359 -0.0951
 1307SOL    HW110267   3.189   2.951   6.680  0.1507  0.8938 -1.0752
 1307SOL    HW210268   3.071   2.938   6.775  0.8633 -0.3453 -0.3363
 1308SOL     OW10269   2.892   5.347   6.592  0.0400  0.3721 -0.0767
 1308SOL    HW110270   2.872   5.387   6.677 -0.5714  1.1029 -0.5414
 1308SOL    HW210271   2.901   5.254   6.611  0.1740  0.5575  0.8327
 1309SOL     OW10272   7.522   4.775   8.709  0.6673  0.7177  0.3303
 1309SOL    HW110273   7.517   4.708   8.641  1.3983  1.2078 -0.2265
 1309SOL    HW210274   7.481   4.852   8.670 -1.5457  0.2171  1.5088
 1310SOL     OW10275   2.703   9.084   1.002  0.1286 -0.3555 -0.0816
 1310SOL    HW110276   2.787   9.044   0.979 -0.3863 -0.8104 -1.3040
 1310SOL    HW210277   2.645   9.062   0.928 -1.0899 -0.1285  0.7673
 1311SOL     OW10278   8.587   8.255   5.806  0.3974 -1.5522 -0.0931
 1311SOL    HW110279   8.662   8.212   5.765  1.5884 -0.7111  1.1362
 1311SOL    HW210280   8.605   8.349   5.797 -0.2742 -1.3427  0.6231
 1312SOL     OW10281   3.055   1.412   1.333 -0.0108  0.0739 -0.4088
 1312SOL    HW110282   3.063   1.502   1.366 -2.2107 -0.0463  0.6388
 1312SOL    HW210283   3.104   1.413   1.251  3.2597  1.1592  1.3686
 1313SOL     OW10284   7.635   4.114   2.381  0.2661  0.1590  0.3188
 1313SOL    HW110285   7.652   4.022   2.401 -0.2727 -0.0183 -0.0068
 1313SOL    HW210286   7.585   4.111   2.299 -1.8033  0.5913  1.4865
 1314SOL     OW10287   3.508   5.257   6.772  0.3138  0.0538 -0.4690
 1314SOL    HW110288   3.563   5.180   6.754  0.1632  0.1271 -1.2737
 1314SOL    HW210289   3.570   5.324   6.801  0.4745 -0.3000  0.0187
 1315SOL     OW10290   0.879   7.996   4.934  0.1023 -0.4658 -0.0831
 1315SOL    HW110291   0.808   8.043   4.978  0.3835  0.0081 -0.1318
 1315SOL    HW210292   0.957   8.049   4.949  0.5871 -1.3298  0.5534
 1316SOL     OW10293   6.080   6.858   2.555 -0.5857  0.1988  0.9198
 1316SOL    HW110294   6.042   6.941   2.584  0.1968  1.1401 -0.5878
 1316SOL    HW210295   6.026   6.832   2.480  0.3402  0.3923  0.1630
 1317SOL     OW10296   4.779   5.063   5.433 -0.1550  0.0660 -0.1388
 1317SOL    HW110297   4.813   5.123   5.499  1.2272 -0.6448 -0.1533
 1317SOL    HW210298   4.768   5.116   5.355  1.2103  0.2897 -0.1984
 1318SOL     OW10299   5.145   3.063   0.190  0.4787  0.2849 -0.5932
 1318SOL    HW110300   5.119   2.996   0.254  1.9089  0.4945  0.2552
 1318SOL    HW210301   5.240   3.069   0.199  0.2223  4.8257  1.8451
 1319SOL     OW10302   6.262   0.887   1.413 -0.1511  0.0284 -0.8652
 1319SOL    HW110303   6.342   0.907   1.462  0.8174 -0.0697 -2.3423
 1319SOL    HW210304   6.201   0.854   1.479  0.0050  2.7389  0.8121
 1320SOL     OW10305   5.367   3.909   5.956 -1.0504  0.1546  0.1684
 1320SOL    HW110306   5.292   3.943   6.005  0.2228  2.2022  0.8075
 1320SOL    HW210307   5.416   3.858   6.020 -0.0386  1.8124  0.7715
 1321SOL     OW10308   3.853   4.749   3.284 -0.5884 -0.0026 -0.0639
 1321SOL    HW110309   3.790   4.805   3.239 -0.6052  1.0557  1.2064
 1321SOL    HW210310   3.817   4.737   3.372  0.0975 -0.8821  0.1196
 1322SOL     OW10311   5.229   7.965   4.500 -0.2628  0.0408  0.3058
 1322SOL    HW110312   5.286   7.993   4.572  0.5125 -3.3484  1.1782
 1322SOL    HW210313   5.249   8.025   4.429  3.8786 -0.4543  0.8311
 1323SOL     OW10314   9.044   4.433   6.714 -0.6441 -0.5383 -0.1689
 1323SOL    HW110315   9.013   4.365   6.774 -0.8535 -0.6030 -0.3478
 1323SOL    HW210316   9.093   4.385   6.647 -1.8754 -0.6558 -1.0039
 1324SOL     OW10317   0.973   7.493   7.038  0.3037  0.1619 -0.4804
 1324SOL    HW110318   1.020   7.572   7.064 -2.3678  2.3012 -1.6850
 1324SOL    HW210319   1.019   7.463   6.959  0.7019  1.1354 -0.6332
 1325SOL     OW10320   6.650   3.531   8.879  0.2718 -0.3626  0.5051
 1325SOL    HW110321   6.642   3.622   8.851  1.4188 -0.9804 -2.0140
 1325SOL    HW210322   6.595   3.481   8.818 -0.1667 -1.4253  1.7032
 1326SOL     OW10323   4.570   4.927   3.128  0.4795 -0.4443 -0.0936
 1326SOL    HW110324   4.619   4.857   3.169  1.3803  0.0433 -0.3213
 1326SOL    HW210325   4.623   4.953   3.052 -0.3506 -0.2249 -0.6171
 1327SOL     OW10326   7.589   4.273   3.731  0.2098 -0.0664 -0.2491
 1327SOL    HW110327   7.614   4.365   3.715  1.9317 -0.5596 -0.5951
 1327SOL    HW210328   7.542   4.248   3.651  1.1003  0.0834 -0.8453
 1328SOL     OW10329   0.447   8.420   4.834 -0.6381  0.4321  0.0485
 1328SOL    HW110330   0.525   8.426   4.889 -0.0942  0.5806 -0.7176
 1328SOL    HW210331   0.409   8.335   4.856  0.1794  0.0099 -0.1121
 1329SOL     OW10332   5.771   3.529   6.143  0.0544 -0.4850 -0.5052
 1329SOL    HW110333   5.712   3.603   6.130  3.4614  2.1372 -2.8560
 1329SOL    HW210334   5.791   3.530   6.237 -0.9502  0.7269 -0.2892
 1330SOL     OW10335   1.433   2.485   5.062  0.1281  0.2786 -0.0811
 1330SOL    HW110336   1.351   2.470   5.110  0.9766 -2.3561  0.7135
 1330SOL    HW210337   1.497   2.504   5.131  0.4019  1.3498 -0.6152
 1331SOL     OW10338   9.152   6.685   1.584  0.5195  0.4977  0.5096
 1331SOL    HW110339   9.078   6.629   1.607  1.4998 -0.7914  0.6385
 1331SOL    HW210340   9.223   6.656   1.641  1.3068  1.2764 -0.0431
 1332SOL     OW10341   0.334   5.881   4.268  0.8647  0.3251 -0.0270
 1332SOL    HW110342   0.337   5.966   4.223 -1.0402  0.3178 -0.2358
 1332SOL    HW210343   0.306   5.902   4.357 -2.0782 -0.2250 -0.7185
 1333SOL     OW10344   7.817   1.359   5.528  0.1414  0.5100 -0.2046
 1333SOL    HW110345   7.798   1.399   5.613 -2.0461  4.1656 -2.1181
 1333SOL    HW210346   7.775   1.273   5.531  0.3447  0.4437  2.4439
 1334SOL     OW10347   1.646   7.179   2.121  0.0356  0.1548  0.5938
 1334SOL    HW110348   1.623   7.096   2.079 -0.4636  0.1202  0.9299
 1334SOL    HW210349   1.695   7.153   2.200  0.0301  0.1849  0.6070
 1335SOL     OW10350   2.884   5.360   0.770  0.3402 -0.2614 -0.5275
 1335SOL    HW110351   2.859   5.279   0.813 -1.4348 -0.1210 -1.2321
 1335SOL    HW210352   2.839   5.429   0.819 -0.1981  0.0649 -1.4461
 1336SOL     OW10353   2.821   1.737   0.742  0.0256  0.0192  0.0974
 1336SOL    HW110354   2.744   1.777   0.782  0.7925  1.8020 -0.1302
 1336SOL    HW210355   2.867   1.695   0.815 -1.6185 -1.9678  0.0889
 1337SOL     OW10356   0.664   7.930   8.342  0.1202 -0.0005 -0.6331
 1337SOL    HW110357   0.640   7.925   8.250 -2.7158 -1.4621  0.0604
 1337SOL    HW210358   0.591   7.975   8.384  0.4798 -0.9284  1.1062
 1338SOL     OW10359   3.253   6.071   6.921  0.1569  0.1042  0.7345
 1338SOL    HW110360   3.331   6.020   6.944  0.2393  0.4275  1.1845
 1338SOL    HW210361   3.247   6.137   6.990  0.1592  0.8194  0.0542
 1339SOL     OW10362   1.969   8.035   4.781 -0.2640 -0.1481  0.1825
 1339SOL    HW110363   2.064   8.047   4.790 -0.3065  0.2836  0.0797
 1339SOL    HW210364   1.953   7.946   4.812  0.0896  0.0032  0.8261
 1340SOL     OW10365   3.023   5.642   3.799  0.7771 -0.2157  0.4002
 1340SOL    HW110366   2.932   5.628   3.824  1.2463 -2.4020  1.0506
 1340SOL    HW210367   3.021   5.656   3.705 -0.2709  0.3424  0.4991
 1341SOL     OW10368   8.229   3.061   6.985  0.0393  0.5718 -0.3435
 1341SOL    HW110369   8.185   3.086   6.904  1.4189 -2.2368 -2.1008
 1341SOL    HW210370   8.318   3.097   6.977 -0.0079  0.8516  0.2758
 1342SOL     OW10371   7.660   0.965   6.116  0.1033  0.5252 -0.0041
 1342SOL    HW110372   7.657   1.041   6.058  0.1615 -0.9472 -2.0609
 1342SOL    HW210373   7.571   0.928   6.112  0.3773 -0.1533  0.0546
 1343SOL     OW10374   2.836   8.604   3.993 -0.0626 -0.1667 -0.1531
 1343SOL    HW110375   2.808   8.657   4.067  1.6094  0.8766 -0.2102
 1343SOL    HW210376   2.845   8.515   4.028  1.1296  0.3902  1.0518
 1344SOL     OW10377   7.597   2.049   8.900  0.4561  0.1334  0.0362
 1344SOL    HW110378   7.589   1.967   8.850 -1.5564  0.3446 -0.0755
 1344SOL    HW210379   7.588   2.022   8.991 -1.4389  0.3037 -0.0585
 1345SOL     OW10380   1.870   6.920   8.549  0.0646 -0.5052 -0.2529
 1345SOL    HW110381   1.847   6.912   8.642 -0.2624  1.0749 -0.1769
 1345SOL    HW210382   1.965   6.920   8.547  0.1020 -2.4051 -0.1190
 1346SOL     OW10383   1.404   4.832   2.586  0.1133 -0.1283 -0.8069
 1346SOL    HW110384   1.451   4.914   2.605 -0.5079  0.1361 -0.3843
 1346SOL    HW210385   1.455   4.765   2.631  0.3637  0.0882 -0.7599
 1347SOL     OW10386   5.037   3.452   3.050  0.4933  0.4472 -0.3170
 1347SOL    HW110387   5.109   3.458   2.988  0.6023  0.0746 -0.2317
 1347SOL    HW210388   4.967   3.409   3.001  0.7654 -0.3428 -0.0249
 1348SOL     OW10389   5.622   5.189   3.618 -0.0239  0.1829 -0.4643
 1348SOL    HW110390   5.672   5.145   3.550  0.2297 -1.1245  0.5268
 1348SOL    HW210391   5.687   5.210   3.686 -0.4076  0.7006 -0.2497
 1349SOL     OW10392   2.343   2.800   5.260  0.0712 -0.5175 -0.2164
 1349SOL    HW110393   2.347   2.754   5.344 -1.0022  2.5734  1.6698
 1349SOL    HW210394   2.259   2.775   5.223 -0.1684 -0.6564  0.4046
 1350SOL     OW10395   2.150   1.815   6.311 -0.5281  0.4096  0.1946
 1350SOL    HW110396   2.193   1.741   6.355 -0.9509 -0.5414 -0.9127
 1350SOL    HW210397   2.134   1.879   6.380  1.0039  0.0129  0.9573
 1351SOL     OW10398   6.773   3.417   8.508 -0.2804  0.3361 -0.3441
 1351SOL    HW110399   6.697   3.434   8.452  1.4424  3.2711 -2.0550
 1351SOL    HW210400   6.814   3.339   8.469 -1.8157 -0.6606 -0.0214
 1352SOL     OW10401   4.531   6.675   2.940  0.4261  0.5792  0.6786
 1352SOL    HW110402   4.582   6.756   2.934  1.7381 -0.2844 -0.4452
 1352SOL    HW210403   4.596   6.607   2.956 -0.3828 -0.5202 -0.5324
 1353SOL     OW10404   8.406   0.677   8.096  0.3922 -0.4095  0.3707
 1353SOL    HW110405   8.482   0.717   8.054  0.8731  1.2926  2.6566
 1353SOL    HW210406   8.422   0.687   8.190 -2.9764  0.7712  0.9687
 1354SOL     OW10407   8.466   6.619   0.144 -0.2320 -0.1944 -0.1309
 1354SOL    HW110408   8.492   6.711   0.132 -0.3488 -0.1792 -0.2726
 1354SOL    HW210409   8.414   6.599   0.066 -0.6783 -0.2144  0.1691
 1355SOL     OW10410   5.174   4.794   4.037 -0.3066  0.1958  0.0431
 1355SOL    HW110411   5.195   4.883   4.064 -0.6237 -0.1187  1.3701
 1355SOL    HW210412   5.252   4.764   3.990  0.1291  0.8732  0.3311
 1356SOL     OW10413   9.024   5.622   7.592 -0.2334  0.0879  0.4976
 1356SOL    HW110414   8.990   5.674   7.664 -0.0257 -0.1815  0.7932
 1356SOL    HW210415   9.101   5.671   7.561 -1.2472  1.0472 -0.6107
 1357SOL     OW10416   5.625   0.424   3.368 -0.2134  0.0271 -0.3880
 1357SOL    HW110417   5.605   0.383   3.285  0.0754  0.8733 -0.8898
 1357SOL    HW210418   5.540   0.449   3.405 -0.2573  2.0385 -1.6889
 1358SOL     OW10419   2.508   2.210   5.895  0.4438 -0.4022  0.0368
 1358SOL    HW110420   2.579   2.204   5.831 -0.6493  0.1922 -1.2594
 1358SOL    HW210421   2.467   2.124   5.894  0.5040 -0.4317  0.0527
 1359SOL     OW10422   9.193   5.522   5.639  0.4930  0.3701 -0.0869
 1359SOL    HW110423   9.218   5.541   5.548  1.0570 -3.1133 -0.7830
 1359SOL    HW210424   9.105   5.487   5.633  0.4797  0.2423  0.7297
 1360SOL     OW10425   4.025   6.639   3.013 -0.9069 -0.2606 -0.0309
 1360SOL    HW110426   4.103   6.686   3.041 -1.9511  1.0182  0.8635
 1360SOL    HW210427   4.034   6.552   3.051  0.9633 -0.7960 -1.5409
 1361SOL     OW10428   5.672   1.638   1.104 -0.0397 -0.6536  0.3501
 1361SOL    HW110429   5.739   1.572   1.084 -0.1347 -0.6178 -0.0926
 1361SOL    HW210430   5.602   1.621   1.042 -0.5307 -0.8123  0.9406
 1362SOL     OW10431   4.267   0.079   2.625 -0.3099 -0.0172 -0.2342
 1362SOL    HW110432   4.183   0.125   2.636  0.7110  1.3760  3.0693
 1362SOL    HW210433   4.314   0.132   2.560 -1.1158  0.5536 -0.3820
 1363SOL     OW10434   8.204   0.951   3.315 -0.3705 -0.1210  0.1500
 1363SOL    HW110435   8.282   0.990   3.277 -0.2124 -1.0698 -0.5464
 1363SOL    HW210436   8.173   0.889   3.249 -1.6236  0.1176  0.4794
 1364SOL     OW10437   8.307   4.344   3.963  0.4307 -0.1326  0.1608
 1364SOL    HW110438   8.348   4.378   3.883  0.2836 -0.0016  0.1422
 1364SOL    HW210439   8.296   4.250   3.946  0.6342 -0.1519  0.1282
 1365SOL     OW10440   5.110   6.838   7.906 -0.1290  0.3540  0.2985
 1365SOL    HW110441   5.148   6.926   7.901  1.2918 -0.1060  2.0144
 1365SOL    HW210442   5.135   6.796   7.824 -0.8437  1.5305 -0.5589
 1366SOL     OW10443   2.726   8.851   8.917 -0.3502 -0.0047  0.6879
 1366SOL    HW110444   2.698   8.943   8.912  1.7821  0.6474 -0.7653
 1366SOL    HW210445   2.815   8.851   8.881 -0.0435 -2.5616  1.2492
 1367SOL     OW10446   2.468   9.069   6.322  0.3202 -0.0627  0.2357
 1367SOL    HW110447   2.432   9.104   6.241  1.9387  2.6147  0.5454
 1367SOL    HW210448   2.504   8.984   6.297 -0.8481 -0.1337 -1.3866
 1368SOL     OW10449   6.341   4.584   8.009 -0.2660 -0.0752 -0.4223
 1368SOL    HW110450   6.354   4.491   8.027 -0.0482  0.0232 -0.0646
 1368SOL    HW210451   6.359   4.593   7.915 -0.8093 -0.4827 -0.5704
 1369SOL     OW10452   1.432   7.445   0.953  0.6867  0.4019 -0.4412
 1369SOL    HW110453   1.383   7.489   1.022  0.3398 -1.9513  0.9436
 1369SOL    HW210454   1.401   7.485   0.872 -1.4451  0.9286  0.5680
 1370SOL     OW10455   1.890   0.350   8.175 -0.4213 -0.0337  0.6477
 1370SOL    HW110456   1.866   0.334   8.084  0.4467  1.9209  0.0189
 1370SOL    HW210457   1.973   0.303   8.187  1.2225  2.3469 -0.6474
 1371SOL     OW10458   6.994   6.950   0.953  0.2317 -0.2114  0.2840
 1371SOL    HW110459   7.012   6.865   0.992  1.7737 -0.6460 -1.2449
 1371SOL    HW210460   7.065   7.006   0.983  0.0275  0.1339  0.1339
 1372SOL     OW10461   0.038   2.427   3.186  0.3871  0.0077 -0.2013
 1372SOL    HW110462  -0.022   2.501   3.185 -0.5877 -0.5446  3.6303
 1372SOL    HW210463   0.040   2.396   3.095 -2.0292  2.4285 -1.1988
 1373SOL     OW10464   0.912   2.846   9.230  0.4034 -0.3529  0.4835
 1373SOL    HW110465   0.835   2.899   9.211  0.2488 -0.0594  1.8040
 1373SOL    HW210466   0.916   2.782   9.159 -0.4020  0.3403 -0.2003
 1374SOL     OW10467   8.971   4.647   2.058  0.3556  0.3222  0.1922
 1374SOL    HW110468   8.895   4.633   2.116 -0.7288  2.0407 -0.7344
 1374SOL    HW210469   9.039   4.681   2.116 -0.0041  0.0088  0.8178
 1375SOL     OW10470   7.537   1.396   3.293 -0.2501  0.1052  0.3878
 1375SOL    HW110471   7.514   1.487   3.313  1.7745  0.8816 -0.4704
 1375SOL    HW210472   7.506   1.383   3.203  2.1144  1.0688 -0.6747
 1376SOL     OW10473   0.824   1.849   2.288 -0.0096  0.1823  0.0396
 1376SOL    HW110474   0.837   1.942   2.269 -2.3069  1.1379  2.5859
 1376SOL    HW210475   0.869   1.834   2.370 -1.1038 -0.4822  0.5482
 1377SOL     OW10476   8.941   0.582   1.945  0.0346  0.0055 -0.0971
 1377SOL    HW110477   8.951   0.605   1.853  0.4252 -0.9161 -0.3061
 1377SOL    HW210478   8.852   0.547   1.952 -0.1811  0.5680 -0.0080
 1378SOL     OW10479   3.387   2.858   3.834  0.0124 -0.2911 -0.1799
 1378SOL    HW110480   3.459   2.902   3.880  0.2680  0.2783 -1.1081
 1378SOL    HW210481   3.358   2.790   3.895  0.3070  0.4754  0.8505
 1379SOL     OW10482   8.330   5.107   4.490  0.0551 -0.3639  0.4653
 1379SOL    HW110483   8.396   5.113   4.420  0.0298 -0.4788  0.4307
 1379SOL    HW210484   8.371   5.147   4.566  0.7177 -1.7203  0.8508
 1380SOL     OW10485   1.348   1.499   2.223 -0.0901 -0.6028 -0.4099
 1380SOL    HW110486   1.364   1.447   2.145  0.0504  0.2329 -0.9457
 1380SOL    HW210487   1.314   1.583   2.190  1.2642  0.2751  0.3376
 1381SOL     OW10488   1.407   1.916   2.265  0.1606  0.1055 -0.2149
 1381SOL    HW110489   1.468   1.853   2.304 -0.0607 -0.4606 -0.7696
 1381SOL    HW210490   1.359   1.865   2.200 -1.5808  0.3034  0.8522
 1382SOL     OW10491   5.878   2.877   3.411 -0.2933  0.3110  0.6414
 1382SOL    HW110492   5.820   2.851   3.483  2.2611  1.5531  3.3478
 1382SOL    HW210493   5.930   2.798   3.393 -0.8576  0.0312  0.2244
 1383SOL     OW10494   2.802   2.247   0.094  0.2728 -0.1740  0.0952
 1383SOL    HW110495   2.879   2.253   0.037  0.9228 -0.9519  0.8535
 1383SOL    HW210496   2.767   2.160   0.077  0.8870 -0.6927  1.3634
 1384SOL     OW10497   4.664   0.977   6.228  0.1290 -0.2965 -0.2492
 1384SOL    HW110498   4.700   0.899   6.270  0.1352  0.3430  0.9570
 1384SOL    HW210499   4.577   0.988   6.266  1.1376  1.8124  1.6867
 1385SOL     OW10500   8.147   2.414   4.654 -0.7045  0.3440  0.0769
 1385SOL    HW110501   8.229   2.373   4.626 -0.8349  0.3447 -0.3073
 1385SOL    HW210502   8.127   2.372   4.738  0.0056  0.7834  0.4729
 1386SOL     OW10503   3.934   1.252   1.811  0.4822  0.4797  0.0803
 1386SOL    HW110504   3.856   1.197   1.802  1.1863 -0.3411 -1.3932
 1386SOL    HW210505   3.981   1.214   1.885 -0.2832  0.7050  0.6956
 1387SOL     OW10506   8.262   9.055   6.504  0.2476 -0.2225  0.2973
 1387SOL    HW110507   8.236   9.112   6.577  1.9136  1.2015 -0.1568
 1387SOL    HW210508   8.181   9.013   6.477 -0.5861 -0.0446  2.3367
 1388SOL     OW10509   3.247   2.261   2.903  0.2580  0.2673 -0.1010
 1388SOL    HW110510   3.186   2.315   2.852 -0.4717 -1.0684 -0.6910
 1388SOL    HW210511   3.208   2.259   2.991  0.8649  1.5530  0.2273
 1389SOL     OW10512   7.571   7.889   1.639 -0.7131 -0.0371  0.0300
 1389SOL    HW110513   7.537   7.945   1.709 -1.5103  2.1622 -2.0243
 1389SOL    HW210514   7.666   7.901   1.643 -0.8184  0.8064  0.1555
 1390SOL     OW10515   2.816   2.651   8.147 -0.2694 -0.0955  0.0324
 1390SOL    HW110516   2.752   2.666   8.078 -0.6110  0.9200  0.5556
 1390SOL    HW210517   2.775   2.684   8.226 -0.3203 -2.1896  0.9626
 1391SOL     OW10518   7.045   1.353   3.797 -0.2637  0.0879  0.3344
 1391SOL    HW110519   7.042   1.430   3.741 -1.2784 -0.0877  0.1215
 1391SOL    HW210520   7.134   1.351   3.831 -0.0317  0.9654 -0.1958
 1392SOL     OW10521   4.140   1.598   9.158 -0.1523 -0.5299 -0.0616
 1392SOL    HW110522   4.100   1.554   9.234 -1.3395  0.1216 -0.2901
 1392SOL    HW210523   4.107   1.687   9.162  1.8227  0.2466  0.0904
 1393SOL     OW10524   2.899   0.964   4.029  0.1421 -0.3200 -0.2380
 1393SOL    HW110525   2.827   0.910   3.997 -1.2280  2.1810 -1.7156
 1393SOL    HW210526   2.955   0.977   3.952 -0.7231  2.0340 -0.5348
 1394SOL     OW10527   0.825   0.253   4.226  0.6250 -0.1145 -0.3721
 1394SOL    HW110528   0.902   0.229   4.278  1.5384 -1.1030 -2.0714
 1394SOL    HW210529   0.842   0.214   4.140 -1.1377  0.8536 -1.2042
 1395SOL     OW10530   5.213   5.677   7.894  0.2001 -0.3009 -0.6294
 1395SOL    HW110531   5.200   5.752   7.951 -3.4329 -2.5683  1.9639
 1395SOL    HW210532   5.135   5.675   7.838 -0.6185 -2.8430  0.4449
 1396SOL     OW10533   4.577   6.118   7.850  0.2374 -0.0359  0.2312
 1396SOL    HW110534   4.635   6.157   7.916 -1.3584  2.0667  0.5016
 1396SOL    HW210535   4.531   6.048   7.897 -0.7566  1.3274  1.3777
 1397SOL     OW10536   1.474   6.578   6.466 -0.1105  0.4417  0.0165
 1397SOL    HW110537   1.540   6.537   6.411 -1.1298 -0.0703 -0.8640
 1397SOL    HW210538   1.505   6.564   6.556  0.5637 -0.5029 -0.3463
 1398SOL     OW10539   5.288   1.781   8.042  0.1285 -0.5273  0.5617
 1398SOL    HW110540   5.227   1.847   8.009  0.5511  0.3159  1.3797
 1398SOL    HW210541   5.243   1.698   8.030 -0.1894 -0.1561 -1.0368
 1399SOL     OW10542   2.885   0.368   6.229  0.2665  0.1079 -0.1043
 1399SOL    HW110543   2.818   0.407   6.172  0.7605 -0.9066 -1.4306
 1399SOL    HW210544   2.967   0.405   6.199  0.3628  1.2854  1.4693
 1400SOL     OW10545   6.594   0.806   3.875  0.0918 -0.6587  0.6107
 1400SOL    HW110546   6.584   0.781   3.967  1.9152 -0.5797  0.8598
 1400SOL    HW210547   6.661   0.874   3.875 -0.7556  0.2274 -0.6667
 1401SOL     OW10548   9.246   0.036   6.665 -0.2875  0.4215 -0.4627
 1401SOL    HW110549   9.192   0.111   6.690 -2.5697 -1.6774  1.4223
 1401SOL    HW210550   9.320   0.039   6.725  0.2000  1.7212 -1.1077
 1402SOL     OW10551   0.714   8.582   2.393  0.4168 -0.6085 -0.5944
 1402SOL    HW110552   0.670   8.499   2.408 -1.3437  0.3157 -0.4163
 1402SOL    HW210553   0.651   8.635   2.345  0.8068  1.2365  0.7933
 1403SOL     OW10554   1.291   6.701   5.608  0.2898 -0.4511  0.1963
 1403SOL    HW110555   1.335   6.777   5.568 -0.1218 -0.7117 -0.7932
 1403SOL    HW210556   1.257   6.652   5.533 -1.8253 -0.1678  0.9022
 1404SOL     OW10557   7.382   3.553   6.472 -0.2731  0.2167 -0.5733
 1404SOL    HW110558   7.415   3.468   6.501  0.0702  0.0326 -1.4852
 1404SOL    HW210559   7.457   3.612   6.480  0.2698 -0.1652 -2.4856
 1405SOL     OW10560   1.430   8.848   5.645  0.4076 -0.0700  0.1485
 1405SOL    HW110561   1.339   8.823   5.633  0.2860  1.0569 -1.5338
 1405SOL    HW210562   1.460   8.874   5.558  1.7556  1.4260  1.0038
 1406SOL     OW10563   6.890   1.003   6.804 -0.3318  0.0393  0.2304
 1406SOL    HW110564   6.917   1.005   6.896  2.3016 -3.2154 -0.3048
 1406SOL    HW210565   6.970   1.021   6.755 -1.6645  1.6051 -1.5264
 1407SOL     OW10566   0.860   3.640   9.011 -0.2981 -0.4795 -0.0695
 1407SOL    HW110567   0.856   3.629   9.106 -1.1941  1.0861  0.0930
 1407SOL    HW210568   0.826   3.557   8.977  0.7320 -1.3531  0.9452
 1408SOL     OW10569   1.507   4.476   6.147 -0.1254  0.2690 -0.4127
 1408SOL    HW110570   1.526   4.456   6.056 -0.8771  1.2115 -0.7997
 1408SOL    HW210571   1.461   4.398   6.180  2.5447 -1.2386  0.0079
 1409SOL     OW10572   7.969   7.566   2.755  0.0085  0.3978  0.2627
 1409SOL    HW110573   8.059   7.597   2.745  0.1412  0.3750  1.3029
 1409SOL    HW210574   7.923   7.639   2.796 -0.2982  0.1663  0.3332
 1410SOL     OW10575   3.280   8.556   8.854  0.2893 -0.2313 -0.2020
 1410SOL    HW110576   3.279   8.486   8.919 -0.5995  0.9328  1.0850
 1410SOL    HW210577   3.279   8.510   8.770  0.2728 -1.7632  0.6034
 1411SOL     OW10578   6.815   7.224   6.911  0.2578 -0.2443 -0.6917
 1411SOL    HW110579   6.872   7.289   6.952 -0.2046 -0.8099  0.8992
 1411SOL    HW210580   6.730   7.268   6.903  0.0445 -0.5213  0.0328
 1412SOL     OW10581   8.219   1.503   5.234 -0.0425 -0.7523 -0.7490
 1412SOL    HW110582   8.217   1.543   5.147  0.4738 -0.3433 -0.5723
 1412SOL    HW210583   8.271   1.424   5.223  1.0264 -0.0872 -0.5581
 1413SOL     OW10584   7.602   7.481   8.632  0.0589 -0.6858 -0.2334
 1413SOL    HW110585   7.546   7.514   8.562  0.4027 -1.3513 -0.8315
 1413SOL    HW210586   7.568   7.523   8.711  0.6646  1.3499 -0.9767
 1414SOL     OW10587   0.621   4.010   0.898  0.6084  0.5821  0.2270
 1414SOL    HW110588   0.713   4.006   0.925  0.0902  0.4238  2.1036
 1414SOL    HW210589   0.583   4.079   0.952 -0.4424  0.4726 -0.3432
 1415SOL     OW10590   5.152   5.123   8.501 -0.3015  0.3635  0.5602
 1415SOL    HW110591   5.231   5.169   8.473 -0.7343  0.9392  0.2672
 1415SOL    HW210592   5.144   5.145   8.594 -0.6097  1.0439  0.3789
 1416SOL     OW10593   3.238   0.964   3.234 -0.0551  0.5301 -0.2264
 1416SOL    HW110594   3.190   0.882   3.247 -0.0403  0.3058 -1.5089
 1416SOL    HW210595   3.326   0.937   3.209  0.3327  0.9539  0.6280
 1417SOL     OW10596   2.143   3.072   0.843  0.2493  0.2728  0.6436
 1417SOL    HW110597   2.150   2.984   0.807 -0.3024 -0.8472  3.1003
 1417SOL    HW210598   2.224   3.085   0.891  0.6831  1.4661 -0.3598
 1418SOL     OW10599   3.697   2.705   6.922  0.3579 -0.3073  0.6849
 1418SOL    HW110600   3.745   2.786   6.905  0.2517 -0.3919 -0.0534
 1418SOL    HW210601   3.613   2.733   6.958 -0.4300  0.0351 -1.2798
 1419SOL     OW10602   2.185   5.134   8.346  0.1779 -0.2346  0.0219
 1419SOL    HW110603   2.184   5.184   8.264 -0.3030 -0.6745 -0.2500
 1419SOL    HW210604   2.259   5.075   8.337  1.1349  0.8566  0.6119
 1420SOL     OW10605   3.747   2.475   0.700 -0.0070 -0.4553  0.0273
 1420SOL    HW110606   3.692   2.532   0.645 -0.0210  1.5092  1.9552
 1420SOL    HW210607   3.696   2.395   0.709 -0.7498 -0.1925 -1.4310
 1421SOL     OW10608   5.318   3.408   3.759 -0.2551  0.0112 -0.5418
 1421SOL    HW110609   5.288   3.398   3.849 -0.2176 -0.5305 -0.5915
 1421SOL    HW210610   5.283   3.493   3.732  2.0314  1.5298  0.8998
 1422SOL     OW10611   8.267   3.495   6.593 -0.3646 -0.1067 -0.3488
 1422SOL    HW110612   8.272   3.445   6.512  1.0190  0.6588 -0.7714
 1422SOL    HW210613   8.297   3.435   6.661 -0.0501 -0.2792 -0.6374
 1423SOL     OW10614   3.225   0.301   1.984  0.4917  0.1464 -0.6167
 1423SOL    HW110615   3.168   0.247   2.039 -1.0166  2.9302  0.7634
 1423SOL    HW210616   3.313   0.264   1.997  0.1141  0.1687  3.1733
 1424SOL     OW10617   7.078   3.417   0.409 -0.1471  0.1104  0.2239
 1424SOL    HW110618   7.052   3.482   0.473 -1.1894  0.3095 -0.3662
 1424SOL    HW210619   7.077   3.334   0.456  0.2543  0.4015  0.7455
 1425SOL     OW10620   7.925   5.499   5.621  0.3239 -0.4623  0.7673
 1425SOL    HW110621   7.865   5.425   5.618  0.9363 -0.9258 -0.7352
 1425SOL    HW210622   7.953   5.511   5.530 -0.0165  1.8210  0.9081
 1426SOL     OW10623   0.440   8.997   0.001 -0.7552  0.0883 -0.5048
 1426SOL    HW110624   0.435   9.052   0.079 -3.9064  0.3009 -0.7222
 1426SOL    HW210625   0.417   8.909   0.032 -1.4705  0.0649 -1.0777
 1427SOL     OW10626   8.984   7.042   1.889 -0.0058 -0.3698 -0.0304
 1427SOL    HW110627   8.949   6.967   1.938  0.8772 -0.7619  0.0200
 1427SOL    HW210628   9.048   7.004   1.829  0.3168  0.3236 -0.1367
 1428SOL     OW10629   7.720   3.649   5.521 -0.2370 -0.0195 -0.0720
 1428SOL    HW110630   7.813   3.659   5.544 -0.6429  1.3366  1.1140
 1428SOL    HW210631   7.711   3.696   5.438 -0.3814  2.4288  1.2314
 1429SOL     OW10632   3.812   8.865   1.004 -0.1502 -0.1339  0.6029
 1429SOL    HW110633   3.870   8.799   1.043  0.6083  1.1383  1.7142
 1429SOL    HW210634   3.800   8.836   0.913  1.9102 -0.6715  0.4477
 1430SOL     OW10635   1.242   2.694   9.206 -0.7275  0.1507  0.3324
 1430SOL    HW110636   1.203   2.621   9.158 -0.2106  0.6922 -0.9492
 1430SOL    HW210637   1.252   2.662   9.296 -1.2429 -1.0661 -0.0385
 1431SOL     OW10638   3.015   2.051   6.808  0.0320 -0.5309 -0.3312
 1431SOL    HW110639   2.983   2.135   6.840  1.9665  0.0624  0.1841
 1431SOL    HW210640   2.951   1.987   6.840 -1.3947  0.7118 -0.6269
 1432SOL     OW10641   8.491   9.233   6.490 -0.0389  0.0079 -0.7515
 1432SOL    HW110642   8.414   9.177   6.489  0.9150 -1.3813  0.4078
 1432SOL    HW210643   8.522   9.233   6.400 -0.6555 -0.4448 -0.9699
 1433SOL     OW10644   1.367   7.196   3.160 -0.1905 -0.4946  0.1214
 1433SOL    HW110645   1.287   7.189   3.212  0.1595 -1.1383  0.5870
 1433SOL    HW210646   1.372   7.114   3.111 -1.2859  0.6817 -2.1055
 1434SOL     OW10647   8.726   3.206   2.770  0.6746  0.2734  0.3436
 1434SOL    HW110648   8.684   3.282   2.810  1.9951  1.2031  0.0399
 1434SOL    HW210649   8.680   3.131   2.807 -2.3051  1.2169 -1.1466
 1435SOL     OW10650   0.070   3.164   7.699 -0.7474 -0.0865  0.4127
 1435SOL    HW110651   0.031   3.252   7.699 -0.0585  0.2496 -1.1718
 1435SOL    HW210652   0.160   3.177   7.672 -1.1210 -1.4551 -1.7018
 1436SOL     OW10653   6.069   8.151   2.525  0.4468 -0.1453  0.0081
 1436SOL    HW110654   6.017   8.203   2.464 -0.3325 -0.0514  0.7297
 1436SOL    HW210655   6.155   8.146   2.485  0.4700  1.4737 -0.2197
 1437SOL     OW10656   5.122   7.760   7.363 -0.3027 -0.3960 -0.1484
 1437SOL    HW110657   5.179   7.714   7.425  1.4944  0.9028 -0.7363
 1437SOL    HW210658   5.072   7.822   7.418  2.2359  1.6985  0.0038
 1438SOL     OW10659   7.388   2.982   8.279  0.1088 -0.1016  0.2941
 1438SOL    HW110660   7.404   2.933   8.359 -0.3455 -0.4679  0.1638
 1438SOL    HW210661   7.465   3.039   8.271  0.6252 -0.7503  0.4682
 1439SOL     OW10662   8.551   8.598   5.272  0.1499 -0.2462 -0.5046
 1439SOL    HW110663   8.558   8.505   5.251 -0.0848 -0.8060  1.6402
 1439SOL    HW210664   8.641   8.626   5.289  0.1629 -0.2007 -0.6468
 1440SOL     OW10665   1.289   1.507   4.743 -0.2104 -0.8888 -1.0478
 1440SOL    HW110666   1.195   1.519   4.737 -0.5006 -2.1041  0.4792
 1440SOL    HW210667   1.317   1.564   4.815 -0.1528 -2.0747 -0.0799
 1441SOL     OW10668   1.175   3.236   8.975  0.0714 -0.0299  0.1265
 1441SOL    HW110669   1.110   3.167   8.987  1.3242 -0.8685  2.8114
 1441SOL    HW210670   1.136   3.295   8.911 -2.9521 -0.8764  1.0466
 1442SOL     OW10671   0.462   1.914   4.504  0.0194 -0.0134 -0.2707
 1442SOL    HW110672   0.441   1.839   4.448  0.0259  1.7654 -2.8288
 1442SOL    HW210673   0.558   1.919   4.502  0.0812 -0.4694  0.7190
 1443SOL     OW10674   0.279   6.991   4.330  0.4664 -0.3181  0.3675
 1443SOL    HW110675   0.320   7.061   4.381  0.5676  0.2265 -0.4432
 1443SOL    HW210676   0.348   6.961   4.270 -0.1314  0.2002 -0.6005
 1444SOL     OW10677   8.977   2.162   1.474  0.2162 -0.2562  0.0669
 1444SOL    HW110678   8.898   2.209   1.448  0.8199 -0.4585 -2.4488
 1444SOL    HW210679   8.957   2.070   1.457  0.8494 -0.3398 -0.2853
 1445SOL     OW10680   4.792   4.062   8.204  0.2478 -0.2090  0.0177
 1445SOL    HW110681   4.789   4.018   8.289  1.8921 -2.1240 -0.8498
 1445SOL    HW210682   4.793   3.991   8.140 -0.0719  1.1777 -1.5888
 1446SOL     OW10683   1.703   9.043   6.256 -0.7262 -0.2395 -0.3704
 1446SOL    HW110684   1.624   8.989   6.254 -0.6284 -0.3908 -0.1987
 1446SOL    HW210685   1.774   8.981   6.242 -0.3915 -0.5890  2.3415
 1447SOL     OW10686   9.230   0.672   2.567  0.1268  0.4118  0.3904
 1447SOL    HW110687   9.169   0.726   2.619  0.3741  0.9974  0.0837
 1447SOL    HW210688   9.221   0.706   2.478 -0.1770 -0.4813  0.0748
 1448SOL     OW10689   6.181   3.308   7.818  0.6740 -0.5283  0.1650
 1448SOL    HW110690   6.145   3.232   7.865  1.4227 -1.3083 -0.4960
 1448SOL    HW210691   6.114   3.329   7.753 -1.2290  1.6939  2.6198
 1449SOL     OW10692   4.310   7.569   0.106  0.2717 -0.1376  0.2133
 1449SOL    HW110693   4.238   7.530   0.155 -1.2004 -0.6827 -2.2277
 1449SOL    HW210694   4.285   7.660   0.093 -0.8790 -0.6994 -2.0209
 1450SOL     OW10695   7.419   2.070   9.191 -0.1644 -0.3641 -0.4083
 1450SOL    HW110696   7.507   2.064   9.229 -0.5470 -0.6114  0.4736
 1450SOL    HW210697   7.361   2.038   9.261 -1.0139  0.4421 -0.7328
 1451SOL     OW10698   4.938   4.087   6.254 -0.0935  0.5287  0.4569
 1451SOL    HW110699   4.911   4.085   6.346 -0.9556  0.7892  0.2206
 1451SOL    HW210700   4.868   4.040   6.208  0.8222 -0.4629  0.0448
 1452SOL     OW10701   0.924   6.824   3.749  0.2679  0.7272 -0.1072
 1452SOL    HW110702   0.915   6.891   3.817 -0.9521 -0.2514  0.7178
 1452SOL    HW210703   1.013   6.791   3.760 -0.3082 -0.2848  1.8653
 1453SOL     OW10704   4.041   9.033   1.355 -0.6009 -0.5800  0.2971
 1453SOL    HW110705   4.039   9.104   1.420 -0.6920 -1.6715  1.5354
 1453SOL    HW210706   4.065   9.076   1.273  3.8747  0.3361  1.7904
 1454SOL     OW10707   5.147   5.064   0.703  0.2197 -0.4081  0.0775
 1454SOL    HW110708   5.239   5.039   0.703  1.0200  2.2181 -0.0416
 1454SOL    HW210709   5.146   5.152   0.665 -2.4566 -0.6936 -0.7181
 1455SOL     OW10710   8.810   2.260   4.116  0.4099 -0.2728 -0.1940
 1455SOL    HW110711   8.899   2.292   4.104  1.4626 -3.0792 -0.6410
 1455SOL    HW210712   8.777   2.245   4.028 -0.8007  1.3408 -0.0581
 1456SOL     OW10713   1.178   6.307   6.428  0.6762  0.1702  0.3932
 1456SOL    HW110714   1.193   6.394   6.393  0.9524  0.1115  0.3610
 1456SOL    HW210715   1.265   6.276   6.453  0.8928 -0.9423 -1.5609
 1457SOL     OW10716   0.490   4.022   6.988 -0.4461 -0.4844  0.6004
 1457SOL    HW110717   0.497   4.112   7.021  0.4341 -0.4469  0.3198
 1457SOL    HW210718   0.500   4.030   6.893  0.1847 -0.9378  0.6248
 1458SOL     OW10719   7.343   5.591   4.808  0.6871 -0.4687  0.2028
 1458SOL    HW110720   7.294   5.655   4.859  0.3520 -0.1769 -0.4686
 1458SOL    HW210721   7.434   5.615   4.821  0.6172 -0.5161  0.8146
 1459SOL     OW10722   0.278   7.637   4.882 -0.0667  0.4656  0.7758
 1459SOL    HW110723   0.302   7.699   4.813  1.6683  1.3988  2.1347
 1459SOL    HW210724   0.305   7.551   4.848 -1.8790  0.4629 -0.8438
 1460SOL     OW10725   0.276   1.679   6.657 -0.0236 -0.2072  0.2540
 1460SOL    HW110726   0.318   1.631   6.585 -0.3813 -1.9115  1.1182
 1460SOL    HW210727   0.310   1.637   6.736  0.8727  2.0511  1.1567
 1461SOL     OW10728   1.596   2.624   5.236 -0.2412  0.7697  0.2900
 1461SOL    HW110729   1.623   2.589   5.321  0.7678  1.9283  0.4793
 1461SOL    HW210730   1.541   2.699   5.257 -0.3502  0.8002 -0.0908
 1462SOL     OW10731   5.297   2.119   0.277 -0.2572 -0.3223 -0.2515
 1462SOL    HW110732   5.356   2.078   0.341  0.6502 -0.9343 -1.4406
 1462SOL    HW210733   5.225   2.056   0.268 -1.8425  0.9908  2.1459
 1463SOL     OW10734   3.800   4.273   7.324  0.2881 -0.1764  0.6650
 1463SOL    HW110735   3.852   4.197   7.351  0.9270  0.9183  2.7015
 1463SOL    HW210736   3.864   4.335   7.290 -0.3278 -0.8226 -1.8652
 1464SOL     OW10737   2.692   2.633   5.152 -0.4285 -0.4721  0.2361
 1464SOL    HW110738   2.666   2.631   5.060  0.9019  1.6385 -0.2604
 1464SOL    HW210739   2.783   2.603   5.151  0.0438  0.8705  0.6283
 1465SOL     OW10740   0.574   4.378   1.558 -0.2384  0.2485 -0.0757
 1465SOL    HW110741   0.593   4.299   1.508  0.1879  0.8982 -0.9795
 1465SOL    HW210742   0.504   4.353   1.618 -2.2751 -0.0684 -2.4261
 1466SOL     OW10743   6.431   6.298   4.847 -0.3669 -0.3100  0.2294
 1466SOL    HW110744   6.437   6.371   4.908  0.0296  0.9869 -1.3230
 1466SOL    HW210745   6.339   6.296   4.821 -0.4381 -0.5711  0.4876
 1467SOL     OW10746   7.350   0.238   4.189 -0.0846  0.2964  0.5385
 1467SOL    HW110747   7.325   0.217   4.279  2.3527 -1.7067  0.8611
 1467SOL    HW210748   7.420   0.302   4.197  1.2942 -1.1081  0.2330
 1468SOL     OW10749   4.701   0.308   5.776 -0.2937  0.6767 -0.0600
 1468SOL    HW110750   4.622   0.253   5.774 -0.8003  1.3967 -0.0121
 1468SOL    HW210751   4.697   0.352   5.861  1.1910 -0.7548  0.8026
 1469SOL     OW10752   4.291   2.059   8.002  0.1374 -0.3332  0.0692
 1469SOL    HW110753   4.257   2.109   8.076  0.1086 -0.5128  0.1788
 1469SOL    HW210754   4.276   1.967   8.026  1.5297 -0.4636  0.5243
 1470SOL     OW10755   6.536   3.712   8.193 -0.3456 -0.3139  0.0381
 1470SOL    HW110756   6.466   3.754   8.242  0.8471  0.7574  0.8882
 1470SOL    HW210757   6.561   3.776   8.126 -1.0006 -1.1954 -1.0827
 1471SOL     OW10758   5.143   4.053   8.621  0.1232  0.1141  0.0216
 1471SOL    HW110759   5.153   4.005   8.703 -0.1881  0.8108  0.4842
 1471SOL    HW210760   5.058   4.025   8.587 -0.9663  1.7112  1.2650
 1472SOL     OW10761   1.528   1.897   1.742 -0.7875  0.0173  0.2988
 1472SOL    HW110762   1.559   1.877   1.654 -1.2838  1.9964 -0.3879
 1472SOL    HW210763   1.601   1.875   1.799 -0.6307 -1.7578 -0.5323
 1473SOL     OW10764   0.918   7.551   2.964  0.5019 -0.2020 -0.2462
 1473SOL    HW110765   0.992   7.543   3.025 -0.0885  0.0788  0.5336
 1473SOL    HW210766   0.866   7.473   2.980 -0.3766  0.5269  0.6317
 1474SOL     OW10767   8.407   4.648   0.577  0.8752  0.0001 -0.2263
 1474SOL    HW110768   8.408   4.723   0.636  1.5046 -0.1770 -0.0014
 1474SOL    HW210769   8.419   4.685   0.489 -1.2895  0.3833 -0.4112
 1475SOL     OW10770   2.733   5.823   4.499  0.1195 -0.2012 -0.2550
 1475SOL    HW110771   2.688   5.884   4.558  0.1738  1.2578 -1.6559
 1475SOL    HW210772   2.663   5.779   4.451  0.0664  1.9050 -2.2726
 1476SOL     OW10773   6.338   3.524   8.548  0.2168  0.4113  0.5992
 1476SOL    HW110774   6.405   3.487   8.605 -0.1648  0.2472  0.9480
 1476SOL    HW210775   6.267   3.548   8.607 -0.0706  0.4949  0.2253
 1477SOL     OW10776   4.699   8.261   1.976 -0.4036 -0.2556 -0.3889
 1477SOL    HW110777   4.637   8.245   1.904 -0.5190 -1.9908  0.0651
 1477SOL    HW210778   4.687   8.187   2.035  1.7162 -0.3435 -0.0111
 1478SOL     OW10779   2.529   0.712   0.745  0.0265 -0.1151  0.3266
 1478SOL    HW110780   2.621   0.690   0.731  0.2786 -0.6470  2.4636
 1478SOL    HW210781   2.528   0.758   0.828 -1.5665  0.5404 -0.0264
 1479SOL     OW10782   4.301   1.183   7.891 -0.5708 -0.3484 -0.3677
 1479SOL    HW110783   4.313   1.269   7.851  0.3178 -0.6348 -0.7452
 1479SOL    HW210784   4.323   1.121   7.821  1.5993 -0.8666  0.6788
 1480SOL     OW10785   4.801   0.827   7.703 -0.3542 -0.5594 -0.0481
 1480SOL    HW110786   4.799   0.746   7.754 -1.0797 -0.0345  0.7883
 1480SOL    HW210787   4.883   0.869   7.729  0.2358 -1.2080 -0.8059
 1481SOL     OW10788   8.757   0.741   6.428  0.3427  0.1178 -0.4862
 1481SOL    HW110789   8.687   0.691   6.470  2.7023  0.3588  4.4022
 1481SOL    HW210790   8.732   0.832   6.441  1.1245  0.1967  0.5449
 1482SOL     OW10791   2.574   5.250   7.831 -0.1231  0.0281  0.2248
 1482SOL    HW110792   2.636   5.246   7.904 -1.2414 -0.5050  1.1839
 1482SOL    HW210793   2.544   5.341   7.831  0.4746  0.2304 -0.0955
 1483SOL     OW10794   2.219   7.815   6.045  0.2692 -0.0789 -0.4374
 1483SOL    HW110795   2.184   7.887   5.993  2.2710  2.7364  1.8207
 1483SOL    HW210796   2.307   7.800   6.010  1.5508  1.6873  1.7427
 1484SOL     OW10797   6.709   0.131   5.758 -0.0917  0.8123 -0.3096
 1484SOL    HW110798   6.662   0.052   5.785  1.2374  0.0254 -0.2092
 1484SOL    HW210799   6.758   0.158   5.836 -1.2907  2.3583 -0.0237
 1485SOL     OW10800   0.032   7.653   8.317  0.3789 -0.4850  0.5761
 1485SOL    HW110801  -0.003   7.722   8.260 -0.9594 -1.7444 -0.2125
 1485SOL    HW210802  -0.033   7.646   8.387  0.6692 -0.7166  0.8213
 1486SOL     OW10803   1.462   9.023   3.830  0.3625  0.0543  0.4854
 1486SOL    HW110804   1.458   8.937   3.871 -0.2922  0.1680  0.6783
 1486SOL    HW210805   1.536   9.018   3.770 -0.5622 -1.1238 -0.6200
 1487SOL     OW10806   1.852   6.147   6.216  0.2608 -0.0691 -0.5339
 1487SOL    HW110807   1.762   6.178   6.206  0.3051  0.1774 -0.1844
 1487SOL    HW210808   1.886   6.141   6.127 -0.1718 -0.3690 -0.6803
 1488SOL     OW10809   7.987   6.462   5.079 -0.0968 -0.1891 -0.2676
 1488SOL    HW110810   8.058   6.401   5.058 -0.1207  0.1871 -1.5665
 1488SOL    HW210811   7.937   6.418   5.147  0.5882 -1.0749 -0.3107
 1489SOL     OW10812   7.298   5.307   8.180  0.0045  0.3452 -0.2955
 1489SOL    HW110813   7.269   5.360   8.106 -0.8040  0.3104 -0.0135
 1489SOL    HW210814   7.246   5.227   8.174 -0.3324  0.4913  0.5039
 1490SOL     OW10815   7.456   4.230   5.500  0.3056  0.0618 -0.1817
 1490SOL    HW110816   7.496   4.250   5.585 -1.2644 -0.8540  0.8433
 1490SOL    HW210817   7.497   4.148   5.473 -1.2359 -1.2326  1.1869
 1491SOL     OW10818   8.183   3.458   5.877 -0.2665  0.3850 -0.0445
 1491SOL    HW110819   8.103   3.510   5.872 -0.3723  0.1088 -1.5569
 1491SOL    HW210820   8.244   3.503   5.818 -0.1070 -0.7581 -0.7625
 1492SOL     OW10821   4.832   4.788   7.523  0.0877  0.5927 -0.2315
 1492SOL    HW110822   4.809   4.762   7.613 -1.1610 -0.2407 -0.7496
 1492SOL    HW210823   4.791   4.874   7.512 -0.2979  0.4156 -0.1992
 1493SOL     OW10824   7.754   8.016   8.159  0.3440 -0.1730 -0.0255
 1493SOL    HW110825   7.774   8.039   8.250 -1.0369  2.1269 -0.2250
 1493SOL    HW210826   7.665   7.980   8.163  0.3876 -0.3238 -0.4379
 1494SOL     OW10827   4.433   1.946   9.223  0.4630  0.2307 -0.0972
 1494SOL    HW110828   4.441   1.891   9.301  1.0072 -0.4528 -0.6210
 1494SOL    HW210829   4.512   1.999   9.223  1.0582 -0.6377 -0.8310
 1495SOL     OW10830   1.832   8.182   4.984 -0.0765  0.5010 -0.0023
 1495SOL    HW110831   1.814   8.103   4.933 -1.7338  1.0284 -0.3007
 1495SOL    HW210832   1.890   8.152   5.054  2.0364 -0.3017 -1.9596
 1496SOL     OW10833   5.565   5.804   3.787 -0.5156 -0.5590  0.1721
 1496SOL    HW110834   5.586   5.719   3.824 -1.3372 -0.3971  1.0499
 1496SOL    HW210835   5.636   5.821   3.725  0.2121 -1.4202  0.7330
 1497SOL     OW10836   0.489   8.152   6.917  0.4722  0.3006 -0.3690
 1497SOL    HW110837   0.461   8.178   6.830  2.2545  0.6584 -0.8807
 1497SOL    HW210838   0.409   8.150   6.969 -0.2522  3.1389 -1.2296
 1498SOL     OW10839   5.589   7.207   6.153  0.3320  0.1634 -0.3589
 1498SOL    HW110840   5.586   7.298   6.184  0.0163 -0.2558  0.9266
 1498SOL    HW210841   5.560   7.156   6.229  0.8569 -1.0387 -0.9516
 1499SOL     OW10842   5.173   6.648   0.143  0.2510  0.0018  0.3182
 1499SOL    HW110843   5.153   6.740   0.158 -0.1578  0.3574 -2.0542
 1499SOL    HW210844   5.097   6.601   0.177 -1.2763  0.8402 -1.7599
 1500SOL     OW10845   7.974   4.825   0.902 -0.1814  0.4029  0.1202
 1500SOL    HW110846   8.013   4.912   0.892  0.2439  0.1580 -0.3882
 1500SOL    HW210847   7.985   4.805   0.995  3.1366 -0.6456 -0.3475
 1501SOL     OW10848   2.582   4.481   3.993 -0.6731  0.5879  0.2555
 1501SOL    HW110849   2.647   4.520   3.935 -0.6152  0.9395  0.5521
 1501SOL    HW210850   2.545   4.555   4.041 -1.8749  0.4938 -0.4852
 1502SOL     OW10851   5.379   3.038   5.853 -0.2627  0.3528 -0.0175
 1502SOL    HW110852   5.323   3.017   5.778  0.1375 -0.2256 -0.1512
 1502SOL    HW210853   5.331   3.004   5.928 -0.6631  0.9311 -0.0025
 1503SOL     OW10854   6.954   2.244   0.563  0.6247 -0.1234 -0.2769
 1503SOL    HW110855   6.868   2.207   0.583  0.3802  0.9018  0.6751
 1503SOL    HW210856   6.941   2.286   0.477 -0.2349  1.1982  0.4660
 1504SOL     OW10857   0.500   7.728   0.754  0.7419  0.2074  0.2928
 1504SOL    HW110858   0.520   7.735   0.661  2.3484  2.3714  0.7228
 1504SOL    HW210859   0.470   7.815   0.779 -0.4128 -0.5371  1.6847
 1505SOL     OW10860   5.730   7.056   2.865 -0.1711  0.5195  0.3402
 1505SOL    HW110861   5.723   7.014   2.779  0.3627  0.7218  0.1952
 1505SOL    HW210862   5.796   7.004   2.911 -1.7479 -0.7361  1.3123
 1506SOL     OW10863   3.445   6.885   8.504  0.4555  0.5439  0.4107
 1506SOL    HW110864   3.525   6.833   8.496  0.6324  0.7866  0.5721
 1506SOL    HW210865   3.390   6.856   8.432  1.0649  1.0232 -0.2705
 1507SOL     OW10866   2.976   3.786   8.228  0.0026 -0.0227  0.4043
 1507SOL    HW110867   2.973   3.831   8.312  0.9133 -0.6957  0.8078
 1507SOL    HW210868   3.068   3.763   8.216 -0.1611 -0.1702 -0.6530
 1508SOL     OW10869   3.264   8.194   0.086  0.8011 -0.6437 -0.2092
 1508SOL    HW110870   3.290   8.199   0.178  0.8853  0.4828 -0.2856
 1508SOL    HW210871   3.346   8.191   0.037  0.7573 -1.6551 -0.2406
 1509SOL     OW10872   4.041   0.829   8.054  0.2289 -0.1707 -0.0322
 1509SOL    HW110873   4.012   0.808   8.143  1.7053  0.9462  0.7439
 1509SOL    HW210874   4.114   0.889   8.066  0.1941  0.3274 -2.0254
 1510SOL     OW10875   6.916   6.726   1.498  0.4544 -0.4905 -0.0644
 1510SOL    HW110876   6.925   6.820   1.481 -1.9049 -0.2618 -0.3007
 1510SOL    HW210877   6.861   6.720   1.576 -0.9325 -1.6636 -1.0859
 1511SOL     OW10878   1.061   5.599   6.036  0.0478 -0.6037  0.2545
 1511SOL    HW110879   1.096   5.621   6.122  0.6167  0.2783 -0.1885
 1511SOL    HW210880   0.970   5.625   6.040  0.2058 -0.0655  0.4167
 1512SOL     OW10881   3.143   4.919   0.048  0.0253 -0.5593 -0.3980
 1512SOL    HW110882   3.130   5.013   0.047  0.2076 -0.5128  0.6670
 1512SOL    HW210883   3.145   4.896   0.141 -0.2834 -1.6479 -0.6453
 1513SOL     OW10884   0.281   3.113   6.009 -0.0219  0.1323 -0.6148
 1513SOL    HW110885   0.213   3.054   5.976 -0.2065  0.6236 -1.1305
 1513SOL    HW210886   0.257   3.128   6.101 -0.7590  0.5003 -0.8542
 1514SOL     OW10887   2.136   2.137   0.293  0.1250  0.0869 -0.2951
 1514SOL    HW110888   2.178   2.090   0.365 -0.1188  0.2044 -0.0763
 1514SOL    HW210889   2.128   2.072   0.223  1.5612  0.3009 -0.6990
 1515SOL     OW10890   0.437   8.715   2.445  0.1553  0.1634  0.1180
 1515SOL    HW110891   0.361   8.772   2.462  0.4758  0.8396 -0.6370
 1515SOL    HW210892   0.476   8.702   2.531 -0.4884  0.2836  0.4388
 1516SOL     OW10893   4.723   4.324   5.301 -0.0365 -0.4600 -0.2126
 1516SOL    HW110894   4.725   4.323   5.397  0.0882  0.5362 -0.1928
 1516SOL    HW210895   4.807   4.285   5.275  0.8811  1.1696  0.1325
 1517SOL     OW10896   8.275   7.100   0.154 -0.0975 -0.2065 -0.0808
 1517SOL    HW110897   8.271   7.182   0.203  0.3299  0.0521 -0.4663
 1517SOL    HW210898   8.353   7.109   0.100 -0.9068 -0.2193 -1.2845
 1518SOL     OW10899   2.866   0.051   2.044  0.0121 -0.7551 -0.2528
 1518SOL    HW110900   2.950   0.070   2.086 -0.5036  1.0033  0.0757
 1518SOL    HW210901   2.801   0.087   2.104 -0.9647 -1.7824 -0.6718
 1519SOL     OW10902   8.715   0.988   0.503 -0.4799  0.0984 -0.2936
 1519SOL    HW110903   8.759   0.996   0.587 -1.5018 -0.4686  0.3195
 1519SOL    HW210904   8.776   0.939   0.448  0.0561  0.1843  0.2167
 1520SOL     OW10905   4.415   5.448   7.714 -0.2254 -0.1529 -0.1718
 1520SOL    HW110906   4.391   5.531   7.756  3.6783  1.8723 -1.4318
 1520SOL    HW210907   4.480   5.410   7.773 -0.1547 -1.0563 -0.8215
 1521SOL     OW10908   2.318   1.884   3.334  0.0000 -1.1048  0.0771
 1521SOL    HW110909   2.301   1.790   3.345  0.2778 -1.2446 -0.6222
 1521SOL    HW210910   2.317   1.897   3.239 -0.4476 -0.3219  0.1823
 1522SOL     OW10911   0.336   8.466   6.158 -0.5211  0.5335  0.1452
 1522SOL    HW110912   0.379   8.438   6.239  0.0845  2.4878  0.5530
 1522SOL    HW210913   0.400   8.448   6.089 -0.4017  0.3340  0.3058
 1523SOL     OW10914   6.811   2.628   3.167 -0.3499 -0.2634  0.3773
 1523SOL    HW110915   6.733   2.636   3.111 -0.1286 -0.6102  0.0136
 1523SOL    HW210916   6.872   2.576   3.115  1.0037  1.8695 -0.2805
 1524SOL     OW10917   8.706   4.708   7.595  0.1131 -0.3766 -0.1958
 1524SOL    HW110918   8.722   4.657   7.515 -0.7973  1.7695 -1.8713
 1524SOL    HW210919   8.614   4.734   7.588 -0.3609 -1.1959  2.2649
 1525SOL     OW10920   1.626   3.103   2.239  0.7459 -0.4306 -0.0842
 1525SOL    HW110921   1.612   3.032   2.302 -0.4120  0.4347  0.6783
 1525SOL    HW210922   1.542   3.112   2.194  1.1034 -0.0308 -0.6863
 1526SOL     OW10923   1.484   0.592   4.591 -0.0538  0.0808 -0.0940
 1526SOL    HW110924   1.425   0.575   4.517 -0.1419 -0.9573  0.2021
 1526SOL    HW210925   1.501   0.686   4.586 -0.4344  0.1143 -1.1554
 1527SOL     OW10926   0.213   6.294   4.663  0.0313 -0.0481  0.0951
 1527SOL    HW110927   0.152   6.319   4.733  0.0734  1.2105 -0.3078
 1527SOL    HW210928   0.224   6.199   4.675 -0.6275 -0.0029  1.2591
 1528SOL     OW10929   3.122   1.076   1.685  0.3070 -0.2488 -0.2140
 1528SOL    HW110930   3.107   1.104   1.594  0.7508  0.1797 -0.1585
 1528SOL    HW210931   3.189   1.136   1.718 -0.7287  0.3788  0.7917
 1529SOL     OW10932   2.136   6.340   8.105  0.1175  0.4273  0.5015
 1529SOL    HW110933   2.067   6.278   8.082  0.0307  0.6087  0.2690
 1529SOL    HW210934   2.154   6.322   8.197  0.4383 -0.2730  0.3039
 1530SOL     OW10935   5.747   7.676   0.502 -0.4139  0.5679  0.6396
 1530SOL    HW110936   5.752   7.585   0.531  0.0894  0.2424 -0.4113
 1530SOL    HW210937   5.834   7.695   0.466 -0.7723  1.1816  0.0621
 1531SOL     OW10938   0.088   8.878   7.995 -0.2705  0.3520 -0.1648
 1531SOL    HW110939   0.167   8.926   8.022  0.4212 -0.4716 -0.6860
 1531SOL    HW210940   0.036   8.871   8.076 -0.5282  2.1872 -0.1299
 1532SOL     OW10941   1.174   8.671   8.501  0.2275  0.1368 -0.0144
 1532SOL    HW110942   1.211   8.756   8.524  1.0844 -0.3506  0.4545
 1532SOL    HW210943   1.136   8.639   8.582 -2.4754  1.1842 -0.7388
 1533SOL     OW10944   6.989   0.571   6.746 -0.2819 -0.7839 -0.1668
 1533SOL    HW110945   6.969   0.536   6.833 -2.1407 -0.9591 -0.6147
 1533SOL    HW210946   6.922   0.639   6.732  1.8147  1.3737 -0.2616
 1534SOL     OW10947   5.916   7.334   8.456 -0.3449 -0.1117  0.5273
 1534SOL    HW110948   5.866   7.357   8.378  1.7684  1.6589 -0.4404
 1534SOL    HW210949   5.960   7.252   8.433  0.0063  0.2257 -0.0358
 1535SOL     OW10950   2.608   4.671   6.876 -0.4128 -0.4057 -0.3638
 1535SOL    HW110951   2.563   4.588   6.856 -0.4739 -0.6131  0.5872
 1535SOL    HW210952   2.647   4.697   6.793 -0.4467 -1.3573 -0.6976
 1536SOL     OW10953   5.839   3.929   9.045  0.2691  0.0300  0.0936
 1536SOL    HW110954   5.745   3.936   9.063 -0.3765  0.2632 -2.8056
 1536SOL    HW210955   5.858   3.835   9.053 -0.4791 -0.1668 -0.3496
 1537SOL     OW10956   4.389   1.840   4.490 -0.2476  0.3467  0.0558
 1537SOL    HW110957   4.353   1.925   4.466 -0.1122  0.1486 -0.8806
 1537SOL    HW210958   4.484   1.854   4.492 -0.2034  0.1258 -0.4696
 1538SOL     OW10959   6.684   1.414   6.833  0.1571  0.3355  0.1870
 1538SOL    HW110960   6.776   1.424   6.856  0.5228 -2.9646  0.7112
 1538SOL    HW210961   6.637   1.433   6.913  0.8540 -2.8021  1.5018
 1539SOL     OW10962   0.784   0.616   0.618 -0.2295  0.5582  0.4381
 1539SOL    HW110963   0.763   0.665   0.539  1.7072  4.0092  1.8132
 1539SOL    HW210964   0.857   0.560   0.593 -2.3160 -1.6468 -1.1234
 1540SOL     OW10965   0.733   9.160   4.215  0.7484 -0.7484 -0.2388
 1540SOL    HW110966   0.773   9.152   4.301 -2.5161 -1.8119  1.3342
 1540SOL    HW210967   0.711   9.071   4.190 -2.8601 -0.1368  0.2819
 1541SOL     OW10968   1.979   5.796   5.640 -0.2480 -0.4722 -0.5909
 1541SOL    HW110969   2.058   5.811   5.692 -1.6140 -0.7558  1.6951
 1541SOL    HW210970   1.987   5.706   5.609  0.4067 -0.4333 -0.5418
 1542SOL     OW10971   4.894   3.651   8.021  0.1420  0.2584  0.0162
 1542SOL    HW110972   4.983   3.672   7.994  0.9397 -0.7120  1.7569
 1542SOL    HW210973   4.849   3.629   7.939  2.3996 -2.4471 -0.6728
 1543SOL     OW10974   7.647   6.245   3.832  0.3484  0.4284  0.0624
 1543SOL    HW110975   7.662   6.228   3.739 -0.8145 -0.9298  0.0915
 1543SOL    HW210976   7.569   6.300   3.834  0.8471  1.1367  0.2090
 1544SOL     OW10977   2.091   5.122   1.701 -0.1685 -0.3167 -0.7322
 1544SOL    HW110978   2.138   5.198   1.667  0.5080 -0.2858  0.2263
 1544SOL    HW210979   2.029   5.099   1.632 -0.3932  1.1125 -1.0297
 1545SOL     OW10980   3.753   0.496   4.010  0.4831  0.0600  0.2786
 1545SOL    HW110981   3.781   0.512   4.100 -0.9963 -1.0444  0.9785
 1545SOL    HW210982   3.671   0.544   4.002  0.5228  0.0207 -0.4362
 1546SOL     OW10983   6.299   7.947   4.329  0.0770  0.1293  0.4063
 1546SOL    HW110984   6.299   7.893   4.250 -1.6278 -0.5898  0.8562
 1546SOL    HW210985   6.287   7.884   4.401  1.0255  0.8269  1.2090
 1547SOL     OW10986   6.167   3.706   0.197 -0.1392 -0.0340 -0.2230
 1547SOL    HW110987   6.201   3.669   0.278  3.0181 -0.3656 -1.5281
 1547SOL    HW210988   6.180   3.801   0.207  1.5624 -0.1709 -0.7851
 1548SOL     OW10989   2.655   2.217   5.673  0.2307 -0.2740  0.0195
 1548SOL    HW110990   2.717   2.160   5.626 -0.3515 -0.5294 -0.4384
 1548SOL    HW210991   2.685   2.306   5.655  0.3326 -0.3902 -0.3791
 1549SOL     OW10992   2.354   2.324   7.865  0.1083  0.8460 -0.1460
 1549SOL    HW110993   2.423   2.316   7.930 -0.0921  0.6065  0.0372
 1549SOL    HW210994   2.320   2.413   7.877 -0.0807  0.7249  0.2274
 1550SOL     OW10995   7.935   8.429   0.735  0.0461  0.0794  0.1901
 1550SOL    HW110996   8.020   8.425   0.779  0.8842 -0.6644 -1.3811
 1550SOL    HW210997   7.939   8.508   0.682  0.7646 -1.1404 -1.6910
 1551SOL     OW10998   1.078   8.551   0.185 -0.1836 -0.4372 -0.2582
 1551SOL    HW110999   1.138   8.489   0.226 -1.5690  0.2669  3.1047
 1551SOL    HW211000   0.992   8.509   0.190 -0.5119 -0.1038 -2.1542
 1552SOL     OW11001   4.401   0.311   2.499  0.3023  0.0344  0.6360
 1552SOL    HW111002   4.489   0.335   2.526  0.5560 -0.1514 -0.0230
 1552SOL    HW211003   4.344   0.369   2.550  0.8360  0.8508  0.3203
 1553SOL     OW11004   6.158   3.863   6.639 -0.0802 -0.2013 -0.3450
 1553SOL    HW111005   6.169   3.953   6.609  0.9004  0.5340  1.9435
 1553SOL    HW211006   6.171   3.868   6.734  1.8079 -2.9974 -0.3302
 1554SOL     OW11007   1.710   1.558   0.458 -0.0851  0.1028  0.5793
 1554SOL    HW111008   1.744   1.568   0.547 -0.3557  0.3883  0.6493
 1554SOL    HW211009   1.786   1.529   0.407  0.1050  0.0796  0.8706
 1555SOL     OW11010   4.127   3.671   1.546  0.2316 -0.5102 -0.4208
 1555SOL    HW111011   4.045   3.653   1.500  1.4258 -1.9662 -2.0850
 1555SOL    HW211012   4.122   3.618   1.626 -0.9244  0.3481  0.1031
 1556SOL     OW11013   9.226   6.565   3.262  0.6763  0.2895 -0.0952
 1556SOL    HW111014   9.207   6.483   3.216  0.4382 -0.6587  1.5912
 1556SOL    HW211015   9.163   6.628   3.226 -0.5731 -0.8249  0.0485
 1557SOL     OW11016   6.234   6.295   7.174 -0.2937 -0.0456 -0.1464
 1557SOL    HW111017   6.255   6.282   7.082 -2.2347  1.5198 -0.8876
 1557SOL    HW211018   6.139   6.282   7.179 -0.2709  0.2114  1.5770
 1558SOL     OW11019   3.683   5.087   1.083  0.6137 -0.2226 -0.0302
 1558SOL    HW111020   3.651   5.081   0.993  0.4781  2.1601 -0.1992
 1558SOL    HW211021   3.760   5.029   1.084 -0.1070 -1.2689 -1.3043
 1559SOL     OW11022   4.898   0.379   5.591 -0.1717  0.2605  0.3936
 1559SOL    HW111023   4.823   0.346   5.641 -0.6459  1.0638  0.2335
 1559SOL    HW211024   4.880   0.354   5.501 -1.1967  2.0207  0.0539
 1560SOL     OW11025   2.321   5.061   2.180  0.3429 -0.3146  0.3237
 1560SOL    HW111026   2.273   4.988   2.141 -1.8452  0.9903  0.4015
 1560SOL    HW211027   2.342   5.030   2.268  1.4759 -1.6571 -0.3736
 1561SOL     OW11028   6.173   2.850   9.137  0.0423  0.4287  0.1917
 1561SOL    HW111029   6.221   2.827   9.217  0.7945  2.8804  0.5075
 1561SOL    HW211030   6.194   2.779   9.076  0.7642 -0.6534  1.6402
 1562SOL     OW11031   8.396   5.925   8.960  0.3519  0.2940 -0.3161
 1562SOL    HW111032   8.426   6.002   8.914 -1.9718  0.5136 -1.6489
 1562SOL    HW211033   8.347   5.875   8.894 -1.4675 -0.3483  1.3969
 1563SOL     OW11034   5.241   8.951   0.399 -0.0200  0.2164 -0.0818
 1563SOL    HW111035   5.279   9.030   0.438 -0.4719  0.1079  0.5899
 1563SOL    HW211036   5.287   8.879   0.441  1.8123  0.0999 -2.1191
 1564SOL     OW11037   0.279   8.118   7.079  0.2128  0.0917 -0.0178
 1564SOL    HW111038   0.250   8.057   7.148  1.1570  1.4606  1.6868
 1564SOL    HW211039   0.225   8.196   7.092 -0.5654 -0.1181 -1.7850
 1565SOL     OW11040   2.323   6.082   8.392  0.4659 -0.2998 -0.1482
 1565SOL    HW111041   2.415   6.076   8.416  0.1933 -1.5038  0.6997
 1565SOL    HW211042   2.302   5.995   8.357 -0.8057 -0.6887  1.4499
 1566SOL     OW11043   1.771   8.301   8.140 -0.1754 -0.0471 -0.0551
 1566SOL    HW111044   1.763   8.390   8.107 -0.7808  0.1819  0.6716
 1566SOL    HW211045   1.822   8.310   8.221  0.7746 -0.5197 -0.5802
 1567SOL     OW11046   4.377   1.411   1.327 -0.1320  0.1399  0.4126
 1567SOL    HW111047   4.388   1.487   1.384 -0.3402  0.9538 -0.5986
 1567SOL    HW211048   4.345   1.447   1.244  0.6748 -0.9363 -0.4075
 1568SOL     OW11049   7.915   1.606   2.346  0.4087  0.1022  0.1821
 1568SOL    HW111050   7.987   1.561   2.300 -0.3920 -0.5384 -0.4876
 1568SOL    HW211051   7.891   1.678   2.288  0.9679  0.7556  0.7439
 1569SOL     OW11052   5.043   7.949   8.200 -0.1004 -0.0932  0.2715
 1569SOL    HW111053   5.110   8.000   8.244  0.6323 -2.3632  1.9703
 1569SOL    HW211054   5.091   7.876   8.159 -1.4261 -1.5330  1.1703
 1570SOL     OW11055   5.272   1.910   1.479  0.6479 -0.2761  0.1689
 1570SOL    HW111056   5.300   1.840   1.538  2.1911 -1.5727 -1.9762
 1570SOL    HW211057   5.211   1.867   1.419 -1.4999  1.1902  1.1782
 1571SOL     OW11058   0.396   8.157   8.065  0.1067  0.1455 -0.0210
 1571SOL    HW111059   0.455   8.123   8.132 -0.7081 -0.9163  0.1844
 1571SOL    HW211060   0.389   8.086   8.001 -1.9107 -0.2584  0.5922
 1572SOL     OW11061   3.795   3.641   8.682 -0.1082  0.3997  0.2842
 1572SOL    HW111062   3.886   3.668   8.665  0.4539 -0.4116  1.7819
 1572SOL    HW211063   3.801   3.585   8.760 -1.4467 -2.3572 -1.4274
 1573SOL     OW11064   0.409   2.655   7.537  0.2330 -0.0934  0.4408
 1573SOL    HW111065   0.342   2.678   7.473  0.7653 -0.7895 -0.3863
 1573SOL    HW211066   0.468   2.597   7.490  1.5557  0.6921  1.0805
 1574SOL     OW11067   6.467   7.746   6.044 -0.1341  0.1118  0.1611
 1574SOL    HW111068   6.532   7.738   6.114  1.5224  1.0436 -1.1819
 1574SOL    HW211069   6.472   7.837   6.017 -0.9651 -0.1449 -0.9312
 1575SOL     OW11070   7.085   4.407   4.709 -0.5745 -0.0990 -0.4044
 1575SOL    HW111071   7.122   4.492   4.732 -1.0371  0.0732 -0.2723
 1575SOL    HW211072   7.148   4.368   4.648 -0.4522  0.4156 -0.6090
 1576SOL     OW11073   5.821   6.632   1.389  0.2186 -0.3341 -0.0868
 1576SOL    HW111074   5.830   6.548   1.433 -0.5573 -0.5550 -0.3423
 1576SOL    HW211075   5.897   6.636   1.330  1.6230  0.2460  1.6576
 1577SOL     OW11076   0.752   1.204   4.684  0.4841 -0.2246 -1.0098
 1577SOL    HW111077   0.697   1.173   4.613 -0.3220 -0.0511 -0.4762
 1577SOL    HW211078   0.835   1.159   4.672  0.3231 -0.2702 -1.9969
 1578SOL     OW11079   3.656   5.141   6.122  0.2203  1.0073 -0.9111
 1578SOL    HW111080   3.719   5.069   6.130 -1.0265  0.0416  1.1529
 1578SOL    HW211081   3.708   5.219   6.141  0.9643  0.2947  0.1836
 1579SOL     OW11082   3.204   7.306   4.202  0.2791 -0.2189  0.7173
 1579SOL    HW111083   3.294   7.285   4.176  0.9052 -0.3790  2.7717
 1579SOL    HW211084   3.190   7.395   4.171  1.4437  0.0842  1.0043
 1580SOL     OW11085   3.991   2.707   9.212 -0.3045  0.2580 -0.0252
 1580SOL    HW111086   4.082   2.688   9.234 -0.6385 -2.0251 -0.4093
 1580SOL    HW211087   3.988   2.802   9.201  2.0014  0.3787  0.0386
 1581SOL     OW11088   7.731   4.585   1.484 -0.1762 -0.6369  0.3655
 1581SOL    HW111089   7.824   4.601   1.470  0.1669 -1.9812  0.9757
 1581SOL    HW211090   7.697   4.565   1.397 -0.0029  0.3170  0.0697
 1582SOL     OW11091   8.718   0.748   8.218  0.2947  0.2057 -0.0540
 1582SOL    HW111092   8.781   0.682   8.247  0.5817  0.8198  0.7318
 1582SOL    HW211093   8.756   0.781   8.136 -0.0205 -0.8276 -0.6379
 1583SOL     OW11094   1.820   4.019   7.129  0.4731 -0.2853  0.6942
 1583SOL    HW111095   1.896   4.035   7.186  2.7089 -2.5353 -1.4015
 1583SOL    HW211096   1.782   3.938   7.162  0.8745 -0.7931 -0.0657
 1584SOL     OW11097   2.947   3.871   7.623  0.0343  0.8950 -0.0012
 1584SOL    HW111098   3.021   3.921   7.588 -0.4194  0.7142 -1.2777
 1584SOL    HW211099   2.987   3.809   7.683  1.1207 -0.1329 -1.6874
 1585SOL     OW11100   2.061   5.486   2.531  0.1277 -0.5161 -0.0335
 1585SOL    HW111101   2.092   5.482   2.622  0.3663 -0.7071 -0.1211
 1585SOL    HW211102   2.115   5.421   2.485 -1.5728 -2.1473  0.1557
 1586SOL     OW11103   5.368   1.005   6.539 -0.5614 -0.5916 -0.2579
 1586SOL    HW111104   5.457   0.982   6.566 -0.2809  0.5361 -0.2074
 1586SOL    HW211105   5.363   1.100   6.549 -2.1184 -0.7442  0.7454
 1587SOL     OW11106   8.143   0.401   7.130 -0.3797  0.3610 -0.5853
 1587SOL    HW111107   8.088   0.413   7.207 -1.6839 -0.0346 -1.4291
 1587SOL    HW211108   8.180   0.314   7.140  0.9087  0.9913  0.4605
 1588SOL     OW11109   1.494   0.734   5.689  0.2155 -0.2704  0.4225
 1588SOL    HW111110   1.497   0.714   5.783 -0.5637  0.2968  0.5772
 1588SOL    HW211111   1.569   0.687   5.653 -0.2997 -1.6776  1.0991
 1589SOL     OW11112   8.973   9.011   0.838  0.0446 -0.0373 -0.1704
 1589SOL    HW111113   9.025   8.932   0.851  1.4030  0.8845  0.1941
 1589SOL    HW211114   8.971   9.023   0.743 -0.6793 -0.8244 -0.2625
 1590SOL     OW11115   3.258   5.670   0.851 -0.2477  0.4033 -0.6549
 1590SOL    HW111116   3.272   5.598   0.790  2.0127  0.6121 -0.4378
 1590SOL    HW211117   3.255   5.748   0.796 -0.0037  0.4107 -0.6580
 1591SOL     OW11118   4.693   6.824   0.865 -0.2188  0.0575  0.4705
 1591SOL    HW111119   4.708   6.730   0.855  0.4949  0.1731  0.4013
 1591SOL    HW211120   4.772   6.865   0.831 -0.6972  0.7042  0.0998
 1592SOL     OW11121   9.144   1.970   5.164 -0.5640 -0.1607  0.1761
 1592SOL    HW111122   9.079   1.952   5.232 -0.5848  1.0968  0.5151
 1592SOL    HW211123   9.120   2.057   5.131  1.7635  0.9857  1.3015
 1593SOL     OW11124   4.279   5.127   6.270  0.5087 -0.3594 -0.0245
 1593SOL    HW111125   4.301   5.191   6.339 -1.3574 -0.2889  0.5500
 1593SOL    HW211126   4.356   5.127   6.214  2.1941 -0.5453  2.1299
 1594SOL     OW11127   5.316   2.228   2.093  0.6213  0.3032  0.8216
 1594SOL    HW111128   5.373   2.175   2.037  0.4663  0.5937  0.3917
 1594SOL    HW211129   5.227   2.205   2.066  0.5520  1.7978 -0.3403
 1595SOL     OW11130   5.372   2.460   8.026 -0.4181 -0.0891  0.2857
 1595SOL    HW111131   5.322   2.408   8.089 -1.1488 -1.7428 -1.5762
 1595SOL    HW211132   5.342   2.430   7.940  0.5908  2.0370 -0.8928
 1596SOL     OW11133   3.375   1.551   2.367  0.0864 -0.0106 -0.1347
 1596SOL    HW111134   3.342   1.483   2.425 -0.6315  0.9768  0.6454
 1596SOL    HW211135   3.438   1.600   2.420  0.7519 -0.1770 -0.7527
 1597SOL     OW11136   1.580   5.247   3.072 -0.0538  0.4747  0.4157
 1597SOL    HW111137   1.495   5.253   3.116  0.6646  0.3341  1.9161
 1597SOL    HW211138   1.626   5.327   3.098  0.5445  0.1927  0.2522
 1598SOL     OW11139   6.083   3.187   5.400 -0.4131 -0.6758 -0.4043
 1598SOL    HW111140   6.073   3.191   5.496  1.5096  2.6307 -0.2023
 1598SOL    HW211141   5.994   3.189   5.367 -1.0835 -0.2212  1.3177
 1599SOL     OW11142   6.166   0.991   1.964  0.1449  0.3906  0.5237
 1599SOL    HW111143   6.256   1.023   1.957  0.0414  0.3286 -4.3237
 1599SOL    HW211144   6.114   1.058   1.921 -1.5743 -1.2500 -0.0761
 1600SOL     OW11145   8.574   0.630   2.388  0.3749 -0.3353 -0.1769
 1600SOL    HW111146   8.606   0.553   2.341  0.5276 -0.8740  0.7771
 1600SOL    HW211147   8.641   0.696   2.373  0.8743 -0.7859  0.0094
 1601SOL     OW11148   6.389   6.232   8.779 -0.3687 -0.0937  0.0843
 1601SOL    HW111149   6.482   6.247   8.793 -0.7493  0.9278  1.9329
 1601SOL    HW211150   6.371   6.148   8.823 -0.9181  1.4731  3.1617
 1602SOL     OW11151   9.176   4.066   7.688 -0.5184 -0.1550  0.3258
 1602SOL    HW111152   9.232   4.134   7.652  0.8332 -1.4278 -0.1038
 1602SOL    HW211153   9.149   4.099   7.774  0.5449  0.6833  0.3492
 1603SOL     OW11154   0.276   8.952   2.406  0.3685 -0.0544  0.0844
 1603SOL    HW111155   0.278   9.032   2.458  0.9905 -0.2361  0.3470
 1603SOL    HW211156   0.318   8.977   2.323  0.3847 -0.0611  0.0908
 1604SOL     OW11157   2.703   2.243   8.439  0.0227  0.0972  0.0265
 1604SOL    HW111158   2.698   2.304   8.365 -0.0225  0.1241  0.0517
 1604SOL    HW211159   2.702   2.299   8.517 -0.3795  0.0456  0.0588
 1605SOL     OW11160   7.598   2.083   5.783 -0.0559  0.5898 -0.1293
 1605SOL    HW111161   7.601   1.990   5.806  1.4699  0.3686 -1.0883
 1605SOL    HW211162   7.531   2.120   5.841  0.2188 -0.8461  1.1725
 1606SOL     OW11163   7.183   2.731   7.366  0.0348 -0.5480  0.0676
 1606SOL    HW111164   7.088   2.720   7.377  0.2616 -0.7082  2.2127
 1606SOL    HW211165   7.214   2.646   7.337 -0.2157 -1.2021  1.6271
 1607SOL     OW11166   3.461   7.772   7.870  0.7831 -1.1581  0.1768
 1607SOL    HW111167   3.446   7.752   7.777 -0.4162 -0.0428  0.1120
 1607SOL    HW211168   3.422   7.698   7.917 -2.9223  0.4269 -0.0836
 1608SOL     OW11169   4.770   6.096   2.006  0.1967  0.2561 -0.2937
 1608SOL    HW111170   4.833   6.123   2.073  1.0066 -1.2596 -0.3926
 1608SOL    HW211171   4.685   6.115   2.044  0.6876  1.6599  0.1527
 1609SOL     OW11172   5.782   2.727   5.863  0.3206 -0.5100 -0.2777
 1609SOL    HW111173   5.728   2.659   5.824 -0.3646  0.2890 -0.7584
 1609SOL    HW211174   5.871   2.693   5.859 -0.2226 -2.3460  1.5287
 1610SOL     OW11175   0.941   4.382   5.254  0.5059  0.3490  0.0385
 1610SOL    HW111176   0.942   4.470   5.292  1.0427  0.6735 -0.7215
 1610SOL    HW211177   1.028   4.370   5.218 -0.3910  0.6254 -2.3977
 1611SOL     OW11178   1.309   8.311   8.042  0.0348  0.2984  0.1295
 1611SOL    HW111179   1.401   8.283   8.045  0.3909  1.1825 -1.4932
 1611SOL    HW211180   1.274   8.272   7.962 -1.4424 -1.1759  1.4334
 1612SOL     OW11181   2.512   8.724   2.225 -0.4036 -0.0941 -0.1304
 1612SOL    HW111182   2.607   8.714   2.222 -0.4358 -0.2458 -0.6810
 1612SOL    HW211183   2.495   8.768   2.309  0.3587  2.1922 -1.0903
 1613SOL     OW11184   1.952   4.180   3.550 -0.1519 -0.1423  0.0784
 1613SOL    HW111185   1.931   4.253   3.608 -1.0592  0.8502 -1.4698
 1613SOL    HW211186   2.004   4.121   3.606  1.5697  2.1533  1.0864
 1614SOL     OW11187   3.380   1.890   0.966 -0.0531 -0.1023  0.6362
 1614SOL    HW111188   3.339   1.951   1.027  0.8636  0.9229  0.2712
 1614SOL    HW211189   3.462   1.934   0.940  0.1821 -1.0769 -0.3486
 1615SOL     OW11190   4.945   0.443   8.326  0.6396 -0.0215 -0.2900
 1615SOL    HW111191   4.950   0.400   8.241 -2.1686 -1.2471  0.0580
 1615SOL    HW211192   4.877   0.510   8.315 -1.2987 -1.5848  1.4353
 1616SOL     OW11193   4.474   1.608   0.121 -0.5398 -0.2755 -0.1809
 1616SOL    HW111194   4.417   1.640   0.191  2.1519 -0.7973  2.4351
 1616SOL    HW211195   4.448   1.517   0.108 -1.7927  0.1294 -0.7669
 1617SOL     OW11196   2.982   6.204   5.772  0.1425 -0.4720 -0.4844
 1617SOL    HW111197   3.069   6.202   5.732  0.9908 -0.6008  1.2756
 1617SOL    HW211198   2.979   6.288   5.819 -1.0512 -0.0600 -1.2407
 1618SOL     OW11199   1.718   2.600   2.346  0.0795 -0.1625 -0.1815
 1618SOL    HW111200   1.713   2.675   2.405  1.2831 -0.0383 -0.2042
 1618SOL    HW211201   1.716   2.524   2.404  2.8648 -0.0206  0.2296
 1619SOL     OW11202   3.247   2.441   6.669  0.2042 -0.5227 -0.3471
 1619SOL    HW111203   3.276   2.522   6.712  0.9198 -1.8412  1.8382
 1619SOL    HW211204   3.213   2.469   6.584  2.8277  1.7925 -0.7726
 1620SOL     OW11205   8.550   7.897   8.549  0.3966  0.0379 -0.0850
 1620SOL    HW111206   8.535   7.887   8.644  1.7476  0.9752  0.2476
 1620SOL    HW211207   8.462   7.902   8.512 -0.2340  3.3873  1.5379
 1621SOL     OW11208   1.757   3.648   6.801 -0.8266  0.5225 -0.1699
 1621SOL    HW111209   1.697   3.720   6.820 -0.0370  0.6901  1.9205
 1621SOL    HW211210   1.828   3.687   6.752 -0.8442  0.9989  0.1790
 1622SOL     OW11211   5.105   3.180   5.968 -0.2316 -0.3075  0.0608
 1622SOL    HW111212   5.095   3.096   6.013 -0.4683 -0.5515 -0.4312
 1622SOL    HW211213   5.025   3.188   5.916  0.3625 -0.3997 -0.9026
 1623SOL     OW11214   6.269   1.535   1.179  0.3965  0.3151 -0.5036
 1623SOL    HW111215   6.294   1.444   1.195  1.7120  0.5545 -1.0545
 1623SOL    HW211216   6.321   1.560   1.102 -1.3657  0.9561 -1.5301
 1624SOL     OW11217   5.672   4.451   7.736  0.0470  0.0030  0.3709
 1624SOL    HW111218   5.588   4.410   7.712  1.0328 -1.7202 -0.3455
 1624SOL    HW211219   5.701   4.495   7.656 -0.1644  0.5891  0.6150
 1625SOL     OW11220   1.569   8.240   0.010 -0.2325  0.7332 -0.7129
 1625SOL    HW111221   1.579   8.189  -0.071  1.1110 -0.6128  0.2531
 1625SOL    HW211222   1.657   8.244   0.047 -0.8449  1.2131  0.7585
 1626SOL     OW11223   7.033   7.563   8.151 -0.0733 -0.3929 -0.5468
 1626SOL    HW111224   6.980   7.484   8.164  0.8523 -0.9747 -0.1198
 1626SOL    HW211225   7.076   7.550   8.067 -0.8159  0.2083 -1.0266
 1627SOL     OW11226   3.668   6.210   7.900 -0.5293 -0.4296 -0.1052
 1627SOL    HW111227   3.610   6.282   7.876 -1.1774 -1.2937 -1.2499
 1627SOL    HW211228   3.676   6.216   7.995 -2.0849  0.0324  0.0227
 1628SOL     OW11229   0.282   0.919   7.973 -0.5027 -0.0485 -0.3556
 1628SOL    HW111230   0.290   0.996   8.029 -2.5436 -0.2405  0.2690
 1628SOL    HW211231   0.215   0.942   7.909  0.6181 -0.4401 -1.7319
 1629SOL     OW11232   1.191   6.300   0.875  0.2710 -0.2518 -0.1797
 1629SOL    HW111233   1.280   6.290   0.908 -0.4172 -1.0914  1.5330
 1629SOL    HW211234   1.179   6.394   0.864  1.1637 -0.0960  0.1402
 1630SOL     OW11235   8.747   6.071   8.483 -0.0632  0.0993 -0.1465
 1630SOL    HW111236   8.691   6.137   8.444 -1.1301 -1.4896 -1.4186
 1630SOL    HW211237   8.742   6.087   8.577 -1.9123  0.5819 -0.3013
 1631SOL     OW11238   4.479   8.060   7.911  0.5072  0.1366 -0.0092
 1631SOL    HW111239   4.532   8.075   7.989 -0.7810 -1.0567  1.1635
 1631SOL    HW211240   4.451   8.147   7.883  1.8857  0.6631  0.1812
 1632SOL     OW11241   5.828   0.514   4.137 -0.3666 -0.2882 -0.0595
 1632SOL    HW111242   5.767   0.551   4.074  0.9529  3.1071  0.4209
 1632SOL    HW211243   5.787   0.531   4.222  0.6877  1.0386  0.2122
 1633SOL     OW11244   1.267   2.539   0.184  0.0053  0.3814  0.2074
 1633SOL    HW111245   1.322   2.513   0.257 -0.6331  0.8416  0.8671
 1633SOL    HW211246   1.178   2.515   0.211 -0.4875  2.3331  0.4439
 1634SOL     OW11247   3.216   3.839   1.437  0.2909 -0.2031  0.8168
 1634SOL    HW111248   3.292   3.867   1.487 -0.5744  2.4854  0.8141
 1634SOL    HW211249   3.141   3.880   1.482 -1.0592 -1.8447  0.1873
 1635SOL     OW11250   0.734   7.293   6.132 -0.1793  0.4482  0.8208
 1635SOL    HW111251   0.763   7.340   6.210 -0.4605  1.2489  0.4465
 1635SOL    HW211252   0.794   7.321   6.063 -1.9957  2.3984 -0.0506
 1636SOL     OW11253   0.332   8.273   8.708 -0.3774 -0.0012  0.0367
 1636SOL    HW111254   0.335   8.366   8.688  1.0635 -0.3601 -1.6040
 1636SOL    HW211255   0.421   8.241   8.691 -1.2550 -2.0094 -1.2319
 1637SOL     OW11256   3.036   7.611   3.644 -0.5104  0.4716  0.1204
 1637SOL    HW111257   3.014   7.682   3.584  1.6156  0.8828 -0.2651
 1637SOL    HW211258   3.062   7.656   3.725 -0.5717  0.0540  0.3772
 1638SOL     OW11259   6.581   1.941   3.902 -0.1144  0.0672  0.1034
 1638SOL    HW111260   6.541   1.937   3.989 -1.2019 -1.1591 -0.4128
 1638SOL    HW211261   6.523   1.889   3.847  0.7384  0.5432 -1.2940
 1639SOL     OW11262   1.285   1.277   7.296  0.2361 -0.1188  0.3514
 1639SOL    HW111263   1.378   1.301   7.298  0.1071  0.4972 -0.5453
 1639SOL    HW211264   1.245   1.342   7.239 -0.3708 -1.7187 -1.1007
 1640SOL     OW11265   6.128   2.657   2.865  0.1569 -0.3607  0.3075
 1640SOL    HW111266   6.043   2.621   2.890 -0.3316  0.5647  0.0517
 1640SOL    HW211267   6.123   2.666   2.770  0.0453  0.8636  0.4126
 1641SOL     OW11268   5.819   3.112   5.611  0.2025 -0.0397 -0.2767
 1641SOL    HW111269   5.831   3.018   5.595 -0.4285 -0.4915  1.6060
 1641SOL    HW211270   5.755   3.116   5.682  0.4947  1.8279 -0.0641
 1642SOL     OW11271   2.909   5.967   5.930  0.0349  0.6523 -0.2383
 1642SOL    HW111272   2.980   5.907   5.909 -1.7236 -1.0241 -1.7883
 1642SOL    HW211273   2.928   6.045   5.877  0.0804 -0.2888 -1.6763
 1643SOL     OW11274   3.697   4.995   5.057  0.5593 -0.2557  0.1095
 1643SOL    HW111275   3.672   5.081   5.023  1.7046  0.6639  1.4506
 1643SOL    HW211276   3.615   4.953   5.081  0.0841  1.5587  1.9015
 1644SOL     OW11277   0.845   3.498   6.094 -0.1800 -0.5917  0.4702
 1644SOL    HW111278   0.897   3.504   6.174  3.9803 -1.2490 -1.9240
 1644SOL    HW211279   0.870   3.576   6.043 -3.2358  0.1748 -0.0674
 1645SOL     OW11280   2.164   8.546   2.732 -0.3112 -0.7896  0.4007
 1645SOL    HW111281   2.197   8.523   2.819 -0.7174 -1.3787  0.4034
 1645SOL    HW211282   2.074   8.576   2.747 -0.0818 -0.0224  0.2878
 1646SOL     OW11283   5.041   3.833   4.333  0.2775  0.1669 -0.2338
 1646SOL    HW111284   5.121   3.835   4.386  0.4991 -2.1224 -0.3523
 1646SOL    HW211285   4.970   3.832   4.397  0.5124 -1.5162  0.0569
 1647SOL     OW11286   3.143   3.184   8.080  1.3496 -0.0872 -0.0301
 1647SOL    HW111287   3.066   3.217   8.034  2.3611  0.1676 -1.6329
 1647SOL    HW211288   3.108   3.133   8.153 -0.3315 -0.3481 -0.9772
 1648SOL     OW11289   5.308   6.214   9.139 -0.2412 -0.4378 -0.0518
 1648SOL    HW111290   5.330   6.279   9.205 -2.8303  1.1021 -0.5869
 1648SOL    HW211291   5.369   6.232   9.067  0.7716 -0.3324  0.8112
 1649SOL     OW11292   1.285   6.908   9.156  0.2816  0.0817  0.3362
 1649SOL    HW111293   1.291   6.857   9.237 -0.0492 -0.7415 -0.1469
 1649SOL    HW211294   1.194   6.897   9.128  0.2491  0.8067  0.1266
 1650SOL     OW11295   7.727   3.490   5.146  0.2653 -0.1945 -0.4952
 1650SOL    HW111296   7.666   3.430   5.190 -0.4395 -0.0717 -1.2699
 1650SOL    HW211297   7.720   3.572   5.195  0.5258 -0.4571 -0.0063
 1651SOL     OW11298   2.571   1.881   2.992  0.4533 -0.5904  0.0640
 1651SOL    HW111299   2.496   1.823   3.005 -0.2490 -0.0964 -1.5659
 1651SOL    HW211300   2.600   1.903   3.081 -0.6813 -1.6106  0.7116
 1652SOL     OW11301   4.616   4.836   6.175  0.3248 -0.6232 -0.5504
 1652SOL    HW111302   4.606   4.922   6.216  0.9965 -0.9035  0.2307
 1652SOL    HW211303   4.697   4.801   6.212  1.5402 -0.4810 -2.8760
 1653SOL     OW11304   8.897   4.414   7.585  0.2684 -0.5672 -0.1312
 1653SOL    HW111305   8.914   4.468   7.507  0.4622  1.0362  0.9637
 1653SOL    HW211306   8.899   4.324   7.553  0.1997  0.0495 -2.0038
 1654SOL     OW11307   5.581   4.073   6.116  0.1320  0.5504 -0.2116
 1654SOL    HW111308   5.497   4.071   6.162  0.1562 -0.4910 -0.1962
 1654SOL    HW211309   5.596   3.983   6.089  1.8308  0.4866  0.8131
 1655SOL     OW11310   0.359   7.559   8.877 -0.0498 -0.1970 -0.1817
 1655SOL    HW111311   0.382   7.652   8.874  0.2645 -0.2313 -3.9829
 1655SOL    HW211312   0.438   7.516   8.909  0.4683  0.7300 -0.1832
 1656SOL     OW11313   6.549   2.276   7.382 -0.1063  0.0819 -0.0892
 1656SOL    HW111314   6.551   2.364   7.419  1.2034  0.7646 -1.6122
 1656SOL    HW211315   6.512   2.288   7.294  0.4581 -0.7966 -0.4651
 1657SOL     OW11316   4.120   1.427   6.511 -0.3388 -0.8126  0.1282
 1657SOL    HW111317   4.105   1.354   6.451  1.8258 -1.6321  0.4917
 1657SOL    HW211318   4.207   1.459   6.489 -0.4940  0.4392  1.2299
 1658SOL     OW11319   0.832   8.777   7.485  0.2097  0.3219  0.0657
 1658SOL    HW111320   0.885   8.827   7.423  0.3875 -1.7889 -1.5832
 1658SOL    HW211321   0.827   8.834   7.562  2.3896  1.8400 -0.7864
 1659SOL     OW11322   2.094   6.953   0.021 -0.4368 -0.1152  0.1244
 1659SOL    HW111323   2.139   6.869   0.019  0.9617  0.5580  1.1855
 1659SOL    HW211324   2.129   7.001  -0.054  0.0164  0.1028  0.4682
 1660SOL     OW11325   4.997   5.532   0.094  0.9614 -0.3000 -0.0181
 1660SOL    HW111326   4.923   5.593   0.090 -1.1054 -2.5610  0.7549
 1660SOL    HW211327   5.074   5.585   0.075 -0.6322  2.5909  0.9904
 1661SOL     OW11328   8.796   4.726   4.935 -0.1089 -0.2986 -0.6673
 1661SOL    HW111329   8.828   4.679   5.012  0.5343 -1.7459 -1.7639
 1661SOL    HW211330   8.720   4.776   4.966  0.7025 -0.0871  1.0880
 1662SOL     OW11331   1.700   9.072   8.530 -0.0066 -0.1107  0.1861
 1662SOL    HW111332   1.752   8.997   8.499 -0.0183  0.1022 -0.3453
 1662SOL    HW211333   1.717   9.075   8.625 -0.1667 -0.9117  0.2474
 1663SOL     OW11334   1.625   3.907   2.625 -0.0181 -0.0148  0.8005
 1663SOL    HW111335   1.626   3.838   2.691 -0.7320  0.8898  1.7976
 1663SOL    HW211336   1.617   3.988   2.676  0.9168  0.8142 -0.3310
 1664SOL     OW11337   5.353   2.556   6.630 -0.2432 -0.2795 -0.3514
 1664SOL    HW111338   5.276   2.610   6.645 -0.8241 -1.0574 -0.4816
 1664SOL    HW211339   5.338   2.477   6.684  1.5734  0.5797  1.5457
 1665SOL     OW11340   5.909   8.133   8.572  0.7079  0.4156 -0.0222
 1665SOL    HW111341   5.980   8.071   8.559 -0.0938 -0.5430  0.0324
 1665SOL    HW211342   5.867   8.142   8.487  0.1202 -0.0035  0.2168
 1666SOL     OW11343   2.878   9.108   0.536  0.2019 -0.3207  0.5314
 1666SOL    HW111344   2.963   9.099   0.579  0.8229  1.0557 -0.2969
 1666SOL    HW211345   2.878   9.199   0.504 -1.8713 -0.0800  1.0900
 1667SOL     OW11346   0.493   7.498   7.276 -0.3153  0.6672  0.0063
 1667SOL    HW111347   0.455   7.416   7.310  2.0605  0.0643  1.3832
 1667SOL    HW211348   0.583   7.476   7.255  0.6356  3.1331  1.1865
 1668SOL     OW11349   3.850   2.833   5.198 -0.0957  0.3283 -0.1012
 1668SOL    HW111350   3.827   2.781   5.121  0.4968 -0.8023  0.4464
 1668SOL    HW211351   3.899   2.772   5.254  3.2556  2.2132 -0.6975
 1669SOL     OW11352   2.344   1.655   3.769  0.3517 -0.0711 -0.5420
 1669SOL    HW111353   2.335   1.652   3.674  2.4841  2.0037 -0.9034
 1669SOL    HW211354   2.436   1.638   3.785  0.3933  1.3745  1.0017
 1670SOL     OW11355   0.647   5.678   9.135  0.4860  0.4585  0.3626
 1670SOL    HW111356   0.619   5.646   9.221  1.0797  1.4987  0.9668
 1670SOL    HW211357   0.693   5.760   9.154 -0.9689  1.6805 -1.1240
 1671SOL     OW11358   4.480   8.440   7.262 -0.1240 -0.1674 -0.3719
 1671SOL    HW111359   4.446   8.528   7.246 -0.5174 -0.4225 -0.9682
 1671SOL    HW211360   4.512   8.410   7.177 -0.2611 -0.7115 -0.2369
 1672SOL     OW11361   2.184   7.586   7.150  0.5633  0.2062 -0.3902
 1672SOL    HW111362   2.133   7.568   7.072  1.2711  0.4577 -0.9159
 1672SOL    HW211363   2.120   7.583   7.222 -0.3100  1.2148 -1.1096
 1673SOL     OW11364   7.736   3.448   8.589  0.2308 -0.1414  0.1137
 1673SOL    HW111365   7.666   3.386   8.568 -0.4786  0.3715  0.8555
 1673SOL    HW211366   7.748   3.438   8.684  0.5454  0.3978  0.1315
 1674SOL     OW11367   0.174   5.235   0.420  0.0426  0.0522 -0.0674
 1674SOL    HW111368   0.188   5.330   0.422 -0.6132  0.2051 -1.8568
 1674SOL    HW211369   0.108   5.221   0.352 -1.7780 -1.4791  1.8481
 1675SOL     OW11370   0.159   1.380   3.070 -0.3926 -0.4682 -0.1204
 1675SOL    HW111371   0.165   1.428   3.152 -1.6896  1.1486 -0.9049
 1675SOL    HW211372   0.130   1.445   3.006 -1.8454 -2.2125 -1.3405
 1676SOL     OW11373   3.428   7.528   1.070 -0.1750 -0.2716  0.1549
 1676SOL    HW111374   3.428   7.622   1.054  0.4907 -0.5473 -1.6640
 1676SOL    HW211375   3.339   7.508   1.098 -0.4063  0.8355  0.2473
 1677SOL     OW11376   1.560   4.413   8.896  0.2058 -0.2079  0.7465
 1677SOL    HW111377   1.632   4.474   8.879 -1.3968  1.3896 -0.8696
 1677SOL    HW211378   1.493   4.468   8.938 -1.2757 -0.8150 -0.7275
 1678SOL     OW11379   8.146   0.877   4.443  0.1201 -0.2989 -0.0047
 1678SOL    HW111380   8.126   0.873   4.537  0.0191 -0.4127 -0.0311
 1678SOL    HW211381   8.097   0.804   4.405 -1.1154  0.6773 -0.3681
 1679SOL     OW11382   1.399   3.702   3.558 -0.6648  0.0684  0.0029
 1679SOL    HW111383   1.375   3.705   3.650  0.3200 -0.0127  0.2815
 1679SOL    HW211384   1.340   3.763   3.515 -0.4089  0.9459  0.8692
 1680SOL     OW11385   9.125   0.109   8.945 -0.0407 -0.8080  0.4973
 1680SOL    HW111386   9.143   0.150   9.029 -0.9256 -1.5440  1.0682
 1680SOL    HW211387   9.099   0.019   8.968  0.0982 -1.1383 -0.5901
 1681SOL     OW11388   1.006   2.521   6.299  1.1888  0.2378 -0.0237
 1681SOL    HW111389   1.001   2.469   6.379 -0.3183  0.1186 -0.1645
 1681SOL    HW211390   1.090   2.497   6.261  1.3391 -0.7132  0.8524
 1682SOL     OW11391   5.919   3.086   8.200 -0.3687  0.4987  0.1419
 1682SOL    HW111392   5.892   3.020   8.264  0.1236  1.2767  1.1946
 1682SOL    HW211393   5.852   3.154   8.206 -0.4941  0.4329 -0.4225
 1683SOL     OW11394   5.175   5.110   6.825 -0.0682  0.1873  0.0129
 1683SOL    HW111395   5.236   5.108   6.899 -0.6002 -1.1006  0.4387
 1683SOL    HW211396   5.102   5.055   6.852 -1.0842  1.0978 -0.8013
 1684SOL     OW11397   0.143   1.224   5.746 -0.2702  0.3160  0.2848
 1684SOL    HW111398   0.231   1.261   5.746  0.0353 -0.3954  0.3296
 1684SOL    HW211399   0.103   1.257   5.826 -0.5167  1.7172 -0.3928
 1685SOL     OW11400   0.629   7.037   3.088  0.4203  0.5203  0.5154
 1685SOL    HW111401   0.686   7.019   3.014 -0.0216 -1.6503  0.6216
 1685SOL    HW211402   0.677   7.005   3.164 -0.8986 -1.4206  0.5972
 1686SOL     OW11403   9.018   1.868   2.506 -0.5159  0.5042  0.2016
 1686SOL    HW111404   9.006   1.829   2.593 -0.3608  0.8104  0.3625
 1686SOL    HW211405   8.948   1.934   2.500 -0.5165  0.4936  0.0992
 1687SOL     OW11406   3.657   4.151   3.105 -0.0832 -0.5913 -0.2609
 1687SOL    HW111407   3.613   4.070   3.080  1.6220 -2.1664  1.4688
 1687SOL    HW211408   3.588   4.218   3.104 -2.2480 -2.6563  1.0754
 1688SOL     OW11409   7.912   5.885   6.176  0.6110  0.0632  0.6438
 1688SOL    HW111410   7.993   5.881   6.125  1.5689  1.2100  1.9962
 1688SOL    HW211411   7.916   5.810   6.234  1.5825  1.0234  1.8832
 1689SOL     OW11412   3.204   0.441   0.203 -0.0929 -0.2752  0.4064
 1689SOL    HW111413   3.236   0.388   0.129  1.2384  0.0720  0.7176
 1689SOL    HW211414   3.157   0.514   0.161  1.3020  0.3346 -0.1350
 1690SOL     OW11415   3.389   4.925   4.540 -0.2693  0.2346  0.2955
 1690SOL    HW111416   3.373   5.010   4.579  1.2531  0.1250  1.2411
 1690SOL    HW211417   3.341   4.863   4.595 -0.8787  0.4026 -0.0357
 1691SOL     OW11418   7.357   1.772   5.367 -0.6509  0.1587  0.1612
 1691SOL    HW111419   7.422   1.750   5.300  0.8400  0.7547  1.3470
 1691SOL    HW211420   7.274   1.774   5.320  0.2590 -0.0569 -1.5401
 1692SOL     OW11421   7.930   3.746   4.916 -0.2184 -0.5839  0.1653
 1692SOL    HW111422   7.891   3.756   5.003  0.1221  2.2791  0.0906
 1692SOL    HW211423   8.013   3.793   4.921  0.2198 -1.1057 -1.4786
 1693SOL     OW11424   7.994   5.459   6.081 -0.0300  0.2776 -0.4342
 1693SOL    HW111425   7.970   5.511   6.005  2.1321  2.5040  0.2591
 1693SOL    HW211426   7.988   5.520   6.155  2.1042 -0.5156  0.4921
 1694SOL     OW11427   6.624   6.313   4.646 -0.7876 -0.1310 -0.0253
 1694SOL    HW111428   6.630   6.231   4.696 -0.5993  0.8750  1.6487
 1694SOL    HW211429   6.571   6.370   4.701 -0.4214  1.0828 -0.9104
 1695SOL     OW11430   0.862   6.347   3.678 -0.0621 -0.1070  0.5409
 1695SOL    HW111431   0.932   6.401   3.640 -0.5062 -1.2861 -2.1429
 1695SOL    HW211432   0.781   6.392   3.652 -0.5059 -2.4749 -2.8406
 1696SOL     OW11433   6.263   1.878   3.366 -0.7747  0.2383  0.0528
 1696SOL    HW111434   6.192   1.814   3.367 -0.8643  0.3017 -1.1322
 1696SOL    HW211435   6.229   1.952   3.316  0.0483  0.3608 -0.3421
 1697SOL     OW11436   8.144   0.643   8.811  0.2248  0.6383  0.5922
 1697SOL    HW111437   8.151   0.734   8.839  0.0320  0.7899  0.1633
 1697SOL    HW211438   8.123   0.649   8.718  0.5493  0.1499  0.4884
 1698SOL     OW11439   4.533   7.845   1.942 -0.7204 -0.4456 -0.2920
 1698SOL    HW111440   4.601   7.805   1.889  0.0830 -0.5857  0.8061
 1698SOL    HW211441   4.457   7.849   1.885  0.5267  0.8223 -1.9420
 1699SOL     OW11442   7.454   2.221   7.312 -0.0176  0.2893 -0.1848
 1699SOL    HW111443   7.549   2.221   7.323 -0.0387  0.5871 -0.0008
 1699SOL    HW211444   7.441   2.191   7.222  0.2167 -0.4696  0.0210
 1700SOL     OW11445   0.023   4.281   7.062 -0.1086  0.3987 -0.1177
 1700SOL    HW111446   0.108   4.297   7.021 -0.5853  3.1394 -0.2591
 1700SOL    HW211447   0.043   4.235   7.143  1.3477 -0.4421 -0.9216
 1701SOL     OW11448   6.165   6.379   8.326  0.4845 -0.0491  0.2416
 1701SOL    HW111449   6.176   6.459   8.377  1.7277  0.0461 -0.1366
 1701SOL    HW211450   6.187   6.405   8.236  1.3390 -0.8969  0.1851
 1702SOL     OW11451   2.286   3.650   0.155 -0.3267 -0.3251  0.3752
 1702SOL    HW111452   2.215   3.713   0.147  0.0581  0.0216 -0.3732
 1702SOL    HW211453   2.349   3.676   0.088  1.4702  0.6401  2.3198
 1703SOL     OW11454   4.796   5.426   5.278 -0.1762  0.0103  0.5396
 1703SOL    HW111455   4.723   5.383   5.323 -0.3963 -0.4879 -0.2663
 1703SOL    HW211456   4.781   5.408   5.186  1.1190 -0.3511  0.3704
 1704SOL     OW11457   6.837   1.333   0.698 -0.2899  0.5978 -0.7539
 1704SOL    HW111458   6.852   1.257   0.642 -1.1237  0.2962 -0.5805
 1704SOL    HW211459   6.814   1.403   0.637  1.6678  1.0496 -1.0168
 1705SOL     OW11460   5.633   8.159   5.895 -0.5884  0.2898  0.3026
 1705SOL    HW111461   5.590   8.080   5.927 -1.4399  0.2313 -0.9278
 1705SOL    HW211462   5.627   8.221   5.967  1.6562 -1.2810  1.9857
 1706SOL     OW11463   7.188   0.092   7.224  0.4165  0.1076 -0.1171
 1706SOL    HW111464   7.130   0.111   7.297 -0.8231  0.1218 -1.0741
 1706SOL    HW211465   7.249   0.026   7.257 -0.0459  0.2120  0.9550
 1707SOL     OW11466   3.215   8.653   7.763 -0.0100  0.2019 -0.1505
 1707SOL    HW111467   3.273   8.612   7.699 -0.4385 -1.1650  0.3133
 1707SOL    HW211468   3.272   8.677   7.836  0.2147  0.2702 -0.3481
 1708SOL     OW11469   4.386   5.998   2.719  0.1021  0.2218  0.5112
 1708SOL    HW111470   4.439   6.035   2.789 -1.3463 -0.2203  1.8955
 1708SOL    HW211471   4.348   6.074   2.675  1.2655  0.5126 -0.0424
 1709SOL     OW11472   5.314   6.905   6.123 -0.3513  0.3988 -0.2993
 1709SOL    HW111473   5.242   6.938   6.069 -1.2650  1.5034  1.5063
 1709SOL    HW211474   5.326   6.971   6.191 -0.0090 -1.4136  1.5114
 1710SOL     OW11475   0.574   2.725   8.018 -0.2634 -0.3924  0.3933
 1710SOL    HW111476   0.539   2.699   7.933 -0.0765 -0.2118  0.2635
 1710SOL    HW211477   0.623   2.805   8.001 -0.0632 -0.4622  0.6357
 1711SOL     OW11478   9.225   6.020   8.295  0.3083 -0.3500  0.1589
 1711SOL    HW111479   9.219   6.110   8.264  0.7131 -1.0269 -2.0589
 1711SOL    HW211480   9.229   6.028   8.390 -3.7997  1.7636  0.3935
 1712SOL     OW11481   8.015   2.502   7.519  0.3405 -0.0312 -0.1839
 1712SOL    HW111482   7.973   2.482   7.436 -0.4766  1.0704 -0.0585
 1712SOL    HW211483   8.004   2.596   7.529  0.5871 -0.1197  1.0865
 1713SOL     OW11484   3.480   0.774   1.221  0.2097  0.0350 -0.3020
 1713SOL    HW111485   3.454   0.684   1.241  0.5063  0.4277  2.1279
 1713SOL    HW211486   3.398   0.819   1.203 -0.1122 -0.3382  0.2121
 1714SOL     OW11487   7.394   7.582   4.862  0.3411  0.5655  0.1403
 1714SOL    HW111488   7.341   7.521   4.913  2.2349 -0.2993  1.1759
 1714SOL    HW211489   7.460   7.614   4.924  3.0905 -0.9622 -1.7802
 1715SOL     OW11490   2.243   2.324   3.277  0.6970  0.3823 -0.8435
 1715SOL    HW111491   2.257   2.283   3.191  1.8189  0.4596 -0.7055
 1715SOL    HW211492   2.318   2.298   3.329  0.2029  0.6326  0.0171
 1716SOL     OW11493   5.176   5.022   3.000  0.4278 -0.1183 -0.1343
 1716SOL    HW111494   5.255   5.018   2.946  0.4704 -0.3089 -0.0619
 1716SOL    HW211495   5.176   5.110   3.038 -0.2264  0.4398 -1.3801
 1717SOL     OW11496   3.441   5.884   5.666 -0.0425  0.0919  0.5223
 1717SOL    HW111497   3.490   5.823   5.610  0.9749  0.9769  0.4118
 1717SOL    HW211498   3.363   5.905   5.614 -0.4242 -1.1220  0.5768
 1718SOL     OW11499   0.066   9.054   5.114  0.6336  0.0526 -0.0823
 1718SOL    HW111500   0.131   9.067   5.046 -0.1713 -0.6389 -1.0161
 1718SOL    HW211501   0.100   8.981   5.166  0.8039 -0.0414 -0.3253
 1719SOL     OW11502   2.220   4.119   7.703 -0.2026  0.1007 -0.1821
 1719SOL    HW111503   2.248   4.134   7.794  1.2841 -1.0190 -0.4110
 1719SOL    HW211504   2.209   4.206   7.666 -0.2237  0.5670  0.9038
 1720SOL     OW11505   5.507   7.488   3.051  0.5642  0.0053 -0.2418
 1720SOL    HW111506   5.478   7.456   2.965  1.8311  0.2989 -0.7974
 1720SOL    HW211507   5.426   7.506   3.098 -0.1562 -0.5726 -1.2221
 1721SOL     OW11508   3.176   0.358   7.252 -0.5631  0.6867  0.6271
 1721SOL    HW111509   3.093   0.406   7.258 -0.5971  0.7096  0.0567
 1721SOL    HW211510   3.242   0.426   7.236 -0.5272  0.6068  0.4298
 1722SOL     OW11511   7.701   3.210   6.435  0.2565 -0.0256  0.3372
 1722SOL    HW111512   7.795   3.198   6.447  0.3670  0.8359  0.3787
 1722SOL    HW211513   7.669   3.124   6.407  0.9690 -0.4656  0.8388
 1723SOL     OW11514   4.703   2.932   0.101 -0.1419  0.1616 -0.2005
 1723SOL    HW111515   4.660   2.933   0.016  0.2457 -0.7061 -0.4237
 1723SOL    HW211516   4.750   3.015   0.106  0.0895  0.0807 -0.9753
 1724SOL     OW11517   7.481   9.072   7.857 -0.1401 -0.1377 -0.0347
 1724SOL    HW111518   7.481   9.161   7.891 -0.5979 -0.1276 -0.0521
 1724SOL    HW211519   7.573   9.052   7.842 -0.1559  1.2679 -2.4547
 1725SOL     OW11520   5.361   1.315   1.182  0.0482  0.2484 -0.8315
 1725SOL    HW111521   5.321   1.293   1.099  0.1553  0.6494 -0.9943
 1725SOL    HW211522   5.390   1.406   1.171 -0.5770  0.5479 -0.1147
 1726SOL     OW11523   2.140   5.849   2.168 -0.1969 -0.5539 -0.6471
 1726SOL    HW111524   2.177   5.882   2.250 -1.1252 -0.2710 -0.3220
 1726SOL    HW211525   2.146   5.923   2.108 -2.5033  0.3771  0.1548
 1727SOL     OW11526   0.285   3.837   0.658  0.2879 -0.1689 -0.1372
 1727SOL    HW111527   0.305   3.761   0.605 -0.6435  0.3927 -1.3568
 1727SOL    HW211528   0.344   3.831   0.734  1.4480 -1.1454 -1.0866
 1728SOL     OW11529   6.348   1.944   6.865  0.3886  0.0783  0.3943
 1728SOL    HW111530   6.335   2.034   6.835  0.3131  0.4075  1.4000
 1728SOL    HW211531   6.362   1.894   6.784 -0.4745  0.8280 -0.2323
 1729SOL     OW11532   3.723   4.076   2.249 -0.0361 -0.6499 -0.1286
 1729SOL    HW111533   3.747   4.158   2.293  0.5979 -0.8619 -0.0671
 1729SOL    HW211534   3.628   4.077   2.246 -0.0353  0.0855 -0.1118
 1730SOL     OW11535   1.413   0.421   7.360  0.1527 -0.2020 -0.0781
 1730SOL    HW111536   1.324   0.391   7.344 -0.1940  1.3948 -1.3942
 1730SOL    HW211537   1.402   0.499   7.415  0.7415 -0.1102 -0.0873
 1731SOL     OW11538   7.745   5.291   1.661  0.1598  0.6551 -0.0753
 1731SOL    HW111539   7.830   5.251   1.681  1.3473  2.5762 -1.0151
 1731SOL    HW211540   7.734   5.278   1.566 -0.5650  0.5173  0.0208
 1732SOL     OW11541   2.816   8.245   7.059 -0.0518 -0.6568  0.3119
 1732SOL    HW111542   2.786   8.316   7.003  0.0756 -0.6176  0.2928
 1732SOL    HW211543   2.897   8.214   7.019  0.4396 -0.1323  0.8762
 1733SOL     OW11544   4.964   2.135   5.292 -0.3739 -0.3016 -0.2000
 1733SOL    HW111545   4.975   2.183   5.374 -3.7402  1.5508 -0.6715
 1733SOL    HW211546   5.033   2.168   5.235 -0.8028  1.8731  0.4529
 1734SOL     OW11547   4.742   0.109   8.879 -0.2479  0.1376  0.2196
 1734SOL    HW111548   4.830   0.075   8.861 -0.2500  0.6508 -0.8782
 1734SOL    HW211549   4.683   0.052   8.829 -0.4381  0.4216  0.1127
 1735SOL     OW11550   1.762   2.422   0.574  0.2304 -0.2461  0.3281
 1735SOL    HW111551   1.734   2.457   0.490 -1.0008 -0.5056  0.6095
 1735SOL    HW211552   1.681   2.390   0.615  0.6919  0.4748  1.8970
 1736SOL     OW11553   0.906   2.252   2.676  0.3357 -0.4074  0.1342
 1736SOL    HW111554   0.891   2.259   2.582  0.6421 -2.5284 -0.1240
 1736SOL    HW211555   0.905   2.343   2.707  2.8349  0.6098 -2.2853
 1737SOL     OW11556   4.123   4.281   5.683  0.3293 -0.0506  0.8708
 1737SOL    HW111557   4.187   4.210   5.692  1.0259  0.2209 -1.3752
 1737SOL    HW211558   4.123   4.301   5.590 -2.2873  0.7020  0.9626
 1738SOL     OW11559   2.174   2.016   5.238 -0.4333  0.0270  0.7443
 1738SOL    HW111560   2.161   2.104   5.272 -0.1915  0.1627  0.4806
 1738SOL    HW211561   2.265   2.013   5.211 -1.0355  0.5341 -1.6065
 1739SOL     OW11562   6.590   6.455   7.219 -0.2980  0.4211 -0.7742
 1739SOL    HW111563   6.635   6.422   7.141  0.8422  1.3778 -0.5615
 1739SOL    HW211564   6.507   6.490   7.187 -0.3390 -0.2026 -1.3770
 1740SOL     OW11565   4.932   1.353   0.159 -0.2878  0.2720  0.0348
 1740SOL    HW111566   4.945   1.353   0.064 -2.0896 -2.6527 -0.3608
 1740SOL    HW211567   5.006   1.303   0.193 -0.0354  0.6692  0.0618
 1741SOL     OW11568   0.509   0.349   3.818 -0.3874  0.3916  0.1351
 1741SOL    HW111569   0.452   0.412   3.775  1.7476  1.1536 -1.7972
 1741SOL    HW211570   0.485   0.265   3.780 -1.2124  0.4545  0.4858
 1742SOL     OW11571   6.645   3.233   0.418  0.3995  0.1512 -0.1203
 1742SOL    HW111572   6.631   3.189   0.335 -0.0768 -1.0957  0.5974
 1742SOL    HW211573   6.718   3.293   0.402  0.1987  0.0510 -1.4694
 1743SOL     OW11574   0.579   2.871   2.911 -0.4916  0.2320  0.5106
 1743SOL    HW111575   0.661   2.917   2.889 -0.4678  0.5699  1.2749
 1743SOL    HW211576   0.574   2.800   2.847  1.2958 -0.8649  1.4725
 1744SOL     OW11577   4.012   0.350   4.618 -0.1330  0.0226 -0.0467
 1744SOL    HW111578   4.041   0.371   4.707  0.6731 -0.6159 -0.1439
 1744SOL    HW211579   3.917   0.356   4.621 -0.0949  0.2992  0.7808
 1745SOL     OW11580   4.026   8.184   7.692 -0.2335  0.4028 -0.9656
 1745SOL    HW111581   3.942   8.139   7.704  0.9651 -1.8827 -0.3830
 1745SOL    HW211582   4.031   8.244   7.766 -1.4467  0.7593 -1.1477
 1746SOL     OW11583   3.390   4.366   3.313  0.0278 -0.1552  0.1962
 1746SOL    HW111584   3.371   4.369   3.219  1.9629 -1.7840 -0.3265
 1746SOL    HW211585   3.386   4.457   3.341 -0.4881  0.3792 -1.4851
 1747SOL     OW11586   2.592   7.268   5.101 -0.3441 -0.2421 -0.0476
 1747SOL    HW111587   2.524   7.217   5.057 -0.5842  0.2505 -0.2573
 1747SOL    HW211588   2.660   7.204   5.123 -2.0447 -1.2621  2.6285
 1748SOL     OW11589   6.045   3.847   4.283  0.0405 -0.0967 -0.0885
 1748SOL    HW111590   5.958   3.809   4.276  0.4239 -0.9665 -0.2698
 1748SOL    HW211591   6.054   3.902   4.205 -0.0378 -0.6725 -0.5136
 1749SOL     OW11592   8.491   4.517   7.298 -0.4662  0.1740  0.2165
 1749SOL    HW111593   8.417   4.497   7.355 -0.0447 -0.3510  0.5926
 1749SOL    HW211594   8.540   4.434   7.293  0.0196  0.4773 -0.1382
 1750SOL     OW11595   8.580   9.219   7.274 -0.4579 -0.6207  0.8582
 1750SOL    HW111596   8.573   9.304   7.318  0.5388  1.1555 -2.1100
 1750SOL    HW211597   8.593   9.241   7.182  3.4435 -3.8758  0.3662
 1751SOL     OW11598   3.688   7.806   7.270 -0.2810 -0.0215 -0.2289
 1751SOL    HW111599   3.621   7.752   7.228 -1.0141  0.6618  0.0574
 1751SOL    HW211600   3.717   7.754   7.345  0.2953 -0.7906 -0.9598
 1752SOL     OW11601   8.257   6.734   7.445  0.3320  0.6025  0.0694
 1752SOL    HW111602   8.238   6.784   7.367 -0.7886  0.0130 -0.0517
 1752SOL    HW211603   8.352   6.738   7.454  0.5410  0.1092 -1.7035
 1753SOL     OW11604   7.736   8.275   6.006 -0.4316 -0.5117  0.0724
 1753SOL    HW111605   7.645   8.279   6.035  0.3289 -0.9133  2.7737
 1753SOL    HW211606   7.785   8.319   6.076  1.6214 -1.9359 -0.4033
 1754SOL     OW11607   2.934   5.050   7.677  0.9047  0.1589  0.0375
 1754SOL    HW111608   2.854   5.093   7.708 -1.2450 -2.5421 -1.2963
 1754SOL    HW211609   2.963   4.999   7.752  2.1543  2.0438  0.9015
 1755SOL     OW11610   5.369   7.796   1.890  0.0874 -0.0485  0.1700
 1755SOL    HW111611   5.288   7.838   1.918 -0.7285 -1.2272 -0.3751
 1755SOL    HW211612   5.344   7.742   1.815  1.1351 -1.3401  0.7052
 1756SOL     OW11613   0.933   2.816   1.442 -0.0772  0.5123 -0.3904
 1756SOL    HW111614   0.945   2.790   1.534 -0.8565  3.1343  0.5546
 1756SOL    HW211615   0.945   2.735   1.393 -0.2654 -1.1322  2.0534
 1757SOL     OW11616   7.536   9.000   5.558  0.0737 -0.1533  0.2399
 1757SOL    HW111617   7.507   9.033   5.473 -3.0963 -0.7523  0.9512
 1757SOL    HW211618   7.492   9.057   5.621 -0.4387 -1.8291  1.4598
 1758SOL     OW11619   7.897   2.269   2.462  0.6999 -0.1381  0.3313
 1758SOL    HW111620   7.912   2.281   2.556  0.1142  1.9627  0.2220
 1758SOL    HW211621   7.918   2.354   2.423  0.4402 -0.8047 -1.3797
 1759SOL     OW11622   3.142   3.151   0.770 -0.2463 -0.1742  0.8041
 1759SOL    HW111623   3.148   3.064   0.731  0.0825 -0.0869  0.6513
 1759SOL    HW211624   3.105   3.206   0.702 -0.1462 -0.1265  0.7878
 1760SOL     OW11625   4.674   8.331   8.696  0.3549 -0.2421 -0.0340
 1760SOL    HW111626   4.621   8.345   8.617 -0.9712 -0.0259  0.8624
 1760SOL    HW211627   4.718   8.247   8.680 -0.1106 -0.3418 -0.8772
 1761SOL     OW11628   7.006   7.987   8.401 -0.1512  0.3062 -0.1366
 1761SOL    HW111629   7.085   8.031   8.434 -0.7838  0.3938  1.3658
 1761SOL    HW211630   7.020   7.980   8.307  1.2269  1.1719 -0.0314
 1762SOL     OW11631   3.485   3.786   8.717 -0.2607 -0.0386  0.0590
 1762SOL    HW111632   3.567   3.833   8.702  1.0542 -1.5968  1.8978
 1762SOL    HW211633   3.478   3.727   8.642 -0.2407  0.7855 -0.6095
 1763SOL     OW11634   3.123   7.458   7.434 -0.1028 -0.4418 -0.2250
 1763SOL    HW111635   3.134   7.551   7.454 -1.4909 -0.2460 -0.2986
 1763SOL    HW211636   3.078   7.457   7.350 -0.8431 -1.1689  0.1704
 1764SOL     OW11637   2.294   3.211   7.827  0.4284 -0.0992  0.5940
 1764SOL    HW111638   2.390   3.208   7.821  0.3625  0.4870 -3.8287
 1764SOL    HW211639   2.275   3.296   7.868  1.7962 -0.1271  1.3275
 1765SOL     OW11640   0.941   3.168   3.615 -0.0985 -0.2188 -0.1779
 1765SOL    HW111641   0.990   3.149   3.534  0.1816  1.0207 -0.3179
 1765SOL    HW211642   0.849   3.163   3.589 -0.0177 -0.3673 -0.4448
 1766SOL     OW11643   0.261   2.196   3.411  0.1672 -0.1077  0.6835
 1766SOL    HW111644   0.239   2.260   3.478  0.4221 -0.6717  1.3100
 1766SOL    HW211645   0.189   2.134   3.412  0.2851 -0.2478  0.6046
 1767SOL     OW11646   7.721   7.289   8.335  0.0256 -0.0797  0.8176
 1767SOL    HW111647   7.801   7.287   8.387  0.0635 -0.3647  0.7466
 1767SOL    HW211648   7.725   7.373   8.288  0.4398 -0.2365  0.5651
 1768SOL     OW11649   7.910   7.554   9.025 -0.5252 -0.0312  0.4064
 1768SOL    HW111650   7.885   7.481   8.969 -0.8481 -0.8472  1.5726
 1768SOL    HW211651   7.968   7.515   9.091  1.4019  1.2477 -0.4270
 1769SOL     OW11652   7.606   0.665   1.996  0.7603 -0.5926  0.1787
 1769SOL    HW111653   7.512   0.648   2.003  0.3888  1.6564  2.3998
 1769SOL    HW211654   7.648   0.583   2.022 -0.5463 -1.6439 -0.8829
 1770SOL     OW11655   4.030   0.120   7.913 -0.1213  0.1415 -0.6025
 1770SOL    HW111656   4.033   0.041   7.967  1.0356  0.9656  0.6096
 1770SOL    HW211657   4.114   0.120   7.867  0.3189  1.1393  0.1562
 1771SOL     OW11658   6.496   7.949   3.664  0.4249  0.0255  0.1127
 1771SOL    HW111659   6.552   7.976   3.736  0.6429 -1.8129  0.6987
 1771SOL    HW211660   6.410   7.934   3.704 -0.1848  1.5762 -0.5390
 1772SOL     OW11661   1.852   8.631   6.976  0.1057  0.6415 -0.1061
 1772SOL    HW111662   1.873   8.717   7.011  0.6184  0.9824 -1.2136
 1772SOL    HW211663   1.757   8.630   6.968  0.0356  0.7961  0.6617
 1773SOL     OW11664   4.297   8.169   8.304  0.4202 -0.5229  0.0252
 1773SOL    HW111665   4.376   8.126   8.271  0.5289 -1.0618  0.9607
 1773SOL    HW211666   4.247   8.098   8.344 -1.9937 -0.8367 -3.0926
 1774SOL     OW11667   6.229   6.461   5.654  0.0146 -0.0602 -0.7433
 1774SOL    HW111668   6.227   6.414   5.570  0.9148 -0.4534 -0.5568
 1774SOL    HW211669   6.157   6.524   5.648  1.7720  1.9172 -2.9705
 1775SOL     OW11670   3.439   4.202   6.688  0.4198  0.6855  0.0469
 1775SOL    HW111671   3.516   4.239   6.644  0.0099  0.0131 -1.3032
 1775SOL    HW211672   3.365   4.228   6.632 -0.3715  1.4560  1.3998
 1776SOL     OW11673   7.565   8.341   6.327 -0.4896 -0.0325  0.0158
 1776SOL    HW111674   7.522   8.335   6.242 -0.0753  2.0592 -0.3988
 1776SOL    HW211675   7.644   8.393   6.310  0.8101 -1.4883  1.2688
 1777SOL     OW11676   6.989   0.737   0.803 -0.0408 -1.0887  0.1116
 1777SOL    HW111677   6.894   0.732   0.819 -0.2498 -1.8500 -1.2448
 1777SOL    HW211678   7.028   0.713   0.887 -1.0223  0.3505  1.0291
 1778SOL     OW11679   1.066   6.101   5.352  0.0357  0.9398  0.3176
 1778SOL    HW111680   1.007   6.161   5.304 -0.4502  0.2186 -0.0127
 1778SOL    HW211681   1.121   6.063   5.283 -0.9182 -0.3863  0.2613
 1779SOL     OW11682   7.164   1.101   4.013  0.2904  0.1530 -0.7870
 1779SOL    HW111683   7.199   1.156   3.943  1.6528  0.0426 -0.2149
 1779SOL    HW211684   7.234   1.097   4.078 -0.0466 -1.6757 -0.4868
 1780SOL     OW11685   7.523   0.749   1.732  0.0427  0.4485  0.0190
 1780SOL    HW111686   7.446   0.739   1.789  0.9240 -2.0555  0.9040
 1780SOL    HW211687   7.597   0.733   1.790  1.2977  2.8334 -0.8174
 1781SOL     OW11688   5.190   1.419   5.339 -0.0132  0.1246  0.2445
 1781SOL    HW111689   5.162   1.428   5.430  0.3686 -2.1452  0.6435
 1781SOL    HW211690   5.110   1.401   5.291 -0.1437  0.7709  0.2135
 1782SOL     OW11691   0.137   0.431   1.738 -0.0391 -0.3019  0.2086
 1782SOL    HW111692   0.212   0.387   1.698 -0.4050 -1.4008  0.6836
 1782SOL    HW211693   0.064   0.412   1.679 -0.2030 -0.3352  0.4210
 1783SOL     OW11694   1.731   0.419   2.180  0.1989  0.5066  0.5493
 1783SOL    HW111695   1.659   0.472   2.146  0.9832  0.6580 -0.9530
 1783SOL    HW211696   1.741   0.448   2.270 -1.8772  0.1835  0.9379
 1784SOL     OW11697   8.569   2.927   8.709  0.3158 -0.2726  0.1389
 1784SOL    HW111698   8.609   2.919   8.623  0.5636 -0.5780  0.2771
 1784SOL    HW211699   8.608   2.855   8.760  0.1653 -0.1020  0.4992
 1785SOL     OW11700   2.484   6.084   2.151  0.0424  0.0810 -0.2596
 1785SOL    HW111701   2.418   6.038   2.204  0.0420  1.4462  0.9990
 1785SOL    HW211702   2.568   6.060   2.190  0.0612  0.8734  0.2105
 1786SOL     OW11703   8.358   2.267   6.112  0.0539  0.0410  0.3469
 1786SOL    HW111704   8.295   2.266   6.040  0.4576 -0.4080 -0.0088
 1786SOL    HW211705   8.409   2.348   6.097 -0.7370  0.6532  0.9092
 1787SOL     OW11706   7.483   5.184   3.981 -0.1091 -0.0205  0.3418
 1787SOL    HW111707   7.484   5.115   4.047  1.0176  0.2415  0.6230
 1787SOL    HW211708   7.399   5.228   3.992  0.1060  0.0839  1.6710
 1788SOL     OW11709   4.698   1.193   8.460  0.3015  0.2690  0.0745
 1788SOL    HW111710   4.760   1.233   8.521 -0.1624  0.8652  0.1659
 1788SOL    HW211711   4.615   1.236   8.480 -0.4292 -1.4127  0.8139
 1789SOL     OW11712   2.121   7.791   3.780 -0.1505  1.3040  0.2246
 1789SOL    HW111713   2.189   7.854   3.805  1.1491  0.1913 -0.3800
 1789SOL    HW211714   2.144   7.711   3.827 -0.3559  0.5553 -0.9061
 1790SOL     OW11715   9.113   8.891   7.754 -0.1803  0.5203 -0.6664
 1790SOL    HW111716   9.127   8.804   7.791  0.1857  0.6613 -0.4649
 1790SOL    HW211717   9.018   8.899   7.747 -0.5092  1.5744  2.8825
 1791SOL     OW11718   4.144   5.390   0.641 -0.3136  0.6960 -0.0213
 1791SOL    HW111719   4.156   5.360   0.550 -1.2086  1.4035 -0.3781
 1791SOL    HW211720   4.232   5.385   0.679 -0.1852 -1.0388 -0.4750
 1792SOL     OW11721   5.875   6.002   3.995  0.1717  0.2590 -0.9869
 1792SOL    HW111722   5.859   5.909   3.975  0.1572  0.2951 -1.1454
 1792SOL    HW211723   5.970   6.008   4.004  0.0429 -0.4429  2.3326
 1793SOL     OW11724   1.514   3.852   8.274  0.1365 -0.0897  0.0974
 1793SOL    HW111725   1.576   3.786   8.243 -0.0152  0.4786 -1.5328
 1793SOL    HW211726   1.457   3.805   8.335  0.5855 -1.2291 -0.3323
 1794SOL     OW11727   9.087   9.026   3.384  0.3437 -0.2411 -0.1583
 1794SOL    HW111728   9.093   8.962   3.455 -0.2499  0.4439  0.5190
 1794SOL    HW211729   8.998   9.061   3.390  0.1849 -0.3863 -1.4342
 1795SOL     OW11730   4.423   4.652   8.361  0.4255  0.1678  0.4297
 1795SOL    HW111731   4.487   4.716   8.330  1.4995 -1.4442 -0.8302
 1795SOL    HW211732   4.418   4.667   8.455  3.8974 -0.6528  0.8736
 1796SOL     OW11733   2.709   1.779   3.988 -0.2693 -0.1629 -0.0174
 1796SOL    HW111734   2.669   1.721   3.924 -0.8776  0.1925  0.0347
 1796SOL    HW211735   2.793   1.803   3.949  0.7595 -2.3673  0.6865
 1797SOL     OW11736   5.159   0.544   4.668  0.5923  0.0284  0.0085
 1797SOL    HW111737   5.092   0.562   4.602  0.3284 -0.7236  0.0551
 1797SOL    HW211738   5.213   0.623   4.671  0.4839  0.1419 -0.9511
 1798SOL     OW11739   6.476   2.509   3.439  0.9319  0.0181 -0.4732
 1798SOL    HW111740   6.525   2.590   3.430  0.4296  0.3667 -0.1132
 1798SOL    HW211741   6.493   2.481   3.529  0.9405 -0.1701 -0.5327
 1799SOL     OW11742   7.868   6.795   3.257 -0.2725 -0.1061 -0.0473
 1799SOL    HW111743   7.905   6.871   3.213  1.2620 -0.7397  0.1062
 1799SOL    HW211744   7.805   6.760   3.194 -0.1957  0.6560 -0.5636
 1800SOL     OW11745   2.562   7.129   7.115  0.2493  0.1048 -0.4984
 1800SOL    HW111746   2.621   7.055   7.133 -1.2856 -1.0936 -0.1429
 1800SOL    HW211747   2.615   7.207   7.132  1.1207 -0.9299  1.9745
 1801SOL     OW11748   7.007   9.141   4.089  0.8458  0.2319 -0.0190
 1801SOL    HW111749   7.102   9.127   4.080  0.5015 -1.2468 -1.9167
 1801SOL    HW211750   6.970   9.102   4.010 -1.3136  1.4195  0.3554
 1802SOL     OW11751   8.752   5.122   7.320  0.0662  0.0182  0.3256
 1802SOL    HW111752   8.777   5.213   7.338  0.4966  0.0043 -0.1684
 1802SOL    HW211753   8.830   5.083   7.281 -0.4370 -0.2865 -0.4021
 1803SOL     OW11754   0.846   3.810   8.563  0.3949  0.0803 -0.2996
 1803SOL    HW111755   0.894   3.746   8.511  1.0465  0.1089  0.2505
 1803SOL    HW211756   0.912   3.875   8.587  0.2214 -0.1803  0.9577
 1804SOL     OW11757   4.571   5.022   2.044  0.2931  0.1075 -0.0435
 1804SOL    HW111758   4.567   5.051   2.135 -0.3118 -1.8443  0.5976
 1804SOL    HW211759   4.494   4.967   2.032  0.9614 -0.6013 -1.3834
 1805SOL     OW11760   8.347   5.632   6.212  0.0066 -0.0907  0.0931
 1805SOL    HW111761   8.300   5.682   6.145  0.5089  0.1595 -0.0807
 1805SOL    HW211762   8.338   5.684   6.292  0.3041  0.1483 -0.0269
 1806SOL     OW11763   3.888   3.649   1.157 -0.2867 -0.0317 -0.3665
 1806SOL    HW111764   3.823   3.680   1.095  0.2013  0.2506 -0.7512
 1806SOL    HW211765   3.852   3.568   1.192 -1.2596  0.5914  0.1164
 1807SOL     OW11766   0.275   3.542   6.312  0.7188  0.3634  0.3041
 1807SOL    HW111767   0.226   3.615   6.274 -0.1588 -0.9462 -1.1955
 1807SOL    HW211768   0.301   3.574   6.398  0.8842  2.6532 -0.5215
 1808SOL     OW11769   3.767   4.045   3.368  0.0902  0.1323 -1.2537
 1808SOL    HW111770   3.753   4.140   3.366  1.5033  0.3672 -0.8911
 1808SOL    HW211771   3.780   4.020   3.277  0.7003  0.4595 -1.2629
 1809SOL     OW11772   4.000   4.567   4.178 -0.2145 -0.1116 -0.3942
 1809SOL    HW111773   4.076   4.511   4.164  0.1238  0.5152 -1.1464
 1809SOL    HW211774   4.035   4.656   4.176 -0.4375  0.1348  2.6392
 1810SOL     OW11775   5.821   7.837   0.048 -0.1355 -0.4019  0.6548
 1810SOL    HW111776   5.790   7.831  -0.042 -0.3902  1.0604  0.6121
 1810SOL    HW211777   5.917   7.837   0.040 -0.1411 -1.1655  0.4753
 1811SOL     OW11778   1.028   8.145   4.687 -0.0860 -0.2171  0.5217
 1811SOL    HW111779   1.039   8.182   4.599 -0.8033 -0.1415  0.4559
 1811SOL    HW211780   0.953   8.087   4.679  1.4916 -2.3840  0.4145
 1812SOL     OW11781   5.116   4.872   7.284 -0.4557 -0.1201 -0.2888
 1812SOL    HW111782   5.096   4.936   7.352 -0.2402 -0.3980  0.0415
 1812SOL    HW211783   5.209   4.854   7.295 -0.5619 -0.6423 -0.2522
 1813SOL     OW11784   3.987   4.653   6.012 -0.3158 -0.1570  0.1223
 1813SOL    HW111785   3.905   4.625   6.052 -0.4292  0.8344  0.6255
 1813SOL    HW211786   4.024   4.574   5.973 -0.7173 -0.9403  1.2836
 1814SOL     OW11787   2.629   6.837   3.866  0.2836  0.5728  0.0500
 1814SOL    HW111788   2.535   6.854   3.854  0.4753  1.0642 -0.8884
 1814SOL    HW211789   2.668   6.862   3.782  1.1875 -0.1432  0.2463
 1815SOL     OW11790   3.726   1.609   1.049 -0.2778 -0.8627  0.2086
 1815SOL    HW111791   3.722   1.580   1.140 -0.3520  0.4866  0.6654
 1815SOL    HW211792   3.645   1.576   1.009 -0.8713 -0.3847  0.9895
 1816SOL     OW11793   6.368   2.309   2.889  0.7543  0.1911 -0.0573
 1816SOL    HW111794   6.374   2.214   2.896  0.8977  0.2438  0.5437
 1816SOL    HW211795   6.275   2.329   2.901  0.7918  0.1665  0.2621
 1817SOL     OW11796   6.482   9.155   0.579 -0.4250  0.2446 -0.4930
 1817SOL    HW111797   6.508   9.065   0.556 -1.2290 -0.0218 -0.3928
 1817SOL    HW211798   6.473   9.199   0.494 -0.2112  0.1740 -0.5524
 1818SOL     OW11799   0.934   1.573   0.450  0.2824 -0.2318  0.3579
 1818SOL    HW111800   1.002   1.622   0.496  0.3561 -0.9254  1.0035
 1818SOL    HW211801   0.978   1.539   0.372  0.8411 -1.1096  1.0308
 1819SOL     OW11802   1.475   6.502   7.950  0.0566  0.3431 -0.5060
 1819SOL    HW111803   1.451   6.579   7.899  1.3079 -0.4475 -2.4050
 1819SOL    HW211804   1.569   6.512   7.964 -0.2819  0.6349  1.9074
 1820SOL     OW11805   9.167   7.298   4.985 -0.1941 -0.2149  0.0040
 1820SOL    HW111806   9.174   7.347   5.067  1.1506  1.4695 -1.0403
 1820SOL    HW211807   9.159   7.207   5.012 -0.1739  0.3266  2.0135
 1821SOL     OW11808   8.648   8.551   4.922 -0.3034 -0.4313  0.4821
 1821SOL    HW111809   8.627   8.469   4.966  0.6317 -2.1240 -2.0196
 1821SOL    HW211810   8.724   8.585   4.969 -0.2278 -1.4042  1.0840
 1822SOL     OW11811   2.216   1.318   3.728 -0.3741  0.5767  0.0340
 1822SOL    HW111812   2.203   1.243   3.670 -1.7582  1.1158 -0.3930
 1822SOL    HW211813   2.187   1.287   3.814 -0.8668  0.5931 -0.1252
 1823SOL     OW11814   2.821   7.932   6.177  0.1879 -0.0385  0.1355
 1823SOL    HW111815   2.726   7.925   6.182  0.0809  1.4429  0.6404
 1823SOL    HW211816   2.841   7.928   6.084 -0.7125  2.7946 -0.2794
 1824SOL     OW11817   4.849   7.501   7.693  0.6911  0.7779 -0.0759
 1824SOL    HW111818   4.844   7.480   7.600 -0.0036  1.1029 -0.1181
 1824SOL    HW211819   4.824   7.593   7.698  0.8202  0.7883  0.4211
 1825SOL     OW11820   1.291   1.657   6.576  0.0981  0.1868 -0.4251
 1825SOL    HW111821   1.278   1.673   6.669 -0.6688  0.7900 -0.6236
 1825SOL    HW211822   1.258   1.569   6.561  1.1176 -0.2893  0.0410
 1826SOL     OW11823   2.276   8.890   8.286  0.8719  0.4055 -0.2534
 1826SOL    HW111824   2.335   8.874   8.212 -0.2622  0.4717 -1.1990
 1826SOL    HW211825   2.271   8.805   8.331  1.6610  0.3935 -0.1741
 1827SOL     OW11826   3.890   6.461   3.500 -0.0324  0.6923  0.5379
 1827SOL    HW111827   3.918   6.373   3.475 -0.1605  0.9218 -0.4817
 1827SOL    HW211828   3.874   6.456   3.594  0.3018 -0.2773  0.5542
 1828SOL     OW11829   9.136   5.029   4.559  0.0947 -0.3070  0.3256
 1828SOL    HW111830   9.111   4.938   4.548 -0.6505  0.0729 -1.5334
 1828SOL    HW211831   9.084   5.060   4.634  0.7574 -1.5200  1.3075
 1829SOL     OW11832   6.243   6.891   4.071 -0.0374  0.3617 -0.2118
 1829SOL    HW111833   6.209   6.822   4.014 -1.4304  0.0099  0.9697
 1829SOL    HW211834   6.232   6.972   4.020  1.8776 -0.2513 -1.7180
 1830SOL     OW11835   6.578   5.935   0.757  0.2911 -0.0075 -0.1728
 1830SOL    HW111836   6.518   5.974   0.694 -0.3357 -0.1616  0.3196
 1830SOL    HW211837   6.523   5.879   0.812  0.8126  0.1939  0.5742
 1831SOL     OW11838   6.600   3.371   7.373 -0.6503  0.3038  0.2252
 1831SOL    HW111839   6.645   3.444   7.415  1.0756 -0.7193  0.2390
 1831SOL    HW211840   6.572   3.406   7.288  1.8500  0.4967 -0.5859
 1832SOL     OW11841   5.100   5.537   5.743 -0.9201 -0.0900 -0.1615
 1832SOL    HW111842   5.163   5.468   5.723 -0.4321  0.3376 -0.1060
 1832SOL    HW211843   5.046   5.501   5.813 -1.2219 -0.7442 -0.7204
 1833SOL     OW11844   5.424   3.126   7.663  0.2541  0.2955  0.1629
 1833SOL    HW111845   5.330   3.139   7.655 -0.0360 -1.2529  0.7208
 1833SOL    HW211846   5.461   3.215   7.666 -1.2522  0.9259  0.7803
 1834SOL     OW11847   2.694   1.356   3.889  0.3273 -0.5402  0.4896
 1834SOL    HW111848   2.765   1.334   3.829  1.6620  1.0212  1.4080
 1834SOL    HW211849   2.732   1.344   3.976 -1.1403 -1.4652  1.0337
 1835SOL     OW11850   6.295   5.572   3.717 -0.0335  0.9504  0.0512
 1835SOL    HW111851   6.246   5.583   3.635 -1.6422  0.7130  0.9298
 1835SOL    HW211852   6.329   5.659   3.737  1.3762  0.7817 -1.4416
 1836SOL     OW11853   7.425   9.229   8.998 -0.5139  0.3288  0.0026
 1836SOL    HW111854   7.460   9.246   8.910  0.6330  1.4259  0.6255
 1836SOL    HW211855   7.388   9.141   8.993  0.5859 -0.1010 -1.2746
 1837SOL     OW11856   9.077   2.327   2.504 -0.2459  0.5949  0.2489
 1837SOL    HW111857   9.011   2.384   2.544 -1.7601  0.6402 -2.0770
 1837SOL    HW211858   9.027   2.276   2.440  1.7372 -0.6125 -0.3998
 1838SOL     OW11859   4.083   0.074   3.860 -0.0795 -0.2929  0.3859
 1838SOL    HW111860   4.021   0.002   3.871  2.2933 -2.2366  2.5023
 1838SOL    HW211861   4.087   0.115   3.946 -1.4958  2.6256 -0.8175
 1839SOL     OW11862   8.843   8.924   0.219  0.0948 -0.6254  0.2058
 1839SOL    HW111863   8.761   8.901   0.263 -0.9742 -0.2989 -1.5077
 1839SOL    HW211864   8.868   8.845   0.171 -0.3864 -0.1048 -0.9497
 1840SOL     OW11865   1.542   0.555   6.989  0.1467  0.1595 -0.3894
 1840SOL    HW111866   1.470   0.526   7.045 -0.3493  1.1016 -0.5267
 1840SOL    HW211867   1.499   0.589   6.910  0.6153  2.3716  0.2503
 1841SOL     OW11868   3.460   3.704   4.424 -0.2791  0.3175 -0.0308
 1841SOL    HW111869   3.483   3.627   4.477 -0.0698  0.4900  0.1340
 1841SOL    HW211870   3.430   3.769   4.487 -0.5373  0.3439 -0.1785
 1842SOL     OW11871   1.921   6.798   2.430  0.2700  0.2976 -0.3019
 1842SOL    HW111872   1.859   6.771   2.498  0.8023  0.8720  0.4280
 1842SOL    HW211873   1.980   6.859   2.474  0.5085  0.8315 -1.3389
 1843SOL     OW11874   6.810   7.105   7.561 -0.0262  0.4913 -0.4003
 1843SOL    HW111875   6.878   7.161   7.523  0.2077  0.8387  0.4887
 1843SOL    HW211876   6.783   7.048   7.490 -2.0233  3.3301 -2.1545
 1844SOL     OW11877   6.205   8.748   6.974  0.1233 -0.5776 -0.3706
 1844SOL    HW111878   6.262   8.673   6.959 -1.2138 -1.1434 -3.4423
 1844SOL    HW211879   6.223   8.807   6.900  0.6699  1.9278  1.5887
 1845SOL     OW11880   7.362   2.642   4.717 -0.6236  0.5914  0.1810
 1845SOL    HW111881   7.426   2.573   4.737 -0.3071  0.9421  0.3833
 1845SOL    HW211882   7.376   2.708   4.784 -2.2025  0.0237  1.1322
 1846SOL     OW11883   5.978   5.546   6.537 -0.2798  0.1130  0.3272
 1846SOL    HW111884   5.985   5.541   6.632  3.5903 -0.3181  0.1871
 1846SOL    HW211885   5.945   5.634   6.519 -1.1192  0.1772  2.0237
 1847SOL     OW11886   8.268   7.639   0.599  0.0207 -0.3498 -0.0617
 1847SOL    HW111887   8.297   7.652   0.508 -1.4420 -2.0206 -0.8352
 1847SOL    HW211888   8.178   7.608   0.591  0.2465 -1.6857  1.9038
 1848SOL     OW11889   0.878   1.411   3.894 -0.2362 -0.6325  0.4934
 1848SOL    HW111890   0.785   1.430   3.877  0.2587  0.5154 -1.1586
 1848SOL    HW211891   0.924   1.449   3.820  1.7509  0.5015  2.2068
 1849SOL     OW11892   5.465   6.061   5.792  0.0757  0.1738 -0.4740
 1849SOL    HW111893   5.463   6.016   5.876 -1.2574  1.8564  0.4698
 1849SOL    HW211894   5.490   5.993   5.729  0.0908 -1.3785  1.1177
 1850SOL     OW11895   8.794   8.713   0.037 -0.1181 -0.1903  0.8411
 1850SOL    HW111896   8.718   8.713  -0.021  0.2624 -0.0998  0.3444
 1850SOL    HW211897   8.859   8.659  -0.007  0.8356  1.3586  0.3020
 1851SOL     OW11898   1.988   3.828   9.125 -0.6812  0.3253  0.0051
 1851SOL    HW111899   1.918   3.810   9.063 -1.6328 -0.5001  1.2820
 1851SOL    HW211900   2.017   3.742   9.155  1.6953  0.5657 -1.3175
 1852SOL     OW11901   1.594   2.587   8.823 -0.1259  0.2274 -0.0315
 1852SOL    HW111902   1.676   2.577   8.871 -1.2910  1.6891  2.4616
 1852SOL    HW211903   1.600   2.673   8.782 -0.1572  0.0612 -0.3878
 1853SOL     OW11904   4.735   2.327   0.543  0.4113 -0.9290  0.6144
 1853SOL    HW111905   4.687   2.302   0.623 -0.6996 -2.2383 -0.3940
 1853SOL    HW211906   4.807   2.264   0.538  1.0623 -0.2317  1.0778
 1854SOL     OW11907   0.018   7.290   6.643  0.8211  0.0445 -0.1478
 1854SOL    HW111908  -0.008   7.279   6.551 -0.0547  0.3245  0.0526
 1854SOL    HW211909  -0.017   7.212   6.686 -0.1521  0.6642  0.2165
 1855SOL     OW11910   6.174   0.298   6.280 -0.3715 -0.0009  0.2604
 1855SOL    HW111911   6.114   0.328   6.212 -1.6970 -2.6334  0.1102
 1855SOL    HW211912   6.247   0.259   6.232  0.2539  0.9357  0.4242
 1856SOL     OW11913   0.554   3.652   5.439 -0.1487  0.4753 -0.2588
 1856SOL    HW111914   0.460   3.670   5.445 -0.5375 -1.7527  1.7066
 1856SOL    HW211915   0.562   3.595   5.362 -0.3850  0.7364 -0.4805
 1857SOL     OW11916   5.370   5.337   4.306 -0.0098  0.0558 -0.3725
 1857SOL    HW111917   5.437   5.390   4.264  0.2368  0.9470  1.1023
 1857SOL    HW211918   5.419   5.266   4.349 -0.2355 -0.6608 -1.2543
 1858SOL     OW11919   2.112   7.628   1.205  0.0886 -0.4086 -0.2052
 1858SOL    HW111920   2.118   7.645   1.299  0.6770  1.7339 -0.5812
 1858SOL    HW211921   2.022   7.650   1.181  0.8428  2.4814 -0.6867
 1859SOL     OW11922   5.801   4.344   8.816 -0.0601 -0.5443  0.1996
 1859SOL    HW111923   5.789   4.335   8.722  0.9941  0.7087 -0.0860
 1859SOL    HW211924   5.786   4.437   8.834  1.4357 -0.4123  0.9606
 1860SOL     OW11925   9.191   3.851   5.809  0.0133  0.0801  0.1399
 1860SOL    HW111926   9.273   3.801   5.814 -0.5645 -1.0686 -0.9942
 1860SOL    HW211927   9.126   3.794   5.851 -0.3392  0.6535  0.3762
 1861SOL     OW11928   4.467   5.559   3.869  0.0397  0.5024 -0.6183
 1861SOL    HW111929   4.430   5.646   3.879  1.0555  0.6912  3.2383
 1861SOL    HW211930   4.536   5.554   3.935  1.0460 -2.7402 -1.6802
 1862SOL     OW11931   5.580   2.264   7.623  0.1940 -0.0582 -0.2057
 1862SOL    HW111932   5.499   2.315   7.631  0.8193  0.7567  1.5966
 1862SOL    HW211933   5.556   2.177   7.655 -0.4525 -0.4399 -1.6544
 1863SOL     OW11934   2.328   0.343   2.052 -0.4175 -0.2671  0.5087
 1863SOL    HW111935   2.283   0.358   1.969  0.1274  0.3729  0.3251
 1863SOL    HW211936   2.362   0.254   2.045  0.9100  0.2952 -0.5693
 1864SOL     OW11937   8.864   4.213   1.491 -0.0147  0.3197  0.4306
 1864SOL    HW111938   8.907   4.129   1.511 -0.3368 -0.1874 -0.8916
 1864SOL    HW211939   8.912   4.277   1.543  1.1464 -0.4926  0.4000
 1865SOL     OW11940   1.110   8.552   8.241  0.0793  0.1059 -0.5248
 1865SOL    HW111941   1.091   8.458   8.244  0.5056  0.0105 -0.6836
 1865SOL    HW211942   1.153   8.571   8.324  1.4970 -0.1897 -1.1541
 1866SOL     OW11943   3.486   5.057   7.384  0.3122 -0.3120  0.0708
 1866SOL    HW111944   3.543   5.089   7.315  0.6319 -0.3943  0.2915
 1866SOL    HW211945   3.428   4.993   7.341  0.8631 -0.7587 -0.0135
 1867SOL     OW11946   5.852   1.746   8.889  0.0115  0.0949 -0.0345
 1867SOL    HW111947   5.790   1.685   8.848  0.0028 -0.2136  0.4345
 1867SOL    HW211948   5.913   1.690   8.936 -1.7811  0.5015  3.0219
 1868SOL     OW11949   6.087   3.026   4.217  0.4291  0.1593  0.3787
 1868SOL    HW111950   6.079   3.068   4.131 -4.1238 -0.3024  0.3563
 1868SOL    HW211951   6.068   3.097   4.279 -1.5680 -0.5254  0.6228
 1869SOL     OW11952   5.521   3.493   1.335  0.3904  0.3173  0.1233
 1869SOL    HW111953   5.440   3.537   1.362 -1.2882 -1.9730 -0.8881
 1869SOL    HW211954   5.519   3.409   1.380  1.7505 -0.1759 -0.6751
 1870SOL     OW11955   6.215   8.116   7.181  0.4294  0.5149 -0.2851
 1870SOL    HW111956   6.280   8.168   7.134 -0.4552  2.7305  0.8127
 1870SOL    HW211957   6.195   8.168   7.259 -1.9259 -0.5609 -0.1111
 1871SOL     OW11958   7.094   3.890   7.239  0.0888  0.1434  0.4902
 1871SOL    HW111959   7.050   3.889   7.324  0.3504 -2.4529  0.6940
 1871SOL    HW211960   7.187   3.885   7.259  0.3480  2.3529  0.0269
 1872SOL     OW11961   1.042   6.189   7.180  0.4384  0.5617  0.3091
 1872SOL    HW111962   1.032   6.224   7.092  0.9728  1.0110  0.4172
 1872SOL    HW211963   1.034   6.265   7.237  0.8729  0.4020  0.5933
 1873SOL     OW11964   0.446   8.425   2.812  0.0238 -0.1230  0.4418
 1873SOL    HW111965   0.441   8.425   2.908  0.7320 -0.1583  0.4800
 1873SOL    HW211966   0.527   8.378   2.792  0.5376  0.9889 -0.1380
 1874SOL     OW11967   9.132   3.002   3.627  0.1029 -0.8298 -0.2851
 1874SOL    HW111968   9.062   3.037   3.683 -0.3123 -1.3176 -0.4841
 1874SOL    HW211969   9.198   3.071   3.624 -0.4715 -0.2724 -0.2715
 1875SOL     OW11970   3.463   8.279   8.910  0.1499 -0.2933  0.4671
 1875SOL    HW111971   3.520   8.210   8.943  0.6889 -0.9019 -1.5822
 1875SOL    HW211972   3.505   8.361   8.938  0.6920 -0.7585  1.0405
 1876SOL     OW11973   3.975   2.069   1.784 -0.2105 -0.1977  0.4597
 1876SOL    HW111974   3.996   2.009   1.712  0.1720  0.9214 -0.3865
 1876SOL    HW211975   3.923   2.016   1.844 -0.2161 -1.2691 -0.4479
 1877SOL     OW11976   2.475   5.900   0.174  0.2422 -0.5107 -0.2547
 1877SOL    HW111977   2.479   5.846   0.253 -0.1804 -1.0692 -0.5998
 1877SOL    HW211978   2.412   5.969   0.195 -0.0042 -0.7618 -0.1556
 1878SOL     OW11979   2.808   2.976   3.203 -0.1811 -0.0554 -0.1566
 1878SOL    HW111980   2.760   2.971   3.120 -1.2154  2.0944  0.2256
 1878SOL    HW211981   2.896   2.943   3.182 -0.1861  1.0852 -2.3212
 1879SOL     OW11982   4.232   7.888   1.844 -0.6230 -0.0788  0.1286
 1879SOL    HW111983   4.215   7.924   1.931 -2.3700  1.2594 -0.6973
 1879SOL    HW211984   4.175   7.938   1.785 -0.7472 -2.0365 -1.5678
 1880SOL     OW11985   7.037   8.485   6.540 -0.2889 -0.7451 -0.0991
 1880SOL    HW111986   7.113   8.470   6.484 -0.4489  0.9679 -0.8304
 1880SOL    HW211987   7.071   8.538   6.612 -0.3917 -1.7245  0.7023
 1881SOL     OW11988   8.601   2.539   2.887  0.5156 -0.0516  0.9886
 1881SOL    HW111989   8.580   2.446   2.895 -0.5922 -0.0056 -0.6469
 1881SOL    HW211990   8.518   2.579   2.860  1.9374  0.6216 -3.1028
 1882SOL     OW11991   2.410   6.432   8.187 -0.2510  0.0348  0.0281
 1882SOL    HW111992   2.413   6.526   8.168  0.2018  0.4633  2.0309
 1882SOL    HW211993   2.472   6.420   8.259  2.8713 -2.5003 -2.7685
 1883SOL     OW11994   4.011   2.366   2.833 -0.4076  0.6487  0.2650
 1883SOL    HW111995   4.102   2.376   2.860  0.8354 -1.9075 -2.4428
 1883SOL    HW211996   3.976   2.298   2.890  0.4232 -0.5977 -0.6430
 1884SOL     OW11997   3.295   8.186   2.313  0.8035  0.3005 -0.3266
 1884SOL    HW111998   3.376   8.166   2.265  1.1268 -1.3246  0.8318
 1884SOL    HW211999   3.226   8.145   2.261  0.7441  1.2913 -1.0667
 1885SOL     OW12000   0.684   6.023   4.629  0.2674  0.1501  0.2496
 1885SOL    HW112001   0.610   6.081   4.608  0.3562 -0.1832 -1.0490
 1885SOL    HW212002   0.749   6.043   4.562  0.9340 -0.3286  0.7488
 1886SOL     OW12003   6.604   3.100   5.396 -1.1068  0.0062  0.2223
 1886SOL    HW112004   6.566   3.061   5.317 -1.4685  0.1014  0.3464
 1886SOL    HW212005   6.697   3.083   5.389 -1.1361  0.0239 -0.2343
 1887SOL     OW12006   3.078   3.780   4.590  0.4163  0.4801  0.6657
 1887SOL    HW112007   3.004   3.837   4.569  0.0260  0.1859  1.2296
 1887SOL    HW212008   3.106   3.746   4.505  1.9852  3.0848  0.0257
 1888SOL     OW12009   8.228   0.695   4.990 -0.0701  0.1544  0.1709
 1888SOL    HW112010   8.157   0.635   4.969 -0.3066  0.5393 -0.1484
 1888SOL    HW212011   8.210   0.724   5.079 -0.1614  0.0404  0.1899
 1889SOL     OW12012   2.253   7.557   4.521 -0.7184  0.7929  0.0211
 1889SOL    HW112013   2.235   7.509   4.440 -2.1137  0.6890  0.3808
 1889SOL    HW212014   2.346   7.541   4.538  0.0436  2.1473 -2.4074
 1890SOL     OW12015   1.654   4.177   6.983  0.2951 -0.0368  0.0249
 1890SOL    HW112016   1.668   4.129   7.065 -0.7510 -2.5957 -1.1802
 1890SOL    HW212017   1.719   4.140   6.923  1.5152  2.2903 -0.2077
 1891SOL     OW12018   2.990   5.491   7.807  0.3048 -0.0122 -0.4382
 1891SOL    HW112019   3.011   5.545   7.731 -1.0142  1.9412  0.4782
 1891SOL    HW212020   3.075   5.461   7.840  0.9665  0.0846 -1.9812
 1892SOL     OW12021   7.093   6.744   8.675  0.0151 -0.2713  0.2269
 1892SOL    HW112022   7.123   6.834   8.664 -0.6743 -0.2831 -2.3538
 1892SOL    HW212023   7.005   6.752   8.713  0.3154  0.0768  0.8634
 1893SOL     OW12024   8.127   1.141   0.647  0.0633  0.3370 -0.4886
 1893SOL    HW112025   8.141   1.057   0.604  3.8819 -0.0932  1.1235
 1893SOL    HW212026   8.161   1.206   0.585  1.1827  0.1775 -0.0766
 1894SOL     OW12027   1.367   7.477   7.165 -0.3435 -0.4239 -0.0538
 1894SOL    HW112028   1.289   7.533   7.172 -1.7791 -2.2658 -0.4635
 1894SOL    HW212029   1.335   7.398   7.121  1.8017 -1.2123 -0.2841
 1895SOL     OW12030   7.990   8.782   0.189  0.2094 -0.7727 -0.3237
 1895SOL    HW112031   8.025   8.775   0.100  3.4808 -2.9738  0.9329
 1895SOL    HW212032   7.896   8.769   0.179  0.3913 -0.4978 -3.4677
 1896SOL     OW12033   0.910   1.847   7.682 -0.1007 -0.2653 -0.4773
 1896SOL    HW112034   0.971   1.841   7.608  1.4600 -1.2479  0.8202
 1896SOL    HW212035   0.824   1.841   7.642  0.6020  1.3003 -2.4044
 1897SOL     OW12036   2.426   4.302   1.801 -0.4486  0.0942  0.2178
 1897SOL    HW112037   2.478   4.381   1.816 -0.3051  0.7046 -2.9293
 1897SOL    HW212038   2.336   4.328   1.823 -0.1756  0.6155  0.7463
 1898SOL     OW12039   1.536   2.690   6.450  0.3925  0.3419 -0.3588
 1898SOL    HW112040   1.578   2.773   6.471 -2.2146  1.5598  0.5727
 1898SOL    HW212041   1.493   2.705   6.366  0.1619 -0.1464 -0.3325
 1899SOL     OW12042   0.712   3.211   3.394  0.1440  0.6149 -0.6050
 1899SOL    HW112043   0.677   3.282   3.448  0.5178 -0.2405  0.7851
 1899SOL    HW212044   0.635   3.164   3.364 -0.0150 -0.2168  1.0155
 1900SOL     OW12045   2.322   1.922   4.896  0.5605  0.0386  1.0861
 1900SOL    HW112046   2.351   1.853   4.956  0.3314  0.9193  2.2350
 1900SOL    HW212047   2.232   1.900   4.874  0.1780  0.4546  2.1922
 1901SOL     OW12048   5.798   6.948   6.668 -0.4428 -0.5306  0.4145
 1901SOL    HW112049   5.738   6.908   6.731 -0.5073 -1.4669 -0.2253
 1901SOL    HW212050   5.877   6.895   6.674 -0.1011 -0.0316  0.3857
 1902SOL     OW12051   8.941   0.982   5.234 -0.3879  0.0442 -0.2252
 1902SOL    HW112052   8.906   0.947   5.316  0.1400 -1.1987 -0.5081
 1902SOL    HW212053   8.968   1.071   5.256  1.0419 -0.7163  1.3523
 1903SOL     OW12054   9.059   4.436   1.548 -0.1782  0.4143  0.2908
 1903SOL    HW112055   9.099   4.522   1.535  0.9679 -0.1129  0.2433
 1903SOL    HW212056   9.130   4.381   1.579 -0.3157 -1.1258 -1.9309
 1904SOL     OW12057   3.991   7.311   1.430  0.0218  0.1302 -0.6536
 1904SOL    HW112058   3.929   7.285   1.498  1.7168 -0.1795  0.8479
 1904SOL    HW212059   3.968   7.256   1.354 -1.3769 -0.1152 -0.0889
 1905SOL     OW12060   4.836   3.414   8.391  0.5763  0.8329 -0.2456
 1905SOL    HW112061   4.922   3.381   8.366  0.8149 -0.0509  1.6073
 1905SOL    HW212062   4.794   3.437   8.308  1.0474 -2.5265 -1.5456
 1906SOL     OW12063   3.292   4.612   2.001  0.0304  0.3446  0.3558
 1906SOL    HW112064   3.358   4.664   1.954  0.0238 -0.8726 -1.0976
 1906SOL    HW212065   3.340   4.536   2.034 -0.1824  0.6691  1.4329
 1907SOL     OW12066   3.894   8.892   9.151  0.3621  0.7551 -0.2971
 1907SOL    HW112067   3.955   8.938   9.208  0.7270  0.8257 -0.7339
 1907SOL    HW212068   3.871   8.813   9.198  0.6789  0.8014 -0.0645
 1908SOL     OW12069   2.543   3.280   2.491  0.4522 -1.1297  0.6281
 1908SOL    HW112070   2.605   3.290   2.564 -0.5663  1.5036  1.2096
 1908SOL    HW212071   2.458   3.267   2.533 -0.4763  2.3502  0.0963
 1909SOL     OW12072   6.934   4.880   5.359 -0.1745 -0.8103 -0.6770
 1909SOL    HW112073   6.981   4.957   5.329 -0.3101 -0.3824  0.1620
 1909SOL    HW212074   7.002   4.824   5.397 -0.2647 -0.3369  0.2379
 1910SOL     OW12075   1.217   2.744   1.918  0.2554 -0.5332  0.6616
 1910SOL    HW112076   1.273   2.813   1.883 -1.1585  0.8837  1.0683
 1910SOL    HW212077   1.210   2.681   1.846 -1.2633  1.4912 -1.1243
 1911SOL     OW12078   9.008   6.216   7.383 -0.1426 -0.2928 -0.4487
 1911SOL    HW112079   9.044   6.148   7.440 -2.8510  0.8782  3.0461
 1911SOL    HW212080   8.917   6.190   7.370 -0.1566  0.6349 -2.4697
 1912SOL     OW12081   7.889   0.416   4.431 -0.0209  0.2939 -0.1234
 1912SOL    HW112082   7.944   0.483   4.391 -0.3208 -0.1335 -1.2971
 1912SOL    HW212083   7.949   0.365   4.486  0.8198 -0.2234 -1.4450
 1913SOL     OW12084   8.953   2.598   5.986 -0.6241  0.3072  0.5058
 1913SOL    HW112085   9.042   2.593   5.952  0.4967 -1.4566  3.3439
 1913SOL    HW212086   8.915   2.512   5.967 -1.0588  0.4069  0.9112
 1914SOL     OW12087   4.819   6.462   3.479 -0.1122  1.3004  0.3418
 1914SOL    HW112088   4.884   6.456   3.550  0.6065  0.9364 -0.3352
 1914SOL    HW212089   4.741   6.419   3.514  1.0467 -1.2709  0.0132
 1915SOL     OW12090   3.286   3.365   4.495 -0.1466 -0.4585 -0.2257
 1915SOL    HW112091   3.218   3.421   4.459 -0.7325 -1.0833 -0.0985
 1915SOL    HW212092   3.283   3.286   4.440  1.7884  0.2644 -1.4962
 1916SOL     OW12093   8.791   4.814   6.467 -0.5425 -0.0051  0.3070
 1916SOL    HW112094   8.819   4.733   6.510  0.7907 -0.0478 -0.5782
 1916SOL    HW212095   8.781   4.877   6.538  1.3436 -0.1496  0.7429
 1917SOL     OW12096   1.965   2.717   6.791  0.0197 -0.1224  0.2246
 1917SOL    HW112097   1.941   2.792   6.738  0.0777 -0.5111 -0.3634
 1917SOL    HW212098   1.886   2.662   6.793 -0.0975  0.0610  0.8450
 1918SOL     OW12099   9.175   0.541   4.479 -0.0187  0.0871 -0.3137
 1918SOL    HW112100   9.232   0.569   4.550 -0.1314  0.2449 -0.2856
 1918SOL    HW212101   9.086   0.556   4.512 -0.1267  3.5948 -1.7822
 1919SOL     OW12102   2.629   8.349   5.266  0.1052 -0.2307 -0.5816
 1919SOL    HW112103   2.640   8.437   5.229  1.8220  0.0582  0.5102
 1919SOL    HW212104   2.608   8.363   5.358  0.5128 -0.9496 -0.3659
 1920SOL     OW12105   7.600   2.462   4.836  0.5870  0.8019 -0.4583
 1920SOL    HW112106   7.694   2.474   4.824  0.4889  0.9286 -1.1145
 1920SOL    HW212107   7.576   2.392   4.776  0.7909 -1.4378  1.8891
 1921SOL     OW12108   3.563   4.752   2.915  0.4774  0.0870 -0.4443
 1921SOL    HW112109   3.600   4.840   2.914  0.9139 -0.0180  1.7364
 1921SOL    HW212110   3.603   4.708   2.839  2.7732  0.8071  0.2759
 1922SOL     OW12111   3.503   7.438   2.645  0.1814 -0.2966 -0.5412
 1922SOL    HW112112   3.434   7.372   2.650 -1.3663  1.3207  0.9846
 1922SOL    HW212113   3.559   7.420   2.721  0.0200 -0.1185 -0.3808
 1923SOL     OW12114   5.519   8.327   4.393  0.4332 -0.0219 -0.3184
 1923SOL    HW112115   5.446   8.284   4.438  0.2720 -0.2427 -0.7826
 1923SOL    HW212116   5.587   8.336   4.460  0.7156 -1.5917 -0.3502
 1924SOL     OW12117   8.289   4.650   7.916  0.0257  0.3477  0.3367
 1924SOL    HW112118   8.267   4.629   7.826 -2.0386  1.4522  0.5279
 1924SOL    HW212119   8.228   4.719   7.941  0.1284 -0.3346  2.7724
 1925SOL     OW12120   6.573   3.291   2.275 -0.4982  0.6038 -0.2777
 1925SOL    HW112121   6.523   3.344   2.213 -0.1134  0.2786 -0.8808
 1925SOL    HW212122   6.511   3.226   2.306 -0.0582 -0.9145 -2.3576
 1926SOL     OW12123   0.564   8.357   2.368 -0.2408 -0.1972 -0.0138
 1926SOL    HW112124   0.495   8.403   2.320  1.3786  0.0084 -2.3445
 1926SOL    HW212125   0.521   8.280   2.404 -1.9036  0.4724 -0.4585
 1927SOL     OW12126   4.463   8.712   0.110  0.3615  0.6250 -0.2282
 1927SOL    HW112127   4.513   8.642   0.151  0.5110  0.3430 -0.8777
 1927SOL    HW212128   4.414   8.752   0.182  0.1558 -0.2419  0.1298
 1928SOL     OW12129   2.949   8.739   8.812  0.5855  0.3329  0.4790
 1928SOL    HW112130   2.964   8.734   8.718  0.7630 -0.4679  0.5398
 1928SOL    HW212131   2.919   8.652   8.836 -1.3620  1.0603  0.8632
 1929SOL     OW12132   4.264   3.887   0.760 -0.2614  0.1839  0.9093
 1929SOL    HW112133   4.235   3.874   0.850 -2.9722  0.6145  0.2108
 1929SOL    HW212134   4.182   3.901   0.711  0.9317 -1.8886 -1.9437
 1930SOL     OW12135   6.067   2.495   2.221  0.2961 -0.7408  1.0126
 1930SOL    HW112136   6.110   2.488   2.306  0.4043 -0.3094  0.9927
 1930SOL    HW212137   6.136   2.477   2.157  0.4267 -0.1502  0.9845
 1931SOL     OW12138   3.841   1.029   9.087  0.6949 -0.5126  0.4776
 1931SOL    HW112139   3.861   0.939   9.062 -0.4844 -1.0540  1.4179
 1931SOL    HW212140   3.778   1.021   9.159  1.8106  1.0239  1.6987
 1932SOL     OW12141   1.027   7.800   4.509  0.5517 -0.2180 -0.0669
 1932SOL    HW112142   0.998   7.723   4.557  0.3075 -1.0979 -1.5532
 1932SOL    HW212143   0.980   7.873   4.550 -3.4212 -1.4539 -1.8811
 1933SOL     OW12144   2.543   7.126   3.641 -0.1845 -0.3587 -0.4344
 1933SOL    HW112145   2.589   7.162   3.566  1.5357 -1.0470  0.2535
 1933SOL    HW212146   2.581   7.040   3.655  1.6464  0.7830  2.8798
 1934SOL     OW12147   4.997   3.512   0.837 -0.0542 -0.0846  0.1230
 1934SOL    HW112148   5.037   3.549   0.916 -0.7971  0.6951  0.1459
 1934SOL    HW212149   4.948   3.436   0.868 -0.0250 -0.0088  0.3578
 1935SOL     OW12150   1.451   5.815   4.214  0.2639  0.0334 -0.4024
 1935SOL    HW112151   1.514   5.763   4.163  1.0601  2.2341 -1.7930
 1935SOL    HW212152   1.502   5.851   4.286  0.0438  0.0176 -0.2380
 1936SOL     OW12153   6.406   8.837   7.345 -0.4295  0.0831 -0.2624
 1936SOL    HW112154   6.467   8.807   7.278  0.0436  1.1046 -0.3021
 1936SOL    HW212155   6.462   8.870   7.416 -0.9209 -0.6209  0.4757
 1937SOL     OW12156   5.165   4.927   5.867  0.2288 -0.1227 -0.1931
 1937SOL    HW112157   5.118   4.961   5.944  1.7172 -0.2710  0.8161
 1937SOL    HW212158   5.128   4.840   5.853 -0.8983  0.3675 -0.4174
 1938SOL     OW12159   2.256   2.085   6.001 -0.2240  0.3087  0.8699
 1938SOL    HW112160   2.279   1.999   6.036 -0.9192  0.0681  0.7490
 1938SOL    HW212161   2.264   2.144   6.076 -0.1454  0.0696  1.0525
 1939SOL     OW12162   5.709   0.380   6.561 -0.0895  0.7043 -0.4959
 1939SOL    HW112163   5.688   0.325   6.485  2.6138  0.6718 -1.3276
 1939SOL    HW212164   5.638   0.444   6.564 -2.2470 -1.5190 -0.7437
 1940SOL     OW12165   6.627   2.763   2.292 -0.3533 -0.0920 -0.3319
 1940SOL    HW112166   6.628   2.729   2.381  1.8542  1.0155  0.1277
 1940SOL    HW212167   6.534   2.769   2.270 -0.9221 -1.5706  1.3973
 1941SOL     OW12168   2.714   5.746   6.377 -0.5466  0.4473 -0.1455
 1941SOL    HW112169   2.712   5.825   6.430  1.3184 -0.4072  1.3266
 1941SOL    HW212170   2.778   5.764   6.308  1.0387 -0.2221  1.0813
 1942SOL     OW12171   2.785   4.328   3.013 -0.2891  0.0134  0.1312
 1942SOL    HW112172   2.869   4.342   3.057 -1.4308 -0.7147  2.6891
 1942SOL    HW212173   2.727   4.394   3.051 -1.1119 -0.0371 -0.9910
 1943SOL     OW12174   6.150   8.602   4.473 -0.0770 -0.1474 -0.1465
 1943SOL    HW112175   6.175   8.563   4.388  1.1372 -2.3484  1.1157
 1943SOL    HW212176   6.057   8.581   4.483  0.2423 -1.7017 -0.0918
 1944SOL     OW12177   1.014   2.448   0.676 -0.4821 -0.0649  0.0747
 1944SOL    HW112178   1.077   2.511   0.712 -0.6310  0.5814 -0.7383
 1944SOL    HW212179   1.065   2.398   0.612 -0.5658 -0.1853  0.1027
 1945SOL     OW12180   2.790   3.473   0.147  0.0723 -0.0106 -0.3566
 1945SOL    HW112181   2.767   3.564   0.164  1.4931  0.2984  0.0239
 1945SOL    HW212182   2.709   3.434   0.112 -0.8471  1.1274  0.4120
 1946SOL     OW12183   6.792   7.611   0.462  0.0835  0.6414 -0.2372
 1946SOL    HW112184   6.746   7.562   0.395  0.2383  0.3543 -0.1323
 1946SOL    HW212185   6.876   7.567   0.472  0.3351  1.0906 -0.3399
 1947SOL     OW12186   4.700   6.212   4.493  0.3924 -0.2286  0.2058
 1947SOL    HW112187   4.711   6.306   4.507  0.5445  0.0379 -1.5027
 1947SOL    HW212188   4.754   6.171   4.561 -0.1650  0.8897  1.3635
 1948SOL     OW12189   2.360   7.758   6.492  0.4860 -0.2559 -1.0094
 1948SOL    HW112190   2.322   7.816   6.427 -0.1581  1.2269  0.5985
 1948SOL    HW212191   2.298   7.685   6.500  0.1132  0.0212 -1.3835
 1949SOL     OW12192   1.537   6.812   4.512 -0.3595 -0.0863  0.1684
 1949SOL    HW112193   1.621   6.794   4.470 -0.2831  0.9650 -0.1710
 1949SOL    HW212194   1.557   6.881   4.576 -1.2717  1.6348 -1.2865
 1950SOL     OW12195   2.819   2.150   3.015  0.1554  0.4452 -0.2256
 1950SOL    HW112196   2.793   2.110   2.932  1.4321 -1.1258  0.0799
 1950SOL    HW212197   2.737   2.167   3.060 -0.5055 -0.0145 -1.2218
 1951SOL     OW12198   8.682   0.992   4.171  0.1836  0.4818 -0.2375
 1951SOL    HW112199   8.651   1.075   4.208  1.2748  0.1625  1.5434
 1951SOL    HW212200   8.636   0.925   4.221 -1.0635 -0.0261 -2.0045
 1952SOL     OW12201   2.027   3.770   0.891  0.1556 -0.0057 -0.1854
 1952SOL    HW112202   1.985   3.684   0.883  0.3131  0.0818 -2.6353
 1952SOL    HW212203   1.957   3.833   0.874  0.0645  0.4039  1.5032
 1953SOL     OW12204   1.543   7.245   7.396  0.3138  0.7682 -0.2804
 1953SOL    HW112205   1.599   7.317   7.425  0.0404  0.5313  0.8796
 1953SOL    HW212206   1.454   7.277   7.408  0.1724 -0.0230  1.0193
 1954SOL     OW12207   0.166   2.096   5.756 -0.6473  0.1380  0.6067
 1954SOL    HW112208   0.203   2.068   5.673 -2.3593  0.0841 -0.1746
 1954SOL    HW212209   0.242   2.120   5.809  0.4541  2.3660 -1.7383
 1955SOL     OW12210   1.431   1.014   4.424 -0.2865  0.5157  0.0901
 1955SOL    HW112211   1.425   1.106   4.449 -0.5786  0.5680 -0.1671
 1955SOL    HW212212   1.385   1.009   4.340  1.3743  0.5036 -0.8652
 1956SOL     OW12213   4.509   3.416   4.018  0.1905 -0.0170 -0.1190
 1956SOL    HW112214   4.537   3.507   4.029 -0.3639  0.0168  1.3220
 1956SOL    HW212215   4.438   3.420   3.954 -0.0038  0.6109  0.1265
 1957SOL     OW12216   1.193   5.792   5.876  1.1769  0.5101 -0.0240
 1957SOL    HW112217   1.168   5.717   5.931  0.6342 -1.1110 -2.3542
 1957SOL    HW212218   1.268   5.830   5.922 -0.6561  0.7738  3.0983
 1958SOL     OW12219   1.722   6.399   0.718 -0.1348 -0.4334  0.4910
 1958SOL    HW112220   1.809   6.403   0.757 -0.4346 -0.8598  1.2232
 1958SOL    HW212221   1.728   6.455   0.641  1.3050 -1.8312 -0.4781
 1959SOL     OW12222   3.663   0.763   0.943  0.1453 -0.2392  0.5027
 1959SOL    HW112223   3.607   0.813   1.003 -1.6479 -2.4216  0.7583
 1959SOL    HW212224   3.630   0.786   0.856  0.5429  0.3704  0.5024
 1960SOL     OW12225   5.155   7.350   6.924  0.1531  0.3328 -0.0645
 1960SOL    HW112226   5.230   7.292   6.927 -1.0141 -1.4457 -2.0283
 1960SOL    HW212227   5.132   7.366   7.015  1.3878 -1.1501  0.5401
 1961SOL     OW12228   1.526   4.899   7.189  0.4673  0.5038 -0.0919
 1961SOL    HW112229   1.579   4.959   7.137 -0.2619 -0.3301 -1.9048
 1961SOL    HW212230   1.517   4.821   7.134  0.5681 -0.8942  1.7714
 1962SOL     OW12231   1.788   0.841   5.789  0.2111  0.4184  0.1835
 1962SOL    HW112232   1.869   0.804   5.754 -1.5154 -1.6049 -2.0153
 1962SOL    HW212233   1.771   0.918   5.735  1.1928  1.5484  1.4184
 1963SOL     OW12234   1.064   4.582   3.138  0.6665  0.4151 -0.2770
 1963SOL    HW112235   1.134   4.517   3.131  0.1605 -0.0610 -1.2033
 1963SOL    HW212236   1.031   4.591   3.048 -0.7851  0.2413  0.2124
 1964SOL     OW12237   7.799   2.873   7.180  0.3314 -1.0005  0.4563
 1964SOL    HW112238   7.736   2.804   7.163  1.0948 -1.5606 -0.1504
 1964SOL    HW212239   7.878   2.847   7.132  0.7200  0.1496  0.4321
 1965SOL     OW12240   4.359   5.309   1.943  0.1689 -0.2763 -0.0860
 1965SOL    HW112241   4.392   5.357   2.019 -0.1610  0.1687 -0.2192
 1965SOL    HW212242   4.323   5.377   1.886 -0.3717 -0.6926 -0.2441
 1966SOL     OW12243   0.942   7.712   5.861 -0.0646 -0.2476  0.2732
 1966SOL    HW112244   1.036   7.720   5.875  0.2631 -2.1698 -0.6115
 1966SOL    HW212245   0.922   7.777   5.794  0.7848 -0.4181 -0.1558
 1967SOL     OW12246   8.565   4.465   0.168  0.4133 -0.0608  0.5282
 1967SOL    HW112247   8.533   4.385   0.126  2.6597 -1.1125  0.6698
 1967SOL    HW212248   8.542   4.535   0.108 -0.4613 -0.9707 -0.2214
 1968SOL     OW12249   1.991   2.222   7.032 -0.0792  0.6987  0.2546
 1968SOL    HW112250   2.042   2.158   6.984  0.6047  0.9778  0.5972
 1968SOL    HW212251   2.026   2.307   7.004 -0.1645  0.8834  0.6942
 1969SOL     OW12252   0.297   7.014   1.406 -0.6486  0.3705  0.4580
 1969SOL    HW112253   0.354   6.998   1.482 -0.4586 -1.1942  0.0115
 1969SOL    HW212254   0.356   7.012   1.331 -0.7387  2.5331  0.2690
 1970SOL     OW12255   5.121   8.648   2.959  0.2394  0.1392  0.7568
 1970SOL    HW112256   5.052   8.584   2.944 -0.5651  0.9969  0.7203
 1970SOL    HW212257   5.135   8.690   2.874 -0.8212  1.5464  1.2421
 1971SOL     OW12258   6.306   4.921   0.583  0.1796 -0.0296 -0.2709
 1971SOL    HW112259   6.322   4.831   0.552 -0.1170 -0.1265 -0.1480
 1971SOL    HW212260   6.221   4.945   0.546 -1.6130 -1.1992  2.6622
 1972SOL     OW12261   3.703   2.619   0.074  0.5092  0.3181 -0.5488
 1972SOL    HW112262   3.765   2.629   0.147 -0.4592 -0.8635  0.4884
 1972SOL    HW212263   3.734   2.542   0.027  0.9295  0.8751 -1.1948
 1973SOL     OW12264   6.945   5.843   2.626 -0.0152 -0.2678  0.3195
 1973SOL    HW112265   6.911   5.923   2.586 -0.4431  0.1995  1.5746
 1973SOL    HW212266   6.998   5.802   2.557 -0.3121  0.7629 -0.5423
 1974SOL     OW12267   0.807   6.697   0.156  0.0496  0.3961 -0.5234
 1974SOL    HW112268   0.745   6.639   0.113  0.6233  0.8403 -1.9982
 1974SOL    HW212269   0.875   6.638   0.190 -1.1462 -0.0924  1.1293
 1975SOL     OW12270   9.228   0.976   3.536  0.5175 -0.4229  0.3473
 1975SOL    HW112271   9.269   1.015   3.460  0.2885  1.5454  1.1673
 1975SOL    HW212272   9.193   0.893   3.505  0.6531  0.2107 -1.6210
 1976SOL     OW12273   8.174   6.593   5.556  0.1664 -0.0388 -0.5444
 1976SOL    HW112274   8.156   6.592   5.462 -1.4633  1.0076 -0.2823
 1976SOL    HW212275   8.131   6.515   5.590 -1.0892  0.6743 -0.4108
 1977SOL     OW12276   1.548   1.124   8.647 -0.1671  0.2540 -0.2524
 1977SOL    HW112277   1.634   1.087   8.626  0.3960  1.0414  0.6341
 1977SOL    HW212278   1.493   1.047   8.661 -0.8919 -0.4985 -5.3135
 1978SOL     OW12279   7.290   8.334   4.965  0.3022  0.4861  0.2309
 1978SOL    HW112280   7.318   8.327   5.056  1.4959 -0.3399 -0.1864
 1978SOL    HW212281   7.308   8.249   4.927  2.6532  1.6604 -1.5440
 1979SOL     OW12282   1.618   4.376   0.560 -0.2508  0.8438  0.4219
 1979SOL    HW112283   1.571   4.442   0.610 -3.1209 -0.2365 -0.6701
 1979SOL    HW212284   1.637   4.307   0.623 -1.4498  0.6645  0.5958
 1980SOL     OW12285   4.417   0.910   5.121 -0.1468  0.2066 -0.1880
 1980SOL    HW112286   4.344   0.966   5.094  0.0144  1.2258  1.3565
 1980SOL    HW212287   4.488   0.932   5.060 -1.2523 -1.2357 -2.0902
 1981SOL     OW12288   2.703   0.549   5.479 -0.4438  0.1153 -0.2321
 1981SOL    HW112289   2.641   0.522   5.411  0.0679  1.4650 -1.2910
 1981SOL    HW212290   2.671   0.635   5.507  1.3110  1.1407 -1.2854
 1982SOL     OW12291   4.411   3.422   3.187 -0.1042 -0.7100 -0.0063
 1982SOL    HW112292   4.396   3.477   3.264  0.8886 -1.1291  0.4943
 1982SOL    HW212293   4.349   3.350   3.197 -1.2239  0.1538 -0.5266
 1983SOL     OW12294   7.755   5.410   0.287 -0.4026  0.2774 -0.1709
 1983SOL    HW112295   7.719   5.385   0.202  0.7546 -1.6171 -0.1723
 1983SOL    HW212296   7.708   5.353   0.349 -0.6539  1.0641  0.3716
 1984SOL     OW12297   7.538   4.591   5.918 -0.0899  0.4706  0.6344
 1984SOL    HW112298   7.548   4.507   5.872  1.2968  1.1947 -0.4705
 1984SOL    HW212299   7.569   4.574   6.006  0.4441 -0.1132  0.3450
 1985SOL     OW12300   1.138   5.419   1.278  0.2986 -0.5266 -0.2883
 1985SOL    HW112301   1.182   5.352   1.225  2.2877 -0.2141  0.8656
 1985SOL    HW212302   1.182   5.501   1.253  0.0767 -0.1354  0.6017
 1986SOL     OW12303   4.475   6.146   6.121 -0.2487 -0.2020  0.2121
 1986SOL    HW112304   4.393   6.127   6.075 -0.1129 -1.0265  0.2920
 1986SOL    HW212305   4.486   6.071   6.180  0.8212 -0.3424 -0.1563
 1987SOL     OW12306   5.664   8.899   0.725 -0.8030  0.4023  0.2038
 1987SOL    HW112307   5.720   8.935   0.793  2.3530  3.8591 -3.6781
 1987SOL    HW212308   5.711   8.822   0.693 -0.7256  0.5261  0.0172
 1988SOL     OW12309   2.656   5.777   2.803 -0.3797 -0.1279 -0.0008
 1988SOL    HW112310   2.598   5.707   2.831  0.8545 -1.2861 -0.2487
 1988SOL    HW212311   2.646   5.845   2.869 -0.4900 -1.1514  1.0508
 1989SOL     OW12312   3.021   8.743   3.655 -0.0425  0.1586  0.2202
 1989SOL    HW112313   3.004   8.671   3.594  1.3398 -0.3531  0.4027
 1989SOL    HW212314   3.052   8.815   3.599  0.3956 -0.0209  0.2327
 1990SOL     OW12315   8.407   9.076   2.280  0.0617 -0.0839  0.7293
 1990SOL    HW112316   8.318   9.108   2.268 -0.9426 -3.1988 -1.9007
 1990SOL    HW212317   8.457   9.118   2.210  0.1468  0.0444  0.8665
 1991SOL     OW12318   1.373   7.965   2.384 -0.4772 -0.0546  0.5034
 1991SOL    HW112319   1.422   8.047   2.385 -0.6795  0.0668  0.5940
 1991SOL    HW212320   1.413   7.915   2.313 -1.6430  0.9367 -0.9329
 1992SOL     OW12321   1.852   8.001   7.751 -0.4342 -0.2902 -0.0389
 1992SOL    HW112322   1.914   8.051   7.804  0.4715  1.2805 -2.3986
 1992SOL    HW212323   1.770   8.049   7.757 -0.5652 -0.5801  0.5589
 1993SOL     OW12324   7.149   1.716   1.337  0.9093 -0.0658  0.1103
 1993SOL    HW112325   7.109   1.636   1.302  1.1203 -0.4503  0.7296
 1993SOL    HW212326   7.185   1.760   1.260  0.7149 -0.5254 -0.2517
 1994SOL     OW12327   6.432   1.533   4.627 -0.1825 -0.1174  0.6374
 1994SOL    HW112328   6.467   1.606   4.576 -1.0215 -0.8515 -1.0965
 1994SOL    HW212329   6.437   1.562   4.718 -0.5766  2.1369  0.0045
 1995SOL     OW12330   2.013   3.978   7.936 -0.5584 -0.0146  0.7452
 1995SOL    HW112331   1.990   4.032   8.012 -2.7612 -0.1254  0.2337
 1995SOL    HW212332   1.979   4.027   7.861 -0.1877 -0.8347  0.0245
 1996SOL     OW12333   2.527   0.036   4.917  0.9924  0.2775  0.2989
 1996SOL    HW112334   2.447   0.047   4.866  1.1645  1.9722  0.3234
 1996SOL    HW212335   2.559  -0.051   4.894  0.2850  0.4301 -1.3693
 1997SOL     OW12336   5.017   7.237   5.780  0.1681  0.1352 -0.1591
 1997SOL    HW112337   5.050   7.274   5.863 -3.8615 -0.3610  1.9238
 1997SOL    HW212338   4.937   7.286   5.762  0.4631 -0.3677 -3.4159
 1998SOL     OW12339   2.675   0.287   4.930  0.3695 -0.0274 -0.0045
 1998SOL    HW112340   2.690   0.308   4.838  2.4421  0.6502  0.4358
 1998SOL    HW212341   2.658   0.193   4.931  3.4903 -0.6880 -0.8278
 1999SOL     OW12342   5.452   4.842   3.683 -0.4054 -0.6786 -0.1902
 1999SOL    HW112343   5.433   4.935   3.667  0.9834 -0.2182  0.5927
 1999SOL    HW212344   5.541   4.831   3.651  0.4417 -1.0504  2.0766
 2000SOL     OW12345   3.684   2.432   8.384 -0.1599  0.4127 -0.3818
 2000SOL    HW112346   3.707   2.383   8.305 -2.2037  0.8762 -1.3264
 2000SOL    HW212347   3.717   2.520   8.369 -1.7123  0.8507 -1.3407
 2001SOL     OW12348   6.786   8.405   6.495  0.4255  0.2200  1.0043
 2001SOL    HW112349   6.872   8.445   6.510 -0.5126  2.5918  0.4953
 2001SOL    HW212350   6.724   8.464   6.538 -1.0395 -0.9197  0.5471
 2002SOL     OW12351   8.308   1.857   2.993 -0.5081 -0.3401 -0.4468
 2002SOL    HW112352   8.226   1.893   2.958 -1.9025 -2.0904  0.8073
 2002SOL    HW212353   8.312   1.769   2.955  1.6415  0.2251 -1.6870
 2003SOL     OW12354   1.898   4.733   8.003  0.4552  0.4492  0.6971
 2003SOL    HW112355   1.883   4.808   8.061 -0.3152  0.4770  0.4796
 2003SOL    HW212356   1.896   4.657   8.060  0.4722  0.5361  0.8133
 2004SOL     OW12357   8.403   4.116   4.301  0.1607  0.7614 -0.4368
 2004SOL    HW112358   8.310   4.103   4.281 -0.4498  0.8664  2.0727
 2004SOL    HW212359   8.424   4.200   4.261  0.0615 -0.5930 -3.6156
 2005SOL     OW12360   3.475   4.517   6.688 -0.3514  0.5780 -0.1777
 2005SOL    HW112361   3.463   4.438   6.741 -0.4684  0.6303 -0.1254
 2005SOL    HW212362   3.565   4.511   6.655  0.1019  1.0915  0.9211
 2006SOL     OW12363   7.327   7.215   1.508 -0.0773  0.6058  0.3789
 2006SOL    HW112364   7.234   7.193   1.516 -0.0326  0.9379  2.4251
 2006SOL    HW212365   7.335   7.300   1.553  1.3473  0.1673  1.0221
 2007SOL     OW12366   6.187   0.747   6.408  0.6116 -0.4507 -0.5576
 2007SOL    HW112367   6.206   0.669   6.460  1.0911 -0.5361 -0.8494
 2007SOL    HW212368   6.096   0.769   6.429  0.7205 -0.6239  0.1269
 2008SOL     OW12369   6.036   6.597   6.038 -0.0934 -0.1890  0.4726
 2008SOL    HW112370   6.061   6.631   6.124 -0.0854 -0.8006  0.7189
 2008SOL    HW212371   5.952   6.554   6.053 -0.7973  0.9548 -0.1389
 2009SOL     OW12372   2.212   3.844   7.810  0.1772  0.3404  0.5150
 2009SOL    HW112373   2.134   3.859   7.864 -0.3959 -0.0789 -0.1758
 2009SOL    HW212374   2.214   3.919   7.751 -0.0489  0.0462  0.1321
 2010SOL     OW12375   0.020   5.105   4.304  0.1793  0.1534 -0.3364
 2010SOL    HW112376  -0.038   5.088   4.378 -2.8078  1.0775 -2.3293
 2010SOL    HW212377   0.059   5.019   4.285 -3.6182 -1.5722 -1.3339
 2011SOL     OW12378   6.760   6.686   7.100 -0.4697  0.2226 -0.1858
 2011SOL    HW112379   6.679   6.696   7.150 -0.5793  0.1405 -0.3447
 2011SOL    HW212380   6.792   6.775   7.086 -0.2850  0.2316  0.2777
 2012SOL     OW12381   3.654   2.185   2.423 -0.0929 -0.7086  0.1942
 2012SOL    HW112382   3.610   2.253   2.474 -0.0339 -0.1448 -0.4791
 2012SOL    HW212383   3.594   2.111   2.424 -1.3673  0.2366 -1.1703
 2013SOL     OW12384   4.086   6.252   2.909  0.0767  0.7000  0.0973
 2013SOL    HW112385   4.169   6.249   2.956 -0.6350 -0.8371  1.3151
 2013SOL    HW212386   4.019   6.245   2.976 -1.1231  2.9470 -0.7605
 2014SOL     OW12387   4.070   8.342   5.263 -0.3499 -0.6245 -0.2420
 2014SOL    HW112388   4.062   8.424   5.214 -0.0513 -0.4921 -0.0775
 2014SOL    HW212389   3.990   8.293   5.242 -1.1389  0.2406  0.6376
 2015SOL     OW12390   2.225   1.693   8.728 -0.0059 -0.5892 -0.0623
 2015SOL    HW112391   2.162   1.690   8.799 -0.5248  0.3193 -0.4668
 2015SOL    HW212392   2.178   1.661   8.651 -0.7912  2.3253 -0.9118
 2016SOL     OW12393   7.157   1.051   1.694  0.1454 -0.0061 -0.5609
 2016SOL    HW112394   7.100   1.080   1.765  1.0182 -0.0773  0.1841
 2016SOL    HW212395   7.162   1.127   1.635  2.6245  1.6112  1.4993
 2017SOL     OW12396   2.952   6.605   8.443  0.0759  0.5542  0.2245
 2017SOL    HW112397   2.982   6.528   8.395 -1.1313 -0.4540  1.0265
 2017SOL    HW212398   2.974   6.679   8.386 -2.2292 -0.6326 -2.4215
 2018SOL     OW12399   7.944   0.513   2.604  0.2918 -0.4348  0.1882
 2018SOL    HW112400   7.963   0.431   2.558  0.5362 -0.6979  0.7605
 2018SOL    HW212401   7.853   0.503   2.633  1.1601 -1.7484  2.7861
 2019SOL     OW12402   6.457   7.925   6.948  0.9282 -0.0506 -0.0771
 2019SOL    HW112403   6.375   7.879   6.967  1.5774 -1.5962 -0.8708
 2019SOL    HW212404   6.439   8.016   6.972 -0.3918 -0.6897  1.5976
 2020SOL     OW12405   0.657   2.937   1.666 -0.0739 -0.0971 -0.1136
 2020SOL    HW112406   0.609   2.854   1.664  0.6576 -0.5179 -0.5954
 2020SOL    HW212407   0.669   2.961   1.574  0.5528  0.0458  0.0001
 2021SOL     OW12408   0.172   3.238   1.964 -0.4692 -0.0300 -0.6041
 2021SOL    HW112409   0.093   3.190   1.936 -0.1378 -1.5553  0.8985
 2021SOL    HW212410   0.215   3.179   2.026  0.1929  2.0624  1.0464
 2022SOL     OW12411   8.334   2.060   7.915 -0.5328  0.4610  0.1555
 2022SOL    HW112412   8.348   2.065   7.821  0.2410 -0.2968  0.2207
 2022SOL    HW212413   8.265   2.124   7.933 -0.2949  1.0015 -0.8406
 2023SOL     OW12414   0.447   0.462   1.636 -0.2354  0.1071  0.7080
 2023SOL    HW112415   0.403   0.381   1.607  0.6217 -0.8600  2.0214
 2023SOL    HW212416   0.437   0.522   1.562 -1.2662 -1.0500 -0.1365
 2024SOL     OW12417   3.427   4.995   4.285 -0.4621 -0.4402  0.2034
 2024SOL    HW112418   3.378   5.074   4.262  0.1592  0.0693  0.5739
 2024SOL    HW212419   3.402   4.977   4.376 -2.6612 -2.2554 -0.6749
 2025SOL     OW12420   1.503   8.283   6.887  0.4595 -1.0084  0.3601
 2025SOL    HW112421   1.575   8.221   6.895  0.0365 -1.4791  0.5443
 2025SOL    HW212422   1.427   8.229   6.864  0.4373 -0.3689 -1.1771
 2026SOL     OW12423   9.021   1.288   1.729  0.2241  0.3627  0.2880
 2026SOL    HW112424   8.991   1.357   1.787 -2.7544  0.0411 -0.6932
 2026SOL    HW212425   8.997   1.207   1.774 -0.7052  0.0849 -0.6831
 2027SOL     OW12426   7.988   7.015   0.510 -0.6445 -0.5104  0.3852
 2027SOL    HW112427   7.920   7.038   0.574 -1.2013 -0.6293 -0.1594
 2027SOL    HW212428   8.012   7.099   0.470 -2.9685 -0.8254 -1.8957
 2028SOL     OW12429   3.267   6.008   0.359  0.2036  0.2374 -0.1504
 2028SOL    HW112430   3.276   5.981   0.450  0.6540  0.5687 -0.0944
 2028SOL    HW212431   3.178   6.043   0.353 -0.1312 -0.5746 -0.0525
 2029SOL     OW12432   3.930   0.463   5.978 -0.4146  0.2259 -0.0162
 2029SOL    HW112433   3.959   0.509   6.057 -2.3685  0.8850  0.3552
 2029SOL    HW212434   3.896   0.380   6.010  1.5086 -0.8218 -0.5182
 2030SOL     OW12435   1.959   0.004   8.452 -0.3582 -0.6070  0.2330
 2030SOL    HW112436   2.013   0.083   8.445  0.5656 -1.0586  1.8021
 2030SOL    HW212437   1.870   0.037   8.454 -0.1374  0.2136 -1.6318
 2031SOL     OW12438   1.534   5.755   4.653  0.4570 -0.7930 -0.3638
 2031SOL    HW112439   1.549   5.729   4.562  0.4596 -1.9988 -0.0354
 2031SOL    HW212440   1.596   5.826   4.668  0.0056 -0.1267 -1.4866
 2032SOL     OW12441   7.574   1.637   0.476  0.1961  0.0888  0.2497
 2032SOL    HW112442   7.644   1.696   0.504  0.2519 -0.1409  0.5894
 2032SOL    HW212443   7.552   1.668   0.388  2.3569 -1.2856 -0.8537
 2033SOL     OW12444   7.524   0.601   3.024  0.3146 -0.0523  0.1036
 2033SOL    HW112445   7.595   0.578   2.964  0.4703 -1.9772  0.9541
 2033SOL    HW212446   7.545   0.690   3.053  1.5743 -0.0422 -0.7570
 2034SOL     OW12447   4.068   7.761   2.666  0.2466  0.5585 -0.5499
 2034SOL    HW112448   4.100   7.727   2.582  0.4385 -1.9003  0.4300
 2034SOL    HW212449   4.096   7.853   2.667  1.4207  0.2910 -2.5802
 2035SOL     OW12450   0.244   0.159   6.514 -0.6096  0.8025 -0.2740
 2035SOL    HW112451   0.172   0.193   6.459 -0.8108  0.5374 -0.1740
 2035SOL    HW212452   0.200   0.117   6.588 -0.3324  1.4253  0.2558
 2036SOL     OW12453   5.566   2.904   8.806 -0.5505  0.1704  0.8402
 2036SOL    HW112454   5.504   2.948   8.747  1.4259  0.6727 -1.0097
 2036SOL    HW212455   5.540   2.812   8.804 -1.3645  0.4001  0.2802
 2037SOL     OW12456   4.497   7.372   9.247  0.0654  0.2029 -0.1183
 2037SOL    HW112457   4.477   7.287   9.286  1.0106 -0.1352 -0.3484
 2037SOL    HW212458   4.425   7.429   9.274 -0.2026 -0.4859  0.6343
 2038SOL     OW12459   1.217   6.277   5.647  0.0526  0.2028  0.2622
 2038SOL    HW112460   1.141   6.321   5.684 -1.5082 -1.0972 -1.2259
 2038SOL    HW212461   1.262   6.239   5.723 -0.9614  0.7137  1.1429
 2039SOL     OW12462   3.719   5.723   5.072  0.6336 -0.3523 -0.0942
 2039SOL    HW112463   3.647   5.776   5.106  0.4142 -1.4733  1.3139
 2039SOL    HW212464   3.795   5.781   5.075  0.3319  0.0265  1.0742
 2040SOL     OW12465   4.254   9.030   3.812  0.5533  0.5004  0.0624
 2040SOL    HW112466   4.291   8.942   3.822  0.5171  0.1003 -2.5998
 2040SOL    HW212467   4.160   9.017   3.805  0.6146  0.5639 -1.3607
 2041SOL     OW12468   6.267   4.218   6.285 -0.4725  0.1474 -0.2720
 2041SOL    HW112469   6.269   4.210   6.189 -1.0877  0.1604 -0.2889
 2041SOL    HW212470   6.181   4.186   6.310  0.3161 -1.5690  0.4439
 2042SOL     OW12471   1.674   7.635   9.241 -0.0170 -0.0081  0.0974
 2042SOL    HW112472   1.661   7.541   9.242 -0.3330  0.0188 -0.4104
 2042SOL    HW212473   1.764   7.649   9.270 -0.0877 -0.4395  0.5232
 2043SOL     OW12474   5.974   3.421   5.967 -0.2330 -0.0901 -0.4829
 2043SOL    HW112475   5.947   3.329   5.974 -0.0124 -0.1381 -0.2493
 2043SOL    HW212476   5.897   3.471   5.994 -0.1865 -0.2211 -0.0991
 2044SOL     OW12477   1.325   6.797   3.559 -0.0124  0.1007 -1.0050
 2044SOL    HW112478   1.336   6.710   3.521  1.1425 -0.7471  1.0951
 2044SOL    HW212479   1.415   6.825   3.578 -0.5170  0.4361  1.0554
 2045SOL     OW12480   2.307   1.338   2.655  1.0113 -0.2016 -0.8509
 2045SOL    HW112481   2.269   1.274   2.716  1.5121 -0.0479 -0.3646
 2045SOL    HW212482   2.377   1.290   2.611  1.7602  0.1451 -0.0835
 2046SOL     OW12483   5.390   3.900   2.847  0.5299  0.1187 -0.0340
 2046SOL    HW112484   5.306   3.858   2.826  0.4991 -0.2807  0.8575
 2046SOL    HW212485   5.388   3.912   2.941  0.7274  1.7558 -0.2103
 2047SOL     OW12486   6.475   4.532   0.221  0.1089 -0.3668 -0.1968
 2047SOL    HW112487   6.539   4.578   0.166  0.1330 -1.2921 -0.9695
 2047SOL    HW212488   6.390   4.557   0.184 -0.1690  2.1430  1.7965
 2048SOL     OW12489   2.937   7.893   3.694  0.5108 -0.5758  0.2611
 2048SOL    HW112490   2.910   7.985   3.690  0.2914 -0.6674 -2.8440
 2048SOL    HW212491   2.861   7.847   3.727 -0.1335  0.1429 -0.1801
 2049SOL     OW12492   5.386   4.684   4.191 -0.0493  0.3317  0.4000
 2049SOL    HW112493   5.424   4.767   4.219  0.8000 -0.3010  1.1928
 2049SOL    HW212494   5.413   4.675   4.100  1.3267  0.1287  0.8092
 2050SOL     OW12495   6.274   6.570   3.397 -0.6563  0.5433  0.0719
 2050SOL    HW112496   6.349   6.513   3.416 -0.8445 -0.3943 -1.8063
 2050SOL    HW212497   6.198   6.512   3.407 -1.0157  1.0229  0.1654
 2051SOL     OW12498   2.545   7.567   3.420  0.7123 -0.2225  0.4043
 2051SOL    HW112499   2.635   7.599   3.427  0.5259  0.3132  0.3873
 2051SOL    HW212500   2.522   7.542   3.510  0.6891  0.1659  0.5092
 2052SOL     OW12501   3.102   5.842   6.988  0.1003 -0.1684 -0.0051
 2052SOL    HW112502   3.054   5.770   7.029 -1.2704  0.9213  0.3796
 2052SOL    HW212503   3.125   5.900   7.060  1.0244 -0.1055 -0.3392
 2053SOL     OW12504   0.029   6.359   3.100 -0.3374  0.2651  0.2065
 2053SOL    HW112505   0.045   6.385   3.009 -1.1557 -1.4980 -0.4873
 2053SOL    HW212506   0.116   6.338   3.134 -0.1805 -0.5680 -0.6741
 2054SOL     OW12507   2.050   7.736   4.097  0.1164  0.1419  0.6393
 2054SOL    HW112508   2.118   7.688   4.048  1.8255  0.3198  2.6921
 2054SOL    HW212509   2.026   7.676   4.168 -0.8517  0.6848  0.7841
 2055SOL     OW12510   8.511   4.680   2.985 -0.3949  0.1060 -0.2957
 2055SOL    HW112511   8.501   4.693   2.890 -0.5283  0.5100 -0.2265
 2055SOL    HW212512   8.589   4.626   2.993 -1.1470 -1.0872 -0.7155
 2056SOL     OW12513   7.989   5.666   1.805  0.5444 -0.4709 -0.2951
 2056SOL    HW112514   8.003   5.626   1.891  0.8111 -1.2883 -0.7079
 2056SOL    HW212515   8.077   5.679   1.770  0.5331  1.6679  0.3369
 2057SOL     OW12516   7.178   9.192   0.735 -0.0587  0.0941  0.0444
 2057SOL    HW112517   7.091   9.226   0.712  0.0914  0.0044 -0.6871
 2057SOL    HW212518   7.161   9.117   0.792 -0.5259 -0.7917 -1.2173
 2058SOL     OW12519   1.547   4.679   1.910  0.1094 -0.0930 -0.2485
 2058SOL    HW112520   1.601   4.757   1.901 -1.2183  0.6833 -1.7616
 2058SOL    HW212521   1.464   4.710   1.946  0.0300 -1.0231  0.4341
 2059SOL     OW12522   3.674   3.409   2.576  0.4076 -0.1096  0.0620
 2059SOL    HW112523   3.623   3.337   2.614 -0.7179  0.4351 -0.3629
 2059SOL    HW212524   3.765   3.384   2.590  0.0327 -1.3237  0.4593
 2060SOL     OW12525   7.594   4.902   3.901  0.2566  0.5093  0.1348
 2060SOL    HW112526   7.672   4.943   3.863  0.2775  0.0021 -0.3793
 2060SOL    HW212527   7.558   4.848   3.830  1.1445 -1.6759  1.2550
 2061SOL     OW12528   4.407   8.449   0.227  0.3107 -0.4501 -0.0264
 2061SOL    HW112529   4.498   8.461   0.201 -0.2829  0.3828 -1.9226
 2061SOL    HW212530   4.397   8.354   0.236  0.9833 -0.6897 -1.4678
 2062SOL     OW12531   3.509   0.904   8.814 -0.3814  0.0420  0.3418
 2062SOL    HW112532   3.438   0.851   8.779 -0.6277  1.3432 -1.2663
 2062SOL    HW212533   3.582   0.843   8.826 -1.5594 -1.2031  1.4914
 2063SOL     OW12534   2.618   4.117   1.624 -0.2715 -0.3327  0.3336
 2063SOL    HW112535   2.528   4.119   1.654 -0.3068  3.2099  0.4673
 2063SOL    HW212536   2.670   4.147   1.699  0.8767 -1.0869 -0.1204
 2064SOL     OW12537   3.296   1.289   4.691 -0.2502  0.4133 -0.2110
 2064SOL    HW112538   3.350   1.288   4.770  0.0404 -0.0391 -0.4107
 2064SOL    HW212539   3.324   1.211   4.642 -1.0637  0.1840 -0.3263
 2065SOL     OW12540   2.658   5.055   5.380 -0.1369  0.2682  0.3033
 2065SOL    HW112541   2.611   5.133   5.352  0.6581  0.6215 -0.0710
 2065SOL    HW212542   2.608   4.983   5.342  0.7905  0.7283 -1.9169
 2066SOL     OW12543   5.591   5.632   1.563  0.3666 -0.6790  0.2362
 2066SOL    HW112544   5.512   5.682   1.583 -0.9065 -1.4816 -2.4142
 2066SOL    HW212545   5.575   5.593   1.477  3.6075 -0.9864 -0.3726
 2067SOL     OW12546   5.155   2.887   3.168 -0.5689 -0.0060 -0.3061
 2067SOL    HW112547   5.094   2.948   3.210 -1.1421  0.4097 -1.6798
 2067SOL    HW212548   5.241   2.924   3.184 -0.8180  0.4465  0.0056
 2068SOL     OW12549   4.167   8.845   3.281 -0.1330 -0.2509 -0.7152
 2068SOL    HW112550   4.226   8.774   3.258  0.6507  0.3324 -0.5446
 2068SOL    HW212551   4.136   8.824   3.369  0.4943 -0.1242 -0.4618
 2069SOL     OW12552   8.438   7.735   1.271  0.6455  0.7128  0.1090
 2069SOL    HW112553   8.360   7.700   1.226  1.7914  0.5403 -1.8589
 2069SOL    HW212554   8.459   7.668   1.336 -1.8129  1.5656  1.9222
 2070SOL     OW12555   2.306   3.645   8.339 -0.1516  0.3590 -0.1231
 2070SOL    HW112556   2.268   3.715   8.286  0.8246  0.5026 -0.6498
 2070SOL    HW212557   2.397   3.639   8.310  1.3511  2.4658  3.5756
 2071SOL     OW12558   5.933   2.419   1.406 -0.1934 -0.2077 -0.0643
 2071SOL    HW112559   6.024   2.404   1.430  0.1309  1.4297 -0.1339
 2071SOL    HW212560   5.930   2.404   1.311  0.9850  3.5599 -0.8362
 2072SOL     OW12561   3.164   7.782   8.205 -0.0374  0.4288 -0.1167
 2072SOL    HW112562   3.236   7.844   8.195 -0.2386  0.6775 -0.0275
 2072SOL    HW212563   3.202   7.708   8.253  0.2421  0.4127 -0.3603
 2073SOL     OW12564   7.104   3.846   4.959  0.1537 -0.0070 -0.3482
 2073SOL    HW112565   7.064   3.861   5.044  1.7056 -0.1486  0.4383
 2073SOL    HW212566   7.122   3.752   4.957 -1.4199 -0.3268 -1.5706
 2074SOL     OW12567   0.339   9.060   6.662 -0.0035 -0.0151 -0.1208
 2074SOL    HW112568   0.308   9.125   6.725  0.4468  0.6889 -0.6080
 2074SOL    HW212569   0.277   9.065   6.590 -0.0554 -0.2353 -0.0910
 2075SOL     OW12570   0.034   7.339   0.877 -0.4821 -0.4408  0.2956
 2075SOL    HW112571   0.083   7.287   0.940  0.8185 -0.5226 -0.7433
 2075SOL    HW212572   0.001   7.413   0.927  0.3343 -0.6163  1.1105
 2076SOL     OW12573   5.466   0.534   7.105 -0.0614 -0.5446  0.5214
 2076SOL    HW112574   5.372   0.527   7.125 -0.4387  0.0390 -0.9467
 2076SOL    HW212575   5.505   0.566   7.187 -1.0044 -1.6112  1.4180
 2077SOL     OW12576   8.718   7.062   3.044  0.7220 -0.0685  0.3437
 2077SOL    HW112577   8.676   7.135   2.998  0.4290  0.1239  0.9021
 2077SOL    HW212578   8.649   7.028   3.101  0.5674 -1.3750 -0.5650
 2078SOL     OW12579   7.923   1.955   3.870  0.2511 -0.0537  0.0848
 2078SOL    HW112580   7.900   2.021   3.934  1.0290  0.9288 -0.6103
 2078SOL    HW212581   7.991   1.903   3.912  0.6046  0.4530  0.1504
 2079SOL     OW12582   4.108   5.726   4.631 -0.3828  0.2149  0.2409
 2079SOL    HW112583   4.079   5.648   4.678 -2.4935  0.6455 -0.2777
 2079SOL    HW212584   4.061   5.723   4.547  3.2833 -0.5868 -2.0358
 2080SOL     OW12585   7.723   3.433   0.757 -0.2821 -0.1649  0.1304
 2080SOL    HW112586   7.663   3.369   0.796 -0.4096  0.7589  1.5174
 2080SOL    HW212587   7.798   3.435   0.816 -0.2691  0.9370  0.0954
 2081SOL     OW12588   1.054   4.278   3.083 -0.0604  0.4245  0.5588
 2081SOL    HW112589   1.008   4.216   3.139  1.0828 -0.9055  0.0963
 2081SOL    HW212590   1.147   4.262   3.101  0.2726  2.3577  0.7675
 2082SOL     OW12591   8.103   9.003   2.600  0.1871 -0.4607 -0.3213
 2082SOL    HW112592   8.153   9.049   2.533  0.5362 -0.5778 -0.1428
 2082SOL    HW212593   8.013   9.031   2.586  0.2668 -0.4202 -0.7899
 2083SOL     OW12594   8.882   2.708   5.055  0.0748  0.1382 -0.7380
 2083SOL    HW112595   8.919   2.760   4.983  1.6985 -0.6477 -0.5134
 2083SOL    HW212596   8.923   2.622   5.047 -0.6184 -0.3280  0.4271
 2084SOL     OW12597   9.083   4.760   0.852 -0.2200  0.4042  0.1021
 2084SOL    HW112598   9.018   4.762   0.922 -2.5831  0.4265 -1.9243
 2084SOL    HW212599   9.162   4.798   0.890 -2.0375  2.4699  2.1265
 2085SOL     OW12600   0.191   5.933   2.734 -0.0526 -0.2331  0.2956
 2085SOL    HW112601   0.224   5.956   2.647 -1.2692  0.2257 -0.0633
 2085SOL    HW212602   0.204   5.838   2.740  0.5916 -0.1789 -0.1436
 2086SOL     OW12603   4.103   4.095   0.471 -0.1563 -0.4507  0.4404
 2086SOL    HW112604   4.130   4.005   0.492 -0.3941 -0.4055  0.9409
 2086SOL    HW212605   4.125   4.105   0.378  0.7604 -0.7003  0.6221
 2087SOL     OW12606   8.001   3.939   1.586  0.3205 -0.1173 -0.3501
 2087SOL    HW112607   7.988   3.960   1.493  1.3366  0.0557 -0.4635
 2087SOL    HW212608   7.916   3.957   1.626 -0.6492 -1.7770 -1.5084
 2088SOL     OW12609   3.115   1.986   5.834  0.4486  0.4050 -0.2650
 2088SOL    HW112610   3.021   1.982   5.813  0.1689 -1.4754  1.1140
 2088SOL    HW212611   3.126   1.924   5.905  2.5820  1.3985  0.3480
 2089SOL     OW12612   5.127   0.774   5.231  0.0589 -0.0913  0.2607
 2089SOL    HW112613   5.089   0.725   5.304 -1.4849 -0.5255 -0.7732
 2089SOL    HW212614   5.065   0.760   5.159  0.5417  1.8768 -0.5975
 2090SOL     OW12615   5.572   3.888   5.441 -0.5588  0.3890 -0.3404
 2090SOL    HW112616   5.529   3.803   5.438 -1.8603  1.0601 -1.8568
 2090SOL    HW212617   5.641   3.877   5.507 -1.5708 -1.4019  0.4960
 2091SOL     OW12618   4.954   7.959   7.480 -1.0499 -0.3433 -0.8446
 2091SOL    HW112619   4.985   8.030   7.424 -2.1424  1.5264  0.7889
 2091SOL    HW212620   4.959   7.995   7.569  0.3553 -3.0763  0.3191
 2092SOL     OW12621   1.869   8.467   5.461 -0.4604  0.2298  0.1837
 2092SOL    HW112622   1.936   8.401   5.443 -0.9885 -0.0376 -0.8773
 2092SOL    HW212623   1.823   8.433   5.537  0.3446  0.2192  0.6834
 2093SOL     OW12624   7.319   1.073   0.974 -0.4449  0.5044  0.0918
 2093SOL    HW112625   7.400   1.062   1.023 -0.9315  0.5629  0.9516
 2093SOL    HW212626   7.285   0.985   0.963 -0.3597  0.4954 -0.1043
 2094SOL     OW12627   8.321   1.939   0.471 -0.2938  0.0841  0.7144
 2094SOL    HW112628   8.244   1.994   0.457 -0.0283  0.3952  0.4853
 2094SOL    HW212629   8.291   1.851   0.449 -1.0247 -0.0431  2.1168
 2095SOL     OW12630   2.775   4.216   2.140 -0.0302  0.0925  0.0439
 2095SOL    HW112631   2.685   4.190   2.119 -0.1643  0.8220 -0.3364
 2095SOL    HW212632   2.773   4.235   2.233 -0.2501 -0.0035  0.0598
 2096SOL     OW12633   6.567   1.536   2.513 -0.1655  0.0973 -0.1300
 2096SOL    HW112634   6.494   1.476   2.524  0.1141 -0.2294 -0.0310
 2096SOL    HW212635   6.645   1.480   2.519  0.1578  0.6888  1.6040
 2097SOL     OW12636   7.241   8.681   7.373 -0.6278 -0.7726 -0.1860
 2097SOL    HW112637   7.216   8.689   7.465  1.2492 -2.0915  0.5034
 2097SOL    HW212638   7.176   8.622   7.335 -1.4235 -0.2042  0.2764
 2098SOL     OW12639   5.077   6.569   4.367 -0.0893 -0.8552 -0.0255
 2098SOL    HW112640   5.072   6.599   4.458 -0.9745  1.4596 -0.7716
 2098SOL    HW212641   4.986   6.560   4.339  0.1763 -1.5041 -0.7151
 2099SOL     OW12642   0.503   6.480   5.480  0.0475 -0.2286  0.1489
 2099SOL    HW112643   0.569   6.452   5.417 -1.1087 -1.3094 -0.6291
 2099SOL    HW212644   0.552   6.529   5.546  1.5806 -0.7874 -0.5305
 2100SOL     OW12645   1.088   2.510   4.414 -0.7012 -0.8045 -0.1580
 2100SOL    HW112646   1.110   2.542   4.501  0.3676 -1.5342 -0.1399
 2100SOL    HW212647   0.997   2.479   4.422 -1.0909  0.4203  0.3093
 2101SOL     OW12648   8.904   6.726   4.579 -0.0342 -0.6652  0.0772
 2101SOL    HW112649   8.955   6.771   4.512  1.9987 -1.1458  1.1944
 2101SOL    HW212650   8.949   6.641   4.589  0.5893 -0.0961  2.9283
 2102SOL     OW12651   1.769   5.245   5.399  0.2738 -0.1065 -0.2756
 2102SOL    HW112652   1.695   5.185   5.402 -1.2261  1.7172  2.6139
 2102SOL    HW212653   1.819   5.217   5.322 -1.9299 -3.0874 -0.7811
 2103SOL     OW12654   6.650   5.858   1.739 -0.2225  0.1595 -0.2867
 2103SOL    HW112655   6.612   5.861   1.827 -1.6139  0.2120 -0.8717
 2103SOL    HW212656   6.632   5.769   1.708 -0.1709  0.2967 -0.7119
 2104SOL     OW12657   5.662   6.174   3.425  0.1920 -0.3273  0.5590
 2104SOL    HW112658   5.645   6.190   3.332  0.7561  2.6294  0.8559
 2104SOL    HW212659   5.753   6.145   3.428  0.3402  0.0798  0.2027
 2105SOL     OW12660   2.210   7.388   7.636 -0.4844 -0.5639  0.1880
 2105SOL    HW112661   2.300   7.404   7.663 -0.3048 -0.5381 -0.4146
 2105SOL    HW212662   2.217   7.324   7.565 -0.8180  0.5537 -0.8865
 2106SOL     OW12663   6.742   3.388   4.090 -0.0267  0.3053 -0.4550
 2106SOL    HW112664   6.800   3.344   4.153  0.5131  1.6389  0.0328
 2106SOL    HW212665   6.675   3.429   4.145  0.4625  1.4981 -0.7241
 2107SOL     OW12666   0.139   9.187   3.218  0.1949  0.0810  0.2981
 2107SOL    HW112667   0.176   9.229   3.140 -0.6538 -0.8374 -0.6401
 2107SOL    HW212668   0.204   9.200   3.286  0.0696  2.6841 -0.0045
 2108SOL     OW12669   2.643   6.300   4.568 -0.5214 -0.0405 -0.4702
 2108SOL    HW112670   2.721   6.299   4.625  0.0094  1.8229 -1.0836
 2108SOL    HW212671   2.569   6.303   4.629  0.0174  1.3342  0.1714
 2109SOL     OW12672   7.760   8.165   8.386 -0.5389  0.1519  0.1064
 2109SOL    HW112673   7.834   8.174   8.446 -0.4133  0.7892 -0.1353
 2109SOL    HW212674   7.691   8.125   8.439  0.6102 -2.4233 -0.1915
 2110SOL     OW12675   1.699   8.802   1.026 -0.2613 -0.0195 -0.5885
 2110SOL    HW112676   1.743   8.719   1.047 -0.3774 -0.2067 -1.0874
 2110SOL    HW212677   1.740   8.866   1.086 -1.5991 -0.8146  1.2713
 2111SOL     OW12678   4.485   0.412   2.763 -0.5290 -0.4464  0.5493
 2111SOL    HW112679   4.543   0.338   2.777 -0.0846 -0.0618  0.7617
 2111SOL    HW212680   4.542   0.489   2.763 -0.8384 -0.1872 -0.7464
 2112SOL     OW12681   7.275   0.524   7.432  0.6944 -0.0159 -0.0543
 2112SOL    HW112682   7.212   0.508   7.362  1.0351  2.0301 -0.9094
 2112SOL    HW212683   7.269   0.618   7.449  1.1625 -0.3234  2.1803
 2113SOL     OW12684   6.112   7.488   5.047 -0.6170 -0.5974 -0.4325
 2113SOL    HW112685   6.107   7.534   5.131 -0.4873  0.7640 -1.1359
 2113SOL    HW212686   6.194   7.518   5.008  0.1684 -2.4871 -0.3609
 2114SOL     OW12687   7.096   8.379   0.383 -0.2332 -0.3157  0.1240
 2114SOL    HW112688   7.078   8.364   0.291 -0.9683  0.5907  0.1111
 2114SOL    HW212689   7.167   8.444   0.384 -0.2453 -0.3031  0.1971
 2115SOL     OW12690   1.036   1.515   1.185 -0.1711  0.4138  0.0657
 2115SOL    HW112691   1.016   1.537   1.276  0.1867 -0.1099  0.2687
 2115SOL    HW212692   1.093   1.439   1.189  0.3090  0.7247 -0.5820
 2116SOL     OW12693   3.315   1.922   4.725  0.1278  0.3603 -0.1961
 2116SOL    HW112694   3.357   1.856   4.780  0.5092 -0.6116 -1.5985
 2116SOL    HW212695   3.372   1.931   4.650 -0.3576  1.7024 -0.4433
 2117SOL     OW12696   6.759   0.411   1.424 -0.5815 -0.0460  0.2292
 2117SOL    HW112697   6.791   0.495   1.457  1.2531 -0.6408  0.0597
 2117SOL    HW212698   6.726   0.431   1.337  1.0686  0.2990 -0.3529
 2118SOL     OW12699   7.662   1.522   3.600  0.0236 -0.3067 -0.4038
 2118SOL    HW112700   7.728   1.536   3.532  0.6616  0.3087  0.3229
 2118SOL    HW212701   7.682   1.435   3.635  1.9613  0.7855  1.3938
 2119SOL     OW12702   5.495   8.677   7.125  0.1951 -0.3830 -0.1979
 2119SOL    HW112703   5.534   8.621   7.192 -0.2602  0.6404  0.9609
 2119SOL    HW212704   5.407   8.641   7.113  0.8259 -1.5552 -1.4529
 2120SOL     OW12705   2.105   3.102   8.026  0.0941 -0.3082 -0.3174
 2120SOL    HW112706   2.087   3.193   8.003 -0.7055 -0.5562 -0.7229
 2120SOL    HW212707   2.019   3.060   8.024  0.3996 -0.9744  0.3012
 2121SOL     OW12708   6.098   7.620   4.362 -0.3266  0.0447 -0.4362
 2121SOL    HW112709   6.119   7.612   4.269 -0.3648 -3.3755 -0.2702
 2121SOL    HW212710   6.003   7.612   4.367 -0.1887 -1.7892 -0.0336
 2122SOL     OW12711   3.300   4.025   0.325 -0.1443  0.2530 -0.0286
 2122SOL    HW112712   3.217   4.067   0.303 -0.9005 -0.4759  1.3033
 2122SOL    HW212713   3.294   3.937   0.288  0.3621  0.4439 -0.5829
 2123SOL     OW12714   4.523   8.436   4.146  0.1034  0.2312 -0.1858
 2123SOL    HW112715   4.476   8.412   4.066 -0.8166  0.6100  0.2174
 2123SOL    HW212716   4.482   8.518   4.173 -0.2419 -0.3618  1.1688
 2124SOL     OW12717   7.365   8.825   0.199 -0.0451  0.1825  0.2956
 2124SOL    HW112718   7.275   8.791   0.201 -0.0196 -0.2249 -2.2918
 2124SOL    HW212719   7.356   8.915   0.233 -0.8806 -0.7621  2.8071
 2125SOL     OW12720   6.505   0.379   3.867 -0.1327 -0.0854  0.2909
 2125SOL    HW112721   6.462   0.436   3.931 -0.7813  2.0209 -1.8549
 2125SOL    HW212722   6.598   0.401   3.874 -0.3007  0.7828 -0.0504
 2126SOL     OW12723   5.980   6.477   3.864  0.2470  0.1128  0.4947
 2126SOL    HW112724   5.903   6.507   3.913  0.1531  0.7754 -0.0465
 2126SOL    HW212725   5.944   6.429   3.789  0.3227  1.3665 -0.3644
 2127SOL     OW12726   2.588   6.462   7.593  0.5675  0.1103 -0.1120
 2127SOL    HW112727   2.538   6.537   7.560  0.0896  0.8179  2.0750
 2127SOL    HW212728   2.584   6.398   7.522 -0.5316  1.4690 -1.3396
 2128SOL     OW12729   7.538   5.413   6.482  0.1272  0.0092 -0.6744
 2128SOL    HW112730   7.551   5.508   6.474  3.3155 -0.4293 -2.6055
 2128SOL    HW212731   7.511   5.385   6.394  0.4196 -1.0113 -0.4529
 2129SOL     OW12732   7.728   1.379   0.294  0.1992 -0.0532 -0.1081
 2129SOL    HW112733   7.641   1.346   0.317  0.0372  1.3716  1.5057
 2129SOL    HW212734   7.787   1.306   0.312 -0.4266 -0.3471  0.8394
 2130SOL     OW12735   1.408   7.373   9.093  0.4613  0.7920  0.6211
 2130SOL    HW112736   1.322   7.407   9.115 -0.8839 -0.7821 -1.7732
 2130SOL    HW212737   1.425   7.406   9.005  0.6834 -1.6903 -0.3338
 2131SOL     OW12738   2.985   5.604   3.289 -0.7909 -0.0750  0.2633
 2131SOL    HW112739   2.899   5.608   3.332 -1.0374  1.2748 -0.3223
 2131SOL    HW212740   2.965   5.577   3.199 -0.6586  0.6919 -0.0005
 2132SOL     OW12741   2.391   6.171   8.044  0.8782 -0.1862  0.7242
 2132SOL    HW112742   2.387   6.256   8.088  0.5700 -0.2740  0.8675
 2132SOL    HW212743   2.302   6.156   8.012  0.6583 -0.9630  1.6702
 2133SOL     OW12744   6.431   6.450   6.317 -0.1722  0.0605  0.1835
 2133SOL    HW112745   6.394   6.526   6.360  0.2756 -0.0171  0.7127
 2133SOL    HW212746   6.447   6.387   6.387 -3.3879 -1.8050 -0.5051
 2134SOL     OW12747   1.547   0.057   4.312  0.3995 -0.2096 -0.1527
 2134SOL    HW112748   1.468   0.094   4.272 -0.4688 -1.1548  0.5904
 2134SOL    HW212749   1.513  -0.010   4.372  1.6828  0.3966  1.3303
 2135SOL     OW12750   3.632   1.189   2.723  0.3346  0.1632  0.3641
 2135SOL    HW112751   3.726   1.178   2.736  0.2943  0.4338  0.8975
 2135SOL    HW212752   3.619   1.283   2.717  0.1306  0.1155  0.0290
 2136SOL     OW12753   0.739   8.898   4.111  0.1334 -0.0417 -0.2005
 2136SOL    HW112754   0.728   8.830   4.045 -0.8155 -0.5452  0.4503
 2136SOL    HW212755   0.824   8.879   4.150 -0.1109 -0.8603 -0.0428
 2137SOL     OW12756   3.214   2.543   3.744 -0.0495  0.0860 -0.0244
 2137SOL    HW112757   3.245   2.453   3.731  1.6090  0.3871  1.3660
 2137SOL    HW212758   3.141   2.534   3.806 -0.5834 -0.3761 -0.7081
 2138SOL     OW12759   3.824   2.991   1.444 -0.2031  0.5114 -0.4152
 2138SOL    HW112760   3.830   2.982   1.349 -1.0585  1.3117 -0.5573
 2138SOL    HW212761   3.898   2.941   1.477 -0.1916 -0.2036 -1.4770
 2139SOL     OW12762   1.048   2.195   0.398  0.1922 -0.6069  0.0874
 2139SOL    HW112763   1.009   2.176   0.483 -0.9804  0.6663 -0.1278
 2139SOL    HW212764   1.013   2.127   0.340  1.6214 -1.9577  0.7527
 2140SOL     OW12765   3.879   1.393   9.160  0.0678  0.9615  0.6975
 2140SOL    HW112766   3.813   1.349   9.214  0.2597  1.0084  0.9749
 2140SOL    HW212767   3.961   1.378   9.207  0.4074  0.0472 -0.1604
 2141SOL     OW12768   6.627   3.628   0.719 -0.1105 -0.4302 -0.4299
 2141SOL    HW112769   6.587   3.551   0.761 -1.5617  0.8269  0.6110
 2141SOL    HW212770   6.655   3.683   0.793  2.5396 -0.6734 -1.1244
 2142SOL     OW12771   3.100   2.664   1.620 -0.4338 -0.3765  0.2004
 2142SOL    HW112772   3.084   2.661   1.715  0.7143  1.9260  0.5495
 2142SOL    HW212773   3.182   2.712   1.612  0.2279 -1.7441 -1.9471
 2143SOL     OW12774   4.520   8.335   4.501 -0.6238 -0.1851  0.5609
 2143SOL    HW112775   4.605   8.377   4.485 -0.4438 -1.3014 -1.9736
 2143SOL    HW212776   4.489   8.310   4.414 -2.7326 -1.4222  1.5798
 2144SOL     OW12777   1.693   4.707   6.700  0.1921 -0.1712 -0.0666
 2144SOL    HW112778   1.732   4.746   6.778 -1.2762  1.4908 -0.1038
 2144SOL    HW212779   1.732   4.756   6.627  0.3354 -0.6090 -0.2882
 2145SOL     OW12780   4.245   4.515   5.328  0.2778 -0.2460 -0.1983
 2145SOL    HW112781   4.178   4.573   5.293 -0.1242 -0.5069  0.1308
 2145SOL    HW212782   4.322   4.571   5.338  0.1767  0.0011 -0.7865
 2146SOL     OW12783   8.358   7.087   1.340  0.1620  0.0348 -0.8869
 2146SOL    HW112784   8.372   7.064   1.432  0.3517  1.8300 -0.4296
 2146SOL    HW212785   8.355   7.183   1.340 -3.4919  0.0624 -2.2099
 2147SOL     OW12786   8.632   4.257   7.598  0.2668  0.4905 -0.1521
 2147SOL    HW112787   8.551   4.277   7.646  1.0111  0.0106  1.3438
 2147SOL    HW212788   8.652   4.338   7.551 -0.9540  0.6883 -0.3775
 2148SOL     OW12789   7.389   8.076   7.585  0.3680 -0.2700  0.4551
 2148SOL    HW112790   7.464   8.073   7.525  0.2900  0.4889  0.3043
 2148SOL    HW212791   7.336   8.001   7.560  1.0098 -0.7348  0.4715
 2149SOL     OW12792   0.984   8.239   1.422  0.0821 -0.4095  0.1379
 2149SOL    HW112793   1.074   8.258   1.396 -0.0138  1.9868  1.2122
 2149SOL    HW212794   0.981   8.261   1.516 -1.6747 -0.1054  0.0501
 2150SOL     OW12795   1.729   1.401   2.642  0.4154 -0.1758 -0.3368
 2150SOL    HW112796   1.719   1.444   2.727  0.3598 -0.4167 -0.2187
 2150SOL    HW212797   1.651   1.344   2.635 -0.0002  0.4564 -0.9162
 2151SOL     OW12798   7.777   3.113   8.733  0.4179 -0.0999  0.2647
 2151SOL    HW112799   7.806   3.180   8.671  1.5366 -0.0826  0.7921
 2151SOL    HW212800   7.794   3.030   8.687 -0.0286 -0.0537  0.0115
 2152SOL     OW12801   2.107   1.798   5.368 -0.0525 -0.2948  0.0663
 2152SOL    HW112802   2.101   1.864   5.299 -0.0971 -0.5266 -0.1515
 2152SOL    HW212803   2.184   1.823   5.419 -0.7036  0.5780  0.6656
 2153SOL     OW12804   8.046   8.199   6.294 -0.0787  0.3331  0.2936
 2153SOL    HW112805   8.102   8.263   6.338 -0.6759 -0.0191  1.6244
 2153SOL    HW212806   8.016   8.244   6.215  0.2899  1.3373  0.7104
 2154SOL     OW12807   7.906   0.997   4.365  0.3878  0.1301 -0.1353
 2154SOL    HW112808   8.001   0.987   4.370  0.3148 -0.5473  4.5954
 2154SOL    HW212809   7.876   0.918   4.321  1.9334 -0.3225 -0.4345
 2155SOL     OW12810   6.690   0.525   0.570 -0.0935  0.3740 -0.1927
 2155SOL    HW112811   6.724   0.613   0.555 -0.3226  0.1647 -2.0657
 2155SOL    HW212812   6.595   0.535   0.568 -0.1216  0.0011 -1.0363
 2156SOL     OW12813   7.349   7.787   7.352  0.1088  0.2581  0.2594
 2156SOL    HW112814   7.366   7.862   7.295 -1.5516 -0.5869 -1.4480
 2156SOL    HW212815   7.301   7.824   7.427 -1.0911  0.8587 -0.7812
 2157SOL     OW12816   1.127   1.791   2.410  0.2370  0.0700  0.4691
 2157SOL    HW112817   1.111   1.861   2.473  1.2947  0.4350  0.3551
 2157SOL    HW212818   1.187   1.829   2.346  0.1143 -0.6646 -0.1009
 2158SOL     OW12819   3.938   8.533   8.596  0.1477 -0.1656 -0.6035
 2158SOL    HW112820   4.005   8.466   8.613 -0.1806  0.2024  3.0249
 2158SOL    HW212821   3.983   8.616   8.610 -0.6689  0.1223  0.5108
 2159SOL     OW12822   8.450   4.376   1.435 -0.7344 -0.3089  0.0178
 2159SOL    HW112823   8.451   4.390   1.341 -0.9601 -2.0348 -0.2730
 2159SOL    HW212824   8.485   4.287   1.447  0.3206  0.2788  1.6440
 2160SOL     OW12825   8.276   5.189   1.781  0.0075 -0.4599  0.2380
 2160SOL    HW112826   8.317   5.260   1.830  0.2635  0.6898 -1.5444
 2160SOL    HW212827   8.311   5.197   1.692 -4.3641  1.0131 -1.6493
 2161SOL     OW12828   1.634   9.227   0.763 -0.1589  0.1832  0.3113
 2161SOL    HW112829   1.662   9.318   0.773 -1.5494  0.4934  2.1039
 2161SOL    HW212830   1.539   9.233   0.748  0.1250 -0.9133 -2.5845
 2162SOL     OW12831   0.195   3.761   2.248  0.5208  0.5183  0.4225
 2162SOL    HW112832   0.107   3.727   2.228  1.0868  0.4347 -2.2384
 2162SOL    HW212833   0.233   3.781   2.163  2.1411  3.0873  1.6483
 2163SOL     OW12834   4.308   2.787   6.043  0.2413 -0.2317 -0.6578
 2163SOL    HW112835   4.243   2.846   6.083 -0.1702 -0.6965 -0.6256
 2163SOL    HW212836   4.383   2.842   6.026  0.7635 -0.1631  1.5389
 2164SOL     OW12837   8.070   2.738   7.100 -0.4750  0.5308  0.3256
 2164SOL    HW112838   8.138   2.783   7.149 -0.9747  1.4662  0.1799
 2164SOL    HW212839   8.092   2.645   7.109  0.5301  0.7889  0.6883
 2165SOL     OW12840   4.189   5.804   2.686 -0.4443  0.6039  0.3960
 2165SOL    HW112841   4.231   5.738   2.740 -1.5139 -0.1969  0.2712
 2165SOL    HW212842   4.252   5.876   2.683  1.0598 -0.6874 -0.0714
 2166SOL     OW12843   9.142   3.096   8.129 -0.0182  0.1514 -0.4373
 2166SOL    HW112844   9.172   3.032   8.065  2.4063  0.9837 -0.2366
 2166SOL    HW212845   9.063   3.058   8.166 -0.6892 -1.0230 -2.8619
 2167SOL     OW12846   2.358   0.523   2.470  0.1514 -0.6580  0.1200
 2167SOL    HW112847   2.363   0.467   2.393  1.4468 -0.1249 -0.2047
 2167SOL    HW212848   2.326   0.607   2.435  0.8009 -0.3981  0.1433
 2168SOL     OW12849   2.760   7.092   0.211  0.0327 -0.2178  0.1394
 2168SOL    HW112850   2.674   7.109   0.174 -0.3758 -0.0528  1.1368
 2168SOL    HW212851   2.787   7.008   0.172 -0.4742 -0.1526 -0.3506
 2169SOL     OW12852   1.604   8.480   1.627  0.0487 -0.0845 -0.5775
 2169SOL    HW112853   1.612   8.485   1.532  1.4496 -0.4845 -0.5018
 2169SOL    HW212854   1.675   8.536   1.659 -0.2026 -0.2233  0.2260
 2170SOL     OW12855   4.893   5.911   0.308  0.1045  0.0473 -0.4255
 2170SOL    HW112856   4.833   5.929   0.381  1.4503  2.7061  0.1397
 2170SOL    HW212857   4.883   5.986   0.250  0.3688 -1.1737 -2.1021
 2171SOL     OW12858   0.855   2.720   5.732 -0.4580 -0.1635  0.2012
 2171SOL    HW112859   0.821   2.631   5.734  0.9933 -0.7500  0.5335
 2171SOL    HW212860   0.790   2.773   5.779 -1.3943 -1.0166 -0.1081
 2172SOL     OW12861   7.339   3.689   8.164 -0.3828  0.2440 -0.2984
 2172SOL    HW112862   7.356   3.736   8.246 -0.6273  0.4020 -0.3366
 2172SOL    HW212863   7.403   3.618   8.164 -1.8195 -1.1252  1.1046
 2173SOL     OW12864   2.875   3.602   1.061  0.5750 -0.0204  0.8678
 2173SOL    HW112865   2.899   3.637   0.976  0.2996 -0.0549  0.7759
 2173SOL    HW212866   2.833   3.675   1.106 -0.5444 -0.3959  0.4525
 2174SOL     OW12867   6.915   1.117   7.985  0.0546  0.3402  0.2128
 2174SOL    HW112868   7.008   1.097   7.971 -0.1715  0.3443 -1.4205
 2174SOL    HW212869   6.869   1.066   7.919 -0.8816  2.6792 -1.0690
 2175SOL     OW12870   6.376   4.829   1.066 -0.2341 -0.5468  0.2949
 2175SOL    HW112871   6.359   4.763   0.998 -0.3974 -1.1055  0.8668
 2175SOL    HW212872   6.419   4.900   1.020 -0.0847 -1.0418 -0.3450
 2176SOL     OW12873   6.985   9.106   1.318  0.0174  0.0862 -0.9265
 2176SOL    HW112874   6.966   9.037   1.381  0.9646  0.5851 -0.0698
 2176SOL    HW212875   6.967   9.188   1.364  1.5404  0.4835 -0.9835
 2177SOL     OW12876   9.057   8.206   3.152 -0.1771 -0.2584 -0.8721
 2177SOL    HW112877   8.972   8.173   3.123 -0.2330 -0.9952  0.0723
 2177SOL    HW212878   9.107   8.127   3.174  0.4430  0.2004 -0.6103
 2178SOL     OW12879   1.042   7.156   3.038 -0.3835  0.1860 -0.2223
 2178SOL    HW112880   1.083   7.205   2.967  0.3616 -0.8963 -0.5648
 2178SOL    HW212881   1.054   7.211   3.115 -0.3780  0.9506 -0.7540
 2179SOL     OW12882   0.040   7.253   2.648 -0.2281  0.1457  0.7140
 2179SOL    HW112883   0.115   7.255   2.589 -0.4335  1.1445  0.4751
 2179SOL    HW212884  -0.033   7.221   2.594 -0.3929  0.9619  0.4427
 2180SOL     OW12885   2.918   7.357   5.033  0.3030  0.1239  0.3340
 2180SOL    HW112886   2.863   7.433   5.053  0.6502 -0.0546  2.1274
 2180SOL    HW212887   2.942   7.368   4.941 -0.8665  1.3939  0.1577
 2181SOL     OW12888   0.362   2.389   6.285 -0.0178  0.4438  0.5293
 2181SOL    HW112889   0.360   2.408   6.192  1.0605  2.2397  0.8245
 2181SOL    HW212890   0.439   2.334   6.297 -0.0791  0.3262  0.3771
 2182SOL     OW12891   5.025   4.648   7.398  0.3796 -0.1869  0.0065
 2182SOL    HW112892   4.952   4.681   7.451  0.4962  0.5527 -0.2684
 2182SOL    HW212893   5.061   4.727   7.356  0.7232 -0.6679 -0.6222
 2183SOL     OW12894   7.955   2.782   2.305  0.4170  0.0587  0.0408
 2183SOL    HW112895   8.038   2.796   2.260  0.1390  1.3747 -0.0889
 2183SOL    HW212896   7.923   2.869   2.326  0.2497 -0.4864  2.3117
 2184SOL     OW12897   6.455   1.874   4.151  0.2546  0.7470 -0.1839
 2184SOL    HW112898   6.419   1.933   4.216 -0.1825  1.6197 -1.1895
 2184SOL    HW212899   6.483   1.797   4.201 -1.3368  0.7979  0.8643
 2185SOL     OW12900   0.598   8.654   5.933 -0.1588  0.1561 -0.4363
 2185SOL    HW112901   0.612   8.729   5.875  1.1824 -0.3987 -0.8803
 2185SOL    HW212902   0.659   8.667   6.005  0.0012 -0.4457 -0.4585
 2186SOL     OW12903   8.423   0.054   3.582 -0.1170  1.0242 -0.8521
 2186SOL    HW112904   8.334   0.060   3.548 -0.4625  1.7224  0.1433
 2186SOL    HW212905   8.427   0.119   3.652  0.6575 -0.1941  0.2795
 2187SOL     OW12906   3.417   7.606   5.704  0.1343  0.2511  0.7028
 2187SOL    HW112907   3.504   7.605   5.743  1.1265  2.2512 -1.2794
 2187SOL    HW212908   3.420   7.537   5.637 -0.7070 -1.3594  2.2116
 2188SOL     OW12909   0.961   3.360   5.223 -0.6604 -0.6701 -0.1579
 2188SOL    HW112910   0.866   3.350   5.234 -0.6737 -0.3948 -0.0278
 2188SOL    HW212911   0.979   3.319   5.138 -0.8829 -0.7964 -0.1468
 2189SOL     OW12912   7.044   8.628   3.437 -0.1289 -0.1053  0.1519
 2189SOL    HW112913   7.024   8.658   3.526  0.7698  0.6321  0.1238
 2189SOL    HW212914   7.021   8.701   3.381  1.2502  0.2315 -0.0090
 2190SOL     OW12915   3.937   3.231   2.200 -0.6109 -0.2639  0.5567
 2190SOL    HW112916   3.865   3.285   2.232 -0.9294 -0.0399 -0.5068
 2190SOL    HW212917   3.910   3.204   2.112  0.3659 -0.6252  0.3541
 2191SOL     OW12918   5.228   1.191   5.030  0.4594  0.0373 -0.4635
 2191SOL    HW112919   5.302   1.195   5.091  0.4976  0.5203 -0.5390
 2191SOL    HW212920   5.232   1.103   4.993  0.9675  0.0468 -0.4333
 2192SOL     OW12921   8.122   3.754   3.818  0.0335  0.2918 -0.6532
 2192SOL    HW112922   8.026   3.755   3.824  0.0866  0.1568  0.3331
 2192SOL    HW212923   8.152   3.744   3.908  0.9916  1.0826 -0.8643
 2193SOL     OW12924   2.479   5.734   7.521 -0.0567  0.7832 -0.0297
 2193SOL    HW112925   2.550   5.791   7.492 -0.1047  1.1520  0.5589
 2193SOL    HW212926   2.428   5.718   7.442  2.9409 -2.9330 -1.5528
 2194SOL     OW12927   8.454   8.072   7.663  0.0677  0.2322  0.0946
 2194SOL    HW112928   8.510   8.125   7.606  1.1603 -0.9358  0.0523
 2194SOL    HW212929   8.513   8.008   7.702 -1.3288 -1.4509 -0.4276
 2195SOL     OW12930   6.390   6.960   7.045 -0.0499 -1.1587  0.1432
 2195SOL    HW112931   6.336   7.036   7.027  1.1625 -0.4000 -0.4522
 2195SOL    HW212932   6.363   6.895   6.981  0.1765 -0.5488 -0.5943
 2196SOL     OW12933   6.982   5.771   5.188  0.1998  0.2084  0.6895
 2196SOL    HW112934   6.981   5.695   5.131  3.0366  0.1735  0.5432
 2196SOL    HW212935   6.897   5.813   5.174 -0.8480 -2.0776 -0.3341
 2197SOL     OW12936   4.251   8.642   1.518  0.4271  0.1746 -0.1468
 2197SOL    HW112937   4.283   8.572   1.461 -1.3165 -0.6782 -0.1692
 2197SOL    HW212938   4.177   8.679   1.469 -0.7403 -0.1905  1.2754
 2198SOL     OW12939   3.206   2.628   5.921  0.1081  0.9930 -0.1596
 2198SOL    HW112940   3.288   2.679   5.922 -0.2689  1.6226  1.0727
 2198SOL    HW212941   3.193   2.602   6.012  0.0073 -0.9090 -0.6717
 2199SOL     OW12942   4.299   9.105   5.913  0.6123  0.4203 -0.1218
 2199SOL    HW112943   4.222   9.144   5.872 -0.1234  1.0678  1.7544
 2199SOL    HW212944   4.265   9.063   5.993  2.0860 -0.0152  0.3077
 2200SOL     OW12945   2.870   0.414   6.515  0.3510 -0.2250  0.1784
 2200SOL    HW112946   2.793   0.461   6.484  0.4514 -0.0252  0.2269
 2200SOL    HW212947   2.888   0.349   6.447  1.1078  0.7985 -0.6301
 2201SOL     OW12948   7.164   2.766   8.609  0.9280  0.1429 -0.2035
 2201SOL    HW112949   7.144   2.673   8.616  3.2904 -0.4052 -0.0000
 2201SOL    HW212950   7.115   2.795   8.532  0.4974 -1.3596 -0.5325
 2202SOL     OW12951   8.614   5.621   4.986 -0.4300 -0.7776 -0.0039
 2202SOL    HW112952   8.622   5.672   5.067 -0.7115  0.5446 -0.7678
 2202SOL    HW212953   8.605   5.530   5.014 -1.1420 -0.2702  1.4651
 2203SOL     OW12954   5.837   5.261   6.704 -0.4255 -0.3380  0.2151
 2203SOL    HW112955   5.921   5.245   6.746  0.2593  1.0871 -0.5368
 2203SOL    HW212956   5.856   5.254   6.610 -1.2104 -0.2540  0.0470
 2204SOL     OW12957   1.815   2.273   4.393 -0.0013  0.5023  0.0385
 2204SOL    HW112958   1.720   2.264   4.390  0.2324 -2.3156 -1.8774
 2204SOL    HW212959   1.835   2.334   4.321 -0.4058  3.1547  2.0130
 2205SOL     OW12960   6.393   2.126   7.948 -0.0732 -0.1416 -0.3147
 2205SOL    HW112961   6.462   2.076   7.991  0.2396 -0.9606 -1.7204
 2205SOL    HW212962   6.358   2.067   7.881 -0.7147  0.9935 -1.0253
 2206SOL     OW12963   3.073   5.404   8.648  0.0870  0.3368  0.3052
 2206SOL    HW112964   2.986   5.415   8.687  1.3216  3.2811  2.6180
 2206SOL    HW212965   3.112   5.330   8.696 -0.6871 -0.2345  0.0713
 2207SOL     OW12966   8.790   0.044   5.400  0.1283 -0.0025  0.2502
 2207SOL    HW112967   8.742   0.124   5.378  1.7242  1.0729  0.4912
 2207SOL    HW212968   8.871   0.075   5.440  1.3441 -1.6992 -0.7381
 2208SOL     OW12969   5.603   2.745   2.726 -0.2083  0.0251  0.4468
 2208SOL    HW112970   5.626   2.735   2.633  0.8471  0.5563  0.6382
 2208SOL    HW212971   5.511   2.719   2.730 -0.6605  1.2474 -0.9825
 2209SOL     OW12972   2.836   1.509   7.748  0.2077  0.2030  0.0349
 2209SOL    HW112973   2.793   1.424   7.741 -0.6415  0.4576  1.6472
 2209SOL    HW212974   2.789   1.565   7.686  1.0793 -0.5653 -1.3944
 2210SOL     OW12975   5.073   0.482   5.765 -0.5180 -0.0169 -0.1311
 2210SOL    HW112976   5.038   0.432   5.839 -1.9209  1.2094  0.0719
 2210SOL    HW212977   5.018   0.457   5.691 -0.2011  0.0389 -0.3861
 2211SOL     OW12978   2.784   4.734   7.415 -0.0718 -0.0340  0.0138
 2211SOL    HW112979   2.728   4.792   7.364 -0.0682 -0.9315 -1.0336
 2211SOL    HW212980   2.867   4.781   7.423 -0.5026  0.6812  0.3400
 2212SOL     OW12981   1.011   1.794   3.720 -0.2546 -0.3319 -0.1880
 2212SOL    HW112982   1.042   1.710   3.754 -0.3488 -0.2438  0.1165
 2212SOL    HW212983   1.090   1.838   3.689 -0.1444 -0.3311  0.0917
 2213SOL     OW12984   8.270   1.166   8.232  0.2135 -0.0448  0.6769
 2213SOL    HW112985   8.291   1.161   8.139 -0.3640 -1.4424  0.5885
 2213SOL    HW212986   8.231   1.252   8.244 -2.5020 -0.9095 -1.0274
 2214SOL     OW12987   0.928   9.235   7.851 -0.1233  0.1081 -0.1926
 2214SOL    HW112988   0.885   9.318   7.831  0.1840  0.4690  0.6026
 2214SOL    HW212989   0.859   9.179   7.886 -0.5937 -0.4111 -1.8466
 2215SOL     OW12990   0.647   9.229   9.154  0.1508 -0.4393 -0.1429
 2215SOL    HW112991   0.566   9.279   9.151  0.5593  0.2022 -0.9934
 2215SOL    HW212992   0.708   9.284   9.203 -0.3770 -1.6503  1.9810
 2216SOL     OW12993   3.175   9.061   5.718  0.3266 -0.0668 -0.9791
 2216SOL    HW112994   3.090   9.018   5.718 -0.0265  0.5435  0.6885
 2216SOL    HW212995   3.155   9.155   5.713  0.7453  0.2107  1.3700
 2217SOL     OW12996   0.373   2.416   4.387  0.5530  0.0557  0.1973
 2217SOL    HW112997   0.306   2.353   4.362  0.4621 -0.5632  1.8741
 2217SOL    HW212998   0.329   2.475   4.447  0.8129  1.3811 -0.8616
 2218SOL     OW12999   7.629   1.801   3.620 -0.2592 -0.0408  0.0047
 2218SOL    HW113000   7.537   1.820   3.607 -0.2434 -1.9023 -4.7175
 2218SOL    HW213001   7.636   1.706   3.609  2.1895 -0.0209  0.6785
 2219SOL     OW13002   4.661   8.556   0.180  0.1480  0.4665 -0.7507
 2219SOL    HW113003   4.702   8.579   0.264 -2.0298 -2.1121  1.2247
 2219SOL    HW213004   4.713   8.483   0.147  0.2071  0.5981 -0.9490
 2220SOL     OW13005   6.374   3.403   2.117 -0.0542 -0.3248 -0.2824
 2220SOL    HW113006   6.437   3.406   2.044 -0.4887 -0.1174 -0.6514
 2220SOL    HW213007   6.290   3.384   2.076  0.1014 -2.9647  0.4147
 2221SOL     OW13008   7.848   4.960   3.836 -0.6131  0.2178  0.4243
 2221SOL    HW113009   7.918   4.962   3.771 -0.9260  0.3762  0.0882
 2221SOL    HW213010   7.888   4.994   3.916 -0.0903 -0.4582  0.4520
 2222SOL     OW13011   5.112   6.270   7.346  0.3465  0.0508  0.3649
 2222SOL    HW113012   5.057   6.301   7.274 -1.5323  1.4105  2.2652
 2222SOL    HW213013   5.070   6.189   7.376  1.3806 -0.7597 -0.3070
 2223SOL     OW13014   2.064   1.107   4.519 -0.1326  0.0183 -0.3736
 2223SOL    HW113015   1.981   1.060   4.510  0.5441 -1.1460 -0.7389
 2223SOL    HW213016   2.039   1.197   4.538 -1.4783 -0.6278  1.1316
 2224SOL     OW13017   5.978   1.047   0.423 -0.2670  0.6223  0.6587
 2224SOL    HW113018   5.989   1.103   0.347 -1.9098  0.8498  0.5553
 2224SOL    HW213019   5.917   1.094   0.480 -3.4815 -1.8820 -0.4063
 2225SOL     OW13020   8.713   3.010   7.137 -0.1152  0.3339  0.2746
 2225SOL    HW113021   8.651   3.024   7.209 -0.8584  0.8340 -0.4455
 2225SOL    HW213022   8.755   3.095   7.125  2.0635 -0.4187  1.9345
 2226SOL     OW13023   8.479   8.905   6.548  0.2464  0.1941 -0.0604
 2226SOL    HW113024   8.396   8.951   6.563  0.2152  0.1947 -0.2305
 2226SOL    HW213025   8.500   8.924   6.457  0.2193 -0.1544 -0.1404
 2227SOL     OW13026   7.734   8.877   8.026  0.0978  0.0921 -0.4405
 2227SOL    HW113027   7.679   8.943   8.067 -2.0394  0.4855 -3.5922
 2227SOL    HW213028   7.712   8.796   8.072 -0.0889  0.8945  0.9515
 2228SOL     OW13029   0.218   1.764   1.718 -0.1552  0.0018  0.3985
 2228SOL    HW113030   0.260   1.850   1.707  2.5042 -1.1552  0.9340
 2228SOL    HW213031   0.223   1.747   1.812 -2.4043  0.0023  0.5851
 2229SOL     OW13032   0.572   4.063   0.016 -0.1079 -0.2995 -0.0045
 2229SOL    HW113033   0.658   4.105   0.017 -0.7619  1.1249  2.0620
 2229SOL    HW213034   0.585   3.985  -0.039  2.3199  0.1821 -0.2501
 2230SOL     OW13035   2.380   0.282   6.512  0.1120  0.4567 -0.0661
 2230SOL    HW113036   2.344   0.322   6.433  0.1814 -2.3172 -1.6257
 2230SOL    HW213037   2.307   0.230   6.547  0.6245  0.2070  0.6513
 2231SOL     OW13038   2.527   2.805   5.664  0.2838  0.1071  0.0380
 2231SOL    HW113039   2.439   2.812   5.628 -0.0036  1.2905  0.9066
 2231SOL    HW213040   2.585   2.804   5.588 -0.3190  2.3150 -0.5349
 2232SOL     OW13041   7.099   9.026   7.624 -0.3033  0.5172 -0.2055
 2232SOL    HW113042   7.181   8.982   7.647 -1.1692  0.2610  2.9354
 2232SOL    HW213043   7.124   9.118   7.612  0.5353  0.3530  0.2020
 2233SOL     OW13044   4.060   8.041   6.350 -0.1326 -0.4458  0.3503
 2233SOL    HW113045   3.977   8.008   6.315 -0.9558  1.1225  0.6988
 2233SOL    HW213046   4.038   8.069   6.439  1.0157 -0.8843  0.7849
 2234SOL     OW13047   5.273   0.152   4.082  0.5481  0.1084  0.1170
 2234SOL    HW113048   5.275   0.102   4.163  0.0770 -1.3608 -0.7345
 2234SOL    HW213049   5.179   0.160   4.062  0.6438 -2.2427 -1.7987
 2235SOL     OW13050   3.051   4.333   2.823  0.0655 -0.4801  0.2071
 2235SOL    HW113051   2.974   4.364   2.777 -0.8734 -1.0494  1.3614
 2235SOL    HW213052   3.043   4.238   2.822 -0.5187 -0.4914  2.4165
 2236SOL     OW13053   8.127   7.566   6.482 -0.3712 -0.5960 -0.1603
 2236SOL    HW113054   8.119   7.478   6.445  0.3175 -0.6506 -0.1835
 2236SOL    HW213055   8.192   7.557   6.552  1.4759  0.3345 -1.6475
 2237SOL     OW13056   5.239   0.398   1.569 -0.0423 -0.2301  0.0241
 2237SOL    HW113057   5.262   0.480   1.525  0.4954 -0.1361  0.4655
 2237SOL    HW213058   5.194   0.426   1.649 -0.7026 -0.3906 -0.2880
 2238SOL     OW13059   7.012   8.943   8.494  0.1928 -0.0462 -0.3896
 2238SOL    HW113060   7.020   8.892   8.575 -0.0393 -0.2676 -0.5037
 2238SOL    HW213061   7.102   8.967   8.472  0.3591 -0.8305 -0.5953
 2239SOL     OW13062   2.140   8.067   7.724 -0.2463  0.3361  0.2507
 2239SOL    HW113063   2.214   8.076   7.664 -1.8090 -2.0177 -2.2263
 2239SOL    HW213064   2.156   7.986   7.771 -1.5177 -0.6200 -0.8666
 2240SOL     OW13065   3.646   8.824   6.966  0.3914 -0.4810  0.1638
 2240SOL    HW113066   3.725   8.877   6.957  0.0494 -0.2657 -1.9611
 2240SOL    HW213067   3.651   8.761   6.895 -1.4981 -0.2405 -0.2375
 2241SOL     OW13068   3.103   7.586   2.382 -0.0082  0.3959 -0.2418
 2241SOL    HW113069   3.041   7.641   2.334  0.1056  0.4530 -0.3231
 2241SOL    HW213070   3.048   7.534   2.441 -0.1186  0.5622 -0.1988
 2242SOL     OW13071   1.030   8.054   6.414  0.3088 -0.2472  0.5444
 2242SOL    HW113072   0.961   8.033   6.478  0.8541  1.8626  1.9221
 2242SOL    HW213073   0.984   8.101   6.344 -0.3928 -3.0642 -1.0522
 2243SOL     OW13074   0.734   5.402   6.486  0.0649 -0.3874  0.2952
 2243SOL    HW113075   0.731   5.308   6.472 -1.6446 -0.3011 -0.1723
 2243SOL    HW213076   0.820   5.429   6.452  1.1502 -1.9104  1.6784
 2244SOL     OW13077   2.140   8.877   6.239  0.2888  0.3808 -0.2854
 2244SOL    HW113078   2.220   8.824   6.238 -0.2573 -0.6022  1.6318
 2244SOL    HW213079   2.144   8.930   6.160  1.5311 -1.5829 -1.6173
 2245SOL     OW13080   5.995   1.462   3.187  0.1559 -0.0295  0.7631
 2245SOL    HW113081   6.078   1.424   3.215  0.3329  0.1760  0.5225
 2245SOL    HW213082   6.017   1.552   3.161  0.5210 -0.9390 -2.5184
 2246SOL     OW13083   2.602   0.333   3.140  0.0000 -0.1142  0.6124
 2246SOL    HW113084   2.549   0.277   3.085  0.8481  0.6086 -1.0152
 2246SOL    HW213085   2.552   0.414   3.148  0.1714  0.0214  0.3337
 2247SOL     OW13086   4.765   8.383   3.083 -0.4359 -0.4191  0.2557
 2247SOL    HW113087   4.673   8.356   3.075 -0.7707  0.3185  1.3697
 2247SOL    HW213088   4.814   8.302   3.091 -0.9691 -0.8274 -0.5506
 2248SOL     OW13089   7.379   1.971   1.512 -0.7141  0.6877  0.3719
 2248SOL    HW113090   7.432   2.051   1.502  0.1363  0.1860  0.8118
 2248SOL    HW213091   7.316   1.992   1.581 -0.2091  0.8309  0.7907
 2249SOL     OW13092   5.051   7.345   4.580  0.1278  0.2209  0.4265
 2249SOL    HW113093   5.134   7.364   4.536  0.7156 -1.0960  0.9290
 2249SOL    HW213094   5.022   7.430   4.613  0.4662  0.9780 -1.1032
 2250SOL     OW13095   3.545   6.209   9.037  0.5913 -0.3546  0.4364
 2250SOL    HW113096   3.562   6.240   8.948 -2.3701 -1.3477 -0.6013
 2250SOL    HW213097   3.631   6.208   9.079  1.8016  2.1106 -1.7262
 2251SOL     OW13098   2.578   0.790   5.501  0.4872  0.4507 -0.1568
 2251SOL    HW113099   2.528   0.759   5.577  2.3270  2.7846  2.2186
 2251SOL    HW213100   2.522   0.856   5.460  1.0018  2.2922  1.8630
 2252SOL     OW13101   6.137   1.845   9.164 -0.0855 -0.0088  0.3116
 2252SOL    HW113102   6.068   1.900   9.128  0.5486  0.3560 -0.3863
 2252SOL    HW213103   6.212   1.904   9.174  0.0127 -0.2954  1.4607
 2253SOL     OW13104   8.132   1.817   8.973 -0.2839 -0.1758 -0.3178
 2253SOL    HW113105   8.154   1.748   8.911 -1.0165  0.0930 -0.8894
 2253SOL    HW213106   8.184   1.797   9.051 -0.1080 -1.0743 -0.6575
 2254SOL     OW13107   6.801   4.691   2.363  0.2447 -0.1561  0.1593
 2254SOL    HW113108   6.769   4.750   2.295 -1.2690  0.2902  1.1913
 2254SOL    HW213109   6.821   4.750   2.437 -0.7950 -0.8361  1.0259
 2255SOL     OW13110   7.148   0.220   6.401  0.1884 -0.3183 -0.2342
 2255SOL    HW113111   7.236   0.255   6.415  0.7161 -1.0150 -1.5891
 2255SOL    HW213112   7.089   0.289   6.434  1.2135  0.6111 -0.2776
 2256SOL     OW13113   2.061   6.627   1.139 -0.4636  0.5638  0.2119
 2256SOL    HW113114   2.007   6.613   1.217  1.4964  1.1210  1.7673
 2256SOL    HW213115   2.039   6.555   1.080 -2.3651  0.4081  1.0483
 2257SOL     OW13116   6.567   0.559   5.800  0.5814  0.1323 -0.3162
 2257SOL    HW113117   6.575   0.503   5.877 -1.4712 -1.6386 -1.2793
 2257SOL    HW213118   6.539   0.644   5.835 -0.7549 -0.7602  0.9020
 2258SOL     OW13119   6.665   3.625   4.684  0.4642  0.2398 -0.2211
 2258SOL    HW113120   6.646   3.581   4.601 -0.4521  0.1696  0.0222
 2258SOL    HW213121   6.747   3.585   4.714  0.3472 -0.3453 -0.6614
 2259SOL     OW13122   6.280   8.915   6.478 -0.2046 -0.8415 -0.3624
 2259SOL    HW113123   6.285   9.005   6.445  1.2457 -1.2269 -1.2699
 2259SOL    HW213124   6.363   8.875   6.453 -0.9070 -2.5140 -0.1641
 2260SOL     OW13125   5.501   7.987   3.011 -0.5434  0.1714 -0.1851
 2260SOL    HW113126   5.405   7.984   3.018 -0.4890 -0.3016  0.3720
 2260SOL    HW213127   5.532   7.933   3.083  0.1365 -0.1681 -0.7259
 2261SOL     OW13128   0.982   2.952   3.205 -0.3089 -0.4626  0.5033
 2261SOL    HW113129   1.022   2.962   3.119  0.6239  0.5935  1.0354
 2261SOL    HW213130   0.917   2.883   3.194 -0.5482 -0.0003 -1.1660
 2262SOL     OW13131   4.401   5.465   8.942 -0.3189  0.4382 -0.2874
 2262SOL    HW113132   4.329   5.447   8.881 -1.0489 -1.8194  1.1085
 2262SOL    HW213133   4.480   5.457   8.889 -1.0232  2.6276 -1.7810
 2263SOL     OW13134   0.621   2.286   6.032 -0.1080  0.3441  1.0481
 2263SOL    HW113135   0.697   2.236   6.003 -2.4748 -2.6130 -0.6836
 2263SOL    HW213136   0.606   2.256   6.122 -0.3033 -0.5463  0.7316
 2264SOL     OW13137   0.320   0.646   4.994 -0.6109  0.5520  0.0794
 2264SOL    HW113138   0.278   0.636   4.908  0.3780  0.2046 -0.3856
 2264SOL    HW213139   0.257   0.609   5.056 -1.9298  2.0265 -0.3152
 2265SOL     OW13140   2.267   5.460   8.596 -0.3846  0.2114 -0.2620
 2265SOL    HW113141   2.204   5.454   8.668 -0.1068  0.1918 -0.0188
 2265SOL    HW213142   2.342   5.507   8.633 -0.5385  0.8633 -0.7525
 2266SOL     OW13143   3.473   1.638   5.157  0.1276 -0.1777 -0.8292
 2266SOL    HW113144   3.514   1.664   5.240  0.4131  0.7137 -1.2305
 2266SOL    HW213145   3.408   1.572   5.181 -2.1627  2.4021  0.5791
 2267SOL     OW13146   5.830   3.176   1.504  0.7115 -0.0576 -0.7221
 2267SOL    HW113147   5.762   3.238   1.529  1.1850 -0.2241  1.1626
 2267SOL    HW213148   5.799   3.137   1.422  0.8231  3.2180 -2.4640
 2268SOL     OW13149   4.214   7.921   2.895 -0.1748 -0.3101  0.5083
 2268SOL    HW113150   4.190   7.948   2.806 -0.2139 -0.6916  0.4019
 2268SOL    HW213151   4.138   7.946   2.948 -0.8708 -1.5987  0.1546
 2269SOL     OW13152   3.627   0.542   7.284  0.5492 -0.1524  0.4386
 2269SOL    HW113153   3.682   0.620   7.281  1.1461 -0.5677  0.3549
 2269SOL    HW213154   3.647   0.496   7.202  0.4869 -0.5743  0.6538
 2270SOL     OW13155   5.987   6.695   0.713 -0.4429  0.2481  0.5761
 2270SOL    HW113156   5.999   6.718   0.805 -0.8183  0.7677  0.4993
 2270SOL    HW213157   5.971   6.601   0.714 -0.3423  0.2346  1.0351
 2271SOL     OW13158   3.195   8.455   4.765  0.4494  0.3825  0.2158
 2271SOL    HW113159   3.288   8.433   4.760  0.3975  0.1970  0.0786
 2271SOL    HW213160   3.163   8.445   4.676 -0.6007 -3.4324  0.8459
 2272SOL     OW13161   1.950   4.980   1.508 -0.2977  0.1375 -0.5928
 2272SOL    HW113162   1.990   5.023   1.433  0.4525 -1.1194 -0.9548
 2272SOL    HW213163   1.859   4.966   1.482  0.0237 -0.5485 -1.4102
 2273SOL     OW13164   7.410   6.974   7.064 -1.2376  0.9137  0.0080
 2273SOL    HW113165   7.389   6.973   7.158 -1.5167 -1.0449 -0.0365
 2273SOL    HW213166   7.326   6.990   7.021 -1.1224  1.7361  0.0694
 2274SOL     OW13167   1.486   3.067   5.944 -0.2748  0.1463 -0.0018
 2274SOL    HW113168   1.547   3.030   6.008 -0.2112  0.2307 -0.0138
 2274SOL    HW213169   1.491   3.162   5.958 -0.1525  0.1722 -0.2337
 2275SOL     OW13170   7.909   0.121   3.581  0.1153  0.0418 -0.4429
 2275SOL    HW113171   7.876   0.188   3.641 -0.4406  0.4780 -1.2177
 2275SOL    HW213172   7.865   0.140   3.498 -0.6494 -1.7466 -0.4885
 2276SOL     OW13173   6.763   1.704   1.733  0.0118  0.2968 -0.5292
 2276SOL    HW113174   6.844   1.705   1.785 -0.8972  0.6763  0.9653
 2276SOL    HW213175   6.694   1.687   1.798 -1.2460  1.4201 -1.5228
 2277SOL     OW13176   2.115   0.266   7.622  0.1589 -0.1728  0.3855
 2277SOL    HW113177   2.039   0.280   7.565  0.2397  0.1753  0.3606
 2277SOL    HW213178   2.191   0.283   7.566  0.2274  1.1098  0.8274
 2278SOL     OW13179   6.786   9.227   1.185 -0.6818  0.3955 -0.6075
 2278SOL    HW113180   6.841   9.161   1.227  0.5785  1.5291 -0.4303
 2278SOL    HW213181   6.715   9.243   1.247  0.3625  0.9894  0.4630
 2279SOL     OW13182   0.067   4.735   7.359 -0.3729  0.5888 -0.0631
 2279SOL    HW113183   0.090   4.792   7.286  0.0283  2.6208  1.5481
 2279SOL    HW213184  -0.025   4.753   7.376 -0.4852  0.0742 -0.1230
 2280SOL     OW13185   6.675   1.365   1.696  0.1495 -0.3502  0.3940
 2280SOL    HW113186   6.596   1.405   1.732 -1.2512 -2.0102 -0.6391
 2280SOL    HW213187   6.683   1.401   1.608  1.5932  1.1170  1.0814
 2281SOL     OW13188   0.984   2.115   0.655 -0.0957  0.0647  0.2562
 2281SOL    HW113189   0.947   2.137   0.740  1.3976 -1.6432  1.4291
 2281SOL    HW213190   1.056   2.055   0.675 -0.6859 -1.6738 -2.2886
 2282SOL     OW13191   2.602   1.545   7.368  0.9934  0.6829 -0.6751
 2282SOL    HW113192   2.655   1.601   7.311  2.1331  0.1363 -0.1604
 2282SOL    HW213193   2.617   1.579   7.456 -0.0907  0.9777 -0.5867
 2283SOL     OW13194   4.122   5.812   3.983 -0.2888  0.0543 -0.1917
 2283SOL    HW113195   4.163   5.866   3.916  2.4500  0.4285  1.6188
 2283SOL    HW213196   4.176   5.824   4.061 -1.9133 -2.1960  1.4513
 2284SOL     OW13197   4.678   0.172   5.481  0.2148  0.4688 -0.0686
 2284SOL    HW113198   4.630   0.089   5.480  2.0985 -0.7052  0.9855
 2284SOL    HW213199   4.640   0.221   5.554  0.5441 -0.4204  0.7199
 2285SOL     OW13200   1.629   8.546   4.609 -0.5780  0.2802  0.1680
 2285SOL    HW113201   1.696   8.510   4.551 -1.3408 -1.5060  0.3097
 2285SOL    HW213202   1.546   8.520   4.568 -1.1629 -2.2673  2.6523
 2286SOL     OW13203   1.396   8.081   4.680 -0.5607 -0.1168 -0.5691
 2286SOL    HW113204   1.474   8.078   4.625 -1.7682 -1.1560 -2.3206
 2286SOL    HW213205   1.389   8.173   4.705  0.1142  0.3835 -2.0614
 2287SOL     OW13206   9.099   4.477   7.184 -0.4006 -0.6713  0.2164
 2287SOL    HW113207   9.145   4.551   7.222 -0.8614  0.5952 -1.5377
 2287SOL    HW213208   9.165   4.433   7.129 -0.4027 -0.9188  0.4113
 2288SOL     OW13209   3.180   0.196   3.801 -0.0776 -0.4535 -0.2534
 2288SOL    HW113210   3.274   0.180   3.794  0.2050 -0.3970  2.2924
 2288SOL    HW213211   3.168   0.285   3.767  0.4520 -1.1208 -2.2911
 2289SOL     OW13212   1.083   4.742   1.604  0.5434  0.3339  0.2872
 2289SOL    HW113213   1.112   4.819   1.555  2.6006 -1.4706 -1.5311
 2289SOL    HW213214   1.162   4.689   1.615 -0.8809 -1.7854  0.9813
 2290SOL     OW13215   8.530   8.685   1.540 -0.6880 -0.3201 -0.2163
 2290SOL    HW113216   8.556   8.632   1.464  0.1755 -0.3052  0.0619
 2290SOL    HW213217   8.496   8.766   1.503 -0.9256 -0.5953 -0.6072
 2291SOL     OW13218   6.686   6.380   2.377  0.2239 -0.0616  0.0922
 2291SOL    HW113219   6.725   6.455   2.332 -2.0244  0.5749 -0.9806
 2291SOL    HW213220   6.713   6.390   2.469 -0.3246  2.3366  0.0639
 2292SOL     OW13221   7.394   4.767   4.391 -0.2188  0.2966 -0.1807
 2292SOL    HW113222   7.405   4.709   4.466  2.1787  1.7138  0.6889
 2292SOL    HW213223   7.394   4.709   4.315  0.3103 -0.9619  0.7468
 2293SOL     OW13224   0.093   6.503   7.625 -0.4765 -0.6389 -0.5928
 2293SOL    HW113225   0.170   6.556   7.604  0.1728 -1.4035 -0.1990
 2293SOL    HW213226   0.068   6.462   7.542 -0.5164 -0.3101 -0.7414
 2294SOL     OW13227   5.807   8.780   2.628  0.2330 -0.2587  0.3086
 2294SOL    HW113228   5.835   8.850   2.570  0.7840  0.6236  1.5998
 2294SOL    HW213229   5.745   8.822   2.688 -0.7638 -1.2781  0.0318
 2295SOL     OW13230   5.744   0.048   6.662 -0.2463 -0.0619 -0.1909
 2295SOL    HW113231   5.732   0.061   6.568  0.2035 -0.9842 -0.3831
 2295SOL    HW213232   5.662   0.081   6.701 -0.5680  0.0257 -0.9194
 2296SOL     OW13233   3.471   1.043   9.072 -0.4238  0.2875 -0.9163
 2296SOL    HW113234   3.375   1.043   9.072 -0.4263  0.1759 -0.5980
 2296SOL    HW213235   3.496   0.979   9.007 -0.5812 -1.5730  0.7566
 2297SOL     OW13236   8.852   4.012   5.605  0.0527 -0.0236  0.2018
 2297SOL    HW113237   8.904   3.934   5.589  1.4362  0.7288  0.8817
 2297SOL    HW213238   8.889   4.050   5.685 -0.7529  1.1916  0.0277
 2298SOL     OW13239   5.214   5.381   4.839 -0.7084 -0.0543  0.1081
 2298SOL    HW113240   5.148   5.349   4.901  0.9556  1.0187  2.5658
 2298SOL    HW213241   5.198   5.475   4.833  2.3147  0.8468  3.1980
 2299SOL     OW13242   8.281   4.092   3.913 -0.4439 -0.1076  0.0139
 2299SOL    HW113243   8.202   4.096   3.859 -0.8616  0.2641  0.6294
 2299SOL    HW213244   8.344   4.043   3.860 -0.6928  0.6160 -0.9736
 2300SOL     OW13245   7.771   6.673   4.587 -0.0186 -0.6182 -0.3180
 2300SOL    HW113246   7.851   6.638   4.627 -0.1741 -0.9507 -0.2926
 2300SOL    HW213247   7.718   6.595   4.568  0.0527 -0.4642 -1.1752
 2301SOL     OW13248   2.478   5.782   4.106 -0.3539 -0.2255 -0.3067
 2301SOL    HW113249   2.417   5.842   4.062 -0.1337  0.3238  0.1215
 2301SOL    HW213250   2.450   5.695   4.079  1.1695  0.1125 -3.4278
 2302SOL     OW13251   5.016   6.025   4.868 -0.0419 -0.0574  0.0842
 2302SOL    HW113252   5.101   5.985   4.886 -0.8986 -2.5952 -1.0384
 2302SOL    HW213253   4.984   6.053   4.954  2.0822  1.3850  0.4573
 2303SOL     OW13254   9.160   4.878   0.186 -0.0946  0.4404  0.5184
 2303SOL    HW113255   9.203   4.819   0.124 -0.6621 -0.6724  1.1389
 2303SOL    HW213256   9.183   4.844   0.272 -1.9249 -0.0329  0.8758
 2304SOL     OW13257   5.559   8.569   2.716  0.4479 -0.3920 -0.3896
 2304SOL    HW113258   5.594   8.603   2.799 -1.5998  0.2728  0.2541
 2304SOL    HW213259   5.601   8.623   2.649  0.3878  0.6368  0.3670
 2305SOL     OW13260   7.720   0.417   6.362 -0.8945  0.2409  0.3762
 2305SOL    HW113261   7.814   0.416   6.344 -0.6597  1.8840  1.3243
 2305SOL    HW213262   7.700   0.328   6.393  0.1666 -0.3575 -0.5943
 2306SOL     OW13263   2.837   7.103   5.134  0.0145 -0.6100  0.1002
 2306SOL    HW113264   2.914   7.047   5.147 -0.0522 -0.9885 -1.0063
 2306SOL    HW213265   2.872   7.185   5.100 -0.0413 -0.6705 -0.1057
 2307SOL     OW13266   0.520   2.062   1.279 -0.1812  0.0155  0.2122
 2307SOL    HW113267   0.573   2.141   1.282  1.0080 -0.7708  1.0864
 2307SOL    HW213268   0.578   1.993   1.313 -1.1689 -1.2294 -0.5164
 2308SOL     OW13269   4.100   6.010   8.691 -0.4202  0.7294  0.1754
 2308SOL    HW113270   4.081   5.941   8.627  1.5831  0.2290  0.0628
 2308SOL    HW213271   4.165   6.066   8.648 -1.7828  2.5514  0.3811
 2309SOL     OW13272   6.324   2.138   4.635 -0.2539 -0.3685 -0.3445
 2309SOL    HW113273   6.265   2.211   4.614  1.3027  0.7761 -0.9870
 2309SOL    HW213274   6.303   2.115   4.725  0.2133  1.9518  0.4451
 2310SOL     OW13275   9.008   8.257   6.661 -0.1775 -0.1445 -0.3548
 2310SOL    HW113276   8.921   8.293   6.675 -0.6725 -1.4189 -0.0494
 2310SOL    HW213277   9.033   8.218   6.745  0.5427 -0.1232 -0.5449
 2311SOL     OW13278   5.136   4.003   6.089  0.7631 -0.4853 -0.3764
 2311SOL    HW113279   5.186   3.949   6.150  0.7809  0.4381  0.4570
 2311SOL    HW213280   5.064   4.038   6.141  0.5338 -0.0131 -0.9952
 2312SOL     OW13281   5.241   8.616   8.789  0.2944  0.1595 -0.1505
 2312SOL    HW113282   5.235   8.711   8.780 -0.2764  0.1197 -0.2522
 2312SOL    HW213283   5.193   8.596   8.869 -2.0380 -0.2790 -1.5447
 2313SOL     OW13284   4.592   5.477   1.885  0.4084  0.5934 -0.2366
 2313SOL    HW113285   4.603   5.419   1.961 -1.9031 -0.2771 -0.4586
 2313SOL    HW213286   4.606   5.420   1.810  3.2807  1.5854 -0.5638
 2314SOL     OW13287   3.800   7.159   8.500 -0.0800  0.4018 -0.1259
 2314SOL    HW113288   3.706   7.154   8.518  0.2835  0.4217  1.9457
 2314SOL    HW213289   3.821   7.252   8.506  0.2700  0.2833  0.4932
 2315SOL     OW13290   3.623   6.010   5.168  0.4690  0.1288  0.7339
 2315SOL    HW113291   3.643   6.100   5.145 -0.8732  0.4076  0.5461
 2315SOL    HW213292   3.669   5.994   5.250  1.7625  0.5481  0.1194
 2316SOL     OW13293   5.396   4.064   1.830  0.3317  0.7545  0.7964
 2316SOL    HW113294   5.308   4.034   1.807  0.1053  1.4043  0.8087
 2316SOL    HW213295   5.382   4.145   1.878  1.0363  2.2288 -1.3497
 2317SOL     OW13296   4.279   3.200   7.335  0.3828  0.4670  0.1816
 2317SOL    HW113297   4.293   3.222   7.427 -0.3257  1.3699  0.0851
 2317SOL    HW213298   4.227   3.120   7.337 -2.2053  2.0439  0.6484
 2318SOL     OW13299   0.107   4.592   4.045 -0.3964  0.0836  0.1286
 2318SOL    HW113300   0.161   4.609   3.968 -0.5379 -1.4986 -0.3420
 2318SOL    HW213301   0.150   4.519   4.089 -2.1998 -1.3353 -0.3433
 2319SOL     OW13302   4.575   2.549   0.520  0.0119  0.6663  0.2272
 2319SOL    HW113303   4.624   2.467   0.524  1.4278  1.4911  0.6690
 2319SOL    HW213304   4.595   2.593   0.603 -0.7630  1.4275  0.0219
 2320SOL     OW13305   1.927   0.900   7.420 -0.0534  0.0982  0.4447
 2320SOL    HW113306   2.004   0.905   7.476  0.1007  0.9487  0.1798
 2320SOL    HW213307   1.871   0.834   7.461  1.3976 -1.5359 -0.0959
 2321SOL     OW13308   5.524   1.194   6.817 -0.5630  0.4121  0.5482
 2321SOL    HW113309   5.554   1.214   6.728 -0.3887 -2.4478 -0.1087
 2321SOL    HW213310   5.602   1.204   6.872 -0.2959  0.6234  0.1336
 2322SOL     OW13311   4.650   6.758   9.077 -0.9265 -0.1964 -0.1883
 2322SOL    HW113312   4.725   6.816   9.068 -0.2036 -1.3494 -2.5897
 2322SOL    HW213313   4.605   6.764   8.992 -3.0581 -0.2167  0.8705
 2323SOL     OW13314   0.456   5.232   3.024 -0.0635  0.0324 -0.9906
 2323SOL    HW113315   0.539   5.259   3.064 -0.6092 -0.0930  0.2910
 2323SOL    HW213316   0.395   5.303   3.045 -0.0679  0.5687 -2.7352
 2324SOL     OW13317   1.924   3.804   0.508  0.7539 -0.0569 -0.0555
 2324SOL    HW113318   1.850   3.745   0.519  0.7544  0.0518  0.5768
 2324SOL    HW213319   1.989   3.773   0.571  0.5785  0.8771  0.6132
 2325SOL     OW13320   5.619   6.716   5.230  0.1899 -0.0487 -0.8387
 2325SOL    HW113321   5.524   6.718   5.226  0.1391 -0.7644 -0.2496
 2325SOL    HW213322   5.645   6.664   5.154 -0.1531 -3.6033  1.2537
 2326SOL     OW13323   6.652   1.524   5.118 -0.0142 -0.6609 -0.2516
 2326SOL    HW113324   6.597   1.482   5.184  0.2354 -0.0987  0.3298
 2326SOL    HW213325   6.741   1.518   5.152  0.1043 -0.2556 -0.4774
 2327SOL     OW13326   5.751   7.443   7.266 -0.4105  0.2900  0.2112
 2327SOL    HW113327   5.689   7.374   7.291  1.5776 -2.0412 -0.9008
 2327SOL    HW213328   5.803   7.404   7.196  0.9146  2.9194 -0.3839
 2328SOL     OW13329   1.015   7.987   7.855 -0.1390 -0.6661 -0.3056
 2328SOL    HW113330   1.074   7.913   7.863 -0.3740 -0.7715  0.5745
 2328SOL    HW213331   0.950   7.974   7.924 -0.2422  0.3004 -0.2001
 2329SOL     OW13332   4.956   2.232   3.463 -0.2743  0.3503 -0.7842
 2329SOL    HW113333   4.882   2.286   3.493  0.2112  0.5283  0.1112
 2329SOL    HW213334   5.010   2.292   3.412  0.7265  0.9871  0.9403
 2330SOL     OW13335   6.505   4.065   8.757  0.1020 -0.3190 -0.2191
 2330SOL    HW113336   6.548   4.112   8.686  1.2660  1.2137  1.4171
 2330SOL    HW213337   6.502   3.974   8.727  2.1244 -0.0277 -1.5080
 2331SOL     OW13338   4.423   3.032   6.351  0.3282  0.4210 -0.2092
 2331SOL    HW113339   4.346   3.017   6.406  0.0679 -1.0862 -0.9313
 2331SOL    HW213340   4.394   3.098   6.288 -0.0053  0.7016  0.2338
 2332SOL     OW13341   8.679   4.718   8.157  0.0357 -0.1113 -0.3616
 2332SOL    HW113342   8.601   4.668   8.180  0.4623 -0.2752  0.8181
 2332SOL    HW213343   8.654   4.767   8.078 -2.3007  2.1051  1.5515
 2333SOL     OW13344   0.983   7.139   5.189 -0.0471 -0.2075 -0.2229
 2333SOL    HW113345   0.969   7.082   5.113  0.0891  0.2191 -0.5708
 2333SOL    HW213346   0.946   7.090   5.262  0.1093 -0.7683 -0.5103
 2334SOL     OW13347   3.289   3.330   5.819 -0.3967 -0.0400 -0.3711
 2334SOL    HW113348   3.259   3.416   5.850 -0.4971 -0.2078  0.0038
 2334SOL    HW213349   3.259   3.326   5.728 -2.5341 -0.6699  0.3086
 2335SOL     OW13350   2.122   3.333   6.981 -0.4520 -0.1585  0.2164
 2335SOL    HW113351   2.184   3.404   6.964 -1.8226  0.9041 -0.5702
 2335SOL    HW213352   2.160   3.257   6.938  0.3355  0.4553 -0.1959
 2336SOL     OW13353   5.663   2.829   3.002  0.2359 -0.4776  0.3569
 2336SOL    HW113354   5.632   2.786   2.922 -0.9267  0.2987  0.3550
 2336SOL    HW213355   5.695   2.914   2.973 -0.2742 -0.1574  0.7167
 2337SOL     OW13356   0.290   4.321   0.747  0.3298 -0.0926 -0.0316
 2337SOL    HW113357   0.381   4.298   0.728  0.1481 -0.5242 -0.4181
 2337SOL    HW213358   0.259   4.251   0.805  0.0381 -0.3460 -0.4824
 2338SOL     OW13359   5.635   7.948   0.239 -0.0742  0.2926  0.1949
 2338SOL    HW113360   5.702   7.909   0.182  0.0161 -1.6670  1.5339
 2338SOL    HW213361   5.555   7.901   0.215 -0.2277  0.1372  1.0042
 2339SOL     OW13362   1.425   8.757   0.977  0.1701  0.2475 -0.5133
 2339SOL    HW113363   1.516   8.758   1.008 -0.9749 -0.1869  3.4896
 2339SOL    HW213364   1.411   8.845   0.942  1.0825  1.8959  2.8129
 2340SOL     OW13365   6.734   8.499   2.014 -0.3073 -0.3765 -0.0534
 2340SOL    HW113366   6.658   8.530   1.964 -0.5997  0.1080  0.6757
 2340SOL    HW213367   6.797   8.570   2.009 -1.1311  0.5520  1.9495
 2341SOL     OW13368   2.604   0.625   1.318  0.0386 -0.0293  0.1462
 2341SOL    HW113369   2.606   0.681   1.395 -0.6876  0.5684 -0.2543
 2341SOL    HW213370   2.695   0.625   1.286  0.3833 -0.4215  1.0765
 2342SOL     OW13371   6.701   7.188   4.559  0.4086  0.4303  0.3565
 2342SOL    HW113372   6.725   7.186   4.466  1.9441  0.5931  0.7113
 2342SOL    HW213373   6.742   7.110   4.595  2.4725  1.9113  1.4351
 2343SOL     OW13374   6.887   2.930   0.789 -0.5778 -0.2498  0.3132
 2343SOL    HW113375   6.817   2.967   0.735 -1.5823  1.1738  2.4438
 2343SOL    HW213376   6.926   3.006   0.833  0.1912 -1.3115  1.5431
 2344SOL     OW13377   7.522   8.782   2.795 -0.2530  0.0899  0.0826
 2344SOL    HW113378   7.501   8.699   2.752  2.2826 -0.3621 -0.5063
 2344SOL    HW213379   7.549   8.840   2.724 -2.3381  1.6189  0.4424
 2345SOL     OW13380   2.828   1.602   4.499 -0.0321  0.0492  0.2666
 2345SOL    HW113381   2.858   1.627   4.411 -3.2573  1.4753 -0.5806
 2345SOL    HW213382   2.881   1.655   4.558  2.0453 -0.7600 -0.7738
 2346SOL     OW13383   7.933   4.693   6.948  0.4042 -0.6461 -0.5980
 2346SOL    HW113384   8.011   4.652   6.910  0.3683  0.5758 -2.0912
 2346SOL    HW213385   7.900   4.750   6.879 -0.1678  1.0541  0.9775
 2347SOL     OW13386   2.032   1.231   7.231  0.6896  0.8485  0.3462
 2347SOL    HW113387   1.995   1.273   7.154  0.1358  0.9341  0.6488
 2347SOL    HW213388   2.124   1.259   7.232  0.7917  0.5605 -0.4686
 2348SOL     OW13389   3.844   7.961   8.639  0.1699  0.0290  0.1676
 2348SOL    HW113390   3.900   8.039   8.642  0.1094  0.0747  0.1113
 2348SOL    HW213391   3.906   7.888   8.634  0.2265  0.1638 -1.7472
 2349SOL     OW13392   9.171   3.235   1.613  0.3377 -0.3593 -0.4710
 2349SOL    HW113393   9.139   3.205   1.698  0.2832  1.1158  0.0517
 2349SOL    HW213394   9.226   3.163   1.582  0.7578 -0.7393  1.0481
 2350SOL     OW13395   7.206   7.034   8.661 -0.0781 -0.1882  0.3292
 2350SOL    HW113396   7.289   6.998   8.694  0.8873  1.4149 -0.2144
 2350SOL    HW213397   7.211   7.023   8.566 -1.4593 -1.9534  0.4047
 2351SOL     OW13398   1.551   5.834   8.093  0.1102 -0.2647 -0.1969
 2351SOL    HW113399   1.526   5.753   8.138  1.7100 -1.2969 -1.0676
 2351SOL    HW213400   1.474   5.858   8.043 -0.0238 -1.9255 -0.8427
 2352SOL     OW13401   6.642   6.102   9.003 -0.7954 -0.4763  0.2714
 2352SOL    HW113402   6.707   6.091   9.072 -1.5958 -0.6180  1.0192
 2352SOL    HW213403   6.635   6.015   8.962  0.6921 -0.0747 -0.9521
 2353SOL     OW13404   4.881   0.108   1.919 -0.0472  0.4311  0.0456
 2353SOL    HW113405   4.866   0.097   1.826 -3.5732  0.2167  0.5258
 2353SOL    HW213406   4.864   0.022   1.957  0.0995  0.8177  1.0308
 2354SOL     OW13407   2.719   7.933   3.918  0.3845 -0.1259 -0.0882
 2354SOL    HW113408   2.721   8.029   3.924 -0.1850 -0.1321  0.2832
 2354SOL    HW213409   2.672   7.905   3.996 -1.7673 -0.5589 -1.4653
 2355SOL     OW13410   3.381   5.153   7.617  0.1944  0.5590 -0.5245
 2355SOL    HW113411   3.426   5.236   7.631 -0.2430  0.6435  0.4235
 2355SOL    HW213412   3.432   5.110   7.548  0.9589  1.2114 -0.3861
 2356SOL     OW13413   5.970   5.624   6.087  0.0470  0.7854 -0.1586
 2356SOL    HW113414   5.899   5.627   6.151  1.5372 -2.0027  1.8707
 2356SOL    HW213415   5.926   5.630   6.002 -2.4870  0.3960  1.0248
 2357SOL     OW13416   3.721   6.452   0.209 -0.8749  0.3969  0.0609
 2357SOL    HW113417   3.685   6.384   0.266 -1.9240  1.4764  0.7356
 2357SOL    HW213418   3.806   6.419   0.183 -0.9502 -0.7405  1.1667
 2358SOL     OW13419   1.378   8.018   0.375 -0.5592 -0.1042  0.0195
 2358SOL    HW113420   1.365   8.038   0.468  0.5177 -0.2696  0.2183
 2358SOL    HW213421   1.469   8.041   0.359 -0.5290 -0.7881 -0.8140
 2359SOL     OW13422   4.346   0.633   1.085  0.0872 -0.1479  0.0890
 2359SOL    HW113423   4.344   0.728   1.090  1.6087 -0.0266 -0.9474
 2359SOL    HW213424   4.262   0.609   1.047  0.2229  0.8914 -0.9058
 2360SOL     OW13425   1.711   5.986   0.300  0.3844 -0.2778 -0.2503
 2360SOL    HW113426   1.758   5.993   0.217  0.6373  1.2113 -0.0111
 2360SOL    HW213427   1.716   5.893   0.322  4.3147 -0.1063  0.3641
 2361SOL     OW13428   3.333   5.311   6.285 -0.2213  0.1144  0.1034
 2361SOL    HW113429   3.279   5.332   6.209  0.1852 -1.6521 -0.7344
 2361SOL    HW213430   3.342   5.394   6.332 -1.7297  0.9295 -0.9580
 2362SOL     OW13431   4.016   5.488   4.742  0.5097  0.3039  0.5820
 2362SOL    HW113432   3.984   5.463   4.829  0.6337  0.0022  0.5396
 2362SOL    HW213433   3.939   5.484   4.685  0.6862 -0.7612  0.4054
 2363SOL     OW13434   7.890   6.796   5.406 -0.9274  0.0697  0.4073
 2363SOL    HW113435   7.824   6.728   5.398  0.2471 -0.9880 -0.7078
 2363SOL    HW213436   7.891   6.839   5.321 -0.1467  0.0507  0.4021
 2364SOL     OW13437   2.619   8.291   1.830 -0.5249  0.3577  0.3913
 2364SOL    HW113438   2.623   8.382   1.860 -1.3321  0.3511  0.5237
 2364SOL    HW213439   2.535   8.284   1.785 -0.4807 -0.3310  0.4117
 2365SOL     OW13440   1.740   2.048   8.536 -0.3077  0.0318  0.0431
 2365SOL    HW113441   1.714   2.050   8.628 -0.0918  0.9622  0.0982
 2365SOL    HW213442   1.836   2.046   8.539 -0.3015  0.0403 -0.1555
 2366SOL     OW13443   7.650   6.381   8.726 -0.0966  0.3016 -0.1493
 2366SOL    HW113444   7.601   6.316   8.777  1.5559 -0.1075  0.9995
 2366SOL    HW213445   7.726   6.334   8.693  0.8908  1.5156  0.3019
 2367SOL     OW13446   2.504   2.274   8.120 -0.4198  0.0739  0.6837
 2367SOL    HW113447   2.573   2.337   8.140 -0.3615 -0.5557  2.6868
 2367SOL    HW213448   2.547   2.188   8.127 -0.9768 -0.2597  0.1000
 2368SOL     OW13449   2.476   1.464   0.196 -0.1527  0.1294  0.0049
 2368SOL    HW113450   2.555   1.512   0.221 -0.1158  1.4323 -2.2881
 2368SOL    HW213451   2.504   1.405   0.126 -1.1206  0.3195 -0.5645
 2369SOL     OW13452   6.807   1.766   8.772 -0.2402  0.1929 -0.2737
 2369SOL    HW113453   6.783   1.857   8.792  0.6647  0.5577 -0.7751
 2369SOL    HW213454   6.787   1.756   8.678 -0.9668 -0.3449 -0.0714
 2370SOL     OW13455   2.807   1.066   2.937 -0.2683 -0.4124  0.2589
 2370SOL    HW113456   2.800   1.052   2.842 -1.2395 -1.5354  0.4727
 2370SOL    HW213457   2.893   1.106   2.949  0.0899 -0.7372 -1.0488
 2371SOL     OW13458   7.287   9.052   4.111 -0.0313  0.5867  0.3427
 2371SOL    HW113459   7.313   8.960   4.111  0.9904  0.8547  1.0364
 2371SOL    HW213460   7.279   9.075   4.204  1.2971  1.5906  0.2412
 2372SOL     OW13461   4.646   1.919   4.468  0.1249  0.5986 -0.2299
 2372SOL    HW113462   4.656   1.941   4.375  1.3331 -2.5403 -0.9739
 2372SOL    HW213463   4.728   1.946   4.508  0.6266 -0.3234 -0.6206
 2373SOL     OW13464   0.364   2.380   2.406  0.1183 -0.1466 -0.2191
 2373SOL    HW113465   0.366   2.285   2.415 -1.0253 -0.2682 -1.0229
 2373SOL    HW213466   0.271   2.402   2.402  0.3612  1.0500  0.3136
 2374SOL     OW13467   7.549   0.793   0.147  0.4062  0.7352  1.2003
 2374SOL    HW113468   7.536   0.723   0.211  0.4922  0.2891  0.7400
 2374SOL    HW213469   7.582   0.748   0.069  2.7294  1.5624  1.6319
 2375SOL     OW13470   4.981   1.955   6.513  0.0177 -0.2854  0.1155
 2375SOL    HW113471   4.999   2.042   6.549 -1.4425  0.1242 -0.0604
 2375SOL    HW213472   5.053   1.938   6.453  0.7091  0.4868  0.7001
 2376SOL     OW13473   0.422   1.698   1.416  0.8409  0.3073  0.0206
 2376SOL    HW113474   0.434   1.777   1.468 -0.7694 -0.4442  1.6641
 2376SOL    HW213475   0.435   1.626   1.478  0.0314 -0.6605 -0.8835
 2377SOL     OW13476   3.324   2.869   3.379 -0.1693 -0.2843  0.0050
 2377SOL    HW113477   3.253   2.806   3.365  0.5633 -1.0720 -0.2751
 2377SOL    HW213478   3.299   2.917   3.458 -1.7163  0.4651 -0.9003
 2378SOL     OW13479   0.976   0.027   1.104 -0.1634  0.1510  0.1704
 2378SOL    HW113480   0.901  -0.029   1.122 -0.5406 -0.4473 -2.8258
 2378SOL    HW213481   1.042  -0.032   1.066  0.9128  1.1035  0.4902
 2379SOL     OW13482   8.906   6.520   3.401 -0.4043  0.2147 -0.1808
 2379SOL    HW113483   8.901   6.601   3.452  0.1458 -0.5625  1.1514
 2379SOL    HW213484   8.999   6.497   3.400 -0.7075 -1.1747  0.7477
 2380SOL     OW13485   0.401   5.800   5.792 -0.1286 -0.5141 -0.9172
 2380SOL    HW113486   0.320   5.847   5.773  0.3643  0.4477 -0.6959
 2380SOL    HW213487   0.410   5.804   5.888 -0.8084 -2.3103 -0.7492
 2381SOL     OW13488   2.494   4.110   2.161  0.0655 -0.1630  0.0098
 2381SOL    HW113489   2.434   4.164   2.214 -0.2397 -1.1948  0.7367
 2381SOL    HW213490   2.448   4.099   2.077 -1.3985 -1.9785  0.9725
 2382SOL     OW13491   5.152   1.923   4.628  0.2506  0.4062 -0.6914
 2382SOL    HW113492   5.111   2.000   4.588 -3.8491 -1.5947 -0.8479
 2382SOL    HW213493   5.207   1.887   4.558  0.5126  1.9565 -1.3301
 2383SOL     OW13494   4.953   9.228   7.478 -0.0539  0.1139  0.3914
 2383SOL    HW113495   4.865   9.205   7.506 -0.5503 -0.1291 -1.2545
 2383SOL    HW213496   5.010   9.164   7.521 -0.6963  0.0715  1.2034
 2384SOL     OW13497   6.710   8.820   0.006 -0.3506  0.4183 -0.2314
 2384SOL    HW113498   6.795   8.852   0.037 -0.9505  0.7577  1.1287
 2384SOL    HW213499   6.722   8.726  -0.004  0.6462  0.6602 -1.6543
 2385SOL     OW13500   2.151   7.279   0.439  0.2485 -1.0102  0.2318
 2385SOL    HW113501   2.230   7.328   0.418 -1.0434  1.1092  0.1011
 2385SOL    HW213502   2.133   7.227   0.361 -0.1348  0.8079 -0.9488
 2386SOL     OW13503   7.282   2.082   5.871 -0.3099 -0.6832 -0.8792
 2386SOL    HW113504   7.306   2.031   5.949 -0.9682 -0.8596 -0.7843
 2386SOL    HW213505   7.262   2.017   5.804  1.5705 -0.5323 -1.6355
 2387SOL     OW13506   3.125   2.060   6.549 -0.3290 -0.3841 -0.1303
 2387SOL    HW113507   3.084   2.146   6.536  3.3962  1.4745 -1.2181
 2387SOL    HW213508   3.129   2.049   6.644 -0.4759  0.9210  0.0464
 2388SOL     OW13509   3.441   1.645   1.424 -0.0562 -0.0242 -0.2854
 2388SOL    HW113510   3.388   1.665   1.347  0.2953 -0.3848 -0.6201
 2388SOL    HW213511   3.379   1.604   1.485 -0.7482  1.7958  0.3318
 2389SOL     OW13512   7.861   7.890   1.060  0.5601  0.4554 -0.2612
 2389SOL    HW113513   7.891   7.808   1.099  0.2604  0.3087 -0.3374
 2389SOL    HW213514   7.935   7.920   1.007  1.8889  1.8455  2.1838
 2390SOL     OW13515   1.515   0.055   5.743 -0.5027 -0.0996 -0.5342
 2390SOL    HW113516   1.488  -0.035   5.724 -1.9045  0.3261 -0.6633
 2390SOL    HW213517   1.603   0.062   5.708 -0.0313 -1.6881  0.2556
 2391SOL     OW13518   2.886   4.000   5.596  0.0556  0.8583 -0.7617
 2391SOL    HW113519   2.973   4.019   5.632 -1.3531  1.7348  2.6817
 2391SOL    HW213520   2.865   4.077   5.542  0.8546  1.3478 -0.3931
 2392SOL     OW13521   2.775   4.222   2.407 -0.1179 -0.5603  0.6926
 2392SOL    HW113522   2.791   4.171   2.486  4.6660  2.1867  1.8744
 2392SOL    HW213523   2.702   4.280   2.430 -1.2916 -2.3211  1.6129
 2393SOL     OW13524   4.791   2.854   7.403 -0.1290 -0.1866 -0.1171
 2393SOL    HW113525   4.746   2.780   7.362  0.7256 -0.0334 -1.4093
 2393SOL    HW213526   4.725   2.922   7.409 -0.5515 -0.5764 -0.2489
 2394SOL     OW13527   3.456   0.288   8.164  0.2007 -0.0323 -0.2189
 2394SOL    HW113528   3.551   0.298   8.169  0.0660  0.7147  1.4912
 2394SOL    HW213529   3.435   0.229   8.236 -0.8462  1.8173  1.0790
 2395SOL     OW13530   4.157   3.797   1.014 -0.1805  0.5893  0.4186
 2395SOL    HW113531   4.067   3.800   0.982 -0.2340 -1.1421  0.2811
 2395SOL    HW213532   4.194   3.718   0.974  1.7640  1.8209 -0.3921
 2396SOL     OW13533   8.559   2.068   8.065  0.1624  0.1368 -0.0224
 2396SOL    HW113534   8.577   1.974   8.058  1.3624  0.3109  0.4983
 2396SOL    HW213535   8.471   2.078   8.028 -0.3791 -1.3260  0.7739
 2397SOL     OW13536   4.110   8.123   4.671 -0.3899  0.0360  0.1971
 2397SOL    HW113537   4.111   8.206   4.624  0.3666 -0.2028 -0.2323
 2397SOL    HW213538   4.196   8.084   4.653 -1.2276 -1.4667 -0.7574
 2398SOL     OW13539   4.393   6.128   3.552  0.3082 -0.7009  0.5762
 2398SOL    HW113540   4.446   6.090   3.481 -0.0973 -0.8227  0.3344
 2398SOL    HW213541   4.454   6.183   3.600  0.7175 -1.0356  0.4522
 2399SOL     OW13542   4.259   3.781   4.656  0.3951 -0.2641  0.1468
 2399SOL    HW113543   4.219   3.810   4.738  0.7988  1.6146 -0.2722
 2399SOL    HW213544   4.350   3.763   4.679  0.0957 -1.5018  0.4519
 2400SOL     OW13545   6.782   1.352   7.920  0.2605  0.0390 -0.3552
 2400SOL    HW113546   6.831   1.278   7.957 -0.3801  0.4238  1.3440
 2400SOL    HW213547   6.701   1.313   7.887  0.0505 -0.0578  0.2744
 2401SOL     OW13548   7.522   5.683   8.517  0.7374 -0.0523 -0.4069
 2401SOL    HW113549   7.448   5.637   8.475  1.6929 -1.7610 -0.3225
 2401SOL    HW213550   7.579   5.707   8.445  0.9644 -0.3772 -0.3407
 2402SOL     OW13551   7.413   0.608   6.031  0.1580 -0.0450 -0.6486
 2402SOL    HW113552   7.336   0.554   6.015  0.9348 -1.1218 -0.9535
 2402SOL    HW213553   7.479   0.546   6.064  0.1850  1.2121  1.9841
 2403SOL     OW13554   4.309   5.231   3.658 -0.1124  0.1589  0.0931
 2403SOL    HW113555   4.278   5.293   3.592  3.0165  0.5633 -1.1635
 2403SOL    HW213556   4.347   5.159   3.607  2.2506  0.4186  1.3391
 2404SOL     OW13557   8.631   1.957   2.903 -0.1783 -0.2668  0.0010
 2404SOL    HW113558   8.684   1.882   2.876 -1.9920 -1.1237 -1.4193
 2404SOL    HW213559   8.647   1.965   2.997  1.5692 -1.1736 -0.1777
 2405SOL     OW13560   0.330   3.940   0.079  0.0705  0.1799 -0.2863
 2405SOL    HW113561   0.386   4.016   0.063  0.0902  0.1241 -0.4927
 2405SOL    HW213562   0.365   3.901   0.159  0.5146 -0.0187 -0.5680
 2406SOL     OW13563   2.635   9.244   1.688 -0.3148  0.5572 -0.4964
 2406SOL    HW113564   2.697   9.183   1.650  1.6819  0.6910  2.2273
 2406SOL    HW213565   2.583   9.191   1.749  0.6985  1.2668  1.0691
 2407SOL     OW13566   3.192   6.447   8.920 -0.3859  0.1582 -0.2192
 2407SOL    HW113567   3.164   6.480   8.835  0.7495 -1.5871 -1.3368
 2407SOL    HW213568   3.262   6.507   8.948  0.2590 -0.0959 -1.2476
 2408SOL     OW13569   6.537   1.542   8.006  0.6903 -0.3636 -0.3593
 2408SOL    HW113570   6.469   1.547   7.939  0.8075 -0.8405 -0.5222
 2408SOL    HW213571   6.552   1.448   8.017  0.1682 -0.3160  0.8603
 2409SOL     OW13572   1.635   0.571   0.845  0.1624  0.2477 -0.0067
 2409SOL    HW113573   1.578   0.586   0.921 -0.9025  0.7156 -0.8687
 2409SOL    HW213574   1.722   0.558   0.883 -0.6909 -1.8098  1.4403
 2410SOL     OW13575   2.758   0.137   9.116 -0.1583 -0.1289 -0.4549
 2410SOL    HW113576   2.738   0.108   9.206 -0.1212  0.3229 -0.3002
 2410SOL    HW213577   2.685   0.103   9.064  0.1436 -0.9447 -0.3653
 2411SOL     OW13578   6.531   1.301   7.813  0.0313 -0.0668  0.4148
 2411SOL    HW113579   6.541   1.207   7.795  0.1524 -0.0258  0.2701
 2411SOL    HW213580   6.438   1.311   7.833  0.1885 -0.3756  1.3576
 2412SOL     OW13581   4.435   8.067   1.098 -0.5056  0.2763  0.0259
 2412SOL    HW113582   4.450   7.973   1.087 -0.0552  0.4182 -0.6346
 2412SOL    HW213583   4.411   8.076   1.190  1.3098 -0.2702  0.6005
 2413SOL     OW13584   7.564   8.128   7.330 -0.1435  0.0260 -0.1817
 2413SOL    HW113585   7.483   8.129   7.278 -1.8455  1.1785  2.2870
 2413SOL    HW213586   7.603   8.214   7.315  0.6144 -0.4648 -1.2290
 2414SOL     OW13587   2.770   7.034   4.160  0.0815  0.3577 -0.6034
 2414SOL    HW113588   2.769   6.938   4.154 -1.0684  0.4318 -1.9037
 2414SOL    HW213589   2.856   7.054   4.197  0.6022 -1.1392 -0.9147
 2415SOL     OW13590   8.012   5.238   7.204  0.1001 -0.2864  0.1664
 2415SOL    HW113591   7.926   5.222   7.242  0.4714  1.1923  1.7690
 2415SOL    HW213592   8.006   5.324   7.164  1.0049  0.1280  0.8812
 2416SOL     OW13593   7.429   5.795   8.231  0.4941  0.1221  0.0033
 2416SOL    HW113594   7.354   5.818   8.285  0.6232  1.3355 -0.3140
 2416SOL    HW213595   7.476   5.877   8.219  0.5949 -0.1635 -1.7535
 2417SOL     OW13596   2.931   6.773   0.356 -0.0978 -0.0453 -0.3891
 2417SOL    HW113597   2.865   6.823   0.404  0.2911 -0.3110  0.4487
 2417SOL    HW213598   2.884   6.695   0.326 -1.1068  1.4314 -2.9995
 2418SOL     OW13599   0.166   4.619   3.429  0.1571 -0.1823  0.3800
 2418SOL    HW113600   0.099   4.672   3.387  0.0330 -0.0154  0.7835
 2418SOL    HW213601   0.249   4.660   3.404  0.0250  0.8228  1.5092
 2419SOL     OW13602   7.858   5.967   6.461  0.2288  0.1302 -0.2848
 2419SOL    HW113603   7.811   5.945   6.541 -1.4057  1.4529 -0.8328
 2419SOL    HW213604   7.919   5.894   6.448 -1.5665 -1.5935  0.5377
 2420SOL     OW13605   8.040   5.258   3.765 -0.3618 -0.2171 -0.1571
 2420SOL    HW113606   8.047   5.190   3.698  1.4835  0.7451 -1.0312
 2420SOL    HW213607   8.028   5.210   3.846 -4.2237 -1.3964 -1.2173
 2421SOL     OW13608   5.498   2.828   3.983  0.1121  0.3302  0.0617
 2421SOL    HW113609   5.496   2.916   3.946  0.4495  0.1681 -0.3376
 2421SOL    HW213610   5.467   2.771   3.913 -2.2082  0.3440  0.9669
 2422SOL     OW13611   3.177   4.611   5.954 -0.1858 -0.1980  0.0683
 2422SOL    HW113612   3.088   4.591   5.982 -0.5921  1.0042 -0.3266
 2422SOL    HW213613   3.231   4.547   6.001 -1.0472  0.3218  1.8652
 2423SOL     OW13614   2.217   0.711   6.081  0.5758  0.0800  0.7224
 2423SOL    HW113615   2.167   0.668   6.150  0.2607  0.5269  0.7766
 2423SOL    HW213616   2.299   0.737   6.123 -0.2099  1.6708  1.3390
 2424SOL     OW13617   4.883   3.969   0.544  0.8225  0.1682 -0.1389
 2424SOL    HW113618   4.811   3.997   0.488  0.8285 -0.3717 -0.4222
 2424SOL    HW213619   4.861   4.004   0.631  1.0051  1.3372 -0.5478
 2425SOL     OW13620   3.167   7.498   4.567 -0.7702  0.5031 -0.4498
 2425SOL    HW113621   3.242   7.509   4.508 -0.7781 -1.0695 -0.7845
 2425SOL    HW213622   3.105   7.444   4.519 -1.8252  1.1709  0.1111
 2426SOL     OW13623   4.118   6.669   5.906 -0.1440  0.2077  0.0134
 2426SOL    HW113624   4.204   6.632   5.927 -0.4574  0.2581  1.5121
 2426SOL    HW213625   4.077   6.683   5.991 -0.6922  2.4714 -0.5611
 2427SOL     OW13626   7.681   0.760   5.352 -0.1535 -0.8949  0.2356
 2427SOL    HW113627   7.640   0.778   5.437 -2.4412 -0.4124 -0.9033
 2427SOL    HW213628   7.639   0.821   5.291  0.9106 -1.7161 -1.3873
 2428SOL     OW13629   9.169   1.159   4.217  0.5858 -0.1122 -0.0869
 2428SOL    HW113630   9.132   1.074   4.241  1.4340 -0.0196  1.7647
 2428SOL    HW213631   9.261   1.153   4.243  1.0225  0.8695 -1.3269
 2429SOL     OW13632   3.502   3.379   1.757 -0.4198 -0.1287  0.0171
 2429SOL    HW113633   3.465   3.454   1.802 -0.0474 -0.1119  0.3016
 2429SOL    HW213634   3.477   3.303   1.810 -1.0337 -0.2395 -0.4202
 2430SOL     OW13635   2.740   1.792   5.392 -0.4182  0.0695  0.3638
 2430SOL    HW113636   2.672   1.854   5.418 -0.6985 -0.3763  0.7100
 2430SOL    HW213637   2.738   1.725   5.459  0.0552 -0.1864  0.1265
 2431SOL     OW13638   0.984   4.161   8.194 -0.2088 -0.0392  0.2111
 2431SOL    HW113639   0.927   4.152   8.270  0.0807  1.2723  0.6112
 2431SOL    HW213640   0.944   4.105   8.127 -0.7057 -0.8759  1.1731
 2432SOL     OW13641   5.862   5.399   1.376  0.1276  0.2259 -0.2986
 2432SOL    HW113642   5.917   5.344   1.320 -0.1052  0.1718 -0.4758
 2432SOL    HW213643   5.862   5.355   1.461  1.7127  1.0914  0.2010
 2433SOL     OW13644   6.792   1.649   3.791  0.0841 -0.1707 -0.7927
 2433SOL    HW113645   6.845   1.709   3.739 -0.1586  0.3589 -0.4473
 2433SOL    HW213646   6.832   1.652   3.878 -0.5298  0.2644 -0.5217
 2434SOL     OW13647   2.641   1.172   7.970  0.1915  0.4265 -0.0640
 2434SOL    HW113648   2.693   1.101   7.934  0.2882  0.9189 -0.9439
 2434SOL    HW213649   2.560   1.131   8.000 -0.1343  0.0545 -1.3860
 2435SOL     OW13650   8.909   8.171   1.259 -0.2392  0.0305  0.1743
 2435SOL    HW113651   8.893   8.092   1.311  0.8883 -0.0403  0.4508
 2435SOL    HW213652   8.914   8.241   1.324 -1.5278  0.3938 -0.0950
 2436SOL     OW13653   0.499   8.419   6.694  0.1657 -0.0088  0.2218
 2436SOL    HW113654   0.463   8.331   6.691 -0.6181  0.2901  0.5588
 2436SOL    HW213655   0.457   8.460   6.770  1.3151  0.3224  0.6994
 2437SOL     OW13656   5.387   4.760   0.040 -0.4458 -0.1752  0.2662
 2437SOL    HW113657   5.335   4.703  -0.016  1.1146  0.4018 -1.9074
 2437SOL    HW213658   5.478   4.736   0.021  0.2099 -0.6292  3.3448
 2438SOL     OW13659   4.109   4.922   0.609 -0.2505 -0.7767 -0.3928
 2438SOL    HW113660   4.154   4.846   0.646  0.0135 -0.5853 -0.3199
 2438SOL    HW213661   4.023   4.922   0.651  0.6486  0.4708  1.6064
 2439SOL     OW13662   8.019   1.690   8.615 -0.1589  0.0421  0.1294
 2439SOL    HW113663   8.092   1.636   8.585  0.9308  1.5212 -0.0635
 2439SOL    HW213664   8.000   1.659   8.704  0.9412 -0.1707  0.3038
 2440SOL     OW13665   0.223   2.798   2.945  0.2778  0.3052 -0.1193
 2440SOL    HW113666   0.191   2.812   2.856  0.6303 -1.4020 -0.5399
 2440SOL    HW213667   0.287   2.728   2.937 -1.6469 -1.8536  1.8233
 2441SOL     OW13668   1.002   7.450   3.778  0.3142 -0.1470 -0.9395
 2441SOL    HW113669   1.013   7.420   3.869  2.4628 -0.6850 -1.3098
 2441SOL    HW213670   0.983   7.370   3.729 -0.7414  0.1296 -1.0125
 2442SOL     OW13671   1.518   0.735   6.543  0.4917  0.2008  0.8495
 2442SOL    HW113672   1.496   0.664   6.482 -1.7965  0.7821  0.8813
 2442SOL    HW213673   1.591   0.780   6.502 -0.6118  0.2267 -1.2221
 2443SOL     OW13674   6.040   9.112   0.910 -0.2315  0.0582 -0.3343
 2443SOL    HW113675   6.070   9.196   0.946  1.9987  0.7351 -3.3686
 2443SOL    HW213676   6.101   9.048   0.946  0.1053  0.2586 -0.5409
 2444SOL     OW13677   4.275   6.348   9.092 -0.5011  0.0301 -0.2653
 2444SOL    HW113678   4.334   6.311   9.026 -0.8155 -1.9627  0.4859
 2444SOL    HW213679   4.287   6.443   9.085 -0.4372 -0.1182 -3.0643
 2445SOL     OW13680   7.828   2.169   4.014 -0.1309  0.2989 -0.3998
 2445SOL    HW113681   7.853   2.255   4.047 -1.2607  0.3705  0.2963
 2445SOL    HW213682   7.744   2.182   3.970 -0.6531 -0.5533  0.2974
 2446SOL     OW13683   6.816   2.391   6.692 -0.2589 -0.4791 -0.9560
 2446SOL    HW113684   6.899   2.393   6.739 -0.3211  0.7824 -0.8548
 2446SOL    HW213685   6.756   2.344   6.750  0.0434 -0.2369 -0.4417
 2447SOL     OW13686   0.313   2.997   0.456 -0.2776 -0.0813 -0.8057
 2447SOL    HW113687   0.293   2.924   0.398  1.5671  0.9466 -2.8993
 2447SOL    HW213688   0.401   2.979   0.489 -0.6573  0.1664  0.4157
 2448SOL     OW13689   8.295   3.241   9.038 -0.0550  0.2207  0.1937
 2448SOL    HW113690   8.277   3.325   8.996 -3.1199 -1.2974 -1.9759
 2448SOL    HW213691   8.375   3.209   8.997 -0.8508  0.5556 -1.7371
 2449SOL     OW13692   2.602   0.594   5.891 -0.0599 -0.0345  0.0006
 2449SOL    HW113693   2.553   0.517   5.862 -2.4335 -0.3628  4.1374
 2449SOL    HW213694   2.692   0.563   5.902 -0.5320 -1.6318 -0.4610
 2450SOL     OW13695   8.426   6.097   1.217 -0.4828  0.5885  0.1483
 2450SOL    HW113696   8.335   6.101   1.186 -0.4918 -1.6626 -0.2874
 2450SOL    HW213697   8.470   6.167   1.170 -1.7298  0.9189 -0.5827
 2451SOL     OW13698   0.360   9.007   5.003 -0.6470  0.4403 -0.2656
 2451SOL    HW113699   0.376   9.075   5.069 -0.7339  0.5295 -0.3360
 2451SOL    HW213700   0.446   8.992   4.963 -0.4701 -0.0481  0.2829
 2452SOL     OW13701   5.886   0.376   0.985 -0.1597 -0.1065  0.2578
 2452SOL    HW113702   5.860   0.459   1.026 -3.8380 -0.2140 -1.4002
 2452SOL    HW213703   5.868   0.310   1.052 -0.1995  0.1827  0.5372
 2453SOL     OW13704   0.316   7.749   6.918 -0.1291  0.7006  0.4861
 2453SOL    HW113705   0.359   7.669   6.887 -0.1763  1.0496 -0.5254
 2453SOL    HW213706   0.381   7.791   6.975 -0.0571  0.0068  0.9163
 2454SOL     OW13707   9.214   5.117   8.691  0.0515 -0.2718  0.1014
 2454SOL    HW113708   9.238   5.189   8.750 -0.4161  0.2717 -0.3602
 2454SOL    HW213709   9.165   5.159   8.620 -0.4994 -1.0871 -0.0174
 2455SOL     OW13710   6.561   5.070   3.568 -0.2041  0.2327 -0.2851
 2455SOL    HW113711   6.622   5.122   3.515 -0.2339 -0.0469 -0.6006
 2455SOL    HW213712   6.546   4.991   3.516 -1.1768  0.4870 -0.4189
 2456SOL     OW13713   0.328   3.025   6.629 -0.3101 -0.1336 -0.1063
 2456SOL    HW113714   0.292   3.112   6.645 -1.6492 -0.5374 -0.7734
 2456SOL    HW213715   0.384   3.008   6.705  1.3028  1.9540 -0.7279
 2457SOL     OW13716   7.234   3.004   3.511  0.3347 -0.7209  0.8617
 2457SOL    HW113717   7.155   3.052   3.484  1.8114  0.1547 -2.4593
 2457SOL    HW213718   7.229   2.921   3.463  1.0797 -0.9876  1.2346
 2458SOL     OW13719   0.993   1.112   0.336 -0.1014 -0.1119  0.2051
 2458SOL    HW113720   0.959   1.142   0.252  1.2164 -0.3951 -0.4694
 2458SOL    HW213721   1.074   1.065   0.313  1.1603  1.1770  1.7440
 2459SOL     OW13722   8.622   5.356   8.941 -0.5532 -0.2497  0.2131
 2459SOL    HW113723   8.711   5.347   8.907 -1.8390 -3.3804 -3.0093
 2459SOL    HW213724   8.593   5.442   8.910  0.8408  0.1883  0.0498
 2460SOL     OW13725   9.240   0.192   4.737  0.0587  0.6629 -0.0925
 2460SOL    HW113726   9.311   0.252   4.714  0.1397 -0.1263 -2.0612
 2460SOL    HW213727   9.167   0.250   4.760  1.4028  1.5001  2.5231
 2461SOL     OW13728   1.277   2.182   0.241  0.3873 -0.4212  0.4107
 2461SOL    HW113729   1.332   2.192   0.319 -0.1140 -0.4140  0.7762
 2461SOL    HW213730   1.190   2.163   0.277  0.1147 -0.2350 -0.1481
 2462SOL     OW13731   7.998   6.471   2.234 -0.0700  0.2148 -0.1727
 2462SOL    HW113732   8.009   6.466   2.329 -3.1431  0.0246  0.2778
 2462SOL    HW213733   8.025   6.385   2.202 -1.0106 -0.4705  0.8152
 2463SOL     OW13734   7.750   2.373   6.557  0.4364  0.4484 -0.3108
 2463SOL    HW113735   7.713   2.412   6.479  1.7999  0.3122 -1.0642
 2463SOL    HW213736   7.843   2.360   6.536  1.2227  1.9270  1.9062
 2464SOL     OW13737   5.004   3.690   8.627 -0.0752  0.1541 -0.5059
 2464SOL    HW113738   5.088   3.692   8.673 -0.5844  1.0785  0.4249
 2464SOL    HW213739   4.977   3.598   8.630  1.2748 -0.3026 -1.5486
 2465SOL     OW13740   4.499   0.996   5.715  0.3530  0.2268 -0.8132
 2465SOL    HW113741   4.474   0.929   5.652  1.8271  0.8313 -2.0918
 2465SOL    HW213742   4.487   1.079   5.669  1.3616  0.6859 -0.2881
 2466SOL     OW13743   4.302   5.941   5.373 -0.0869  0.1840  0.1834
 2466SOL    HW113744   4.384   5.979   5.344  0.4960 -1.3234 -0.2575
 2466SOL    HW213745   4.327   5.884   5.446 -1.0677  1.3908  1.5019
 2467SOL     OW13746   1.682   8.125   2.978  0.2577  0.2966 -0.3056
 2467SOL    HW113747   1.754   8.073   3.015 -0.1776 -1.4767 -1.7846
 2467SOL    HW213748   1.608   8.107   3.035  0.6935  1.2152  0.5646
 2468SOL     OW13749   2.276   2.134   1.261  0.5421 -0.2061  0.1780
 2468SOL    HW113750   2.314   2.190   1.193  0.7903 -0.4964  0.0750
 2468SOL    HW213751   2.317   2.163   1.342 -0.2598  0.5994  0.3073
 2469SOL     OW13752   1.809   3.629   1.242  0.3012  0.1273 -0.4706
 2469SOL    HW113753   1.827   3.592   1.156  1.4534 -0.5323  0.0395
 2469SOL    HW213754   1.894   3.662   1.273 -0.0543  0.1766  0.5009
 2470SOL     OW13755   0.212   4.479   0.006  0.2225 -0.1899 -0.1412
 2470SOL    HW113756   0.241   4.511   0.092 -0.6272  0.4352 -0.0782
 2470SOL    HW213757   0.279   4.416  -0.019 -0.9480 -2.6053  2.2698
 2471SOL     OW13758   6.580   6.852   8.025  0.0490  0.2523  0.0095
 2471SOL    HW113759   6.546   6.788   7.961  2.5237  1.6908 -3.0174
 2471SOL    HW213760   6.537   6.934   8.001  1.5762  0.9647 -0.3673
 2472SOL     OW13761   3.469   9.054   4.992 -0.1389 -0.0856 -0.2431
 2472SOL    HW113762   3.422   9.021   4.915  3.0226 -2.2862 -1.4402
 2472SOL    HW213763   3.444   8.994   5.062 -0.0376 -0.5618 -0.5989
 2473SOL     OW13764   1.797   7.524   5.920 -0.3246 -0.2630 -0.4938
 2473SOL    HW113765   1.791   7.577   6.000 -0.7675 -2.8269  1.2928
 2473SOL    HW213766   1.718   7.547   5.870 -0.1967  1.1544 -0.0974
 2474SOL     OW13767   2.477   4.144   6.582 -0.0587 -0.0510  0.0793
 2474SOL    HW113768   2.495   4.174   6.493 -1.5571 -1.1739 -0.6340
 2474SOL    HW213769   2.563   4.146   6.625  0.9439 -0.7530 -1.7692
 2475SOL     OW13770   2.174   8.277   8.886 -0.1038 -0.1400 -0.0074
 2475SOL    HW113771   2.134   8.195   8.857 -2.6270 -0.3707  3.4988
 2475SOL    HW213772   2.172   8.333   8.808 -2.5128 -1.9067 -1.3741
 2476SOL     OW13773   5.920   7.757   7.071  0.2151 -0.0335  0.1954
 2476SOL    HW113774   5.952   7.673   7.105 -0.9300 -0.5327  0.0805
 2476SOL    HW213775   5.855   7.785   7.134  0.6971  0.8582  0.3092
 2477SOL     OW13776   3.477   9.239   5.911  0.3676  0.0572 -0.8848
 2477SOL    HW113777   3.417   9.299   5.867 -0.2966  1.3630  1.5750
 2477SOL    HW213778   3.420   9.169   5.944  1.0504 -1.7039 -3.1789
 2478SOL     OW13779   3.392   4.787   6.846  0.1705  0.0790  0.4253
 2478SOL    HW113780   3.394   4.700   6.806 -0.1522  0.3867 -0.2685
 2478SOL    HW213781   3.468   4.788   6.905 -0.0378 -0.7979  0.7156
 2479SOL     OW13782   1.580   3.847   8.570  0.3501  0.7019 -0.1615
 2479SOL    HW113783   1.510   3.816   8.513  0.1862  1.0338 -0.1453
 2479SOL    HW213784   1.536   3.882   8.647  0.5885 -0.0163  0.3093
 2480SOL     OW13785   3.411   4.345   3.034 -0.5246  0.2677 -0.4863
 2480SOL    HW113786   3.377   4.434   3.022 -0.1444  0.7804  1.7224
 2480SOL    HW213787   3.505   4.357   3.047  0.3018 -0.9265 -4.2837
 2481SOL     OW13788   1.399   4.583   9.030  0.6293 -0.0409 -0.0407
 2481SOL    HW113789   1.437   4.573   9.117  0.5673  0.2268  0.0198
 2481SOL    HW213790   1.345   4.662   9.036  2.1732  1.1396 -0.8604
 2482SOL     OW13791   2.703   0.919   8.889  0.2964  0.2426  0.1551
 2482SOL    HW113792   2.787   0.884   8.861  0.4051  1.7755 -1.6703
 2482SOL    HW213793   2.639   0.878   8.830 -0.2575 -0.8086  1.4386
 2483SOL     OW13794   5.222   8.283   7.709  0.2798 -0.0816  0.1570
 2483SOL    HW113795   5.232   8.194   7.674  2.3487  0.3877 -0.6130
 2483SOL    HW213796   5.185   8.333   7.637 -1.0252 -0.3212  0.6400
 2484SOL     OW13797   7.896   2.998   1.464  0.1183  0.3455 -0.0743
 2484SOL    HW113798   7.831   3.056   1.424 -0.3996 -0.0412  0.1998
 2484SOL    HW213799   7.980   3.036   1.439 -0.2111  1.4917  0.4852
 2485SOL     OW13800   4.747   1.996   1.272  0.6676  0.1477 -0.1082
 2485SOL    HW113801   4.687   2.065   1.245  0.9159  0.7888  0.9223
 2485SOL    HW213802   4.698   1.915   1.256  0.7872  0.4585 -2.3837
 2486SOL     OW13803   1.537   1.973   6.927 -0.1235 -0.0504 -0.4154
 2486SOL    HW113804   1.526   1.924   6.846 -1.7627 -1.3731  0.5531
 2486SOL    HW213805   1.532   2.065   6.901 -0.7924 -0.4564 -1.7887
 2487SOL     OW13806   0.967   3.968   7.455 -0.5817  0.2410  0.3028
 2487SOL    HW113807   0.948   3.970   7.549  1.4059 -0.3025  0.7706
 2487SOL    HW213808   0.884   3.946   7.414 -1.0738 -1.5430  2.0934
 2488SOL     OW13809   0.356   4.736   3.234 -0.4597  0.1845  0.3478
 2488SOL    HW113810   0.439   4.774   3.264  0.1533  0.2679 -1.3630
 2488SOL    HW213811   0.295   4.810   3.237  0.0300  0.6302 -0.2515
 2489SOL     OW13812   4.037   2.636   8.160 -0.3808 -0.4201 -0.6067
 2489SOL    HW113813   4.079   2.633   8.246 -1.0275 -2.1559 -0.3053
 2489SOL    HW213814   4.068   2.557   8.115 -0.8899 -0.0957 -1.5645
 2490SOL     OW13815   1.079   7.284   4.002 -0.5479 -0.8652 -0.5867
 2490SOL    HW113816   0.984   7.272   4.003 -0.7923  0.8508  0.5258
 2490SOL    HW213817   1.110   7.240   4.081 -0.7411  0.6402  0.3588
 2491SOL     OW13818   6.240   5.508   2.153  0.2033  0.3538  0.3537
 2491SOL    HW113819   6.281   5.531   2.069 -1.5066 -0.7964 -0.8726
 2491SOL    HW213820   6.158   5.465   2.128  0.2428 -1.1955  2.6227
 2492SOL     OW13821   2.646   3.242   0.090 -0.1397  0.2879 -0.9482
 2492SOL    HW113822   2.558   3.220   0.120 -0.4191  1.2776 -1.0048
 2492SOL    HW213823   2.696   3.161   0.102 -1.1531 -0.4325 -1.3357
 2493SOL     OW13824   4.589   6.651   5.593 -0.7577 -0.2584 -0.1394
 2493SOL    HW113825   4.552   6.570   5.556 -0.2599  0.5107 -2.5065
 2493SOL    HW213826   4.525   6.718   5.572  0.7290  0.6577 -2.1018
 2494SOL     OW13827   2.668   5.000   8.727  0.6198  0.1600  0.1452
 2494SOL    HW113828   2.643   4.960   8.811  2.5206 -0.7287  0.3549
 2494SOL    HW213829   2.585   5.027   8.688 -0.5006 -1.2375  1.4007
 2495SOL     OW13830   8.047   9.087   0.233  0.1086  0.0902 -0.0254
 2495SOL    HW113831   7.956   9.114   0.245 -0.4635 -1.2261 -1.1213
 2495SOL    HW213832   8.050   8.997   0.266  0.9366  0.0106 -0.2894
 2496SOL     OW13833   6.479   4.481   8.272  0.4256  0.4862  0.1657
 2496SOL    HW113834   6.560   4.502   8.225  0.1883 -2.7621 -2.0449
 2496SOL    HW213835   6.462   4.389   8.250 -2.0451  0.0028  3.3702
 2497SOL     OW13836   4.470   1.652   9.054  0.3480 -0.2581 -0.0286
 2497SOL    HW113837   4.503   1.646   9.143 -1.4794 -1.3038  0.6293
 2497SOL    HW213838   4.376   1.665   9.064 -0.4657 -3.5971 -1.7045
 2498SOL     OW13839   8.523   7.068   7.501  0.1868  0.2216 -0.1779
 2498SOL    HW113840   8.451   7.128   7.520  0.7820  0.8829  0.0420
 2498SOL    HW213841   8.569   7.060   7.585  1.1383  0.8602 -0.6216
 2499SOL     OW13842   2.183   1.112   9.096  0.1951 -0.5806 -0.0167
 2499SOL    HW113843   2.175   1.207   9.106  0.6094 -0.5695  0.2100
 2499SOL    HW213844   2.118   1.090   9.029 -1.4946 -0.4410  1.4878
 2500SOL     OW13845   2.225   6.108   2.065 -0.5499 -0.5208  0.6015
 2500SOL    HW113846   2.302   6.142   2.110 -1.0203 -0.5880  1.4929
 2500SOL    HW213847   2.154   6.166   2.092 -0.9124 -0.7828  0.2291
 2501SOL     OW13848   0.344   5.667   2.941 -0.1521  0.8286  0.2850
 2501SOL    HW113849   0.429   5.659   2.898  0.1846  0.8560  0.9289
 2501SOL    HW213850   0.355   5.743   2.999 -0.4985  0.6076  0.6377
 2502SOL     OW13851   1.265   0.537   5.544 -0.2553  0.3543 -0.0105
 2502SOL    HW113852   1.316   0.544   5.463 -1.0365  1.9644 -0.4145
 2502SOL    HW213853   1.294   0.612   5.596 -1.4127  0.6784  0.1944
 2503SOL     OW13854   0.608   7.294   3.030  0.5947 -0.2926  0.2302
 2503SOL    HW113855   0.677   7.334   3.083  1.6268 -1.9037  0.1596
 2503SOL    HW213856   0.626   7.200   3.034 -1.1737 -0.6963 -0.4095
 2504SOL     OW13857   7.152   5.237   7.223  0.5887 -0.3516 -0.0772
 2504SOL    HW113858   7.238   5.221   7.263  0.8818  2.8183  0.7762
 2504SOL    HW213859   7.165   5.313   7.167 -1.5303 -0.1856 -0.4111
 2505SOL     OW13860   2.255   5.191   8.094  0.1568  0.4635 -0.4751
 2505SOL    HW113861   2.173   5.195   8.044 -0.9665  0.1765  1.2858
 2505SOL    HW213862   2.302   5.118   8.055  0.0265  1.1887 -2.1178
 2506SOL     OW13863   1.849   5.997   0.069  0.2544  0.2792  0.3013
 2506SOL    HW113864   1.918   5.933   0.085 -0.5608 -1.1207 -1.4453
 2506SOL    HW213865   1.896   6.081   0.063  1.5139 -0.3187  1.2074
 2507SOL     OW13866   0.328   7.395   7.025 -0.0266  0.4131  0.0798
 2507SOL    HW113867   0.375   7.314   7.047  1.2529  0.3425 -2.5277
 2507SOL    HW213868   0.244   7.386   7.069  0.6463 -1.6251  1.1074
 2508SOL     OW13869   6.692   0.081   0.366  0.2364  0.3783  0.0735
 2508SOL    HW113870   6.635   0.033   0.306  1.0158  1.3611 -1.5132
 2508SOL    HW213871   6.632   0.117   0.432 -0.9799  1.1756 -1.3964
 2509SOL     OW13872   2.282   5.905   6.859  0.2529  0.4054 -0.0351
 2509SOL    HW113873   2.267   5.998   6.877 -3.0097 -0.1818  0.8592
 2509SOL    HW213874   2.370   5.888   6.891  2.2718  3.7798 -3.0188
 2510SOL     OW13875   4.288   5.417   7.092  0.1934 -0.2176  0.4605
 2510SOL    HW113876   4.206   5.466   7.104 -0.0770 -0.5101 -0.1560
 2510SOL    HW213877   4.338   5.471   7.031  0.4426 -0.0649  0.7981
 2511SOL     OW13878   6.677   7.782   0.983 -0.2524  0.3340 -0.1510
 2511SOL    HW113879   6.717   7.731   0.913  3.5532  1.0457  1.2609
 2511SOL    HW213880   6.725   7.757   1.062 -2.0704  1.9986  1.6144
 2512SOL     OW13881   2.220   6.677   4.842  0.6194  0.4421  0.5781
 2512SOL    HW113882   2.315   6.666   4.842  0.6819  0.9319  1.2168
 2512SOL    HW213883   2.204   6.753   4.898 -0.2260 -0.3070  1.3874
 2513SOL     OW13884   2.313   6.151   7.644  0.7977  0.1729  0.1267
 2513SOL    HW113885   2.300   6.089   7.572  1.7676  0.5563 -0.3984
 2513SOL    HW213886   2.252   6.121   7.712  2.4818 -2.4614  0.6283
 2514SOL     OW13887   6.879   5.047   1.179 -0.0742 -0.0359  0.0864
 2514SOL    HW113888   6.855   4.975   1.120 -1.1771  1.0394 -0.8239
 2514SOL    HW213889   6.971   5.064   1.160  0.1007 -0.9642  0.0577
 2515SOL     OW13890   1.006   9.200   0.057 -0.0057 -0.0836 -0.7437
 2515SOL    HW113891   0.976   9.242  -0.024 -1.3239 -1.4360 -0.9864
 2515SOL    HW213892   0.980   9.109   0.048 -0.2505 -0.2430  1.2523
 2516SOL     OW13893   2.668   1.434   4.829 -0.0897 -0.4239 -0.1687
 2516SOL    HW113894   2.761   1.450   4.844 -0.2801  1.3815 -0.7474
 2516SOL    HW213895   2.650   1.354   4.879  2.4405 -2.7034 -2.4804
 2517SOL     OW13896   6.815   2.674   6.671 -0.3197 -0.0555 -0.3626
 2517SOL    HW113897   6.851   2.700   6.586  0.9122 -0.1313  0.1121
 2517SOL    HW213898   6.823   2.579   6.672 -3.3169 -0.4027 -1.4361
 2518SOL     OW13899   8.634   5.768   6.544 -0.9081  0.0655 -0.4758
 2518SOL    HW113900   8.543   5.796   6.533 -0.1665  2.4571 -1.2037
 2518SOL    HW213901   8.671   5.830   6.608  0.4394 -0.2689 -0.8854
 2519SOL     OW13902   6.512   4.605   6.185 -0.4369  0.5966 -0.2101
 2519SOL    HW113903   6.542   4.515   6.175 -2.8655 -0.4396  0.9465
 2519SOL    HW213904   6.592   4.658   6.182  1.3980 -1.8265  1.7723
 2520SOL     OW13905   0.714   2.778   6.662 -0.8563  0.0923  0.2432
 2520SOL    HW113906   0.782   2.788   6.596  1.1062 -0.5821  2.0573
 2520SOL    HW213907   0.660   2.706   6.629 -2.3924  2.2972 -2.4943
 2521SOL     OW13908   7.663   3.511   1.120 -0.0160 -0.1114  0.0285
 2521SOL    HW113909   7.683   3.418   1.129 -0.5765 -0.1045  1.7082
 2521SOL    HW213910   7.743   3.550   1.085  0.5851 -1.0698  0.3119
 2522SOL     OW13911   0.796   3.424   1.701 -0.6380  0.0543  0.1619
 2522SOL    HW113912   0.837   3.456   1.620 -1.0936  2.5949  0.8575
 2522SOL    HW213913   0.704   3.414   1.678 -0.9690  1.8269  0.5999
 2523SOL     OW13914   3.617   4.514   3.631  0.8060  0.4485  0.5781
 2523SOL    HW113915   3.672   4.591   3.619  0.8410  0.3073 -0.2089
 2523SOL    HW213916   3.549   4.522   3.565  1.1512 -0.4877  0.0775
 2524SOL     OW13917   1.572   2.259   8.442 -0.0149 -0.1645 -0.3448
 2524SOL    HW113918   1.501   2.195   8.452 -0.9143  0.9831  0.8305
 2524SOL    HW213919   1.651   2.210   8.466 -0.0817 -1.9402 -3.2354
 2525SOL     OW13920   4.851   8.804   5.841  0.3135 -0.1717  0.2866
 2525SOL    HW113921   4.765   8.810   5.881  0.3428  1.2146  0.2015
 2525SOL    HW213922   4.856   8.881   5.784  1.4475 -0.4442 -0.0012
 2526SOL     OW13923   9.243   2.911   7.926 -0.0325 -0.6149  0.5870
 2526SOL    HW113924   9.266   2.941   7.838  2.1800 -0.7895  1.0597
 2526SOL    HW213925   9.315   2.854   7.952 -1.5963 -2.1578  1.7805
 2527SOL     OW13926   2.700   9.068   7.291  0.2355  0.1316  0.0434
 2527SOL    HW113927   2.786   9.099   7.262  0.7378 -2.2378 -1.2599
 2527SOL    HW213928   2.710   8.973   7.297 -1.7037 -0.0276  2.0141
 2528SOL     OW13929   4.056   1.215   6.689  0.3181  0.4748  0.4845
 2528SOL    HW113930   4.079   1.301   6.652  1.1068 -0.5738 -1.6455
 2528SOL    HW213931   4.031   1.162   6.613 -0.8754 -1.0018  1.8232
 2529SOL     OW13932   7.879   8.643   1.501 -0.0902  0.4225  0.5339
 2529SOL    HW113933   7.886   8.564   1.448 -1.2601 -0.7323  2.0140
 2529SOL    HW213934   7.901   8.714   1.441  2.5052 -1.0967 -0.4766
 2530SOL     OW13935   5.974   5.237   9.004  0.3692 -0.1769  0.7210
 2530SOL    HW113936   6.023   5.318   9.013 -0.5021  0.2667  1.6008
 2530SOL    HW213937   5.932   5.224   9.089 -2.4450  0.4027 -0.4837
 2531SOL     OW13938   0.424   8.435   8.154  0.5547 -0.0368  0.1895
 2531SOL    HW113939   0.400   8.358   8.103 -0.4573  0.7810 -0.6140
 2531SOL    HW213940   0.519   8.442   8.145  0.5912 -0.8810 -0.1534
 2532SOL     OW13941   8.202   9.227   6.713  0.0463  0.3073  0.0470
 2532SOL    HW113942   8.226   9.292   6.779  0.5865 -0.0312  0.1912
 2532SOL    HW213943   8.175   9.278   6.637  2.6831  0.7509 -0.6746
 2533SOL     OW13944   0.090   7.322   7.206 -0.6951 -0.0081 -0.7714
 2533SOL    HW113945   0.069   7.230   7.188  2.7660 -0.8076 -1.3695
 2533SOL    HW213946   0.121   7.323   7.297 -1.3994  0.7393 -0.5230
 2534SOL     OW13947   6.842   2.421   8.110 -0.2150  0.1355  0.1808
 2534SOL    HW113948   6.859   2.383   8.024  0.8720  0.5093  0.2173
 2534SOL    HW213949   6.855   2.515   8.098  0.3432  0.1481  0.8444
 2535SOL     OW13950   7.466   2.849   3.103  0.1727  0.3006 -0.2896
 2535SOL    HW113951   7.382   2.845   3.149  0.6108 -0.9522  0.4501
 2535SOL    HW213952   7.453   2.795   3.025  0.3324 -0.0070 -0.1033
 2536SOL     OW13953   6.078   7.725   2.901 -0.0444 -0.2863  0.4808
 2536SOL    HW113954   6.037   7.643   2.928 -0.7739  0.5823  2.1781
 2536SOL    HW213955   6.013   7.792   2.922  0.5085  0.7425 -0.9172
 2537SOL     OW13956   2.537   8.941   5.066  0.4211  0.3828 -0.1744
 2537SOL    HW113957   2.563   8.972   4.980 -0.0022  0.6557 -0.2044
 2537SOL    HW213958   2.519   8.847   5.053  0.7701  0.3311 -0.2877
 2538SOL     OW13959   1.569   1.108   7.555 -0.3915 -0.3707  0.1791
 2538SOL    HW113960   1.498   1.171   7.561 -1.4451 -1.4911 -0.1253
 2538SOL    HW213961   1.634   1.138   7.619 -1.1560  0.6333  0.4982
 2539SOL     OW13962   0.551   1.013   6.819  0.0837 -0.3504 -0.2962
 2539SOL    HW113963   0.576   0.964   6.898 -0.0514 -0.9852 -0.6440
 2539SOL    HW213964   0.628   1.010   6.763  0.6141  1.1268  0.2809
 2540SOL     OW13965   6.099   2.781   5.034  0.3989  0.0233  0.2656
 2540SOL    HW113966   6.058   2.697   5.017 -1.0297  0.9548 -1.1631
 2540SOL    HW213967   6.044   2.822   5.101  1.1549 -0.1803  1.0441
 2541SOL     OW13968   8.131   1.419   2.639 -0.2630  0.0433  0.5253
 2541SOL    HW113969   8.114   1.357   2.710 -1.9991 -1.6219 -1.2288
 2541SOL    HW213970   8.185   1.371   2.577 -0.3021  0.8339 -0.1424
 2542SOL     OW13971   1.679   1.044   6.585 -0.0815 -0.1714 -0.4009
 2542SOL    HW113972   1.764   1.004   6.570 -0.1062 -0.5254  0.3584
 2542SOL    HW213973   1.650   1.073   6.498  0.3800 -0.8988 -0.8045
 2543SOL     OW13974   4.625   4.101   2.068 -0.1879  0.8338  0.1675
 2543SOL    HW113975   4.708   4.096   2.020 -1.0431  0.2401 -1.2963
 2543SOL    HW213976   4.610   4.195   2.079 -0.0229  0.9854 -0.8241
 2544SOL     OW13977   6.116   1.644   5.594  0.4409  0.5339  0.3684
 2544SOL    HW113978   6.154   1.708   5.533  2.7624  0.6974  1.8475
 2544SOL    HW213979   6.105   1.693   5.675 -0.2571 -0.2984  0.7876
 2545SOL     OW13980   0.405   4.641   6.341 -0.2152  0.1005 -0.3999
 2545SOL    HW113981   0.448   4.723   6.317  0.2150 -0.1140 -0.3625
 2545SOL    HW213982   0.383   4.600   6.258 -1.0509  0.5702 -0.4253
 2546SOL     OW13983   6.576   7.675   7.861 -0.0808  0.5808 -0.5931
 2546SOL    HW113984   6.604   7.747   7.805  0.8445  0.5530 -0.1832
 2546SOL    HW213985   6.538   7.717   7.938 -0.5833  0.6237 -0.8640
 2547SOL     OW13986   2.786   6.113   1.794 -0.4487 -0.2039 -0.4789
 2547SOL    HW113987   2.791   6.064   1.876  0.3001 -3.1809 -2.1262
 2547SOL    HW213988   2.692   6.127   1.780 -0.7359 -1.6531 -0.1455
 2548SOL     OW13989   6.518   0.846   6.312  0.2158  0.3063  0.3518
 2548SOL    HW113990   6.581   0.877   6.378 -0.1934  3.0970 -0.4675
 2548SOL    HW213991   6.432   0.865   6.350 -0.0266  2.5495 -1.1399
 2549SOL     OW13992   1.433   0.772   6.200  0.0506 -0.0367  0.3487
 2549SOL    HW113993   1.366   0.713   6.167 -0.0749 -0.9204  2.0502
 2549SOL    HW213994   1.494   0.783   6.128 -0.4577 -1.4572 -0.3319
 2550SOL     OW13995   8.535   2.931   8.246 -0.2552 -0.1954 -0.0726
 2550SOL    HW113996   8.592   2.899   8.176  0.2561 -3.8075  1.7667
 2550SOL    HW213997   8.594   2.946   8.320 -1.2866 -0.7828  0.8883
 2551SOL     OW13998   8.091   3.171   6.127  0.1273  0.6470 -0.2877
 2551SOL    HW113999   8.073   3.109   6.197  0.0636  1.4286  0.4123
 2551SOL    HW214000   8.007   3.216   6.113  0.0396  0.2430 -1.1327
 2552SOL     OW14001   2.950   0.567   7.311 -0.4672 -0.1602 -0.5135
 2552SOL    HW114002   3.006   0.640   7.284 -0.4864 -0.4076 -1.2302
 2552SOL    HW214003   2.878   0.567   7.248 -0.5898 -0.6562 -0.3811
 2553SOL     OW14004   1.503   1.628   8.605 -0.0648 -1.0793 -0.1242
 2553SOL    HW114005   1.418   1.600   8.639 -0.2168 -0.8161 -0.2892
 2553SOL    HW214006   1.496   1.723   8.597  0.2272 -1.0616 -0.1896
 2554SOL     OW14007   3.361   0.194   5.547 -0.3090  0.7714  0.1940
 2554SOL    HW114008   3.412   0.151   5.478 -1.4628  1.5404 -1.1923
 2554SOL    HW214009   3.423   0.252   5.590  0.7106 -0.5655  0.5742
 2555SOL     OW14010   3.114   6.728   2.401 -0.1644  0.3856  0.3585
 2555SOL    HW114011   3.051   6.698   2.334  2.5073 -0.5788 -1.9427
 2555SOL    HW214012   3.170   6.652   2.416  1.6686  1.7628  0.8061
 2556SOL     OW14013   3.318   0.126   7.307  0.5390  0.6006 -0.2805
 2556SOL    HW114014   3.382   0.161   7.369 -1.3452  1.0545  1.5521
 2556SOL    HW214015   3.259   0.200   7.291  0.7090  0.3372 -2.2990
 2557SOL     OW14016   1.666   7.085   5.306 -0.2526  0.2931 -0.2369
 2557SOL    HW114017   1.576   7.102   5.331  0.1590  1.0427  0.7675
 2557SOL    HW214018   1.718   7.104   5.384  0.7616 -0.3424 -0.7237
 2558SOL     OW14019   0.167   4.573   6.788  0.0203 -0.2304 -0.3470
 2558SOL    HW114020   0.164   4.641   6.721 -0.2595 -0.0395 -0.1470
 2558SOL    HW214021   0.260   4.555   6.801  0.1645  0.9782  0.4570
 2559SOL     OW14022   1.653   2.424   3.841  0.0788 -0.2927  0.2092
 2559SOL    HW114023   1.682   2.460   3.925  1.0870  1.1131 -0.7025
 2559SOL    HW214024   1.729   2.434   3.784  0.1423 -3.1315 -0.3732
 2560SOL     OW14025   0.166   1.780   8.330 -0.0127  0.2678  0.3619
 2560SOL    HW114026   0.197   1.709   8.387 -2.9622  0.0604  1.9372
 2560SOL    HW214027   0.191   1.860   8.375  0.8853  0.2048  0.0015
 2561SOL     OW14028   2.187   7.582   3.171  0.9671  0.5232 -0.5770
 2561SOL    HW114029   2.151   7.528   3.242  0.2457 -1.1835 -2.1502
 2561SOL    HW214030   2.222   7.659   3.215  1.6992 -1.0431  1.7587
 2562SOL     OW14031   6.383   6.767   6.865 -0.2945 -0.3252  0.0618
 2562SOL    HW114032   6.313   6.775   6.801  2.3186  0.8845 -2.8611
 2562SOL    HW214033   6.430   6.687   6.841  1.4317  0.7613 -0.3795
 2563SOL     OW14034   3.296   2.173   8.892 -0.0159  0.1565 -0.7751
 2563SOL    HW114035   3.370   2.112   8.887  1.7279  2.0862  0.0518
 2563SOL    HW214036   3.248   2.146   8.970  1.4451  0.5214  0.3020
 2564SOL     OW14037   3.846   4.267   8.063 -0.1906  0.4582 -0.2658
 2564SOL    HW114038   3.780   4.227   8.121  0.0105  0.6058  0.0687
 2564SOL    HW214039   3.872   4.347   8.108 -0.6282  1.0057 -0.9619
 2565SOL     OW14040   6.754   3.702   2.163 -0.1787 -0.1836 -0.2655
 2565SOL    HW114041   6.801   3.628   2.123 -1.4201 -0.6428 -0.9141
 2565SOL    HW214042   6.787   3.778   2.115 -0.0601 -0.4930 -0.6879
 2566SOL     OW14043   6.147   0.054   5.966 -0.2347  0.2977  0.1730
 2566SOL    HW114044   6.169  -0.001   6.041 -0.0051  1.3376  0.8967
 2566SOL    HW214045   6.057   0.082   5.982 -0.2499  0.3727 -0.0388
 2567SOL     OW14046   2.885   7.933   9.161 -0.1168  0.1093 -0.1383
 2567SOL    HW114047   2.920   7.957   9.075 -0.3057  1.6367  0.1949
 2567SOL    HW214048   2.960   7.938   9.220  0.2125 -1.7876 -0.3143
 2568SOL     OW14049   6.432   3.512   1.345  0.0866 -0.3489  0.4634
 2568SOL    HW114050   6.483   3.592   1.336  0.4690 -0.4631  1.5472
 2568SOL    HW214051   6.495   3.445   1.372 -0.4240 -0.7662  0.6384
 2569SOL     OW14052   2.257   5.174   0.247  0.1328 -0.0243 -0.4406
 2569SOL    HW114053   2.260   5.084   0.280 -1.3142 -0.0583 -0.3129
 2569SOL    HW214054   2.328   5.179   0.183  2.9160 -0.0337  2.4262
 2570SOL     OW14055   5.756   7.404   3.532 -0.0024  0.3600 -0.4516
 2570SOL    HW114056   5.782   7.410   3.440  1.2712 -2.0417 -0.3217
 2570SOL    HW214057   5.688   7.336   3.533 -0.2865  0.6451  0.3587
 2571SOL     OW14058   4.709   2.451   2.938 -0.4652 -0.5367  0.3456
 2571SOL    HW114059   4.710   2.533   2.987  0.3127 -0.8527  0.8952
 2571SOL    HW214060   4.746   2.473   2.853  0.2905 -0.4185  0.6947
 2572SOL     OW14061   7.369   5.294   7.389 -0.2019  0.7948 -0.2546
 2572SOL    HW114062   7.421   5.361   7.344 -1.2009  3.2161  1.9694
 2572SOL    HW214063   7.401   5.295   7.479 -1.2391 -0.7470  0.1777
 2573SOL     OW14064   2.355   5.328   1.691 -0.5099 -0.1258  0.1842
 2573SOL    HW114065   2.310   5.377   1.760  2.1329 -0.1566  2.1088
 2573SOL    HW214066   2.421   5.276   1.738  1.1528 -0.4805 -2.3392
 2574SOL     OW14067   6.266   0.964   4.774 -0.2247  0.4816  0.0329
 2574SOL    HW114068   6.176   0.990   4.754 -0.4597  0.7133  1.3103
 2574SOL    HW214069   6.319   1.042   4.754 -0.4049  0.5969  0.0044
 2575SOL     OW14070   4.082   5.710   3.235 -0.7812  0.7283 -0.1150
 2575SOL    HW114071   4.123   5.625   3.252 -0.9463  0.6710  0.0011
 2575SOL    HW214072   4.147   5.758   3.184 -1.0297  0.2236 -0.9250
 2576SOL     OW14073   3.064   2.536   7.086 -0.3356  0.1464 -0.3372
 2576SOL    HW114074   2.978   2.577   7.097 -0.4093  0.3250 -1.4973
 2576SOL    HW214075   3.068   2.513   6.993  1.2134  0.9141 -0.4963
 2577SOL     OW14076   2.561   2.440   9.062  0.1760 -0.6937 -0.3986
 2577SOL    HW114077   2.581   2.347   9.054 -0.2961 -0.7123 -1.5353
 2577SOL    HW214078   2.506   2.459   8.986  0.1294  0.4744 -0.0844
 2578SOL     OW14079   6.647   4.763   0.122 -0.4645  0.0670 -0.4699
 2578SOL    HW114080   6.604   4.848   0.113 -0.0165  0.2681 -0.7667
 2578SOL    HW214081   6.686   4.746   0.036  1.4007  0.6555  0.2038
 2579SOL     OW14082   5.830   4.505   3.136  0.2148 -0.0312  0.0237
 2579SOL    HW114083   5.871   4.587   3.112 -0.8740  0.1938 -1.1533
 2579SOL    HW214084   5.897   4.459   3.187  1.5500  0.7358 -0.9688
 2580SOL     OW14085   1.898   7.824   4.338 -0.4758 -0.2822 -0.6947
 2580SOL    HW114086   1.849   7.844   4.258  0.2375 -1.5797 -1.4823
 2580SOL    HW214087   1.982   7.792   4.307 -0.6958 -2.1707  0.5375
 2581SOL     OW14088   7.402   5.885   6.621  0.1684  0.1625  0.4360
 2581SOL    HW114089   7.320   5.837   6.608  0.1618 -0.0757  1.2756
 2581SOL    HW214090   7.423   5.872   6.714 -0.1865  2.3343  0.8775
 2582SOL     OW14091   1.310   5.316   7.671 -0.2876 -0.8548 -0.0384
 2582SOL    HW114092   1.291   5.337   7.580 -1.2037  1.2539  0.5793
 2582SOL    HW214093   1.229   5.335   7.718  1.1169  1.5634  1.6671
 2583SOL     OW14094   7.963   7.959   5.817  0.8087 -0.0743 -0.1147
 2583SOL    HW114095   8.007   8.016   5.880  1.3339 -0.7092  0.1045
 2583SOL    HW214096   8.007   7.874   5.826  2.5114  0.3583 -2.8986
 2584SOL     OW14097   4.459   0.101   4.259  0.4830  0.2850  0.4306
 2584SOL    HW114098   4.481   0.064   4.174  1.0459 -0.5778  0.9490
 2584SOL    HW214099   4.433   0.191   4.239 -0.1073 -0.1211 -0.7401
 2585SOL     OW14100   8.358   8.535   7.924 -0.1418 -0.2178  0.2657
 2585SOL    HW114101   8.437   8.585   7.905  1.3879 -2.4234  0.4315
 2585SOL    HW214102   8.351   8.537   8.020  1.3587 -2.2790  0.4712
 2586SOL     OW14103   2.356   0.391   8.743  0.5474  0.3014  0.7938
 2586SOL    HW114104   2.361   0.407   8.837  5.0936 -1.8829  1.1765
 2586SOL    HW214105   2.414   0.456   8.704 -0.8543  0.8281 -0.5056
 2587SOL     OW14106   2.785   5.183   8.017 -0.2602 -0.4085  0.6692
 2587SOL    HW114107   2.865   5.139   7.989 -1.2759 -1.8689 -0.1237
 2587SOL    HW214108   2.813   5.243   8.085  1.4143 -1.3582  0.8857
 2588SOL     OW14109   4.656   8.828   2.835 -0.0670  0.0458  0.2257
 2588SOL    HW114110   4.731   8.782   2.798  0.5899  0.4548  1.0162
 2588SOL    HW214111   4.615   8.764   2.894  0.2122  0.1293  0.5086
 2589SOL     OW14112   5.293   8.802   6.201 -0.7868 -0.1271 -0.3459
 2589SOL    HW114113   5.352   8.772   6.270  0.6266  0.8449 -1.0641
 2589SOL    HW214114   5.335   8.881   6.167 -2.3120  0.3512 -1.1898
 2590SOL     OW14115   0.463   1.254   3.259  0.3370  0.9045 -0.3187
 2590SOL    HW114116   0.437   1.241   3.350 -1.9262  4.2994 -0.3222
 2590SOL    HW214117   0.557   1.235   3.258  0.3338  0.2906  2.5879
 2591SOL     OW14118   5.071   5.860   4.651 -0.1595 -0.3006 -0.0478
 2591SOL    HW114119   5.028   5.889   4.731  0.7436  1.6398 -0.2208
 2591SOL    HW214120   5.155   5.905   4.650 -0.3239  0.1115 -2.3221
 2592SOL     OW14121   8.306   9.200   4.849  0.3008  0.7724  0.5580
 2592SOL    HW114122   8.249   9.128   4.821  0.3461  0.3936  1.4072
 2592SOL    HW214123   8.386   9.157   4.878  0.8925  1.2800 -0.2860
 2593SOL     OW14124   0.817   4.897   8.149  0.0373 -0.3350  0.2114
 2593SOL    HW114125   0.833   4.806   8.176  0.3394  0.0697  1.4787
 2593SOL    HW214126   0.844   4.900   8.058  1.4436 -1.1643  0.5697
 2594SOL     OW14127   6.549   7.097   5.702 -0.7901 -0.0562 -0.6350
 2594SOL    HW114128   6.594   7.085   5.785 -0.0677 -1.4273 -1.2011
 2594SOL    HW214129   6.510   7.012   5.682  0.2397 -0.1727 -2.3778
 2595SOL     OW14130   8.116   3.163   7.545 -0.1851  0.0071 -0.3785
 2595SOL    HW114131   8.122   3.118   7.629 -0.1587  2.2663  0.9184
 2595SOL    HW214132   8.031   3.138   7.510 -1.8142  1.6635  2.0557
 2596SOL     OW14133   1.108   5.024   3.885 -0.0314 -0.1843  0.1240
 2596SOL    HW114134   1.165   4.972   3.943  0.9223 -1.1025 -1.5676
 2596SOL    HW214135   1.104   5.110   3.927 -2.6200 -1.7757  3.6713
 2597SOL     OW14136   0.006   0.710   1.592 -0.0681 -0.2665  0.0852
 2597SOL    HW114137  -0.081   0.689   1.628  0.3441 -0.8304  0.7983
 2597SOL    HW214138   0.018   0.648   1.520 -0.7482  0.6199 -0.8092
 2598SOL     OW14139   2.159   5.238   6.696  0.2820  0.0179  0.3258
 2598SOL    HW114140   2.145   5.279   6.611  0.0889 -0.8131 -0.0620
 2598SOL    HW214141   2.248   5.263   6.721  1.1459 -1.4093 -1.1082
 2599SOL     OW14142   3.594   0.223   2.872 -0.9974  0.3151 -0.4593
 2599SOL    HW114143   3.560   0.257   2.955  0.3822  2.5574 -0.7246
 2599SOL    HW214144   3.683   0.195   2.893 -1.1785 -0.5909 -0.8684
 2600SOL     OW14145   3.245   5.142   5.638 -0.6633  0.0520  0.5927
 2600SOL    HW114146   3.165   5.089   5.644 -0.8902  0.5479  2.4692
 2600SOL    HW214147   3.216   5.232   5.655  0.3809  0.1327  2.1643
 2601SOL     OW14148   2.099   1.530   5.864  0.3287  0.5889 -0.0255
 2601SOL    HW114149   2.147   1.447   5.865  0.1503  0.4783 -0.6131
 2601SOL    HW214150   2.031   1.519   5.931  0.4480  0.3440  0.0550
 2602SOL     OW14151   2.558   6.159   3.174  0.0593  0.0682  0.0531
 2602SOL    HW114152   2.550   6.136   3.267  0.6744  0.5166  0.2218
 2602SOL    HW214153   2.520   6.247   3.168 -0.7208 -0.2774 -0.2775
 2603SOL     OW14154   4.942   2.707   1.704  0.2867  0.5700  0.0978
 2603SOL    HW114155   4.957   2.750   1.620 -1.8270  0.5294 -0.3715
 2603SOL    HW214156   4.965   2.615   1.689  1.3044  0.8269  0.0176
 2604SOL     OW14157   0.010   5.124   8.274  0.6446  0.4639 -0.3820
 2604SOL    HW114158   0.096   5.088   8.297  0.1865 -2.1098 -2.2363
 2604SOL    HW214159   0.020   5.155   8.185 -0.3198  0.1667 -0.6065
 2605SOL     OW14160   1.770   2.905   5.780  0.1028 -0.0319 -0.5218
 2605SOL    HW114161   1.687   2.938   5.743  0.6493  0.5754 -1.2384
 2605SOL    HW214162   1.813   2.983   5.813  0.1776 -0.4173  0.2981
 2606SOL     OW14163   6.058   3.586   7.539 -0.1547 -0.1438 -0.0351
 2606SOL    HW114164   6.034   3.501   7.576  0.2687 -0.2805 -0.0670
 2606SOL    HW214165   6.051   3.646   7.613  1.6117 -0.5780  0.5381
 2607SOL     OW14166   8.842   8.557   1.930  0.1607  0.0530  0.2478
 2607SOL    HW114167   8.771   8.584   1.871 -0.4546  1.0892  1.4189
 2607SOL    HW214168   8.806   8.570   2.017  1.2036 -1.0644  0.8676
 2608SOL     OW14169   0.606   8.793   0.050  0.8977  0.0279  0.2661
 2608SOL    HW114170   0.641   8.753   0.130 -0.7468 -2.0095  0.0451
 2608SOL    HW214171   0.578   8.719  -0.004 -0.9510  1.4505 -0.8381
 2609SOL     OW14172   1.815   6.766   7.963  0.4729  0.1787 -0.5282
 2609SOL    HW114173   1.762   6.803   8.034  3.4687  1.4114  1.2327
 2609SOL    HW214174   1.804   6.671   7.973 -0.5421  0.3743  0.4396
 2610SOL     OW14175   5.396   0.277   0.335  0.1469 -0.1251  0.7267
 2610SOL    HW114176   5.324   0.215   0.326  1.3221 -2.0075  3.0753
 2610SOL    HW214177   5.400   0.296   0.429  1.8609  0.9874  0.4802
 2611SOL     OW14178   5.076   2.584   6.381  0.0966 -0.0376 -0.3654
 2611SOL    HW114179   4.982   2.595   6.374 -0.0778 -1.4336 -0.6476
 2611SOL    HW214180   5.094   2.503   6.333  1.1733 -0.7981  1.2061
 2612SOL     OW14181   3.028   0.923   4.679  0.2221 -0.0715  0.4377
 2612SOL    HW114182   3.007   0.989   4.613  0.7673 -1.0380 -0.7527
 2612SOL    HW214183   2.964   0.854   4.666  0.0985 -0.1170  1.2035
 2613SOL     OW14184   2.869   9.117   5.026 -0.2273  0.3894  0.2556
 2613SOL    HW114185   2.821   9.074   4.956  2.1033 -0.7502 -0.7328
 2613SOL    HW214186   2.888   9.048   5.089 -1.0498  1.1204  1.3564
 2614SOL     OW14187   0.233   1.589   8.532 -0.0907  0.0756 -0.6780
 2614SOL    HW114188   0.299   1.583   8.601 -1.6718  0.3809  0.9312
 2614SOL    HW214189   0.255   1.518   8.471  0.4380 -1.2391  0.9779
 2615SOL     OW14190   1.090   3.551   1.912 -0.0055 -0.1533 -0.8292
 2615SOL    HW114191   1.069   3.462   1.885 -1.6148  0.4905 -1.8925
 2615SOL    HW214192   1.069   3.604   1.835 -0.3220  1.2708  0.1968
 2616SOL     OW14193   0.014   1.953   0.411 -0.2137 -0.4480 -0.1839
 2616SOL    HW114194   0.105   1.967   0.389 -0.1026 -0.3787  0.2955
 2616SOL    HW214195  -0.002   1.860   0.393  0.1442 -0.6252  0.3675
 2617SOL     OW14196   1.965   5.188   2.152  0.4527 -0.4110 -0.0007
 2617SOL    HW114197   2.020   5.252   2.196  0.6957 -0.7995  0.2678
 2617SOL    HW214198   1.924   5.139   2.223 -1.4062  0.8243 -0.1553
 2618SOL     OW14199   0.206   5.735   3.743  0.1872  0.2698 -0.7546
 2618SOL    HW114200   0.199   5.764   3.652  0.4471  1.5548 -0.3865
 2618SOL    HW214201   0.172   5.808   3.795 -0.4039 -0.6324  0.1700
 2619SOL     OW14202   1.248   7.638   6.657 -0.2850 -0.4160 -0.8086
 2619SOL    HW114203   1.160   7.609   6.634 -0.1595 -1.2857 -0.2621
 2619SOL    HW214204   1.240   7.670   6.747  0.4144 -2.9054  0.2311
 2620SOL     OW14205   6.539   2.992   4.901 -0.3748  0.2304 -0.1783
 2620SOL    HW114206   6.493   3.073   4.879 -0.7859 -0.0690 -0.4158
 2620SOL    HW214207   6.504   2.927   4.841 -1.3877 -0.5648  1.2091
 2621SOL     OW14208   8.995   7.188   5.286  0.2701 -0.1965  0.3799
 2621SOL    HW114209   9.049   7.119   5.248  0.0491 -0.0125 -0.2909
 2621SOL    HW214210   8.905   7.159   5.271  0.1814 -0.0711  0.6709
 2622SOL     OW14211   0.083   2.691   7.722 -0.0214  0.5396 -0.7276
 2622SOL    HW114212   0.031   2.772   7.717 -1.4761 -0.3160 -0.2360
 2622SOL    HW214213   0.086   2.659   7.632 -1.0256  0.2143 -0.6586
 2623SOL     OW14214   6.620   8.531   0.822 -0.4287  0.1050  0.4319
 2623SOL    HW114215   6.556   8.539   0.752 -0.3389  0.0442  0.3425
 2623SOL    HW214216   6.570   8.497   0.896 -0.3374 -0.7472  0.1139
 2624SOL     OW14217   3.181   6.910   7.120 -0.3592 -0.1182  0.0353
 2624SOL    HW114218   3.109   6.859   7.158 -0.6299  1.8940  2.5220
 2624SOL    HW214219   3.190   6.985   7.179  2.4281  0.7811 -1.3799
 2625SOL     OW14220   2.138   9.065   5.330  0.3210 -0.2916  0.0185
 2625SOL    HW114221   2.172   9.134   5.387  0.0627  0.6382 -0.9157
 2625SOL    HW214222   2.166   9.091   5.242 -1.4841 -0.2682 -0.6029
 2626SOL     OW14223   8.316   6.859   0.262 -0.0485  0.1129  0.3010
 2626SOL    HW114224   8.305   6.949   0.232  0.5975  0.1371  0.1335
 2626SOL    HW214225   8.379   6.865   0.334 -0.0774 -0.1942  0.3527
 2627SOL     OW14226   0.859   2.286   8.920  0.4400 -0.2976 -0.1326
 2627SOL    HW114227   0.934   2.331   8.881  1.8345 -0.7801  1.8536
 2627SOL    HW214228   0.827   2.228   8.851  0.8657  1.0515 -1.5346
 2628SOL     OW14229   2.317   0.418   3.439  0.3570 -0.1328 -0.2623
 2628SOL    HW114230   2.368   0.489   3.478  0.1690 -0.6536  0.9829
 2628SOL    HW214231   2.241   0.462   3.401  0.1457  0.3268  0.6615
 2629SOL     OW14232   2.418   2.198   1.546  0.0019 -0.0179 -0.4214
 2629SOL    HW114233   2.409   2.291   1.567 -1.2869 -0.5438  1.5985
 2629SOL    HW214234   2.512   2.180   1.553  0.2555  1.1028 -0.8124
 2630SOL     OW14235   5.183   4.933   6.436 -0.2706 -0.2446  0.1316
 2630SOL    HW114236   5.274   4.945   6.409 -0.9097 -1.4394 -3.0187
 2630SOL    HW214237   5.180   4.847   6.477  0.1967  0.3755  1.5410
 2631SOL     OW14238   6.478   2.418   2.464  0.2102 -0.4674 -0.1437
 2631SOL    HW114239   6.471   2.380   2.377  2.2153 -1.7591  0.1777
 2631SOL    HW214240   6.515   2.347   2.518 -1.6452  0.0359  1.9558
 2632SOL     OW14241   5.188   8.069   0.675 -0.5285  0.0307  0.0123
 2632SOL    HW114242   5.263   8.111   0.633  0.6919  0.5700  2.4894
 2632SOL    HW214243   5.123   8.139   0.683 -0.2102  0.3016  0.2597
 2633SOL     OW14244   6.677   5.634   1.170 -0.0640 -0.0333  0.1084
 2633SOL    HW114245   6.767   5.611   1.151  0.0097 -0.0253  0.4298
 2633SOL    HW214246   6.626   5.596   1.099  0.1412 -0.4763  0.1959
 2634SOL     OW14247   6.938   9.013   0.286  0.6025 -0.6766 -0.1751
 2634SOL    HW114248   6.982   9.016   0.201 -0.8187  0.6883 -0.9209
 2634SOL    HW214249   6.870   8.945   0.275  0.1868 -0.2524 -0.2760
 2635SOL     OW14250   0.885   6.696   7.804 -0.1159 -0.4824 -0.0549
 2635SOL    HW114251   0.860   6.607   7.829 -0.9269 -0.8879 -2.1067
 2635SOL    HW214252   0.949   6.684   7.734  0.8677  0.5796  0.6263
 2636SOL     OW14253   8.377   2.507   7.928 -0.3037 -0.1846  0.7964
 2636SOL    HW114254   8.320   2.582   7.910  0.1231 -0.0029  0.1692
 2636SOL    HW214255   8.450   2.544   7.978  1.4247  0.4342 -1.9989
 2637SOL     OW14256   7.004   7.394   3.274 -0.3643 -0.1910  0.1360
 2637SOL    HW114257   6.952   7.342   3.334  0.2467 -2.1832 -0.9702
 2637SOL    HW214258   6.987   7.356   3.188  2.6326 -0.7807 -0.3119
 2638SOL     OW14259   7.941   4.264   9.078  0.0678 -0.1642 -0.1641
 2638SOL    HW114260   7.885   4.340   9.097  0.2838  0.4525 -1.7706
 2638SOL    HW214261   8.030   4.299   9.083  0.2217 -0.6173  0.2647
 2639SOL     OW14262   8.605   8.379   2.846 -0.1633 -0.4903  0.5964
 2639SOL    HW114263   8.593   8.468   2.880  0.9909 -0.3117  0.5703
 2639SOL    HW214264   8.638   8.391   2.758  0.0010 -0.9541  0.5928
 2640SOL     OW14265   8.625   6.271   1.084 -0.1907  0.0796 -0.7881
 2640SOL    HW114266   8.628   6.361   1.051  2.9376 -0.0938 -1.2449
 2640SOL    HW214267   8.692   6.225   1.033 -2.6587 -2.9379 -1.5979
 2641SOL     OW14268   4.141   3.472   0.103  0.1729 -0.1047  0.0929
 2641SOL    HW114269   4.236   3.467   0.093  0.0248 -1.6116 -0.9223
 2641SOL    HW214270   4.114   3.382   0.121 -1.2737 -0.1890 -2.0516
 2642SOL     OW14271   8.386   6.275   8.541 -0.1217  0.0454  0.4502
 2642SOL    HW114272   8.412   6.257   8.631 -0.0773  2.1240  0.9171
 2642SOL    HW214273   8.467   6.300   8.497 -0.4744  1.4026  0.5142
 2643SOL     OW14274   8.551   5.240   8.628 -0.4759 -0.4468  0.2870
 2643SOL    HW114275   8.621   5.306   8.627 -0.6682 -0.1491  2.2048
 2643SOL    HW214276   8.470   5.291   8.630 -0.7278 -0.7877 -0.6022
 2644SOL     OW14277   6.615   6.072   1.036  0.2034  0.5469 -0.2918
 2644SOL    HW114278   6.559   6.117   0.974  0.4571  0.9802 -0.2125
 2644SOL    HW214279   6.697   6.059   0.990 -0.1386 -0.5946 -0.6028
 2645SOL     OW14280   5.983   9.002   0.630 -0.3592  0.1431  0.3970
 2645SOL    HW114281   5.974   9.046   0.546  2.4027  2.3441  1.1023
 2645SOL    HW214282   5.937   9.059   0.692 -1.7294 -1.0732  0.5575
 2646SOL     OW14283   1.331   7.248   6.848 -0.5129  0.4031  0.1010
 2646SOL    HW114284   1.379   7.331   6.859 -0.2157  0.0360  1.8570
 2646SOL    HW214285   1.339   7.204   6.932  0.5470 -2.0894 -1.1851
 2647SOL     OW14286   7.695   1.318   4.441  0.0839 -0.5320  0.2776
 2647SOL    HW114287   7.655   1.267   4.511 -0.4814  0.5166  0.7447
 2647SOL    HW214288   7.630   1.386   4.421  0.7760 -0.0466 -0.3876
 2648SOL     OW14289   1.931   3.479   5.649  0.2120  0.3247  0.1087
 2648SOL    HW114290   1.880   3.439   5.720  1.9800 -2.3378  0.0116
 2648SOL    HW214291   1.928   3.414   5.578  3.9158 -0.2054  0.2390
 2649SOL     OW14292   0.371   0.440   8.602  0.0335 -0.2752  0.5993
 2649SOL    HW114293   0.363   0.360   8.550  2.6405 -0.4615  0.3521
 2649SOL    HW214294   0.309   0.501   8.562 -1.1866 -1.8065  0.0808
 2650SOL     OW14295   2.169   0.261   8.413  0.5205  0.2962  0.5515
 2650SOL    HW114296   2.247   0.245   8.465  0.5135 -0.6430  0.2816
 2650SOL    HW214297   2.194   0.240   8.323 -0.2135 -0.6280  0.5512
 2651SOL     OW14298   3.291   8.884   8.175 -0.2191 -0.0506 -0.2524
 2651SOL    HW114299   3.208   8.901   8.130  0.4484  1.0837 -1.1302
 2651SOL    HW214300   3.343   8.833   8.113 -0.2654 -0.8014  0.3105
 2652SOL     OW14301   2.248   2.813   6.544  0.4361 -0.4290 -0.1765
 2652SOL    HW114302   2.178   2.864   6.504  0.4150 -0.8756 -0.7159
 2652SOL    HW214303   2.279   2.755   6.474  0.2022 -1.4348  0.5320
 2653SOL     OW14304   2.282   8.169   2.732  0.5482 -0.0323  0.1955
 2653SOL    HW114305   2.243   8.229   2.796  0.6964 -0.1715  0.4187
 2653SOL    HW214306   2.219   8.097   2.726 -0.5218  0.9875 -1.4271
 2654SOL     OW14307   7.073   1.356   0.859  0.3733  0.3600 -0.1641
 2654SOL    HW114308   7.123   1.428   0.819 -0.0095  0.6721 -0.0841
 2654SOL    HW214309   6.989   1.356   0.813 -0.2705  1.0622  0.9774
 2655SOL     OW14310   8.521   4.638   6.165 -0.4716 -0.1215  0.3548
 2655SOL    HW114311   8.438   4.685   6.174 -0.8154 -0.3845 -1.2500
 2655SOL    HW214312   8.506   4.555   6.210 -1.1462 -0.2437 -0.0825
 2656SOL     OW14313   2.806   7.749   2.766  0.0875 -0.1352 -0.7571
 2656SOL    HW114314   2.739   7.815   2.749 -0.7324 -0.5267  0.8463
 2656SOL    HW214315   2.760   7.665   2.762  0.4833 -0.4141  0.2184
 2657SOL     OW14316   1.375   0.008   0.681  0.2748  0.2576  0.3913
 2657SOL    HW114317   1.342   0.096   0.661  0.6719  0.0819 -1.2214
 2657SOL    HW214318   1.314  -0.051   0.636  0.0216 -0.3118  1.4476
 2658SOL     OW14319   8.364   7.943   5.028 -0.8507  0.2294  0.6868
 2658SOL    HW114320   8.297   8.009   5.011 -0.7720  0.3790  0.9523
 2658SOL    HW214321   8.321   7.880   5.085 -0.4371  0.9131  1.7949
 2659SOL     OW14322   6.531   3.477   8.356 -0.2448  0.1872  0.7665
 2659SOL    HW114323   6.531   3.566   8.319 -0.5432  0.5487  1.5946
 2659SOL    HW214324   6.445   3.469   8.399 -0.5433 -0.8062  0.0229
 2660SOL     OW14325   8.166   3.719   4.347  0.1010  0.1487 -0.2993
 2660SOL    HW114326   8.243   3.677   4.384 -0.4608 -1.9580 -1.3370
 2660SOL    HW214327   8.109   3.646   4.321 -2.1910  1.6130  0.2972
 2661SOL     OW14328   2.457   4.433   8.770 -0.1085  1.3157 -0.2130
 2661SOL    HW114329   2.455   4.409   8.677 -0.1218 -0.7047  0.2693
 2661SOL    HW214330   2.379   4.392   8.807  1.3096 -0.2531  1.1857
 2662SOL     OW14331   4.254   3.967   7.499 -0.3959 -0.5917 -0.0458
 2662SOL    HW114332   4.266   3.891   7.442  1.3044 -0.1657 -0.3083
 2662SOL    HW214333   4.330   4.022   7.482 -1.3609  0.9632  0.4839
 2663SOL     OW14334   2.787   0.930   1.149 -0.1664  0.2125 -0.1182
 2663SOL    HW114335   2.841   0.942   1.071  1.1528  0.8314  0.8519
 2663SOL    HW214336   2.792   1.013   1.195  0.5145 -0.6619  1.4880
 2664SOL     OW14337   1.565   3.711   5.001  0.2983  0.3058  0.3117
 2664SOL    HW114338   1.637   3.718   4.939  0.7187 -2.4394  0.3651
 2664SOL    HW214339   1.501   3.655   4.958 -0.3078 -0.0062  1.5515
 2665SOL     OW14340   0.399   6.501   5.947 -0.4800 -0.0495  0.5865
 2665SOL    HW114341   0.381   6.432   6.010  0.4762  0.5641  1.5512
 2665SOL    HW214342   0.332   6.567   5.964 -1.3576 -0.6803 -0.2966
 2666SOL     OW14343   5.515   8.090   2.324 -0.1291  0.0555  0.1023
 2666SOL    HW114344   5.425   8.108   2.350 -0.7509 -1.2347 -1.0187
 2666SOL    HW214345   5.527   7.996   2.341  0.2850 -0.2547 -1.6800
 2667SOL     OW14346   1.210   4.182   7.579  0.2456 -0.1334  0.2713
 2667SOL    HW114347   1.201   4.196   7.485 -1.0333 -0.9451  0.2459
 2667SOL    HW214348   1.264   4.102   7.586 -0.2031 -0.4456  0.2048
 2668SOL     OW14349   6.637   5.447   3.959  0.1633 -0.7101 -0.1968
 2668SOL    HW114350   6.544   5.453   3.984  0.8161 -0.6288  2.4559
 2668SOL    HW214351   6.662   5.358   3.981  0.4958 -1.1282 -2.0298
 2669SOL     OW14352   7.218   0.925   2.693  0.0139  0.1158  0.3711
 2669SOL    HW114353   7.135   0.880   2.711 -1.2657  1.7406 -1.1525
 2669SOL    HW214354   7.278   0.854   2.671 -0.7592 -1.1535  2.1019
 2670SOL     OW14355   6.252   3.764   6.393  0.2751 -0.0323  0.3006
 2670SOL    HW114356   6.174   3.759   6.338  0.4895 -0.5911  0.0378
 2670SOL    HW214357   6.220   3.797   6.477 -0.2585 -0.3475  0.2257
 2671SOL     OW14358   3.854   7.389   2.636 -0.5881 -0.4858 -0.4874
 2671SOL    HW114359   3.784   7.333   2.601 -0.9043 -0.1097 -0.4645
 2671SOL    HW214360   3.856   7.369   2.729 -0.6057 -0.5647 -0.5037
 2672SOL     OW14361   2.418   1.552   5.099 -0.0022 -0.3500 -0.3128
 2672SOL    HW114362   2.378   1.543   5.013 -1.0221  1.7774 -0.1392
 2672SOL    HW214363   2.458   1.467   5.117 -3.3178 -2.2641 -1.1020
 2673SOL     OW14364   3.600   1.154   2.133  0.1783 -0.6246  0.0724
 2673SOL    HW114365   3.530   1.187   2.078  0.6502 -0.2716 -0.3319
 2673SOL    HW214366   3.679   1.197   2.100  0.8055 -2.0830 -0.4037
 2674SOL     OW14367   8.262   7.844   6.666 -0.3413 -0.4488 -0.5429
 2674SOL    HW114368   8.289   7.842   6.758  0.5944 -1.5452 -0.8241
 2674SOL    HW214369   8.260   7.752   6.639  3.7796 -0.1325 -2.8048
 2675SOL     OW14370   2.705   1.601   3.108 -0.0946 -0.0016 -0.2075
 2675SOL    HW114371   2.751   1.628   3.188  1.0966 -1.3472 -0.4079
 2675SOL    HW214372   2.768   1.548   3.060 -1.6748 -1.4413 -0.7879
 2676SOL     OW14373   4.742   7.398   5.364 -0.0014 -0.0170  0.5201
 2676SOL    HW114374   4.812   7.442   5.411  1.5921 -0.0362 -1.6727
 2676SOL    HW214375   4.662   7.434   5.401  1.1968  1.9938  1.3172
 2677SOL     OW14376   7.385   6.344   3.744  0.6800 -0.0269  0.4583
 2677SOL    HW114377   7.377   6.252   3.766  0.5945  0.0221  0.6325
 2677SOL    HW214378   7.455   6.347   3.678  1.2995 -0.1109  1.0984
 2678SOL     OW14379   6.196   2.232   8.259  0.8120  0.9464 -0.0654
 2678SOL    HW114380   6.239   2.167   8.315 -1.3528 -2.3589 -1.9117
 2678SOL    HW214381   6.266   2.269   8.205  1.8535 -1.9637 -0.8567
 2679SOL     OW14382   3.181   1.359   7.804 -0.5723 -0.2318  0.5577
 2679SOL    HW114383   3.156   1.427   7.867  1.2553  0.9953  0.0347
 2679SOL    HW214384   3.204   1.283   7.858  2.5185  1.2895  1.6359
 2680SOL     OW14385   3.757   7.931   4.150 -0.4116 -0.6173 -0.0773
 2680SOL    HW114386   3.780   8.023   4.138  1.0258 -1.0158 -0.5970
 2680SOL    HW214387   3.700   7.911   4.075  0.1220 -0.4126 -0.5477
 2681SOL     OW14388   8.762   2.574   5.510  0.6306  0.5408  0.0797
 2681SOL    HW114389   8.841   2.558   5.563  1.1912 -0.2248 -0.9473
 2681SOL    HW214390   8.690   2.549   5.568  1.2860 -1.3880  0.1375
 2682SOL     OW14391   3.393   7.949   0.572  0.3371 -0.7575 -0.3402
 2682SOL    HW114392   3.438   7.991   0.646 -1.3813 -0.9750  0.9043
 2682SOL    HW214393   3.383   7.858   0.599  0.0776 -0.9430 -1.0488
 2683SOL     OW14394   3.347   7.919   4.460  0.5114 -0.9557 -0.5862
 2683SOL    HW114395   3.264   7.949   4.422  0.9481 -0.0843 -0.8833
 2683SOL    HW214396   3.384   7.863   4.392  1.0864  0.2560 -1.3216
 2684SOL     OW14397   9.246   3.182   9.167  0.5530 -0.0844 -0.0398
 2684SOL    HW114398   9.239   3.107   9.227 -1.0877 -1.2563 -1.5554
 2684SOL    HW214399   9.206   3.254   9.215 -1.3287 -1.1546  0.1314
 2685SOL     OW14400   6.474   7.678   1.602  0.0187  0.3167 -0.1123
 2685SOL    HW114401   6.419   7.752   1.631 -0.6788 -1.4445  3.6992
 2685SOL    HW214402   6.563   7.707   1.621  0.0608  1.2834 -1.6003
 2686SOL     OW14403   1.125   5.656   7.966  0.1806 -0.2936  0.0999
 2686SOL    HW114404   1.052   5.665   7.906 -0.2528 -0.7613  0.5447
 2686SOL    HW214405   1.089   5.607   8.040  0.2725  1.5755  1.4563
 2687SOL     OW14406   2.537   8.419   1.280  0.0745 -0.1529 -0.6840
 2687SOL    HW114407   2.498   8.467   1.352  2.5252  1.8549 -0.5244
 2687SOL    HW214408   2.608   8.368   1.320  0.5615 -0.1241 -1.4782
 2688SOL     OW14409   8.256   5.077   6.319  0.1151 -0.5695  0.0684
 2688SOL    HW114410   8.308   5.025   6.258  1.5849  1.0500 -0.1422
 2688SOL    HW214411   8.248   5.022   6.397  2.4437 -0.7886  0.2118
 2689SOL     OW14412   7.478   6.394   5.929  0.3440 -0.2488 -0.0491
 2689SOL    HW114413   7.436   6.363   5.848  1.1711 -1.3737 -0.0627
 2689SOL    HW214414   7.421   6.362   5.999  0.7759 -1.1547 -0.1004
 2690SOL     OW14415   4.851   7.137   9.089 -0.1531 -0.3742  0.1618
 2690SOL    HW114416   4.816   7.122   9.177 -1.3014  0.1293 -0.1963
 2690SOL    HW214417   4.799   7.209   9.054  1.9647  1.1982 -0.0050
 2691SOL     OW14418   5.427   6.202   0.748  0.3858  0.3888 -0.2234
 2691SOL    HW114419   5.505   6.234   0.794 -1.2850  2.1610  1.5334
 2691SOL    HW214420   5.354   6.228   0.803 -1.4622 -2.0184 -1.3481
 2692SOL     OW14421   3.607   8.258   1.322  0.1106  0.5330 -0.2350
 2692SOL    HW114422   3.554   8.323   1.368  1.3917  1.6435 -0.2439
 2692SOL    HW214423   3.678   8.309   1.283  0.4777 -0.7279 -1.2905
 2693SOL     OW14424   1.829   5.775   3.986  0.4810 -0.1843  0.3225
 2693SOL    HW114425   1.883   5.710   3.941 -0.1790 -0.6043  0.1207
 2693SOL    HW214426   1.813   5.842   3.920 -0.6811 -0.9132 -0.1771
 2694SOL     OW14427   0.650   7.652   7.571  0.0163 -0.6181  0.0994
 2694SOL    HW114428   0.569   7.638   7.620 -0.4398  1.0009 -0.1421
 2694SOL    HW214429   0.705   7.705   7.628  0.5191 -0.8652 -0.1402
 2695SOL     OW14430   8.699   3.300   4.253 -0.7529  0.0372  0.3223
 2695SOL    HW114431   8.649   3.369   4.297 -1.0707  0.3155 -0.4593
 2695SOL    HW214432   8.787   3.306   4.290 -0.5896  1.3260 -0.2315
 2696SOL     OW14433   1.869   6.208   3.587 -0.1724 -0.1934 -0.3087
 2696SOL    HW114434   1.781   6.243   3.581  0.2153  0.5863 -2.5818
 2696SOL    HW214435   1.926   6.280   3.559  1.0723 -1.0694 -0.1463
 2697SOL     OW14436   0.036   5.622   6.129  0.7460  0.8379  0.4344
 2697SOL    HW114437   0.080   5.608   6.045 -0.5423  1.1793 -0.3329
 2697SOL    HW214438  -0.002   5.537   6.151  0.4642  0.9191  0.2804
 2698SOL     OW14439   0.363   1.867   2.000 -0.0391  0.1622 -0.4864
 2698SOL    HW114440   0.423   1.825   2.062 -1.6362  0.0403  1.0646
 2698SOL    HW214441   0.276   1.850   2.036 -1.0205  0.4984 -2.5473
 2699SOL     OW14442   1.709   0.578   5.646  0.0543  0.1639  0.5918
 2699SOL    HW114443   1.798   0.599   5.675  0.5768 -0.7547 -0.2801
 2699SOL    HW214444   1.669   0.532   5.719 -0.2842  1.9581  1.6073
 2700SOL     OW14445   2.585   4.185   0.254 -0.7064 -0.2431  0.4688
 2700SOL    HW114446   2.603   4.129   0.179 -0.1290 -1.1351  1.2448
 2700SOL    HW214447   2.568   4.124   0.326  0.0119  0.5672  1.3506
 2701SOL     OW14448   0.074   6.684   0.270 -0.6789 -0.4895  0.1412
 2701SOL    HW114449   0.133   6.740   0.321 -0.3276  0.5319 -1.3407
 2701SOL    HW214450   0.016   6.646   0.336 -1.4880  2.2617  1.1594
 2702SOL     OW14451   2.556   0.893   6.440  0.4651  0.0818 -0.0143
 2702SOL    HW114452   2.651   0.907   6.446  0.2699  1.2750  0.7537
 2702SOL    HW214453   2.525   0.966   6.386  0.0165 -0.5236 -0.5922
 2703SOL     OW14454   3.628   3.210   0.859 -0.3393 -0.0829  0.4293
 2703SOL    HW114455   3.720   3.205   0.885 -0.2937 -1.2206  0.0759
 2703SOL    HW214456   3.582   3.152   0.919 -0.2397 -2.7022 -1.8187
 2704SOL     OW14457   0.326   5.676   2.002 -0.3087 -0.3404 -0.3044
 2704SOL    HW114458   0.338   5.703   1.911  0.5454 -1.5800 -0.5880
 2704SOL    HW214459   0.363   5.748   2.053  0.8242 -0.3899 -1.0052
 2705SOL     OW14460   4.260   8.944   7.914  0.3810  0.0325  0.6016
 2705SOL    HW114461   4.206   8.927   7.837  1.4386 -0.0698 -0.1391
 2705SOL    HW214462   4.197   8.967   7.983 -0.6812 -1.3184  0.1209
 2706SOL     OW14463   8.421   3.851   3.266  0.4645 -0.2338 -0.6081
 2706SOL    HW114464   8.366   3.793   3.319  0.1107  0.6285 -0.0057
 2706SOL    HW214465   8.371   3.932   3.259  1.5186  0.4705 -0.2964
 2707SOL     OW14466   8.989   8.533   8.448 -0.1185  1.0077 -0.4169
 2707SOL    HW114467   8.908   8.562   8.406 -1.5071 -1.3274  0.4446
 2707SOL    HW214468   9.039   8.492   8.378 -1.5455 -1.1181 -0.2828
 2708SOL     OW14469   7.997   3.264   0.664 -0.2231 -0.1112  0.4937
 2708SOL    HW114470   8.057   3.328   0.625  0.1649 -1.0684 -0.5289
 2708SOL    HW214471   8.005   3.278   0.759  2.2980 -0.7807  0.4467
 2709SOL     OW14472   5.666   4.215   5.446  0.2100 -0.4427 -0.0411
 2709SOL    HW114473   5.601   4.148   5.469 -2.4161  1.8879 -0.0419
 2709SOL    HW214474   5.724   4.218   5.522 -1.0366 -1.1640  0.9996
 2710SOL     OW14475   1.345   0.544   4.362  0.6782  0.5186 -0.2341
 2710SOL    HW114476   1.250   0.551   4.355  0.1672 -1.9547  2.3959
 2710SOL    HW214477   1.371   0.484   4.292 -0.2592 -1.5049  1.0669
 2711SOL     OW14478   5.566   6.041   1.376 -0.0319 -0.1493  0.0712
 2711SOL    HW114479   5.477   6.018   1.348 -0.0286  0.3787 -0.3873
 2711SOL    HW214480   5.622   6.012   1.304  0.1949 -0.7143  0.4722
 2712SOL     OW14481   8.824   6.137   2.239 -0.0542 -0.2532  1.0656
 2712SOL    HW114482   8.840   6.176   2.153 -1.1357 -0.5247  0.7238
 2712SOL    HW214483   8.889   6.178   2.296  0.6587 -0.0408  0.1331
 2713SOL     OW14484   1.304   7.066   6.670 -0.9561  0.0439 -0.0682
 2713SOL    HW114485   1.257   6.991   6.704 -0.7719 -0.3042 -0.5627
 2713SOL    HW214486   1.306   7.129   6.742  0.4444 -1.1125  0.9584
 2714SOL     OW14487   6.511   9.133   8.416  0.3751  0.3310 -0.1698
 2714SOL    HW114488   6.603   9.109   8.429  0.0720 -1.0870 -0.4779
 2714SOL    HW214489   6.504   9.149   8.322  0.3297  0.5579 -0.1281
 2715SOL     OW14490   0.678   3.442   8.214 -0.0692  0.6083 -0.1077
 2715SOL    HW114491   0.643   3.373   8.270 -1.3310 -0.5034 -2.1390
 2715SOL    HW214492   0.707   3.396   8.135 -0.8345  2.3519 -1.4803
 2716SOL     OW14493   1.240   2.185   6.039  0.6741  0.4815 -0.3853
 2716SOL    HW114494   1.152   2.224   6.033  0.4898  0.0118 -0.8201
 2716SOL    HW214495   1.254   2.169   6.132  0.6135  1.2697 -0.2343
 2717SOL     OW14496   1.093   5.229   4.094 -0.3812 -0.0645 -0.1940
 2717SOL    HW114497   1.006   5.207   4.059  0.2786  0.0798 -2.0158
 2717SOL    HW214498   1.079   5.311   4.141 -1.5106 -0.8145  0.8655
 2718SOL     OW14499   0.956   7.757   4.257 -0.2087  0.3735 -0.0507
 2718SOL    HW114500   0.920   7.838   4.222  0.1708  0.6920  0.2869
 2718SOL    HW214501   0.968   7.774   4.350 -0.1258 -0.0719  0.0235
 2719SOL     OW14502   1.970   7.799   2.346  0.0878 -0.2747  0.1832
 2719SOL    HW114503   1.974   7.877   2.290 -3.0142 -0.1291 -0.0133
 2719SOL    HW214504   2.020   7.733   2.298  0.4837  0.8180 -0.9878
 2720SOL     OW14505   3.296   9.090   7.274 -0.1258  0.1122 -0.2030
 2720SOL    HW114506   3.366   9.122   7.332  0.0066 -0.3717 -0.0938
 2720SOL    HW214507   3.337   9.020   7.223 -0.4896 -0.0748 -0.2420
 2721SOL     OW14508   6.492   5.601   8.473  0.4196 -0.6763  0.2586
 2721SOL    HW114509   6.484   5.522   8.525  0.5797 -0.1501  1.1014
 2721SOL    HW214510   6.536   5.664   8.530 -2.1969  0.9654  0.6767
 2722SOL     OW14511   2.597   1.380   5.683  0.2905  0.1486 -0.3516
 2722SOL    HW114512   2.530   1.378   5.615 -0.3175 -0.6132  0.2598
 2722SOL    HW214513   2.589   1.296   5.728  3.0899 -0.9665 -1.6396
 2723SOL     OW14514   6.904   2.476   2.172  0.1360  0.1487  0.3707
 2723SOL    HW114515   6.890   2.423   2.251  0.0573 -1.0535 -0.4282
 2723SOL    HW214516   6.953   2.419   2.113  0.0388  0.9688 -0.5279
 2724SOL     OW14517   1.026   6.711   1.991 -0.0120  0.3321  0.1314
 2724SOL    HW114518   0.938   6.682   2.015  0.8214  0.1326  3.4794
 2724SOL    HW214519   1.075   6.630   1.978  0.3774  0.3188  1.4729
 2725SOL     OW14520   1.778   0.102   4.212 -0.1061  0.3303 -0.3016
 2725SOL    HW114521   1.695   0.105   4.260  0.3287  2.3821  0.4556
 2725SOL    HW214522   1.812   0.015   4.229 -0.7468  0.4372  1.8334
 2726SOL     OW14523   0.415   0.778   0.070 -0.3802  0.5320 -0.1818
 2726SOL    HW114524   0.452   0.836   0.136  0.7978  0.9310 -1.1349
 2726SOL    HW214525   0.423   0.690   0.108  0.6109  0.7200  0.0892
 2727SOL     OW14526   6.400   3.138   4.210 -0.1253 -0.3149 -0.0137
 2727SOL    HW114527   6.434   3.052   4.183  0.2895 -1.0231  2.5082
 2727SOL    HW214528   6.314   3.144   4.167 -0.1307 -1.9631 -0.3050
 2728SOL     OW14529   7.105   7.059   1.505 -0.7039 -0.2720 -0.2841
 2728SOL    HW114530   7.015   7.086   1.525 -1.0343 -0.7587 -1.0764
 2728SOL    HW214531   7.096   6.978   1.455  0.1961 -0.5805  0.0291
 2729SOL     OW14532   5.424   0.104   9.019 -0.4752  0.3077 -0.4104
 2729SOL    HW114533   5.407   0.101   8.925  1.1553  1.7595 -0.8114
 2729SOL    HW214534   5.348   0.061   9.059 -2.2351  1.5329 -2.2665
 2730SOL     OW14535   3.817   5.689   7.702  0.3361  0.1472 -0.0890
 2730SOL    HW114536   3.761   5.615   7.682  0.8780  0.0416 -1.3001
 2730SOL    HW214537   3.858   5.667   7.786 -0.0969 -0.5541 -0.0602
 2731SOL     OW14538   0.637   9.128   5.903 -0.3778 -0.5566 -0.2867
 2731SOL    HW114539   0.553   9.166   5.930  0.7561  2.2426 -0.3643
 2731SOL    HW214540   0.698   9.154   5.972  0.8780 -0.5005 -1.3796
 2732SOL     OW14541   5.236   3.265   4.812 -0.3089  0.0977 -0.1432
 2732SOL    HW114542   5.184   3.210   4.754 -2.3609  0.4070  1.2683
 2732SOL    HW214543   5.310   3.293   4.759 -0.9108 -1.4051 -1.8813
 2733SOL     OW14544   3.613   1.567   3.054  0.7806 -0.1615 -0.3265
 2733SOL    HW114545   3.556   1.579   2.978 -1.5327  0.1779  1.3430
 2733SOL    HW214546   3.570   1.498   3.105  3.1560 -1.5444 -0.0736
 2734SOL     OW14547   4.906   1.731   1.789  0.6083  0.2959  0.2115
 2734SOL    HW114548   4.824   1.702   1.830 -1.1515  2.3782 -1.6008
 2734SOL    HW214549   4.917   1.821   1.819  0.9144  0.8265 -1.4058
 2735SOL     OW14550   1.111   1.364   4.444  0.2063 -0.2470 -0.5110
 2735SOL    HW114551   1.061   1.299   4.493 -0.4846 -0.9971 -2.1219
 2735SOL    HW214552   1.063   1.445   4.456  0.4013 -0.2753  0.5393
 2736SOL     OW14553   0.306   0.093   1.964  0.6842  0.8980 -0.5981
 2736SOL    HW114554   0.252   0.114   1.888 -0.4391  1.7641  0.3825
 2736SOL    HW214555   0.363   0.168   1.975  1.2163  0.5391 -0.8929
 2737SOL     OW14556   1.629   6.474   6.264 -0.3865  0.4388 -0.4561
 2737SOL    HW114557   1.724   6.475   6.277 -0.4117 -1.0989  0.1176
 2737SOL    HW214558   1.617   6.500   6.173  0.5504  1.1241 -0.3973
 2738SOL     OW14559   0.021   7.061   6.853  0.9685 -0.1786 -0.2539
 2738SOL    HW114560   0.073   6.982   6.836 -0.6605 -1.0658 -1.3259
 2738SOL    HW214561   0.066   7.103   6.926  2.2252 -1.7964 -0.0298
 2739SOL     OW14562   4.760   1.942   1.574 -0.2210  0.2395 -0.2574
 2739SOL    HW114563   4.744   1.949   1.480  1.3280  0.1207 -0.5464
 2739SOL    HW214564   4.696   1.877   1.604 -1.3074  0.9091 -1.0585
 2740SOL     OW14565   2.718   2.969   4.020 -0.6706  0.2234 -0.4381
 2740SOL    HW114566   2.674   3.002   4.099  0.4263 -1.2182  0.8450
 2740SOL    HW214567   2.647   2.952   3.959 -2.1088 -2.5692  1.7545
 2741SOL     OW14568   3.869   2.982   7.399  0.7729 -1.2753  0.2404
 2741SOL    HW114569   3.819   3.000   7.319  0.8332  0.6176  0.5909
 2741SOL    HW214570   3.806   2.945   7.460 -0.0382  0.2851  0.3865
 2742SOL     OW14571   9.080   6.194   5.258 -0.4245 -0.4274 -0.0524
 2742SOL    HW114572   9.026   6.142   5.198 -1.8392  0.7712  0.1167
 2742SOL    HW214573   9.141   6.241   5.200  0.2647 -1.5356 -0.2714
 2743SOL     OW14574   7.403   3.602   0.571 -0.0387  0.5610  0.0880
 2743SOL    HW114575   7.388   3.661   0.497 -1.1916  1.6561  1.1290
 2743SOL    HW214576   7.450   3.656   0.635 -1.9296  0.7131  1.4316
 2744SOL     OW14577   0.936   2.551   2.563 -0.2549 -0.5251  0.5853
 2744SOL    HW114578   0.870   2.563   2.631  0.9213  2.0131  1.4107
 2744SOL    HW214579   0.954   2.639   2.531  0.7948 -1.4244 -1.5512
 2745SOL     OW14580   5.506   2.118   3.849 -0.3013  0.4026  0.7198
 2745SOL    HW114581   5.514   2.213   3.838 -0.8632  0.4250  0.4019
 2745SOL    HW214582   5.411   2.104   3.857 -0.2184 -0.1309  0.7662
 2746SOL     OW14583   1.324   4.780   8.013  1.0158 -0.5816  0.4084
 2746SOL    HW114584   1.388   4.811   7.949  0.4827  0.8101  0.5024
 2746SOL    HW214585   1.344   4.829   8.093 -0.1715 -0.0916  0.4270
 2747SOL     OW14586   9.024   3.139   7.800 -0.0158 -1.0575  0.1931
 2747SOL    HW114587   9.069   3.072   7.853 -0.9219 -2.2963 -0.5536
 2747SOL    HW214588   8.988   3.200   7.864 -1.1073 -2.5345  1.0593
 2748SOL     OW14589   1.256   8.673   8.786  0.0620  0.0401  0.1484
 2748SOL    HW114590   1.167   8.642   8.803 -0.2597  1.2670  0.8225
 2748SOL    HW214591   1.276   8.731   8.859  0.7761  1.0998 -0.8533
 2749SOL     OW14592   0.037   6.726   7.780  0.0348 -0.2322 -0.0803
 2749SOL    HW114593   0.070   6.646   7.740  0.0875 -0.0483 -0.4054
 2749SOL    HW214594  -0.012   6.696   7.857  0.7853 -0.5140  0.2894
 2750SOL     OW14595   6.964   5.350   0.222  0.2728 -0.5388 -0.4716
 2750SOL    HW114596   6.909   5.426   0.202 -0.5206 -1.1834 -0.7793
 2750SOL    HW214597   6.911   5.274   0.198  1.5434 -1.1747 -1.4535
 2751SOL     OW14598   4.324   0.634   7.333 -0.3405  0.0297  0.4834
 2751SOL    HW114599   4.368   0.698   7.388  0.0149 -0.0584  0.3042
 2751SOL    HW214600   4.291   0.684   7.258 -1.5717  0.2979  1.1925
 2752SOL     OW14601   3.993   7.137   0.218 -0.0042 -0.3191 -0.4740
 2752SOL    HW114602   4.015   7.212   0.162  0.6497 -0.6001 -0.6003
 2752SOL    HW214603   3.899   7.122   0.203 -0.0096  0.1140 -0.8798
 2753SOL     OW14604   5.092   8.445   4.707 -0.5619 -0.1839  0.2730
 2753SOL    HW114605   5.020   8.394   4.668  0.4200 -0.9257 -0.6208
 2753SOL    HW214606   5.055   8.533   4.719 -2.6427 -1.2486  2.8074
 2754SOL     OW14607   0.318   3.560   1.578 -0.2843  0.1583  0.1253
 2754SOL    HW114608   0.404   3.561   1.620 -0.3814 -0.8519  0.3770
 2754SOL    HW214609   0.306   3.649   1.545  0.0607  0.8084  1.6697
 2755SOL     OW14610   5.630   5.328   9.150 -0.3866  0.5304  0.4522
 2755SOL    HW114611   5.536   5.321   9.170 -0.3477  0.2753  0.5542
 2755SOL    HW214612   5.673   5.284   9.224 -0.2465 -0.6640 -0.3191
 2756SOL     OW14613   7.968   5.185   6.192 -0.2378 -0.4780 -0.4231
 2756SOL    HW114614   7.991   5.185   6.285  1.3107 -0.9136 -0.7726
 2756SOL    HW214615   7.966   5.277   6.167 -1.8442 -0.2869  0.2814
 2757SOL     OW14616   4.261   8.651   8.694 -0.1281 -0.3454 -0.3810
 2757SOL    HW114617   4.316   8.584   8.734  2.3160  2.4456  1.3190
 2757SOL    HW214618   4.315   8.688   8.624 -0.2968  1.6078  0.4724
 2758SOL     OW14619   0.658   3.479   7.868 -0.1384 -0.1417  0.0572
 2758SOL    HW114620   0.706   3.404   7.903 -0.6728  0.1413  1.4560
 2758SOL    HW214621   0.722   3.549   7.863  0.2657 -0.5579 -0.8682
 2759SOL     OW14622   6.971   7.355   9.093 -0.3968  0.1755 -0.2661
 2759SOL    HW114623   6.913   7.384   9.163  1.8084  0.8589  1.3952
 2759SOL    HW214624   7.019   7.281   9.131 -0.2650 -0.4954 -1.6571
 2760SOL     OW14625   0.963   4.535   9.030 -0.4472  0.4957 -0.1217
 2760SOL    HW114626   1.034   4.548   8.968 -0.8035  1.6454 -0.3113
 2760SOL    HW214627   1.004   4.539   9.116 -0.1271  0.0681 -0.2522
 2761SOL     OW14628   7.946   8.432   1.325  0.4369  0.5093  0.0254
 2761SOL    HW114629   7.975   8.365   1.387 -1.2737  0.7820  1.1794
 2761SOL    HW214630   7.957   8.391   1.239  0.0781 -1.0013  0.6655
 2762SOL     OW14631   6.157   8.554   1.852 -0.4087 -1.1063  0.1744
 2762SOL    HW114632   6.180   8.587   1.939  2.3727 -3.7098  0.6183
 2762SOL    HW214633   6.216   8.600   1.793 -1.5931 -0.0867 -0.2558
 2763SOL     OW14634   0.367   6.305   0.699 -1.2001  0.1041 -0.1528
 2763SOL    HW114635   0.295   6.277   0.756 -0.2690  0.0886  1.0666
 2763SOL    HW214636   0.325   6.328   0.616 -2.2893 -2.4093 -0.3651
 2764SOL     OW14637   6.564   7.539   7.452 -0.1384 -0.1622  0.0680
 2764SOL    HW114638   6.513   7.460   7.468 -1.3592  0.6770  0.4371
 2764SOL    HW214639   6.536   7.600   7.520  1.0248  0.4848 -0.0078
 2765SOL     OW14640   3.708   8.037   1.082 -0.5617 -0.3746 -0.1595
 2765SOL    HW114641   3.710   8.068   1.172  0.3822 -3.1186  0.8623
 2765SOL    HW214642   3.646   7.964   1.082 -0.6119 -0.3857 -1.7649
 2766SOL     OW14643   6.104   6.411   6.515 -0.6755 -0.0451  0.3173
 2766SOL    HW114644   6.040   6.402   6.444  0.2214  0.6291 -0.5908
 2766SOL    HW214645   6.158   6.486   6.490  0.9100 -1.0118  0.7144
 2767SOL     OW14646   0.913   3.219   7.767  0.0579 -0.7246 -0.2011
 2767SOL    HW114647   0.938   3.300   7.723  1.3736 -1.7650 -1.5115
 2767SOL    HW214648   0.881   3.163   7.697 -1.6252 -1.0790  0.8077
 2768SOL     OW14649   4.800   6.932   6.550 -0.3187 -0.4236 -0.1577
 2768SOL    HW114650   4.722   6.984   6.567 -1.2180 -1.9745  0.7658
 2768SOL    HW214651   4.777   6.844   6.579  1.8595 -0.8955  0.3511
 2769SOL     OW14652   0.834   6.856   4.748 -0.1881 -0.1455 -0.6727
 2769SOL    HW114653   0.862   6.908   4.673  1.8436  0.8765  0.7054
 2769SOL    HW214654   0.877   6.771   4.736  1.1393  0.4210 -0.0936
 2770SOL     OW14655   3.917   7.323   7.670 -0.3624 -0.0142 -0.5063
 2770SOL    HW114656   3.846   7.264   7.647 -0.9763 -0.1569  1.6272
 2770SOL    HW214657   3.874   7.401   7.704  0.4532 -0.5745  1.9698
 2771SOL     OW14658   3.507   5.319   1.436 -0.2291 -0.0017 -0.3490
 2771SOL    HW114659   3.478   5.320   1.345 -0.3411 -0.4475 -0.3245
 2771SOL    HW214660   3.588   5.268   1.435  1.1912  2.1373 -0.5794
 2772SOL     OW14661   6.454   5.043   6.354  0.0981 -0.6311  0.6319
 2772SOL    HW114662   6.444   5.093   6.435  0.9284 -1.4626  1.2685
 2772SOL    HW214663   6.484   4.956   6.383 -0.8991 -1.3783 -0.4665
 2773SOL     OW14664   3.622   7.996   4.964 -0.2244 -0.0788  0.6148
 2773SOL    HW114665   3.560   7.929   4.994 -0.5569 -0.0047  0.0934
 2773SOL    HW214666   3.707   7.951   4.963  0.4514  0.6796  4.6449
 2774SOL     OW14667   4.719   1.405   4.002  0.5002  0.0482  0.5218
 2774SOL    HW114668   4.805   1.394   3.961  0.9509  0.4582  1.3287
 2774SOL    HW214669   4.738   1.448   4.086 -0.6546  1.7283 -0.0388
 2775SOL     OW14670   7.470   4.050   0.382  0.2892 -0.2358  0.1497
 2775SOL    HW114671   7.456   4.131   0.332  0.9231 -0.0022  0.3421
 2775SOL    HW214672   7.556   4.061   0.422 -0.2957 -0.3211  1.4829
 2776SOL     OW14673   0.129   3.047   5.303  0.5507  0.1773  0.1476
 2776SOL    HW114674   0.043   3.005   5.309  0.4422  0.3863  0.0613
 2776SOL    HW214675   0.148   3.048   5.209  0.7224 -0.0201  0.1802
 2777SOL     OW14676   0.581   0.845   1.833 -0.1907 -0.1219 -0.2815
 2777SOL    HW114677   0.551   0.915   1.891  0.0070  0.2776 -0.6542
 2777SOL    HW214678   0.529   0.856   1.753 -1.3099 -1.4040  0.2412
 2778SOL     OW14679   5.675   5.528   8.237 -0.1511  0.0640 -0.2654
 2778SOL    HW114680   5.651   5.485   8.155  0.4463 -0.6480 -0.0799
 2778SOL    HW214681   5.770   5.518   8.242 -0.3899 -1.7794  1.5437
 2779SOL     OW14682   2.445   2.772   7.029  0.0877  0.0706 -0.6654
 2779SOL    HW114683   2.355   2.753   7.053  0.2592 -0.7045 -0.6083
 2779SOL    HW214684   2.488   2.795   7.112  0.1010 -0.2346 -0.5850
 2780SOL     OW14685   9.127   0.812   5.617 -0.2028  0.7658 -0.1829
 2780SOL    HW114686   9.160   0.747   5.554 -2.3287  0.2367 -0.8350
 2780SOL    HW214687   9.195   0.879   5.619  2.8060 -2.0222  1.5920
 2781SOL     OW14688   4.189   1.446   0.382 -0.6981 -0.3273 -0.1149
 2781SOL    HW114689   4.118   1.493   0.339 -1.1708 -0.1174  0.8657
 2781SOL    HW214690   4.180   1.356   0.351 -0.9911 -0.1723 -0.4936
 2782SOL     OW14691   3.514   3.489   4.562  0.2230 -0.2775  0.1478
 2782SOL    HW114692   3.571   3.453   4.631  1.9200 -0.6263 -1.3548
 2782SOL    HW214693   3.441   3.427   4.557 -0.0272 -0.1614  1.7101
 2783SOL     OW14694   0.016   3.901   8.777  0.4360 -0.3304 -0.0808
 2783SOL    HW114695   0.075   3.971   8.749  1.0523 -0.6484  0.3929
 2783SOL    HW214696  -0.062   3.914   8.724  0.9464  0.0677 -0.7669
 2784SOL     OW14697   5.096   7.090   7.076 -0.0401  0.2867  0.0691
 2784SOL    HW114698   5.167   7.128   7.025  1.1454 -1.1899  0.5475
 2784SOL    HW214699   5.070   7.012   7.027  1.0921 -1.1402  1.6269
 2785SOL     OW14700   6.124   3.266   6.252  0.3213  0.5494 -0.3618
 2785SOL    HW114701   6.202   3.234   6.207  0.6688  0.7415  0.0939
 2785SOL    HW214702   6.137   3.361   6.257 -0.3390  0.6823 -1.0229
 2786SOL     OW14703   0.621   4.360   4.652 -0.4213 -0.3121  0.0341
 2786SOL    HW114704   0.626   4.267   4.631  1.2953  0.1048 -1.6752
 2786SOL    HW214705   0.528   4.376   4.668 -1.1551 -1.8319 -2.2172
 2787SOL     OW14706   0.501   7.232   6.009  0.7660  0.0876  0.1864
 2787SOL    HW114707   0.451   7.179   6.071  0.6596 -0.0028  0.0264
 2787SOL    HW214708   0.581   7.254   6.055 -0.7527  2.9570  1.7052
 2788SOL     OW14709   7.895   3.020   7.445 -0.7336 -0.3149 -0.3330
 2788SOL    HW114710   7.847   3.000   7.525  1.2369 -0.0797  0.9821
 2788SOL    HW214711   7.845   2.977   7.375 -2.3166 -0.8106  1.0361
 2789SOL     OW14712   7.801   7.381   4.617 -0.6478  0.2961 -0.2585
 2789SOL    HW114713   7.755   7.446   4.564 -1.7014 -0.6005 -0.4768
 2789SOL    HW214714   7.733   7.338   4.667  0.3141  1.0636  1.8319
 2790SOL     OW14715   3.403   8.898   7.096  0.6390  0.8594 -0.3990
 2790SOL    HW114716   3.495   8.877   7.084  0.8572  1.3627  0.2923
 2790SOL    HW214717   3.365   8.893   7.009  0.9704 -0.9116 -0.4674
 2791SOL     OW14718   5.057   8.379   7.493 -0.0404 -0.2621 -0.2585
 2791SOL    HW114719   4.964   8.401   7.499 -0.4336 -1.2899 -1.9716
 2791SOL    HW214720   5.059   8.295   7.448  1.7424 -0.2421 -0.2883
 2792SOL     OW14721   2.188   1.861   2.732  0.2262 -0.6032 -0.5454
 2792SOL    HW114722   2.152   1.890   2.648  1.6995  1.8402 -0.4452
 2792SOL    HW214723   2.197   1.766   2.723 -1.5533 -0.6672 -2.3509
 2793SOL     OW14724   4.980   1.634   4.692 -1.1217  0.0435 -0.1586
 2793SOL    HW114725   4.979   1.557   4.635 -1.6430 -0.5252  0.5942
 2793SOL    HW214726   5.072   1.651   4.708 -0.9630  0.2362 -1.1889
 2794SOL     OW14727   7.561   7.433   8.988  0.1769 -0.1446  0.0258
 2794SOL    HW114728   7.631   7.379   8.952  1.0026  0.1836  1.0889
 2794SOL    HW214729   7.529   7.385   9.064 -0.2656  0.0381 -0.0434
 2795SOL     OW14730   0.614   6.917   0.007 -0.1307 -0.1609 -0.1941
 2795SOL    HW114731   0.685   6.883   0.061  0.4537  1.2393 -0.0329
 2795SOL    HW214732   0.645   7.002  -0.023 -0.7838 -0.5537 -2.0990
 2796SOL     OW14733   7.026   1.334   6.643 -0.1281  0.0672 -0.0872
 2796SOL    HW114734   7.035   1.373   6.730  1.5361 -0.8932  0.2117
 2796SOL    HW214735   6.935   1.305   6.639 -0.5435  1.1483  0.8663
 2797SOL     OW14736   7.209   0.063   5.722 -0.4008  0.2558 -0.1006
 2797SOL    HW114737   7.173   0.147   5.692  0.9497  1.0089  0.3061
 2797SOL    HW214738   7.184   0.058   5.814  2.8862  2.2447  1.0873
 2798SOL     OW14739   7.666   0.441   1.296 -0.1574 -0.0611  0.5714
 2798SOL    HW114740   7.755   0.473   1.307  0.9739 -2.9111  0.7055
 2798SOL    HW214741   7.656   0.428   1.201  0.4519 -1.8125  0.7081
 2799SOL     OW14742   4.783   7.978   6.436 -0.1944 -0.2850 -0.3936
 2799SOL    HW114743   4.772   8.053   6.494  1.9703  0.4219 -0.7961
 2799SOL    HW214744   4.864   7.997   6.387 -0.3205 -2.2477 -1.4786
 2800SOL     OW14745   4.721   2.793   8.436  0.2928 -0.4436  0.1097
 2800SOL    HW114746   4.802   2.758   8.474  0.8452  0.5114 -0.1523
 2800SOL    HW214747   4.743   2.809   8.344 -0.2487 -0.3266  0.0000
 2801SOL     OW14748   5.674   6.984   7.454  0.3929 -0.1278  0.2414
 2801SOL    HW114749   5.746   7.046   7.442  0.2137 -0.0338 -0.3739
 2801SOL    HW214750   5.595   7.038   7.448  0.1780 -0.5981 -1.6786
 2802SOL     OW14751   7.653   5.393   4.095  0.7427 -0.7128  0.8837
 2802SOL    HW114752   7.604   5.438   4.026  1.7676 -1.1478 -0.1602
 2802SOL    HW214753   7.655   5.302   4.068  1.6599 -0.7883  1.1733
 2803SOL     OW14754   1.115   6.139   1.982  0.4627  0.0301 -0.0339
 2803SOL    HW114755   1.126   6.062   1.926 -1.9892  1.0961 -2.1746
 2803SOL    HW214756   1.076   6.106   2.062  0.1719 -1.0525 -0.6086
 2804SOL     OW14757   4.815   5.225   7.912 -0.2397  0.4313 -0.0221
 2804SOL    HW114758   4.867   5.202   7.989  2.6448  1.6467 -1.4209
 2804SOL    HW214759   4.802   5.142   7.866 -0.7792 -0.0987  1.0537
 2805SOL     OW14760   8.106   0.823   4.711 -0.1297  0.4257 -0.5946
 2805SOL    HW114761   8.174   0.759   4.733  0.6774  1.1226 -0.9785
 2805SOL    HW214762   8.028   0.791   4.756  1.0337  0.9108  1.9951
 2806SOL     OW14763   2.389   8.245   0.404 -0.1354 -0.1770  0.2861
 2806SOL    HW114764   2.382   8.332   0.367 -1.1128 -0.4325 -0.1696
 2806SOL    HW214765   2.401   8.187   0.329 -3.2380 -0.8244  0.1363
 2807SOL     OW14766   8.560   2.474   4.568 -0.8289  0.3198  0.1758
 2807SOL    HW114767   8.572   2.535   4.641 -1.1216  0.3572  0.1960
 2807SOL    HW214768   8.508   2.403   4.604  0.9396 -0.8179  0.6153
 2808SOL     OW14769   7.584   0.189   1.359  0.6112 -0.2545  0.4249
 2808SOL    HW114770   7.612   0.280   1.363  0.0857 -0.1142  0.9292
 2808SOL    HW214771   7.491   0.193   1.338  1.0671 -0.7269 -2.0538
 2809SOL     OW14772   5.252   3.734   4.631  0.2258 -0.0572  0.2288
 2809SOL    HW114773   5.244   3.812   4.576  0.8219  0.1683  0.4596
 2809SOL    HW214774   5.254   3.661   4.568  0.4652  0.1655 -0.0230
 2810SOL     OW14775   0.912   1.534   4.273  0.3912  0.0422 -0.3501
 2810SOL    HW114776   0.872   1.456   4.234  1.4637 -0.3112 -0.7689
 2810SOL    HW214777   0.966   1.572   4.203  1.1616  0.2380  0.3314
 2811SOL     OW14778   8.543   1.342   4.947 -0.3259  0.3135 -0.7771
 2811SOL    HW114779   8.456   1.304   4.961 -0.5373  1.5717  1.9863
 2811SOL    HW214780   8.589   1.329   5.030  1.4828  1.3120 -1.5557
 2812SOL     OW14781   7.599   4.981   7.147  0.2100 -0.0308 -0.3623
 2812SOL    HW114782   7.610   4.996   7.053  0.0217 -1.9596 -0.7506
 2812SOL    HW214783   7.514   4.938   7.154 -1.5519  3.4108  1.1704
 2813SOL     OW14784   1.523   1.004   3.069 -1.2182 -0.3286  0.0574
 2813SOL    HW114785   1.586   0.967   3.131 -1.2466 -0.2612  0.1260
 2813SOL    HW214786   1.450   1.034   3.123 -0.3172  1.7048  0.2227
 2814SOL     OW14787   1.289   0.252   3.421  0.5280  0.1648 -1.0384
 2814SOL    HW114788   1.296   0.345   3.399  0.6652  0.2990 -0.4444
 2814SOL    HW214789   1.217   0.247   3.483  0.1692 -0.2076 -1.4714
 2815SOL     OW14790   7.953   1.592   4.968  0.1369 -0.5450  0.1192
 2815SOL    HW114791   7.925   1.547   5.048 -1.3800  1.5828  0.8749
 2815SOL    HW214792   8.025   1.648   4.996  2.0057 -2.3541 -0.8122
 2816SOL     OW14793   2.567   0.030   1.346  0.6143 -1.2817 -0.2138
 2816SOL    HW114794   2.486   0.032   1.396  0.4453 -1.8621 -0.4573
 2816SOL    HW214795   2.548   0.080   1.267  0.9647 -0.1298  0.4076
 2817SOL     OW14796   1.832   9.114   4.536  0.1810  0.6557  0.1259
 2817SOL    HW114797   1.739   9.091   4.540 -0.0076  1.4301  0.4172
 2817SOL    HW214798   1.849   9.162   4.617  0.8016  0.6514  0.0075
 2818SOL     OW14799   4.040   8.667   7.113  0.0495 -0.1196  0.2239
 2818SOL    HW114800   4.081   8.595   7.162 -0.7709 -0.3401  0.6002
 2818SOL    HW214801   3.995   8.718   7.180 -1.1761 -0.4819 -0.2971
 2819SOL     OW14802   6.629   0.476   1.204 -0.0439 -0.1624 -0.5168
 2819SOL    HW114803   6.618   0.419   1.128  0.3501 -1.1434  0.1514
 2819SOL    HW214804   6.648   0.562   1.166 -1.3846 -0.2903 -1.5422
 2820SOL     OW14805   6.516   6.252   7.642 -0.3988  0.5235 -0.2851
 2820SOL    HW114806   6.492   6.251   7.734  1.0273  1.1664  0.1206
 2820SOL    HW214807   6.527   6.160   7.619  2.2222  0.4119  1.0650
 2821SOL     OW14808   4.858   2.476   5.505 -0.4046  0.1388  0.0818
 2821SOL    HW114809   4.866   2.402   5.565 -0.3949 -0.2678 -0.4193
 2821SOL    HW214810   4.877   2.553   5.559  0.1502 -0.2670  0.4705
 2822SOL     OW14811   7.835   1.089   5.217  0.2480 -0.1699  0.1549
 2822SOL    HW114812   7.822   1.063   5.308  0.6260 -0.9824 -0.0136
 2822SOL    HW214813   7.797   1.017   5.166  2.3237 -1.0144 -0.3213
 2823SOL     OW14814   2.023   5.891   4.198 -0.0397 -0.0212 -0.1223
 2823SOL    HW114815   1.955   5.954   4.222 -1.1859 -2.1092  2.6680
 2823SOL    HW214816   1.977   5.826   4.144 -0.0604 -0.8692  0.8802
 2824SOL     OW14817   0.635   7.762   0.079  0.2346 -0.3824 -0.0009
 2824SOL    HW114818   0.557   7.800   0.119  0.8909  0.1252  0.8416
 2824SOL    HW214819   0.625   7.779  -0.015 -0.4599  0.0627  0.1479
 2825SOL     OW14820   9.004   1.923   0.774 -0.1686 -0.0902  0.2611
 2825SOL    HW114821   8.911   1.900   0.772 -0.0336 -0.6712  0.5877
 2825SOL    HW214822   9.047   1.849   0.816  0.5000  0.0061 -0.2381
 2826SOL     OW14823   8.139   1.123   5.433  0.3783  0.3713  0.2655
 2826SOL    HW114824   8.102   1.209   5.450 -1.7652 -0.2870 -0.7175
 2826SOL    HW214825   8.185   1.131   5.350 -2.0411  0.0092 -1.1802
 2827SOL     OW14826   3.812   7.667   2.707 -0.6624 -0.0632 -0.3733
 2827SOL    HW114827   3.812   7.574   2.686 -1.0098 -0.1056 -0.1845
 2827SOL    HW214828   3.904   7.693   2.701 -0.6809 -0.1907 -1.4508
 2828SOL     OW14829   2.269   2.350   5.873 -0.2203  0.0497 -0.4342
 2828SOL    HW114830   2.354   2.307   5.888 -0.2310  0.4472  0.9075
 2828SOL    HW214831   2.206   2.294   5.917 -0.5133  0.3225 -0.5045
 2829SOL     OW14832   0.576   5.029   1.347  0.1081  0.0821  0.2657
 2829SOL    HW114833   0.500   5.085   1.333  0.5787  1.2963  2.1779
 2829SOL    HW214834   0.638   5.055   1.280  0.1902  1.6663  0.9294
 2830SOL     OW14835   7.253   4.450   3.745 -0.2650  0.5138 -0.2515
 2830SOL    HW114836   7.197   4.375   3.762  0.5753 -0.2763 -0.8403
 2830SOL    HW214837   7.226   4.480   3.658  0.6542 -0.2899 -0.8317
 2831SOL     OW14838   3.391   5.499   3.527 -0.4496 -0.6447  0.1264
 2831SOL    HW114839   3.463   5.471   3.469 -0.9842 -2.6237  0.3286
 2831SOL    HW214840   3.313   5.461   3.487 -1.0912 -0.3172  1.0487
 2832SOL     OW14841   0.573   3.859   7.938  1.3510 -0.5241  0.5613
 2832SOL    HW114842   0.479   3.876   7.945  0.8606 -3.2928  3.6009
 2832SOL    HW214843   0.588   3.846   7.844 -0.7906  1.9810 -0.2501
 2833SOL     OW14844   3.721   2.442   8.891  0.9208  0.1054 -0.0054
 2833SOL    HW114845   3.796   2.451   8.951 -0.7282 -2.3157  2.7369
 2833SOL    HW214846   3.714   2.347   8.878 -0.6129  0.4110 -1.7022
 2834SOL     OW14847   5.300   2.132   3.209 -0.4188  0.0488 -0.3027
 2834SOL    HW114848   5.349   2.052   3.224  0.5294  0.7834  0.7017
 2834SOL    HW214849   5.337   2.167   3.128  0.0184  0.0708 -0.1007
 2835SOL     OW14850   1.380   9.220   6.163 -0.1057  0.1338 -0.5075
 2835SOL    HW114851   1.395   9.239   6.256 -0.6069 -2.0889  0.1082
 2835SOL    HW214852   1.366   9.125   6.161  0.7822 -0.0126 -2.9940
 2836SOL     OW14853   0.391   5.872   2.235  0.3331 -0.0041  0.6749
 2836SOL    HW114854   0.472   5.823   2.251  0.8826  0.1250 -1.3733
 2836SOL    HW214855   0.402   5.909   2.147 -1.0408  1.8914  1.2307
 2837SOL     OW14856   5.720   5.779   3.573 -1.1142  0.8926  0.1909
 2837SOL    HW114857   5.790   5.719   3.598 -0.1539  1.7562 -0.3405
 2837SOL    HW214858   5.741   5.804   3.483 -2.6828  0.3907 -0.3497
 2838SOL     OW14859   5.912   1.695   6.041  0.3061 -0.1802  0.0238
 2838SOL    HW114860   5.896   1.636   6.115  0.0563 -1.3092 -0.9017
 2838SOL    HW214861   5.916   1.637   5.965  0.3460  0.9819 -0.8790
 2839SOL     OW14862   3.897   7.970   0.394 -0.2471  0.7194  0.1509
 2839SOL    HW114863   3.952   7.939   0.466 -0.2208  1.3525  0.4050
 2839SOL    HW214864   3.813   7.926   0.407 -0.1606  0.6320  0.4119
 2840SOL     OW14865   4.282   9.042   5.174 -0.2573 -0.2012 -0.7077
 2840SOL    HW114866   4.226   9.020   5.100 -1.1695  1.0024 -0.4033
 2840SOL    HW214867   4.329   9.121   5.147 -2.0283  1.4039  0.6451
 2841SOL     OW14868   6.453   1.258   3.378 -0.2179 -0.0263 -0.4970
 2841SOL    HW114869   6.370   1.303   3.392 -1.1873 -1.3845 -1.5924
 2841SOL    HW214870   6.519   1.321   3.406 -1.5840  1.2423  0.0326
 2842SOL     OW14871   3.578   1.879   5.457  0.5224  0.7975 -0.1547
 2842SOL    HW114872   3.585   1.913   5.546 -1.3944 -0.3792  0.5031
 2842SOL    HW214873   3.650   1.816   5.449 -0.7843 -1.0376  1.5325
 2843SOL     OW14874   5.368   0.856   7.415 -0.4741 -0.1620  0.7984
 2843SOL    HW114875   5.323   0.936   7.440  0.6070  0.7497 -0.0292
 2843SOL    HW214876   5.299   0.799   7.381 -1.1103  0.9370  0.1818
 2844SOL     OW14877   5.499   3.911   1.622 -0.4933  0.2336 -0.0598
 2844SOL    HW114878   5.453   3.828   1.636  0.0953 -0.2381 -0.9132
 2844SOL    HW214879   5.457   3.971   1.685 -1.2516 -0.5686  0.2317
 2845SOL     OW14880   3.134   2.133   3.740 -0.6040 -0.0362 -0.1376
 2845SOL    HW114881   3.071   2.165   3.804 -1.0574  1.7262 -1.3880
 2845SOL    HW214882   3.082   2.119   3.660  0.0051 -1.8514 -0.2760
 2846SOL     OW14883   8.510   7.644   1.030 -0.1070  0.4231  0.6967
 2846SOL    HW114884   8.460   7.723   1.051 -1.8700 -0.9025  1.8850
 2846SOL    HW214885   8.448   7.589   0.981  0.5736 -0.7891  1.1467
 2847SOL     OW14886   0.982   8.876   5.786  0.0727 -0.0066 -0.3904
 2847SOL    HW114887   1.044   8.938   5.825  0.2048 -0.3892  0.0217
 2847SOL    HW214888   1.006   8.792   5.824 -1.9618  0.1169  1.3886
 2848SOL     OW14889   1.110   7.761   3.481  0.0818  0.1279 -0.3251
 2848SOL    HW114890   1.161   7.823   3.534 -1.2405 -0.1848  1.3857
 2848SOL    HW214891   1.041   7.731   3.540 -0.2436 -1.7881 -1.6266
 2849SOL     OW14892   0.566   0.966   4.841  0.1103  0.4094 -0.1803
 2849SOL    HW114893   0.566   0.878   4.806  1.3516  0.5477 -0.6071
 2849SOL    HW214894   0.654   0.977   4.878  1.4549  2.7199 -3.5194
 2850SOL     OW14895   2.487   8.174   0.654 -0.3157  0.0133 -0.0403
 2850SOL    HW114896   2.581   8.180   0.641  0.0385 -2.2074  0.9898
 2850SOL    HW214897   2.450   8.176   0.565  0.8856 -1.1876 -0.5973
 2851SOL     OW14898   7.921   2.391   5.830 -0.0836 -0.4229 -0.3432
 2851SOL    HW114899   7.979   2.441   5.888  0.8722 -0.8616 -0.8957
 2851SOL    HW214900   7.899   2.312   5.881 -0.6151 -0.0232  0.0593
 2852SOL     OW14901   7.909   4.584   5.651 -0.2495  0.3729 -0.0863
 2852SOL    HW114902   7.895   4.539   5.734  0.0811 -1.0362 -0.7781
 2852SOL    HW214903   8.000   4.567   5.630 -0.3028  0.8217 -0.6947
 2853SOL     OW14904   3.057   8.229   4.853 -0.2774 -0.1843 -0.1255
 2853SOL    HW114905   3.078   8.312   4.810 -1.8292  1.1922  1.6645
 2853SOL    HW214906   3.142   8.184   4.860  1.5291  3.2123  2.8863
 2854SOL     OW14907   8.592   6.048   5.089  0.4265 -0.2246 -0.0458
 2854SOL    HW114908   8.603   5.957   5.116  0.5883  0.1532  1.2751
 2854SOL    HW214909   8.682   6.081   5.080  0.3890 -0.4838 -1.6733
 2855SOL     OW14910   6.620   0.377   6.037  0.4288 -0.1086  0.0499
 2855SOL    HW114911   6.695   0.318   6.028  0.2670 -0.3277  0.1675
 2855SOL    HW214912   6.619   0.400   6.129  1.9204  1.9251 -0.3529
 2856SOL     OW14913   5.471   6.980   7.068 -0.6112  0.2944  0.0532
 2856SOL    HW114914   5.544   6.954   7.012 -1.3057  0.6911 -1.0744
 2856SOL    HW214915   5.485   6.931   7.149 -1.1369 -2.5777 -1.4526
 2857SOL     OW14916   1.958   0.877   8.048  0.2251 -0.2815  0.3812
 2857SOL    HW114917   1.908   0.875   8.129 -1.9949  0.2013 -0.8950
 2857SOL    HW214918   1.904   0.828   7.986  1.7259 -0.3950 -0.8882
 2858SOL     OW14919   4.503   7.283   8.441 -0.3279  0.0619 -0.1260
 2858SOL    HW114920   4.476   7.344   8.509 -1.0808  1.1928 -1.3910
 2858SOL    HW214921   4.464   7.199   8.466  0.0764  0.2637  1.2307
 2859SOL     OW14922   3.287   8.905   2.790 -0.1230 -0.5384 -0.3097
 2859SOL    HW114923   3.372   8.884   2.827  0.6297  0.9651 -1.0857
 2859SOL    HW214924   3.244   8.960   2.855  0.0176 -0.2614 -0.4505
 2860SOL     OW14925   7.747   7.559   3.389 -0.8324  0.5017  0.0639
 2860SOL    HW114926   7.726   7.473   3.352  0.9383  0.2006 -0.3195
 2860SOL    HW214927   7.675   7.576   3.450 -0.7634 -1.6812  0.8631
 2861SOL     OW14928   0.746   5.199   6.008  0.3121  0.1461  0.3580
 2861SOL    HW114929   0.832   5.219   6.046  1.8124 -1.9064 -1.6252
 2861SOL    HW214930   0.761   5.202   5.914 -2.4133  1.8367 -0.1207
 2862SOL     OW14931   4.093   1.355   0.086 -0.3300 -0.0123  0.3674
 2862SOL    HW114932   4.184   1.382   0.097 -0.5095  1.8584 -1.8926
 2862SOL    HW214933   4.096   1.259   0.091  2.4436 -0.3305 -3.1439
 2863SOL     OW14934   8.998   1.989   8.395 -0.4408 -0.1637  0.0034
 2863SOL    HW114935   8.961   1.908   8.428 -1.2373 -0.1471 -0.8192
 2863SOL    HW214936   8.939   2.057   8.427  0.8774  0.2726  1.7318
 2864SOL     OW14937   3.754   0.289   5.521 -0.1556 -0.6849 -0.2351
 2864SOL    HW114938   3.677   0.329   5.562  0.6770  0.1935  0.5229
 2864SOL    HW214939   3.719   0.246   5.443 -1.8926 -2.8814  1.6099
 2865SOL     OW14940   7.518   5.401   5.154  0.1275  0.1979  0.0438
 2865SOL    HW114941   7.554   5.312   5.162  1.3405  0.5891 -0.7841
 2865SOL    HW214942   7.587   5.458   5.189 -0.2988  0.8692 -0.1923
 2866SOL     OW14943   3.835   8.216   2.884  0.4286 -0.2045 -0.9706
 2866SOL    HW114944   3.779   8.269   2.828 -0.1456  0.6017  0.3305
 2866SOL    HW214945   3.780   8.191   2.958  1.7036  0.4397  0.2465
 2867SOL     OW14946   9.139   7.547   1.020  0.5323  0.5136 -0.3002
 2867SOL    HW114947   9.120   7.490   1.094  0.8693 -1.1136 -1.4073
 2867SOL    HW214948   9.191   7.618   1.057 -0.0963  0.2478  1.1715
 2868SOL     OW14949   1.691   5.738   1.172 -0.4422 -0.1754 -0.7479
 2868SOL    HW114950   1.689   5.649   1.208 -1.6647  0.0016 -0.3238
 2868SOL    HW214951   1.599   5.757   1.152 -0.0179  0.4123 -2.3098
 2869SOL     OW14952   3.962   0.478   7.259 -0.6005 -0.2731 -0.3656
 2869SOL    HW114953   3.910   0.558   7.273 -0.4989 -0.3044  0.2153
 2869SOL    HW214954   4.033   0.485   7.323  0.3643 -0.0257 -1.4351
 2870SOL     OW14955   1.957   8.554   2.189  0.2088 -0.2224  0.2060
 2870SOL    HW114956   1.916   8.495   2.126  1.1662 -0.4689 -0.2032
 2870SOL    HW214957   2.051   8.539   2.179  0.3825 -1.3182  2.7116
 2871SOL     OW14958   8.820   2.862   3.066 -0.0856 -0.3855  0.3918
 2871SOL    HW114959   8.728   2.886   3.059  0.2369  1.1911  1.1560
 2871SOL    HW214960   8.820   2.766   3.063 -1.3611 -0.4507 -3.7378
 2872SOL     OW14961   0.868   5.807   0.675  0.1096 -0.9596 -0.6516
 2872SOL    HW114962   0.844   5.743   0.608  1.3089 -0.5760 -1.4670
 2872SOL    HW214963   0.963   5.808   0.674  0.1555  1.8133 -1.6104
 2873SOL     OW14964   9.143   1.572   1.408 -0.1465  0.4004  0.3050
 2873SOL    HW114965   9.220   1.553   1.460 -1.4308 -0.2695  2.0574
 2873SOL    HW214966   9.177   1.588   1.320  1.7788 -2.4033  0.4106
 2874SOL     OW14967   1.494   9.002   0.538  0.1096  0.0566 -0.4275
 2874SOL    HW114968   1.532   9.001   0.450 -2.5610 -1.2593 -1.7097
 2874SOL    HW214969   1.471   9.093   0.554  0.2632  0.2525 -1.2883
 2875SOL     OW14970   2.978   2.762   5.935 -0.7056 -0.4685 -0.6468
 2875SOL    HW114971   2.917   2.759   5.861 -1.4059  0.4711 -0.1305
 2875SOL    HW214972   3.036   2.687   5.921 -2.1001 -1.5209 -1.0465
 2876SOL     OW14973   3.830   8.064   5.425  0.3555 -0.1646 -0.1852
 2876SOL    HW114974   3.778   7.995   5.385  0.8401 -1.0198  0.6086
 2876SOL    HW214975   3.866   8.113   5.352 -0.8360 -0.1119 -0.7481
 2877SOL     OW14976   1.385   1.508   8.355 -0.8888  0.3158 -0.2937
 2877SOL    HW114977   1.447   1.579   8.366 -1.0051  0.5619 -1.1067
 2877SOL    HW214978   1.306   1.536   8.402  0.1509 -0.7803  2.2958
 2878SOL     OW14979   5.036   5.073   8.083  0.2553  0.7710  0.4180
 2878SOL    HW114980   5.114   5.099   8.033  0.2372  0.2973  0.1353
 2878SOL    HW214981   5.036   4.978   8.078  0.5057  0.6842  1.7087
 2879SOL     OW14982   8.225   2.716   7.845 -0.3560 -0.1198 -0.0921
 2879SOL    HW114983   8.193   2.785   7.903  3.0140  0.7590  0.9528
 2879SOL    HW214984   8.205   2.747   7.757 -2.0434  0.4459  0.4602
 2880SOL     OW14985   6.225   8.246   1.839 -0.4793  0.1091  0.0390
 2880SOL    HW114986   6.304   8.284   1.798  0.0310  0.0853  0.9785
 2880SOL    HW214987   6.212   8.164   1.792  0.8191 -0.5132  0.7150
 2881SOL     OW14988   5.793   1.358   1.126 -0.2692 -0.2512 -0.3356
 2881SOL    HW114989   5.724   1.302   1.162 -0.1316 -0.0704  0.2087
 2881SOL    HW214990   5.855   1.296   1.088  0.9207 -0.6291  2.0536
 2882SOL     OW14991   6.608   5.330   6.778  0.0484 -0.4055 -0.7155
 2882SOL    HW114992   6.631   5.279   6.855 -2.7561 -0.8474 -0.0594
 2882SOL    HW214993   6.622   5.421   6.804 -0.2072 -0.5869  0.0835
 2883SOL     OW14994   7.097   4.542   5.752 -0.3690 -0.4347  0.2554
 2883SOL    HW114995   7.159   4.474   5.778 -0.6126 -0.8234 -0.1790
 2883SOL    HW214996   7.106   4.609   5.820  0.7356 -0.3495  0.0445
 2884SOL     OW14997   6.907   5.958   8.218  0.4241  0.4463 -0.4609
 2884SOL    HW114998   6.932   5.890   8.155  2.0538  0.4757  0.1018
 2884SOL    HW214999   6.890   6.035   8.164 -1.2368 -0.3048 -1.0923
 2885SOL     OW15000   1.263   2.832   3.478 -0.1459  0.0524 -1.0453
 2885SOL    HW115001   1.234   2.811   3.567  1.0779  1.1528 -0.3561
 2885SOL    HW215002   1.242   2.753   3.427  0.7995 -1.3646  0.6224
 2886SOL     OW15003   0.159   2.089   6.425  0.2558 -0.0762 -0.7936
 2886SOL    HW115004   0.073   2.048   6.432  0.4322 -0.4246 -0.6293
 2886SOL    HW215005   0.211   2.047   6.494  0.7314 -0.3044 -1.2803
 2887SOL     OW15006   3.338   3.131   7.532  0.4078 -0.8162  0.1695
 2887SOL    HW115007   3.360   3.222   7.550  0.6878 -0.7399 -0.5327
 2887SOL    HW215008   3.389   3.081   7.596 -0.6305 -0.4443  1.3368
 2888SOL     OW15009   8.773   1.611   1.533 -0.6667  0.1046 -1.1422
 2888SOL    HW115010   8.752   1.552   1.461  0.6185 -1.9119  0.0447
 2888SOL    HW215011   8.696   1.608   1.589 -1.0244  0.3951 -1.6127
 2889SOL     OW15012   5.887   2.681   0.190 -0.3811 -0.2981 -0.3867
 2889SOL    HW115013   5.794   2.678   0.209  0.0413 -2.2455  1.9266
 2889SOL    HW215014   5.918   2.760   0.235 -1.0276  1.0568 -2.2027
 2890SOL     OW15015   1.227   3.345   3.404 -0.2812 -0.0761  0.0031
 2890SOL    HW115016   1.199   3.265   3.446 -0.9672  0.3903  0.4481
 2890SOL    HW215017   1.323   3.338   3.399 -0.3669 -1.1496 -0.4577
 2891SOL     OW15018   3.841   4.072   0.943 -0.6096  0.6195  0.3070
 2891SOL    HW115019   3.800   4.025   0.870  1.6689 -0.2389 -0.5192
 2891SOL    HW215020   3.800   4.034   1.021 -0.3862 -1.2549 -0.4217
 2892SOL     OW15021   4.045   2.280   3.470  0.0330  0.5637  0.7798
 2892SOL    HW115022   3.950   2.285   3.485 -0.2078 -2.9192  1.1778
 2892SOL    HW215023   4.054   2.284   3.375 -0.1591  3.6422  0.7903
 2893SOL     OW15024   2.083   8.917   0.141  1.0952 -0.1587 -0.1317
 2893SOL    HW115025   2.034   8.836   0.156  0.0816  0.5512  0.4735
 2893SOL    HW215026   2.081   8.962   0.225  1.1959  0.7509 -0.6089
 2894SOL     OW15027   1.434   9.033   8.194 -0.3881  0.3189  0.0226
 2894SOL    HW115028   1.455   9.002   8.283 -0.8094 -0.4332 -0.1387
 2894SOL    HW215029   1.350   8.992   8.173 -0.2948  0.5030 -0.7282
 2895SOL     OW15030   7.427   1.088   5.290  0.1351  0.4512 -0.0992
 2895SOL    HW115031   7.350   1.098   5.234 -1.1521  0.3856  1.5858
 2895SOL    HW215032   7.493   1.046   5.234 -0.8560  0.9853 -1.7271
 2896SOL     OW15033   0.275   0.692   3.964  0.6116 -0.2010  0.3659
 2896SOL    HW115034   0.348   0.638   3.995  0.7832 -0.5368 -0.5806
 2896SOL    HW215035   0.197   0.641   3.986  0.6546  0.0918  1.2488
 2897SOL     OW15036   3.404   3.084   5.691  0.0291  0.3777  0.0662
 2897SOL    HW115037   3.376   3.054   5.604  0.1126  0.3905  0.0338
 2897SOL    HW215038   3.382   3.177   5.693  0.6349  0.5361 -0.1998
 2898SOL     OW15039   1.083   1.707   0.651 -0.2196  0.4660 -0.2478
 2898SOL    HW115040   1.120   1.789   0.684  0.5333  0.5406 -1.2304
 2898SOL    HW215041   1.081   1.649   0.728  0.1422  1.0932  0.2429
 2899SOL     OW15042   4.739   2.322   8.463 -0.0382 -0.2967 -0.5742
 2899SOL    HW115043   4.827   2.326   8.502 -0.5066 -0.9599  0.5963
 2899SOL    HW215044   4.684   2.285   8.532 -0.7319 -2.4987 -2.1889
 2900SOL     OW15045   1.778   0.681   7.037 -0.0819  0.0573  0.3987
 2900SOL    HW115046   1.816   0.695   6.950  0.2474 -0.2973  0.4797
 2900SOL    HW215047   1.691   0.646   7.019 -0.1833  0.4033  0.2100
 2901SOL     OW15048   1.495   4.861   7.819 -0.0415  0.0032  0.0156
 2901SOL    HW115049   1.429   4.910   7.770  0.9282  1.1234 -0.2134
 2901SOL    HW215050   1.554   4.827   7.751 -0.2639 -0.8266  0.2313
 2902SOL     OW15051   3.114   4.205   3.505  0.1268  0.0593  0.0548
 2902SOL    HW115052   3.062   4.257   3.566  1.2661  0.4855  0.6938
 2902SOL    HW215053   3.053   4.140   3.471 -1.9994  3.0946 -2.4696
 2903SOL     OW15054   5.986   0.419   4.761  0.4398 -0.0175 -0.5012
 2903SOL    HW115055   6.000   0.503   4.804 -0.5298 -0.1071  0.0290
 2903SOL    HW215056   5.904   0.431   4.712 -0.6100 -1.1212  0.8844
 2904SOL     OW15057   0.866   7.422   4.801 -0.0423 -0.1464  0.1405
 2904SOL    HW115058   0.818   7.342   4.780  0.3185 -0.6824  1.2681
 2904SOL    HW215059   0.842   7.441   4.892 -0.8105  1.5380 -0.3596
 2905SOL     OW15060   2.210   1.580   2.649  0.0053 -0.4420 -0.4499
 2905SOL    HW115061   2.255   1.496   2.658  1.9486  0.6404  0.6387
 2905SOL    HW215062   2.143   1.578   2.718 -2.0200 -2.2014 -2.2966
 2906SOL     OW15063   4.284   1.574   5.174  0.3174 -0.0307 -0.3205
 2906SOL    HW115064   4.321   1.600   5.090  0.9587 -2.3557 -0.8163
 2906SOL    HW215065   4.358   1.539   5.224 -0.2414  0.3642  0.8437
 2907SOL     OW15066   4.298   2.194   9.212 -0.5425 -0.0765 -0.3062
 2907SOL    HW115067   4.324   2.102   9.213 -1.4824 -0.4480 -2.8588
 2907SOL    HW215068   4.380   2.242   9.215  0.0495 -1.0369 -0.6794
 2908SOL     OW15069   9.242   8.760   2.959 -0.2550 -0.1840 -0.7596
 2908SOL    HW115070   9.248   8.808   3.042 -2.0598  0.1546 -0.7884
 2908SOL    HW215071   9.323   8.710   2.954  1.3719  2.2294 -0.3262
 2909SOL     OW15072   1.749   9.048   8.245  0.3049 -0.2611 -0.7400
 2909SOL    HW115073   1.771   9.057   8.338 -1.0107 -0.9129 -0.3474
 2909SOL    HW215074   1.747   8.954   8.229  1.4640 -0.1571 -1.6976
 2910SOL     OW15075   1.310   5.382   5.981  0.5705 -0.4364  0.6605
 2910SOL    HW115076   1.365   5.430   6.042 -1.7428  2.1408  0.9133
 2910SOL    HW215077   1.307   5.438   5.903 -0.7633 -1.0254  0.2582
 2911SOL     OW15078   8.677   3.561   2.485  0.6593  0.1322 -0.2456
 2911SOL    HW115079   8.614   3.560   2.557  0.8528 -1.5133 -0.0602
 2911SOL    HW215080   8.762   3.550   2.528  0.9792  1.1220 -0.5938
 2912SOL     OW15081   6.188   9.193   7.279 -0.6599  0.1660  0.1766
 2912SOL    HW115082   6.099   9.180   7.245 -0.2005 -1.1998 -0.5899
 2912SOL    HW215083   6.207   9.285   7.262 -1.1894 -0.0035 -1.5113
 2913SOL     OW15084   4.152   7.343   7.259  0.5476 -0.3355  0.0746
 2913SOL    HW115085   4.126   7.305   7.176  0.6543 -1.2226  0.4380
 2913SOL    HW215086   4.207   7.418   7.235  0.4324 -0.4763 -0.6463
 2914SOL     OW15087   1.898   6.462   7.607  0.2450 -0.4935 -0.6266
 2914SOL    HW115088   1.957   6.410   7.552 -1.8490 -1.5845 -1.9728
 2914SOL    HW215089   1.810   6.442   7.574 -0.8739  1.5223  0.8932
 2915SOL     OW15090   8.216   5.318   8.713  0.8126  0.1035  0.8006
 2915SOL    HW115091   8.270   5.316   8.792  1.9249 -1.3249  0.0403
 2915SOL    HW215092   8.128   5.294   8.744  1.3618 -1.0513  1.5306
 2916SOL     OW15093   9.210   8.833   7.034 -0.1073  0.5539  0.7333
 2916SOL    HW115094   9.290   8.885   7.023 -0.7173  1.6476  1.2844
 2916SOL    HW215095   9.222   8.790   7.119  0.2077  0.1285  0.4776
 2917SOL     OW15096   0.577   7.289   4.748  0.2960 -0.0301  0.8270
 2917SOL    HW115097   0.541   7.290   4.837 -0.3552 -2.0081  0.6253
 2917SOL    HW215098   0.607   7.199   4.735  0.7780  0.3288 -0.8241
 2918SOL     OW15099   4.802   4.321   2.690 -0.8912 -0.6347  0.0140
 2918SOL    HW115100   4.800   4.414   2.666  0.0456 -0.7549 -0.5595
 2918SOL    HW215101   4.784   4.275   2.608  4.7415 -1.1528 -1.3441
 2919SOL     OW15102   0.260   2.953   3.797 -0.3864 -0.1648 -0.3711
 2919SOL    HW115103   0.231   3.014   3.728 -0.7121 -0.3839 -0.4279
 2919SOL    HW215104   0.354   2.970   3.805 -0.2628 -0.4111 -1.1511
 2920SOL     OW15105   4.774   0.114   4.488 -0.3320 -0.6558 -0.2057
 2920SOL    HW115106   4.687   0.149   4.508  0.3406  0.8269  0.2618
 2920SOL    HW215107   4.763   0.019   4.496 -1.5531 -0.4394  1.3413
 2921SOL     OW15108   1.100   5.876   6.408  0.0995  0.3403 -0.3341
 2921SOL    HW115109   1.101   5.936   6.334  2.4600  0.5046 -0.2734
 2921SOL    HW215110   1.096   5.932   6.485 -1.5572  0.2070 -0.3065
 2922SOL     OW15111   2.223   7.384   1.227  0.8224  0.2727 -0.3984
 2922SOL    HW115112   2.243   7.346   1.141  1.3794  0.2807 -0.2767
 2922SOL    HW215113   2.170   7.461   1.207  1.3330  0.5316 -0.7664
 2923SOL     OW15114   0.043   0.908   7.824 -0.4993 -0.3184  0.1800
 2923SOL    HW115115   0.015   0.991   7.861  1.5738  0.0861  1.0069
 2923SOL    HW215116  -0.029   0.880   7.768 -1.0315  2.3022 -0.5655
 2924SOL     OW15117   2.719   7.317   4.750  0.0380  0.9802  0.3668
 2924SOL    HW115118   2.681   7.367   4.823 -3.6264 -0.1476 -0.5575
 2924SOL    HW215119   2.644   7.276   4.708  2.2958 -0.5626 -2.4877
 2925SOL     OW15120   1.408   2.970   6.636 -0.2803 -0.0504  0.1864
 2925SOL    HW115121   1.351   2.894   6.629  0.1790 -0.3967  0.1556
 2925SOL    HW215122   1.366   3.038   6.584 -0.6225 -0.3265  0.1064
 2926SOL     OW15123   2.845   1.193   5.674  0.3032  0.4731 -0.5169
 2926SOL    HW115124   2.921   1.137   5.691 -1.0338 -1.6828 -1.2156
 2926SOL    HW215125   2.772   1.132   5.663 -1.4926  2.4475 -0.1927
 2927SOL     OW15126   0.005   2.335   6.696 -0.8162  0.3596  0.8001
 2927SOL    HW115127   0.023   2.331   6.602 -0.0646 -1.2350  0.9817
 2927SOL    HW215128  -0.013   2.428   6.713  2.5825  1.3349 -0.2843
 2928SOL     OW15129   6.066   2.796   1.513 -0.2265  0.6502  0.4709
 2928SOL    HW115130   6.112   2.738   1.573  0.2105  1.7747  1.2620
 2928SOL    HW215131   5.975   2.764   1.513 -0.4232  1.0550  2.3361
 2929SOL     OW15132   1.325   5.094   8.643  0.6071  0.0248 -0.1892
 2929SOL    HW115133   1.260   5.127   8.705  1.1678  1.3293 -0.2520
 2929SOL    HW215134   1.355   5.173   8.597  0.0124 -0.9471 -2.3147
 2930SOL     OW15135   6.709   7.861   6.849  0.5346 -0.4956  0.2657
 2930SOL    HW115136   6.622   7.902   6.857  0.8024  0.2378 -0.5235
 2930SOL    HW215137   6.744   7.864   6.938  0.8034  1.5995  0.1330
 2931SOL     OW15138   4.330   5.245   0.172 -0.3925  0.5375  0.2408
 2931SOL    HW115139   4.330   5.333   0.135 -2.3449 -0.2690 -1.9641
 2931SOL    HW215140   4.281   5.192   0.108  3.3638 -2.8822 -0.1800
 2932SOL     OW15141   5.489   1.835   4.942 -0.0277 -0.0710  0.0334
 2932SOL    HW115142   5.526   1.797   5.021 -0.3019  0.7734  0.5760
 2932SOL    HW215143   5.504   1.769   4.874  2.5210  0.2392  0.1977
 2933SOL     OW15144   3.509   4.128   6.352 -0.3291  0.3893 -0.1361
 2933SOL    HW115145   3.511   4.085   6.266 -0.7132 -0.3870  0.2335
 2933SOL    HW215146   3.418   4.156   6.363  0.0954  2.1352 -0.7590
 2934SOL     OW15147   1.609   5.838   3.201 -0.1600 -0.6121  0.1809
 2934SOL    HW115148   1.603   5.786   3.281  1.2513 -0.3323  0.4888
 2934SOL    HW215149   1.676   5.903   3.219 -1.0070  0.5467 -0.6423
 2935SOL     OW15150   1.321   5.651   1.627  0.5024  0.1744 -0.0543
 2935SOL    HW115151   1.324   5.675   1.719  0.0071 -0.0263  0.0178
 2935SOL    HW215152   1.251   5.705   1.590  1.4246  1.0488 -0.5550
 2936SOL     OW15153   5.900   4.982   1.287  0.1258 -0.1618 -0.2846
 2936SOL    HW115154   5.832   4.916   1.280  0.4850 -0.4731 -0.9600
 2936SOL    HW215155   5.967   4.954   1.224  0.6705  0.3777  0.0427
 2937SOL     OW15156   5.129   6.001   2.156 -0.1032 -0.6228 -0.0718
 2937SOL    HW115157   5.191   5.977   2.225  0.0772  2.5379  1.0308
 2937SOL    HW215158   5.184   6.028   2.083 -0.2889 -2.1596 -0.8173
 2938SOL     OW15159   9.199   3.150   4.522 -0.1034 -0.0643 -0.1379
 2938SOL    HW115160   9.137   3.210   4.564 -0.1183  0.4786 -0.9208
 2938SOL    HW215161   9.199   3.073   4.579 -1.8289 -0.2512 -0.3236
 2939SOL     OW15162   2.032   8.522   4.409  0.3619 -0.3217  0.0145
 2939SOL    HW115163   2.090   8.498   4.480  1.3496 -2.9290 -1.5257
 2939SOL    HW215164   1.980   8.595   4.443  2.1054 -0.2013  2.6565
 2940SOL     OW15165   0.085   5.927   3.906 -0.5337  0.0080 -0.5127
 2940SOL    HW115166   0.137   5.949   3.983  0.2217 -0.2851 -0.9244
 2940SOL    HW215167   0.066   6.011   3.865  2.4195  0.0149 -2.1329
 2941SOL     OW15168   0.387   7.385   4.938  0.7518 -0.4213  0.0198
 2941SOL    HW115169   0.354   7.338   4.862 -1.7629  1.4049 -0.1286
 2941SOL    HW215170   0.324   7.366   5.008 -0.5061  2.7045 -0.1003
 2942SOL     OW15171   0.094   1.132   8.507  0.3780  0.1438  0.0940
 2942SOL    HW115172   0.111   1.144   8.600 -0.8316 -0.5536  0.4204
 2942SOL    HW215173   0.070   1.040   8.498 -1.4957  0.6489 -0.5563
 2943SOL     OW15174   4.485   5.438   3.394 -0.0529 -0.5555 -0.3826
 2943SOL    HW115175   4.514   5.357   3.353 -1.5311 -2.0974  1.4645
 2943SOL    HW215176   4.414   5.412   3.452 -0.7566  2.1156  0.0892
 2944SOL     OW15177   2.997   0.540   0.389 -0.5189 -0.1564  0.3425
 2944SOL    HW115178   3.082   0.497   0.395 -1.2362 -1.4585  1.7809
 2944SOL    HW215179   3.017   0.627   0.356  1.4300 -0.2298  1.1833
 2945SOL     OW15180   1.020   0.626   3.613  0.1352 -0.6900 -0.1546
 2945SOL    HW115181   0.976   0.604   3.695 -0.5516  0.4089 -0.2115
 2945SOL    HW215182   1.107   0.655   3.640 -0.3887  0.5227  0.2829
 2946SOL     OW15183   5.875   2.673   4.358  0.8623  0.6529 -0.0740
 2946SOL    HW115184   5.883   2.579   4.373  3.3401  0.6755 -0.9158
 2946SOL    HW215185   5.809   2.681   4.289 -0.2433 -0.3369  0.8177
 2947SOL     OW15186   1.769   6.322   3.343 -0.0953  0.6182 -0.0630
 2947SOL    HW115187   1.739   6.354   3.259 -0.7360  0.7229  0.1990
 2947SOL    HW215188   1.737   6.387   3.406 -1.5758 -0.5946  0.4925
 2948SOL     OW15189   8.371   4.844   3.171 -0.0463  0.1617 -0.2076
 2948SOL    HW115190   8.278   4.850   3.148 -0.5168 -0.7813  1.2787
 2948SOL    HW215191   8.412   4.803   3.095 -1.2760 -1.5656  0.0054
 2949SOL     OW15192   0.817   6.753   5.254  0.2402  0.4270 -0.6651
 2949SOL    HW115193   0.749   6.818   5.238 -0.3229 -0.2029 -0.8617
 2949SOL    HW215194   0.853   6.777   5.339 -2.4558 -1.0895  1.0625
 2950SOL     OW15195   3.068   2.799   4.608 -0.9880  0.3048 -0.1653
 2950SOL    HW115196   3.058   2.713   4.567  1.3880  0.6103 -1.6431
 2950SOL    HW215197   3.038   2.788   4.698 -0.4984 -2.1674 -0.2428
 2951SOL     OW15198   7.353   3.988   1.912 -0.3570  0.6466 -0.9566
 2951SOL    HW115199   7.347   4.062   1.852 -1.9717  0.0774 -1.5405
 2951SOL    HW215200   7.342   3.910   1.857  0.2702  0.0085 -0.2143
 2952SOL     OW15201   9.008   6.843   7.656  0.4684 -0.1850 -0.2617
 2952SOL    HW115202   8.958   6.769   7.692 -0.0753 -1.0120 -2.5344
 2952SOL    HW215203   9.074   6.801   7.600  1.1594  1.0162 -0.3594
 2953SOL     OW15204   0.849   7.214   7.091  0.6186 -0.6927 -0.5286
 2953SOL    HW115205   0.794   7.138   7.070  1.0282 -1.5211  1.2322
 2953SOL    HW215206   0.908   7.222   7.017 -0.7989 -0.7702 -1.7230
 2954SOL     OW15207   1.297   3.312   1.699 -0.2649 -0.8065  0.8641
 2954SOL    HW115208   1.204   3.335   1.688 -0.4255 -1.7780  0.0656
 2954SOL    HW215209   1.300   3.264   1.781 -0.2792  0.1739  1.4498
 2955SOL     OW15210   0.953   9.217   5.867  0.3392 -0.0236  0.5957
 2955SOL    HW115211   1.011   9.162   5.920 -0.5864  0.5794  2.2977
 2955SOL    HW215212   0.893   9.155   5.824  0.1771 -0.4356  1.4095
 2956SOL     OW15213   7.896   4.960   7.427 -0.2700 -0.0417  0.0114
 2956SOL    HW115214   7.898   4.903   7.350 -1.4731 -0.7383  0.4751
 2956SOL    HW215215   7.864   5.044   7.394 -0.3704 -0.2114 -0.3274
 2957SOL     OW15216   3.950   0.981   7.455 -0.1563 -0.0512  0.0198
 2957SOL    HW115217   3.999   1.061   7.472 -0.9036  0.2861  0.6903
 2957SOL    HW215218   3.908   0.961   7.539  0.1712 -1.2555 -0.0809
 2958SOL     OW15219   5.652   7.168   1.125 -0.9308 -0.4611  0.0215
 2958SOL    HW115220   5.728   7.114   1.102 -0.3020  0.0352  0.8649
 2958SOL    HW215221   5.685   7.258   1.125 -0.1890 -0.4687  4.8848
 2959SOL     OW15222   5.757   8.624   1.034 -0.8194  0.2145  0.1475
 2959SOL    HW115223   5.717   8.676   1.103  1.0175  0.8391  0.7929
 2959SOL    HW215224   5.851   8.628   1.052 -0.3908 -0.6585 -1.6627
 2960SOL     OW15225   8.192   6.832   0.618 -0.3734 -0.0218  0.2270
 2960SOL    HW115226   8.139   6.824   0.698  0.8248  0.3080  1.0747
 2960SOL    HW215227   8.139   6.887   0.560 -1.5783 -0.8534  0.4919
 2961SOL     OW15228   4.754   4.857   1.672 -0.3350 -0.0979 -0.4018
 2961SOL    HW115229   4.836   4.828   1.711  0.1679 -0.5621 -1.7549
 2961SOL    HW215230   4.688   4.799   1.709  0.4424 -2.0421 -1.8926
 2962SOL     OW15231   0.821   9.214   4.502 -0.1178  0.1319  0.8544
 2962SOL    HW115232   0.841   9.307   4.500  0.8192 -0.0282  1.9011
 2962SOL    HW215233   0.884   9.177   4.563  0.2734 -1.3893 -0.4015
 2963SOL     OW15234   5.064   3.697   2.131  0.5938 -0.0509 -0.1133
 2963SOL    HW115235   4.994   3.700   2.066 -0.1382  0.7597  0.6791
 2963SOL    HW215236   5.102   3.610   2.121  0.4246  0.0107 -1.5363
 2964SOL     OW15237   7.289   0.856   8.194  0.4856  0.3328  0.7616
 2964SOL    HW115238   7.277   0.788   8.127 -0.7143  2.1350 -0.9823
 2964SOL    HW215239   7.330   0.929   8.148 -0.4240  1.6691  1.9686
 2965SOL     OW15240   9.092   4.192   5.234  0.8399  0.6287  0.1463
 2965SOL    HW115241   9.079   4.226   5.323  1.1313  1.2455 -0.0373
 2965SOL    HW215242   9.178   4.151   5.236  0.3222 -0.4784  0.4739
 2966SOL     OW15243   5.712   9.057   8.433  0.0797 -0.5507  0.4702
 2966SOL    HW115244   5.679   9.104   8.510 -0.5300 -1.0221  0.4975
 2966SOL    HW215245   5.652   8.984   8.421  0.2444 -0.5614 -0.3812
 2967SOL     OW15246   6.429   4.993   2.219  0.6341  0.0250 -0.2285
 2967SOL    HW115247   6.494   5.062   2.214 -0.3238  1.0578  0.8190
 2967SOL    HW215248   6.391   5.002   2.307  0.2187 -1.5966 -0.2028
 2968SOL     OW15249   5.419   2.045   7.636 -0.3267  0.4554  0.0137
 2968SOL    HW115250   5.396   1.966   7.685 -1.2941  0.8458  0.2238
 2968SOL    HW215251   5.444   2.014   7.549 -0.7445 -0.0760  0.0785
 2969SOL     OW15252   3.310   0.699   7.536 -0.3394  0.2828  0.2858
 2969SOL    HW115253   3.318   0.606   7.516  1.7730  0.5992 -0.6732
 2969SOL    HW215254   3.399   0.734   7.523 -0.7519  2.1714  2.0010
 2970SOL     OW15255   3.682   4.266   8.470  0.1842 -0.1172 -0.1798
 2970SOL    HW115256   3.625   4.256   8.545  2.4643 -0.6554  1.6095
 2970SOL    HW215257   3.679   4.359   8.448  0.5017  0.3079  1.4767
 2971SOL     OW15258   7.289   3.399   8.353 -0.1730  0.0332  0.7037
 2971SOL    HW115259   7.225   3.395   8.424  0.5584 -0.6669  1.3265
 2971SOL    HW215260   7.241   3.440   8.280 -0.5780  1.9091  1.9517
 2972SOL     OW15261   8.877   8.028   7.587  0.2448  0.2613 -0.8585
 2972SOL    HW115262   8.955   7.973   7.594  0.3239  0.5175  0.4396
 2972SOL    HW215263   8.833   7.997   7.508  1.4948 -0.0940 -1.4314
 2973SOL     OW15264   3.553   0.414   5.661 -0.1836 -0.2639  0.4483
 2973SOL    HW115265   3.568   0.372   5.745 -1.9571 -0.5200  0.6898
 2973SOL    HW215266   3.557   0.507   5.679  0.8379 -0.3196  0.5236
 2974SOL     OW15267   4.315   0.538   6.679 -0.2736 -0.0435  0.4029
 2974SOL    HW115268   4.377   0.470   6.654 -1.3420 -0.9985  0.2304
 2974SOL    HW215269   4.362   0.620   6.667  1.0333 -0.7487  0.5717
 2975SOL     OW15270   8.895   2.739   6.481  0.0469 -0.0272 -0.2837
 2975SOL    HW115271   8.936   2.653   6.485  0.7328  0.3492  2.7098
 2975SOL    HW215272   8.954   2.791   6.427  1.3431 -0.6169  0.5209
 2976SOL     OW15273   8.964   0.463   5.364 -0.1481 -0.0515 -0.1654
 2976SOL    HW115274   9.048   0.509   5.358  0.4139 -0.9712  0.4574
 2976SOL    HW215275   8.922   0.481   5.280  1.1047 -0.4158 -0.9042
 2977SOL     OW15276   0.994   6.846   2.703 -0.0563 -0.0572  0.2266
 2977SOL    HW115277   1.073   6.896   2.726 -1.1114  1.1969  1.3118
 2977SOL    HW215278   0.971   6.877   2.616  0.1949  0.1798  0.2424
 2978SOL     OW15279   8.734   4.106   6.150 -0.0872  0.0893 -0.0155
 2978SOL    HW115280   8.677   4.055   6.207 -0.5421  1.2873  0.6511
 2978SOL    HW215281   8.811   4.125   6.204  0.2820 -0.2566 -0.4090
 2979SOL     OW15282   3.454   0.637   4.849 -0.4283 -0.0439  0.4968
 2979SOL    HW115283   3.428   0.614   4.759 -0.4819  1.8868 -0.0333
 2979SOL    HW215284   3.424   0.563   4.902 -4.0972  0.5402 -0.5078
 2980SOL     OW15285   7.660   3.345   1.602 -0.3614  0.2540 -0.2919
 2980SOL    HW115286   7.727   3.385   1.546  1.0891 -0.7302  0.6890
 2980SOL    HW215287   7.704   3.271   1.644 -1.4847  0.7220  1.8678
 2981SOL     OW15288   8.545   7.902   0.384  0.7044  0.0865  0.3895
 2981SOL    HW115289   8.618   7.888   0.444  0.6908 -2.1432 -0.0357
 2981SOL    HW215290   8.511   7.815   0.366 -0.7353  0.8880 -1.0997
 2982SOL     OW15291   3.687   8.323   3.119 -0.4232  0.4162  0.4734
 2982SOL    HW115292   3.641   8.374   3.186 -0.6170 -1.5689  1.9393
 2982SOL    HW215293   3.628   8.322   3.044 -0.6694  1.7973  0.6205
 2983SOL     OW15294   3.438   2.834   0.528  0.6889 -0.5090 -0.0989
 2983SOL    HW115295   3.346   2.841   0.554  0.8748 -1.8484  1.0271
 2983SOL    HW215296   3.466   2.925   0.516 -0.9147 -0.0931 -1.0358
 2984SOL     OW15297   0.466   0.547   2.126 -0.1533  0.1282 -0.0037
 2984SOL    HW115298   0.506   0.460   2.133 -0.1287  0.0050 -1.4049
 2984SOL    HW215299   0.485   0.575   2.036 -1.7579  0.8000 -0.1588
 2985SOL     OW15300   0.419   8.027   8.395 -0.5257 -0.4333 -0.5844
 2985SOL    HW115301   0.413   8.122   8.404 -1.4790 -0.6107  0.9749
 2985SOL    HW215302   0.334   7.995   8.425  0.6062 -1.9028  1.2475
 2986SOL     OW15303   0.953   7.829   5.324 -0.1476 -1.0234  0.1386
 2986SOL    HW115304   0.962   7.752   5.381 -1.8326 -0.0927  1.7699
 2986SOL    HW215305   0.975   7.796   5.236  1.4451 -2.7796  1.1056
 2987SOL     OW15306   0.846   4.849   7.426  0.2814 -0.1195  0.0682
 2987SOL    HW115307   0.936   4.851   7.394  0.1208 -0.7179 -0.4475
 2987SOL    HW215308   0.812   4.764   7.397 -1.2359  1.0897 -1.9617
 2988SOL     OW15309   3.619   2.348   5.235  0.3371 -0.7338  0.0288
 2988SOL    HW115310   3.568   2.274   5.203  0.5731 -2.0961  2.5588
 2988SOL    HW215311   3.556   2.403   5.282  0.7865 -1.4189  1.5021
 2989SOL     OW15312   6.575   2.719   0.620 -0.0605 -0.2990  0.0040
 2989SOL    HW115313   6.602   2.652   0.558 -0.9640  0.2192 -0.9671
 2989SOL    HW215314   6.612   2.800   0.586  0.2127 -0.1409  0.6529
 2990SOL     OW15315   6.810   0.198   8.161  0.3955  0.2053  0.1031
 2990SOL    HW115316   6.813   0.165   8.251  2.2389  0.0105  0.0006
 2990SOL    HW215317   6.748   0.140   8.116  1.4181 -1.3542  0.6393
 2991SOL     OW15318   1.882   5.151   0.511 -0.0997  0.9294 -0.0401
 2991SOL    HW115319   1.899   5.078   0.452  0.2535  1.1969 -0.2760
 2991SOL    HW215320   1.835   5.112   0.585 -0.9042  0.6586 -0.6755
 2992SOL     OW15321   7.773   4.633   1.039  0.8667 -0.0723 -1.0249
 2992SOL    HW115322   7.811   4.663   0.956  0.8878  0.9742 -0.6538
 2992SOL    HW215323   7.821   4.682   1.106 -0.7045  0.8309 -0.5045
 2993SOL     OW15324   6.380   0.255   6.106  0.2759  0.8798  0.3234
 2993SOL    HW115325   6.459   0.309   6.098  0.3838  0.5643 -0.9945
 2993SOL    HW215326   6.335   0.266   6.023 -0.8130  0.6450  0.8712
 2994SOL     OW15327   2.411   0.713   3.384  0.3503  0.4329 -0.1130
 2994SOL    HW115328   2.412   0.806   3.410  0.9155  0.8893 -1.6502
 2994SOL    HW215329   2.319   0.694   3.366  0.2911  0.8241 -0.2309
 2995SOL     OW15330   0.294   2.376   6.017  0.6835  0.1149 -0.1301
 2995SOL    HW115331   0.328   2.289   5.995  0.9577 -0.0069  0.7232
 2995SOL    HW215332   0.289   2.422   5.934 -2.0348 -1.5981 -1.0762
 2996SOL     OW15333   8.433   3.379   7.826 -0.0926  0.9944  0.0880
 2996SOL    HW115334   8.466   3.466   7.802  0.2266  0.9397  0.3217
 2996SOL    HW215335   8.443   3.327   7.746 -1.1008  1.4031 -0.3121
 2997SOL     OW15336   6.492   8.409   8.099  0.2261  0.3712 -0.0433
 2997SOL    HW115337   6.413   8.366   8.065 -0.7976  1.8854  0.3518
 2997SOL    HW215338   6.500   8.377   8.189 -1.5990  2.3063  0.8920
 2998SOL     OW15339   8.991   6.683   5.150  0.2580 -0.5131  0.2847
 2998SOL    HW115340   9.016   6.705   5.240 -0.0957 -0.4307  0.3654
 2998SOL    HW215341   9.045   6.607   5.128  0.3951 -0.4912  0.5429
 2999SOL     OW15342   1.408   1.263   4.775 -0.3376  0.1402  0.1101
 2999SOL    HW115343   1.375   1.351   4.758  0.0377 -0.2162 -3.0666
 2999SOL    HW215344   1.491   1.259   4.727 -0.7943 -2.2298 -0.5906
 3000SOL     OW15345   9.086   7.215   7.917 -0.3097 -0.2390  0.1600
 3000SOL    HW115346   9.104   7.135   7.966  0.2537 -0.9278 -1.1478
 3000SOL    HW215347   8.991   7.226   7.923 -0.7486 -2.3931 -1.6794
 3001SOL     OW15348   7.067   1.734   1.734  0.2896  0.4474  0.0011
 3001SOL    HW115349   7.096   1.825   1.736  0.6399  0.3637 -0.8122
 3001SOL    HW215350   7.104   1.695   1.813  1.7789  0.5453 -0.6143
 3002SOL     OW15351   0.476   2.118   5.241  0.5011 -0.3268  0.2901
 3002SOL    HW115352   0.561   2.135   5.201  0.8491 -3.4239 -0.5330
 3002SOL    HW215353   0.415   2.175   5.194  1.9645  1.4303  0.4345
 3003SOL     OW15354   2.055   1.077   5.992  0.4107  0.9160  0.0657
 3003SOL    HW115355   2.117   1.067   5.919 -0.2876  0.7172 -0.5050
 3003SOL    HW215356   2.020   0.989   6.007 -0.2318  1.1466 -0.0554
 3004SOL     OW15357   1.413   2.104   3.064  0.1338 -0.1280  0.0036
 3004SOL    HW115358   1.410   2.011   3.045 -3.4683  0.1545 -1.5792
 3004SOL    HW215359   1.469   2.141   2.996  0.0766 -0.9413 -0.4917
 3005SOL     OW15360   5.146   8.371   5.057  0.3824  0.3346 -0.1843
 3005SOL    HW115361   5.065   8.348   5.102  1.1066 -0.7577  0.6356
 3005SOL    HW215362   5.152   8.466   5.064 -1.4365  0.5929 -1.3780
 3006SOL     OW15363   6.172   8.198   0.912 -0.0186 -0.0703  0.0314
 3006SOL    HW115364   6.084   8.205   0.950 -0.2641  1.0591 -0.6842
 3006SOL    HW215365   6.223   8.153   0.979 -0.4548  1.7268  1.6953
 3007SOL     OW15366   2.575   0.249   3.457  0.4605 -0.5512 -0.0303
 3007SOL    HW115367   2.534   0.324   3.413  0.7576 -0.3022  0.1159
 3007SOL    HW215368   2.567   0.178   3.394 -1.1876 -0.8105  0.4132
 3008SOL     OW15369   1.141   6.957   6.408  0.0154 -0.2455 -0.4286
 3008SOL    HW115370   1.160   7.011   6.484 -2.5308 -1.4139  1.1851
 3008SOL    HW215371   1.120   7.019   6.339  0.1219  0.8426  0.4880
 3009SOL     OW15372   8.932   3.585   8.521  0.3435 -0.1919  0.8307
 3009SOL    HW115373   8.906   3.671   8.553 -1.3803 -0.3469 -0.0689
 3009SOL    HW215374   8.879   3.523   8.572 -0.0306 -0.5958 -0.0359
 3010SOL     OW15375   8.024   8.287   7.285  0.0304  0.1761  0.3047
 3010SOL    HW115376   8.105   8.255   7.245  0.3988  0.3752  0.8956
 3010SOL    HW215377   8.009   8.372   7.244 -1.2191 -0.8885 -1.6545
 3011SOL     OW15378   3.376   7.181   5.421  0.3495 -0.3427  0.1780
 3011SOL    HW115379   3.445   7.246   5.410  0.4482 -0.3038  0.9510
 3011SOL    HW215380   3.296   7.228   5.397  0.3607  0.2329  1.1764
 3012SOL     OW15381   4.180   0.781   1.619 -0.2892 -0.0002 -0.2133
 3012SOL    HW115382   4.139   0.739   1.695 -1.0197  2.3058  0.7354
 3012SOL    HW215383   4.271   0.749   1.620 -0.3676 -0.2601  1.4549
 3013SOL     OW15384   4.018   2.388   5.302 -0.1838 -0.1902 -0.3090
 3013SOL    HW115385   3.925   2.373   5.285 -0.2371 -0.2378 -0.0004
 3013SOL    HW215386   4.056   2.300   5.306 -0.4244 -0.2521  1.1247
 3014SOL     OW15387   3.313   2.850   6.573 -0.3976 -0.2522 -0.4913
 3014SOL    HW115388   3.327   2.762   6.609  0.9388 -0.4246 -1.3693
 3014SOL    HW215389   3.322   2.839   6.479  0.2984  0.9142 -0.5772
 3015SOL     OW15390   6.458   5.618   1.620  0.9122 -0.4335  0.1289
 3015SOL    HW115391   6.451   5.624   1.715  2.0723 -0.6371  0.2527
 3015SOL    HW215392   6.499   5.533   1.604  0.6594 -0.4379 -0.5558
 3016SOL     OW15393   4.495   3.802   4.956 -0.0482  0.6857 -0.6239
 3016SOL    HW115394   4.431   3.871   4.974  0.8297  1.1199  1.0429
 3016SOL    HW215395   4.575   3.850   4.933 -0.1228  0.1548 -2.1088
 3017SOL     OW15396   0.227   1.444   2.019 -0.5780 -0.9319  0.2561
 3017SOL    HW115397   0.174   1.463   1.942 -0.5580 -1.3767  0.1294
 3017SOL    HW215398   0.191   1.363   2.053  0.4448 -1.6060 -0.2257
 3018SOL     OW15399   8.362   1.471   0.359  0.6078  0.2196 -0.1960
 3018SOL    HW115400   8.324   1.506   0.279  0.6626  2.3614  0.6550
 3018SOL    HW215401   8.288   1.440   0.410  0.3922  0.5376 -0.3129
 3019SOL     OW15402   1.088   4.175   3.824  0.8449  0.5431 -0.6000
 3019SOL    HW115403   1.092   4.259   3.869  0.0203  0.2797 -0.0134
 3019SOL    HW215404   1.167   4.129   3.852  0.8723  0.7920 -0.2586
 3020SOL     OW15405   7.375   3.575   6.993  0.0270 -0.3452  0.4100
 3020SOL    HW115406   7.357   3.649   6.936  1.2976 -1.9395 -2.2637
 3020SOL    HW215407   7.375   3.612   7.081 -0.4633  2.5727 -0.6979
 3021SOL     OW15408   7.283   2.378   6.707  0.5142 -0.0329 -0.3949
 3021SOL    HW115409   7.242   2.416   6.630 -1.3834 -0.4257  0.3548
 3021SOL    HW215410   7.330   2.451   6.748 -0.0866  0.6543 -0.8951
 3022SOL     OW15411   3.527   1.292   8.517  0.0693 -0.0035 -0.1494
 3022SOL    HW115412   3.438   1.323   8.499  0.8716  2.9673  0.5008
 3022SOL    HW215413   3.515   1.223   8.582 -1.8839 -1.4505 -1.9103
 3023SOL     OW15414   0.672   3.166   2.738  0.1258 -0.1772 -0.3682
 3023SOL    HW115415   0.642   3.228   2.804  2.7053  0.6703  0.1149
 3023SOL    HW215416   0.725   3.103   2.786  0.1516 -0.9159 -1.3183
 3024SOL     OW15417   6.690   3.234   4.633  0.0225 -0.5500  0.3288
 3024SOL    HW115418   6.711   3.261   4.723 -0.9562 -0.6501  0.6007
 3024SOL    HW215419   6.656   3.145   4.642 -0.8968 -0.2505 -0.0227
 3025SOL     OW15420   4.211   7.582   1.967 -0.1999 -0.0925  0.3420
 3025SOL    HW115421   4.280   7.556   1.906 -0.6248  0.2695 -0.3022
 3025SOL    HW215422   4.250   7.652   2.019  1.0475 -2.0557  2.2547
 3026SOL     OW15423   0.702   7.423   0.744 -0.2403 -0.2815 -0.2801
 3026SOL    HW115424   0.692   7.517   0.760 -1.0831 -0.6984  2.0116
 3026SOL    HW215425   0.638   7.403   0.676 -2.1633  0.3215  1.2806
 3027SOL     OW15426   8.760   1.902   5.791 -0.1119  0.1028  0.1094
 3027SOL    HW115427   8.848   1.920   5.757 -0.2421  0.4207 -0.0647
 3027SOL    HW215428   8.736   1.981   5.839 -0.3830  0.0985 -0.0165
 3028SOL     OW15429   4.700   8.329   5.818  0.3699  0.9076 -0.0693
 3028SOL    HW115430   4.671   8.242   5.792  2.0048  0.4342 -0.4382
 3028SOL    HW215431   4.647   8.350   5.895  0.1534 -0.5377  0.2050
 3029SOL     OW15432   7.199   2.516   8.640 -0.6550 -0.0859  0.3080
 3029SOL    HW115433   7.285   2.476   8.649 -1.0203 -0.4723  2.5925
 3029SOL    HW215434   7.156   2.465   8.571  0.8949  0.1166 -0.8752
 3030SOL     OW15435   6.834   4.383   2.998 -0.2232  0.4827  0.1814
 3030SOL    HW115436   6.858   4.452   2.936 -1.1783  1.1781  0.5516
 3030SOL    HW215437   6.739   4.392   3.008 -0.4176 -1.0705  0.0428
 3031SOL     OW15438   7.549   7.041   0.067 -0.1684 -0.4005  0.3764
 3031SOL    HW115439   7.515   6.958   0.034 -0.4918 -0.1306  0.0212
 3031SOL    HW215440   7.622   7.016   0.124  0.0256 -0.8995 -0.0859
 3032SOL     OW15441   7.986   5.767   5.674  0.0566 -0.0718 -0.1531
 3032SOL    HW115442   7.964   5.688   5.625 -1.4561 -0.5851  1.2626
 3032SOL    HW215443   7.991   5.836   5.607 -2.1929 -0.6885 -1.0486
 3033SOL     OW15444   1.132   1.910   1.010 -0.2805  0.5014  0.4323
 3033SOL    HW115445   1.176   1.857   1.076  1.2626  2.1347  0.8081
 3033SOL    HW215446   1.045   1.871   1.001 -0.4779  0.0949  3.3094
 3034SOL     OW15447   8.212   6.260   9.244 -0.3930  0.3367  0.0874
 3034SOL    HW115448   8.150   6.224   9.181 -3.2559  2.4323  1.4826
 3034SOL    HW215449   8.169   6.249   9.329  1.3419  1.4811  1.1798
 3035SOL     OW15450   1.916   5.430   6.412  0.2945 -0.8199  0.1513
 3035SOL    HW115451   1.908   5.354   6.469 -0.6665 -2.3999 -1.9719
 3035SOL    HW215452   2.009   5.433   6.389  0.4628 -0.8943  0.7897
 3036SOL     OW15453   3.078   3.789   3.484 -0.1675  0.0308  0.1346
 3036SOL    HW115454   3.030   3.867   3.456 -0.4906 -0.7919 -1.8037
 3036SOL    HW215455   3.012   3.731   3.520  0.0807  0.6211  1.6268
 3037SOL     OW15456   4.808   3.085   0.524  0.0925  0.6474 -0.2148
 3037SOL    HW115457   4.844   3.109   0.438  1.5129  0.7685  0.3988
 3037SOL    HW215458   4.718   3.118   0.521  0.2894  1.1440 -1.4573
 3038SOL     OW15459   0.034   8.443   8.372  0.6907 -0.6920  0.2073
 3038SOL    HW115460   0.027   8.347   8.374  0.2211 -0.6606  0.1975
 3038SOL    HW215461   0.008   8.471   8.459  1.3110 -0.5973  0.3694
 3039SOL     OW15462   1.276   8.339   0.396 -0.0557 -0.0204 -0.4103
 3039SOL    HW115463   1.351   8.322   0.339  0.2917 -0.6887  0.2335
 3039SOL    HW215464   1.309   8.401   0.460  0.2537 -1.0776  0.4751
 3040SOL     OW15465   1.775   8.532   7.840 -0.7749  0.0723 -0.1270
 3040SOL    HW115466   1.687   8.496   7.846 -0.6964 -0.0183  0.5184
 3040SOL    HW215467   1.762   8.627   7.841 -0.8090  0.0642  0.9525
 3041SOL     OW15468   6.234   3.043   5.021 -0.4408  0.0468  0.0462
 3041SOL    HW115469   6.299   3.041   5.091  0.3379 -2.8632 -0.6279
 3041SOL    HW215470   6.188   2.959   5.028 -1.7150  0.5313 -1.6862
 3042SOL     OW15471   4.889   7.058   7.753  0.6100  0.7592  0.0157
 3042SOL    HW115472   4.864   6.966   7.740 -0.7187  1.1889 -0.6735
 3042SOL    HW215473   4.872   7.074   7.845 -0.9757  0.8012 -0.2545
 3043SOL     OW15474   3.628   7.987   7.913  0.2989 -0.6427 -0.4367
 3043SOL    HW115475   3.596   8.043   7.984  1.0631 -0.1459 -0.4659
 3043SOL    HW215476   3.567   7.914   7.910  0.2435 -0.6567  0.7258
 3044SOL     OW15477   1.842   0.417   0.612 -0.2972 -0.2728 -0.0375
 3044SOL    HW115478   1.787   0.487   0.574 -0.8461 -1.0877 -0.7953
 3044SOL    HW215479   1.928   0.430   0.572  0.3553  1.4975  1.7475
 3045SOL     OW15480   8.811   1.389   2.854 -0.4082 -0.0415  0.5463
 3045SOL    HW115481   8.815   1.393   2.950 -2.7287  0.9467  0.6571
 3045SOL    HW215482   8.719   1.371   2.835  0.0854 -0.6038 -1.5202
 3046SOL     OW15483   5.699   2.768   7.996  0.3053 -0.4682  0.1717
 3046SOL    HW115484   5.785   2.760   8.036  0.2271  1.9304  0.9554
 3046SOL    HW215485   5.710   2.830   7.925 -0.5801 -0.9626 -0.4299
 3047SOL     OW15486   4.450   2.958   0.563 -0.3862  1.0087  0.0615
 3047SOL    HW115487   4.409   2.976   0.478  0.6820  0.0924 -0.6806
 3047SOL    HW215488   4.381   2.916   0.614 -0.6130  0.1728 -0.9037
 3048SOL     OW15489   0.873   0.469   7.276 -0.7229  0.1069 -0.7118
 3048SOL    HW115490   0.794   0.476   7.329 -0.8713 -2.1897 -0.5300
 3048SOL    HW215491   0.878   0.552   7.229 -3.6125  0.1016 -1.2052
 3049SOL     OW15492   7.901   6.918   5.147 -0.3800 -0.2193 -0.1528
 3049SOL    HW115493   7.855   6.879   5.072 -0.5420 -1.3618  0.5199
 3049SOL    HW215494   7.983   6.869   5.153  0.3230  0.8780 -0.4892
 3050SOL     OW15495   3.266   3.192   3.844  0.3932 -0.4309 -0.0901
 3050SOL    HW115496   3.272   3.133   3.919 -1.3862 -1.3909 -0.6500
 3050SOL    HW215497   3.174   3.191   3.820  0.4679  1.8801 -0.7142
 3051SOL     OW15498   7.220   1.337   0.189  0.3628  0.0669 -0.2764
 3051SOL    HW115499   7.198   1.427   0.212  0.5443  0.4040 -1.3485
 3051SOL    HW215500   7.198   1.330   0.096 -0.3500 -1.2298 -0.0299
 3052SOL     OW15501   2.951   5.146   1.007 -0.1634 -0.0702 -0.2785
 3052SOL    HW115502   2.936   5.182   1.094  0.3012  0.5689 -0.4535
 3052SOL    HW215503   3.024   5.197   0.973 -1.3363  0.7685 -1.6553
 3053SOL     OW15504   1.853   2.376   0.876  0.3403 -0.6569 -0.1411
 3053SOL    HW115505   1.940   2.413   0.893  0.4229 -1.0289  0.2748
 3053SOL    HW215506   1.839   2.388   0.782  1.2422 -1.4254 -0.3928
 3054SOL     OW15507   2.328   7.760   5.457  0.0462  0.4809  0.0472
 3054SOL    HW115508   2.288   7.844   5.436  1.0498  0.6444 -1.3635
 3054SOL    HW215509   2.406   7.782   5.507  0.5258  0.4342 -0.6635
 3055SOL     OW15510   6.525   1.308   6.067  0.0558  0.0150  0.1771
 3055SOL    HW115511   6.475   1.385   6.042  0.6127  0.3304  0.0216
 3055SOL    HW215512   6.459   1.241   6.086 -0.4810  0.9520  1.7739
 3056SOL     OW15513   5.051   1.917   0.233 -0.1389  0.1571 -0.4862
 3056SOL    HW115514   5.051   1.991   0.173 -1.0706  0.7796  0.2415
 3056SOL    HW215515   5.030   1.841   0.179 -0.6475  0.6583 -1.0085
 3057SOL     OW15516   6.134   6.822   5.554 -0.0797  0.2098  0.3217
 3057SOL    HW115517   6.093   6.738   5.576 -0.5602  0.4558  0.3660
 3057SOL    HW215518   6.186   6.802   5.475 -0.1337 -0.1444  0.3708
 3058SOL     OW15519   3.865   4.998   5.439 -0.3989  0.1373  0.1711
 3058SOL    HW115520   3.873   5.025   5.530  1.5775 -0.6254  0.2847
 3058SOL    HW215521   3.774   4.969   5.430 -0.9169  1.2046  1.5913
 3059SOL     OW15522   1.587   6.497   5.992 -0.2789 -0.2089 -0.3503
 3059SOL    HW115523   1.645   6.573   5.997 -0.4782 -0.1255  1.5113
 3059SOL    HW215524   1.531   6.514   5.917  2.0342 -0.2673 -2.1878
 3060SOL     OW15525   8.705   8.980   8.304  0.0620  0.1376  0.3133
 3060SOL    HW115526   8.744   9.020   8.227  1.6681 -2.2877 -0.2252
 3060SOL    HW215527   8.765   9.001   8.375  0.2951 -0.3637  0.2609
 3061SOL     OW15528   4.205   7.504   6.135  0.0894  0.1853 -0.1193
 3061SOL    HW115529   4.157   7.465   6.208  0.7798 -1.5340 -0.5228
 3061SOL    HW215530   4.140   7.555   6.087 -0.6751  0.2025  0.9064
 3062SOL     OW15531   2.223   2.941   4.568  0.3432 -0.4573 -0.4449
 3062SOL    HW115532   2.129   2.937   4.549  0.4481 -2.0857 -0.8529
 3062SOL    HW215533   2.265   2.942   4.482  0.7125 -0.4567 -0.2679
 3063SOL     OW15534   0.301   4.198   5.899 -0.6184 -0.0683  0.0203
 3063SOL    HW115535   0.366   4.254   5.856  0.2337 -0.8846  0.1874
 3063SOL    HW215536   0.265   4.144   5.829  0.3690 -1.0116  0.1996
 3064SOL     OW15537   1.688   5.800   6.805  0.3994 -0.4974 -0.4072
 3064SOL    HW115538   1.704   5.742   6.731 -1.5263 -1.2383 -0.2976
 3064SOL    HW215539   1.604   5.842   6.786  1.0877  1.2609  0.1618
 3065SOL     OW15540   0.775   8.630   4.379 -0.4280 -0.0164  0.0442
 3065SOL    HW115541   0.685   8.662   4.387 -0.7301 -0.4558 -1.2293
 3065SOL    HW215542   0.824   8.677   4.445 -1.1177  2.0947 -0.8708
 3066SOL     OW15543   6.774   6.268   7.816 -0.1717 -0.0963  0.0086
 3066SOL    HW115544   6.725   6.332   7.764 -1.2630 -0.8037  0.1384
 3066SOL    HW215545   6.792   6.196   7.755  0.8083  0.1934 -0.0617
 3067SOL     OW15546   0.350   1.663   7.458 -0.6679 -0.2169  0.1869
 3067SOL    HW115547   0.406   1.730   7.420  2.4339 -1.7828  1.6016
 3067SOL    HW215548   0.319   1.702   7.540  2.6767 -0.9225  1.9934
 3068SOL     OW15549   0.926   5.791   2.350  0.6077  0.2441 -0.2828
 3068SOL    HW115550   0.882   5.799   2.265  1.9050  0.9353 -0.9145
 3068SOL    HW215551   0.926   5.697   2.368 -1.3599  0.2316 -0.1013
 3069SOL     OW15552   3.628   3.670   6.218 -0.0435  0.1470  0.3772
 3069SOL    HW115553   3.708   3.625   6.243  0.5612  0.9019 -0.1330
 3069SOL    HW215554   3.627   3.750   6.271 -2.0295 -1.2160  2.6381
 3070SOL     OW15555   3.140   4.216   8.282 -0.5338  0.0277 -0.3391
 3070SOL    HW115556   3.086   4.295   8.275  0.7995  0.9196 -0.9862
 3070SOL    HW215557   3.230   4.246   8.266  0.1828 -1.4013  0.6847
 3071SOL     OW15558   8.752   4.242   5.180  0.1810 -0.1208 -0.2640
 3071SOL    HW115559   8.784   4.255   5.269  0.2364 -0.4515 -0.2354
 3071SOL    HW215560   8.816   4.184   5.139  0.3863  0.3773 -0.6567
 3072SOL     OW15561   3.685   3.631   0.919 -0.1453  0.3102 -0.9685
 3072SOL    HW115562   3.655   3.540   0.921  0.4781  0.1017  0.5518
 3072SOL    HW215563   3.605   3.683   0.916 -0.5296 -0.2781 -1.1264
 3073SOL     OW15564   3.438   5.703   7.045  0.1816 -0.1603 -0.4600
 3073SOL    HW115565   3.455   5.722   6.953  0.2826  0.2911 -0.3514
 3073SOL    HW215566   3.462   5.611   7.056 -1.1910 -0.6363 -1.2146
 3074SOL     OW15567   8.544   1.154   7.576  0.7072  0.0093  0.1499
 3074SOL    HW115568   8.567   1.244   7.598  0.5118  0.3615 -1.0038
 3074SOL    HW215569   8.628   1.111   7.559  0.8106 -0.0811  0.8405
 3075SOL     OW15570   7.529   7.973   5.408  0.3773 -0.5253  0.3696
 3075SOL    HW115571   7.565   7.884   5.410  2.3767  0.1035 -2.0285
 3075SOL    HW215572   7.450   7.965   5.354  1.2862 -0.6628 -0.9791
 3076SOL     OW15573   6.228   1.665   4.192 -0.1259  0.4312 -0.6816
 3076SOL    HW115574   6.202   1.757   4.194  0.1846  0.5231 -0.8864
 3076SOL    HW215575   6.318   1.665   4.159  0.1299  0.1134 -0.0249
 3077SOL     OW15576   5.707   5.259   2.687  0.6418  0.1610 -0.2368
 3077SOL    HW115577   5.800   5.242   2.701  0.5136 -0.3149  0.0724
 3077SOL    HW215578   5.666   5.172   2.690  0.2613  0.3113 -0.9382
 3078SOL     OW15579   5.448   0.896   8.198  0.1581  0.3015  0.3818
 3078SOL    HW115580   5.360   0.905   8.234  0.6294  0.2046  1.6119
 3078SOL    HW215581   5.504   0.942   8.260  0.7939  2.0123 -1.3606
 3079SOL     OW15582   0.006   8.556   5.776 -0.4159  0.3475  0.1282
 3079SOL    HW115583   0.019   8.492   5.706 -1.6840  0.8448 -0.5991
 3079SOL    HW215584   0.070   8.624   5.759 -0.3903  0.2287 -0.2662
 3080SOL     OW15585   5.824   5.738   3.963  0.2596 -0.0387 -0.1123
 3080SOL    HW115586   5.903   5.688   3.983  0.1249 -0.1356  0.1758
 3080SOL    HW215587   5.753   5.674   3.968  0.1768  0.0164 -0.5184
 3081SOL     OW15588   8.622   6.985   7.782  0.0138 -0.8194  0.5436
 3081SOL    HW115589   8.593   6.977   7.873  0.4467 -0.3461  0.7293
 3081SOL    HW215590   8.598   7.074   7.757  0.1559 -0.8510  0.2908
 3082SOL     OW15591   1.060   8.867   0.427  0.5086  0.1294 -0.2290
 3082SOL    HW115592   0.968   8.881   0.449  0.3811 -0.2514 -0.5164
 3082SOL    HW215593   1.061   8.855   0.332  0.6820 -1.2013 -0.0815
 3083SOL     OW15594   4.049   7.182   3.112 -0.4727 -0.0630 -0.2934
 3083SOL    HW115595   4.081   7.271   3.128  0.0897 -0.2195 -0.5354
 3083SOL    HW215596   4.024   7.150   3.199  0.1807  0.0068 -0.0709
 3084SOL     OW15597   0.031   1.720   7.867  0.0175 -0.8405 -0.7827
 3084SOL    HW115598  -0.019   1.790   7.824 -0.9472 -1.7131 -1.1026
 3084SOL    HW215599   0.075   1.764   7.940 -1.0393 -0.0185 -0.6192
 3085SOL     OW15600   0.721   4.531   5.491  0.5485  0.4318 -0.1281
 3085SOL    HW115601   0.753   4.564   5.407  1.7703  2.9696  1.2374
 3085SOL    HW215602   0.626   4.531   5.481  0.6807 -0.1123 -1.7675
 3086SOL     OW15603   2.609   5.278   1.350 -0.3771 -0.5620  0.4366
 3086SOL    HW115604   2.664   5.339   1.398 -0.6209 -0.5406  0.6869
 3086SOL    HW215605   2.671   5.224   1.300 -0.1534 -0.2575  0.3842
 3087SOL     OW15606   4.758   3.504   2.938 -0.5408 -0.0355 -0.1017
 3087SOL    HW115607   4.738   3.516   3.031 -3.0250 -1.3622 -0.3862
 3087SOL    HW215608   4.727   3.416   2.917  3.0796 -1.1899 -1.4910
 3088SOL     OW15609   8.117   2.259   7.038 -0.5115 -0.4131 -0.3084
 3088SOL    HW115610   8.164   2.327   7.085 -0.2433 -0.3938 -0.6006
 3088SOL    HW215611   8.029   2.260   7.075  0.2325 -1.8209  1.7030
 3089SOL     OW15612   1.368   2.356   7.346  0.2605 -0.3810  0.2157
 3089SOL    HW115613   1.327   2.342   7.261  0.9284  0.0242 -0.1821
 3089SOL    HW215614   1.376   2.451   7.353  0.6552 -0.4334  0.5185
 3090SOL     OW15615   7.401   1.828   3.506  0.1221 -0.3430  0.3944
 3090SOL    HW115616   7.421   1.867   3.421  1.4654  1.3278  1.4036
 3090SOL    HW215617   7.323   1.874   3.536  0.0590 -0.4390  0.3788
 3091SOL     OW15618   8.461   0.435   0.940 -0.3364  0.3965 -0.3156
 3091SOL    HW115619   8.370   0.457   0.960 -0.1033  0.4171  0.7708
 3091SOL    HW215620   8.513   0.486   1.003  0.3762 -0.3606 -0.2731
 3092SOL     OW15621   9.147   8.809   1.594 -0.0549 -0.5815 -0.0768
 3092SOL    HW115622   9.205   8.811   1.517  0.5695  0.1797  0.4001
 3092SOL    HW215623   9.204   8.786   1.667 -0.4429 -0.2975  0.3232
 3093SOL     OW15624   8.741   3.650   8.240 -0.3376  0.3844 -0.2926
 3093SOL    HW115625   8.752   3.738   8.276  0.3864  0.4678 -0.6927
 3093SOL    HW215626   8.829   3.624   8.213 -0.3018 -0.9787  0.9976
 3094SOL     OW15627   9.036   4.514   8.941 -0.2889  0.5245 -0.0013
 3094SOL    HW115628   8.980   4.525   9.019 -1.9292 -4.9854  0.0034
 3094SOL    HW215629   9.116   4.475   8.975  0.1497  0.6495 -0.8672
 3095SOL     OW15630   6.302   6.000   8.920 -0.2630  0.1951  0.0324
 3095SOL    HW115631   6.230   5.951   8.960  0.7946 -0.0641  1.7200
 3095SOL    HW215632   6.371   5.935   8.907  0.5897  0.9066  0.8357
 3096SOL     OW15633   8.946   8.673   3.701 -0.7046 -0.0491  0.5216
 3096SOL    HW115634   9.001   8.646   3.774 -0.8307 -3.8386 -0.5506
 3096SOL    HW215635   9.004   8.672   3.625 -1.3421  0.1232  0.0253
 3097SOL     OW15636   1.205   2.209   4.941  0.0085  0.1356  0.0230
 3097SOL    HW115637   1.294   2.178   4.956  0.4319  1.9967  1.9100
 3097SOL    HW215638   1.204   2.238   4.850  1.3404  0.0792 -0.0258
 3098SOL     OW15639   6.793   3.825   6.861 -0.0722  0.0628 -0.2026
 3098SOL    HW115640   6.733   3.764   6.904 -1.4926  0.6904 -1.2403
 3098SOL    HW215641   6.875   3.817   6.911 -0.5741 -1.8093  0.4031
 3099SOL     OW15642   1.700   6.307   2.296  0.2715  0.5677  0.2613
 3099SOL    HW115643   1.756   6.239   2.259  1.2022  0.5748  1.6362
 3099SOL    HW215644   1.760   6.371   2.334 -0.5283  2.6803 -1.7656
 3100SOL     OW15645   8.000   1.660   6.058 -0.0908  0.5931 -0.5201
 3100SOL    HW115646   8.092   1.684   6.069  0.0932 -0.6155  0.8732
 3100SOL    HW215647   7.965   1.727   5.999  1.3469  1.8523 -0.0099
 3101SOL     OW15648   1.329   2.482   8.863 -0.8022 -0.0444 -0.0834
 3101SOL    HW115649   1.357   2.403   8.909 -2.0242 -0.2107  0.4379
 3101SOL    HW215650   1.408   2.534   8.852 -0.2208 -0.7230  0.8053
 3102SOL     OW15651   6.619   6.094   7.001 -0.1134 -0.1833  0.3587
 3102SOL    HW115652   6.705   6.052   6.996 -0.1206 -0.1795  0.1982
 3102SOL    HW215653   6.600   6.098   7.095  1.0835  1.8639  0.5877
 3103SOL     OW15654   8.035   3.844   8.030 -0.7000 -0.5008  0.6779
 3103SOL    HW115655   8.067   3.916   8.084  2.7728 -1.1459 -0.2864
 3103SOL    HW215656   8.082   3.853   7.947 -2.3154 -2.2743 -0.5074
 3104SOL     OW15657   1.665   1.383   5.944 -0.1048 -0.6456  0.4844
 3104SOL    HW115658   1.750   1.343   5.965  1.2823  0.3366 -2.5848
 3104SOL    HW215659   1.630   1.330   5.872  0.1838  1.4986 -1.3707
 3105SOL     OW15660   9.183   8.212   6.930 -0.4287 -0.2914 -0.3575
 3105SOL    HW115661   9.125   8.205   7.006 -0.8441 -1.0861 -0.7331
 3105SOL    HW215662   9.202   8.121   6.906  1.7744 -0.0730  0.3376
 3106SOL     OW15663   3.220   2.443   1.030 -0.1941  0.1054  0.3358
 3106SOL    HW115664   3.263   2.468   1.112  0.0914  1.7413 -0.2798
 3106SOL    HW215665   3.257   2.501   0.965 -2.7753  1.0860 -0.3775
 3107SOL     OW15666   5.324   9.137   8.252 -0.1898  0.3912 -0.0476
 3107SOL    HW115667   5.315   9.066   8.189 -1.7785  0.6040 -0.1152
 3107SOL    HW215668   5.350   9.213   8.199 -1.2211  0.4962 -0.4200
 3108SOL     OW15669   6.147   7.577   3.785 -0.3868 -0.0903 -0.2565
 3108SOL    HW115670   6.151   7.663   3.743 -0.2314 -1.0740 -2.4024
 3108SOL    HW215671   6.058   7.546   3.767 -0.2381 -0.6437 -0.0515
 3109SOL     OW15672   5.980   8.234   3.068  0.5528 -0.1385 -0.0754
 3109SOL    HW115673   5.943   8.270   3.149  0.9427 -0.9922  0.4970
 3109SOL    HW215674   5.954   8.296   3.000 -1.8553 -0.6111  0.3035
 3110SOL     OW15675   4.899   6.076   5.728  0.3941  0.2865  0.3005
 3110SOL    HW115676   4.974   6.043   5.778 -0.6153  0.3152  1.9295
 3110SOL    HW215677   4.859   6.141   5.786 -1.4504 -0.4391 -0.1048
 3111SOL     OW15678   5.833   6.532   5.321  0.1442  0.4890  0.2239
 3111SOL    HW115679   5.833   6.587   5.242 -2.1190 -0.9778 -0.9199
 3111SOL    HW215680   5.768   6.572   5.378  0.9316  0.8765  0.8636
 3112SOL     OW15681   7.601   1.083   8.681 -0.3801 -0.1282  0.2743
 3112SOL    HW115682   7.577   1.096   8.773 -1.1828 -0.8868  0.1838
 3112SOL    HW215683   7.665   1.012   8.682 -1.2081 -0.8872  0.1601
 3113SOL     OW15684   5.249   2.755   4.994 -0.4728  0.8693 -0.1405
 3113SOL    HW115685   5.247   2.670   5.038  1.5443 -0.4261 -2.2985
 3113SOL    HW215686   5.232   2.735   4.902 -0.2602  2.8487 -0.6635
 3114SOL     OW15687   1.015   3.446   7.636  0.2304  0.1615 -0.0692
 3114SOL    HW115688   0.968   3.461   7.555 -0.6107 -0.5588  0.2694
 3114SOL    HW215689   1.077   3.519   7.642  2.0229 -1.0060 -2.5649
 3115SOL     OW15690   2.586   2.919   0.038  0.0474  0.4404 -0.2477
 3115SOL    HW115691   2.671   2.888   0.005  0.0949  1.3277 -0.9616
 3115SOL    HW215692   2.529   2.842   0.032  0.8242 -0.2072  0.3705
 3116SOL     OW15693   8.473   1.378   6.285  0.0913 -0.2914 -0.3187
 3116SOL    HW115694   8.480   1.307   6.221  0.1681  1.0865 -1.9141
 3116SOL    HW215695   8.562   1.412   6.293  0.1205 -0.5617  0.6989
 3117SOL     OW15696   8.978   4.628   8.709 -0.0393 -0.0878 -0.0949
 3117SOL    HW115697   8.993   4.717   8.740 -1.3157 -0.1108  0.6372
 3117SOL    HW215698   9.013   4.572   8.778 -0.9410 -0.1419  0.3277
 3118SOL     OW15699   5.452   1.184   7.947  0.4447  0.1415  0.0810
 3118SOL    HW115700   5.484   1.222   7.866  1.8206 -0.2168  0.4323
 3118SOL    HW215701   5.395   1.112   7.918  0.2033  0.5826 -0.5626
 3119SOL     OW15702   3.283   8.050   4.887  0.3333  0.1693  0.0542
 3119SOL    HW115703   3.250   7.963   4.909  0.2787  0.0148 -0.6128
 3119SOL    HW215704   3.343   8.035   4.814  3.3788  0.1919  2.3818
 3120SOL     OW15705   4.697   8.604   7.864 -0.2501  0.5110 -0.4075
 3120SOL    HW115706   4.616   8.655   7.873 -1.2083 -0.2963 -3.2029
 3120SOL    HW215707   4.700   8.550   7.942 -2.6459  0.3123 -0.3657
 3121SOL     OW15708   2.793   4.285   6.251 -0.2033 -0.7381  0.8751
 3121SOL    HW115709   2.785   4.259   6.159  1.1356 -0.5032  0.6731
 3121SOL    HW215710   2.711   4.257   6.291 -1.1694 -0.0764 -0.5680
 3122SOL     OW15711   3.248   9.052   7.927 -0.0089  0.3469 -0.6364
 3122SOL    HW115712   3.334   9.017   7.953 -0.0610  0.6206 -0.0856
 3122SOL    HW215713   3.238   9.024   7.836  0.8280  0.6306 -0.8242
 3123SOL     OW15714   6.483   7.574   2.288  0.0449 -0.0574 -0.3475
 3123SOL    HW115715   6.528   7.536   2.213 -1.4428 -0.9871 -0.8130
 3123SOL    HW215716   6.485   7.505   2.355 -1.9414 -0.7223 -0.9041
 3124SOL     OW15717   3.416   6.560   9.018  0.1658  0.3490 -0.3176
 3124SOL    HW115718   3.417   6.569   9.113  1.9638 -0.0955 -0.2505
 3124SOL    HW215719   3.451   6.643   8.986  1.4904 -0.2467 -0.4686
 3125SOL     OW15720   1.265   0.859   8.756  0.3954  0.3966  0.2533
 3125SOL    HW115721   1.218   0.923   8.703 -1.7525  0.9428  2.6355
 3125SOL    HW215722   1.305   0.910   8.827 -0.1266 -0.7017  1.3777
 3126SOL     OW15723   6.368   3.725   0.634  0.7690  0.3480  0.0791
 3126SOL    HW115724   6.315   3.667   0.580  1.4723 -0.6088  0.3961
 3126SOL    HW215725   6.425   3.667   0.685 -0.9577  1.0807  3.0889
 3127SOL     OW15726   1.805   0.932   0.456 -0.0157 -0.1447  0.2216
 3127SOL    HW115727   1.874   0.940   0.389 -0.5208  1.0311 -0.1859
 3127SOL    HW215728   1.738   0.995   0.429 -0.5174 -0.1018  1.5087
 3128SOL     OW15729   5.441   5.133   3.893 -0.4587 -0.2105  0.2951
 3128SOL    HW115730   5.504   5.123   3.821 -2.3619  0.4343 -1.5495
 3128SOL    HW215731   5.496   5.152   3.969  1.5643  1.8380 -1.5119
 3129SOL     OW15732   3.648   5.565   3.077  0.6415  0.8040 -0.0729
 3129SOL    HW115733   3.721   5.551   3.138  0.7722  0.4936 -0.3027
 3129SOL    HW215734   3.688   5.602   2.999  0.5089  0.9361 -0.0798
 3130SOL     OW15735   9.171   3.869   1.810  0.3707  0.6015 -0.4495
 3130SOL    HW115736   9.138   3.870   1.720  1.1468 -0.3447 -0.7598
 3130SOL    HW215737   9.249   3.813   1.806  1.8128  2.4623  0.3293
 3131SOL     OW15738   0.136   8.105   0.017 -0.5344  0.3988  0.3864
 3131SOL    HW115739   0.197   8.055   0.071  0.7117  1.1558 -0.2832
 3131SOL    HW215740   0.084   8.038  -0.028  0.8694 -0.3153 -0.2298
 3132SOL     OW15741   8.803   3.153   8.154  0.3384  0.0136  0.1873
 3132SOL    HW115742   8.738   3.223   8.146 -0.1758 -0.4477  0.2410
 3132SOL    HW215743   8.789   3.098   8.077  0.2843 -0.3954  0.4810
 3133SOL     OW15744   4.819   4.323   6.977  0.1837  0.2395  0.5698
 3133SOL    HW115745   4.853   4.407   7.006 -1.3327  0.9632  0.3192
 3133SOL    HW215746   4.896   4.266   6.973  1.3938  1.8474 -0.1565
 3134SOL     OW15747   1.989   2.950   7.115 -0.8050 -0.3137 -0.3161
 3134SOL    HW115748   1.933   3.028   7.120 -0.7182 -0.0927 -2.0993
 3134SOL    HW215749   1.943   2.892   7.055 -1.1469 -1.9257  1.4089
 3135SOL     OW15750   7.547   7.034   3.147 -0.4734 -0.1775 -0.4059
 3135SOL    HW115751   7.487   7.108   3.134 -0.2318 -0.2277 -2.1048
 3135SOL    HW215752   7.617   7.048   3.084  1.6387  0.1350  1.8777
 3136SOL     OW15753   6.094   6.394   7.533 -0.2963 -0.4024 -0.4800
 3136SOL    HW115754   6.007   6.390   7.493 -0.0253 -1.9986 -0.9786
 3136SOL    HW215755   6.110   6.305   7.564  1.3747 -0.2621 -0.8547
 3137SOL     OW15756   8.026   3.043   0.096 -0.2700  0.5690  0.1606
 3137SOL    HW115757   8.119   3.033   0.074 -0.5601  1.1740 -1.5350
 3137SOL    HW215758   8.006   2.968   0.152  0.4229 -1.6089 -2.3027
 3138SOL     OW15759   2.219   3.332   8.375  0.1200 -0.0952 -0.6862
 3138SOL    HW115760   2.133   3.344   8.335 -0.0667 -0.0218 -0.2715
 3138SOL    HW215761   2.281   3.363   8.309 -0.1720 -0.1390 -0.9838
 3139SOL     OW15762   5.860   8.357   8.083  0.3738  0.2946  0.3069
 3139SOL    HW115763   5.931   8.420   8.096  0.8307 -0.6465  3.2923
 3139SOL    HW215764   5.873   8.323   7.995  3.5014  0.3868  0.6358
 3140SOL     OW15765   6.591   3.909   9.094 -0.3651  0.4641  0.0437
 3140SOL    HW115766   6.506   3.895   9.053 -1.3415  0.7932  1.8519
 3140SOL    HW215767   6.651   3.925   9.020 -0.8455 -4.1517 -1.6453
 3141SOL     OW15768   8.941   1.425   4.855  0.7033 -0.1934  0.2011
 3141SOL    HW115769   9.034   1.420   4.833  0.7529  1.3743 -0.0033
 3141SOL    HW215770   8.930   1.363   4.927  1.7636 -0.8610 -0.1921
 3142SOL     OW15771   6.816   7.553   7.527 -0.2035 -0.1823  0.1121
 3142SOL    HW115772   6.725   7.531   7.507 -0.1629  0.3655 -0.7162
 3142SOL    HW215773   6.817   7.648   7.533  0.2944 -0.1938  0.2236
 3143SOL     OW15774   3.080   1.483   2.302  0.0365  0.1766 -0.4065
 3143SOL    HW115775   3.157   1.531   2.271  0.9558 -1.3082 -0.5246
 3143SOL    HW215776   3.063   1.418   2.233 -0.4029 -0.4784  0.3090
 3144SOL     OW15777   6.577   1.001   6.570 -0.2307  0.2544  0.3817
 3144SOL    HW115778   6.528   0.925   6.603 -0.4500  0.2813  0.1217
 3144SOL    HW215779   6.646   0.962   6.515 -0.9841  0.2779 -0.6022
 3145SOL     OW15780   4.360   1.747   0.859 -0.0219  0.1192 -0.2114
 3145SOL    HW115781   4.287   1.688   0.878  0.2122 -0.1388 -0.1055
 3145SOL    HW215782   4.438   1.691   0.864  0.0989  0.1589 -1.3622
 3146SOL     OW15783   2.083   8.690   0.574 -0.2772 -0.8260 -0.0880
 3146SOL    HW115784   2.033   8.652   0.646  1.1906 -0.5302  1.1478
 3146SOL    HW215785   2.175   8.680   0.601  0.2477  1.2167 -0.9121
 3147SOL     OW15786   3.071   8.871   6.330  0.0002 -0.7027 -0.6262
 3147SOL    HW115787   3.085   8.957   6.291  0.0174 -0.6666 -0.5400
 3147SOL    HW215788   3.044   8.816   6.256  0.0252 -0.6323 -0.6874
 3148SOL     OW15789   4.904   0.320   2.789  0.5313 -0.1694  0.4048
 3148SOL    HW115790   4.965   0.280   2.852  1.0418  0.1765  0.1343
 3148SOL    HW215791   4.920   0.414   2.797 -0.3723 -0.0345  0.7325
 3149SOL     OW15792   5.593   1.913   2.126  0.3191  0.4088  0.4858
 3149SOL    HW115793   5.621   2.001   2.104  1.1992  0.3051  1.1785
 3149SOL    HW215794   5.673   1.860   2.124 -0.3135 -0.5830 -0.8465
 3150SOL     OW15795   1.574   2.849   8.738  0.3016 -0.0446 -0.2164
 3150SOL    HW115796   1.615   2.896   8.666 -0.9650 -0.9773 -1.5955
 3150SOL    HW215797   1.514   2.913   8.777  1.5686  0.7121  0.5773
 3151SOL     OW15798   6.692   9.008   7.838  0.6104 -0.3400  0.1437
 3151SOL    HW115799   6.690   9.086   7.893 -3.2897 -1.3888  1.8453
 3151SOL    HW215800   6.664   9.039   7.752  1.3174  0.4363  0.1755
 3152SOL     OW15801   8.338   7.022   2.751  0.0889 -0.3401 -0.4239
 3152SOL    HW115802   8.246   7.047   2.760 -0.1845 -0.6994 -1.8818
 3152SOL    HW215803   8.366   7.000   2.839 -0.7298  1.4290  0.3190
 3153SOL     OW15804   5.199   1.066   0.005  0.9134 -0.2623  0.0625
 3153SOL    HW115805   5.202   1.032   0.095  3.4557 -2.5816 -0.7414
 3153SOL    HW215806   5.221   1.158   0.013 -0.3638 -0.0781  1.9234
 3154SOL     OW15807   2.129   1.495   3.295 -0.0156  0.1467  0.0092
 3154SOL    HW115808   2.055   1.547   3.265 -0.4673 -0.6787 -0.3182
 3154SOL    HW215809   2.112   1.479   3.388 -0.3693 -0.2355 -0.1188
 3155SOL     OW15810   4.599   5.271   5.646  0.0026  0.0141 -0.4826
 3155SOL    HW115811   4.624   5.258   5.554 -0.5029  1.1746 -0.7935
 3155SOL    HW215812   4.618   5.363   5.664 -2.6749  0.6225 -0.3412
 3156SOL     OW15813   8.534   5.341   3.403 -0.2716  0.9307 -0.0951
 3156SOL    HW115814   8.579   5.272   3.452  1.3420 -0.7145 -3.5218
 3156SOL    HW215815   8.441   5.322   3.415  0.0986 -0.6085  0.6914
 3157SOL     OW15816   8.966   1.197   7.782  0.1541 -0.2220  0.3390
 3157SOL    HW115817   9.031   1.161   7.843  0.5626  0.6535  0.4310
 3157SOL    HW215818   8.949   1.285   7.814 -0.8724 -0.3300  0.1358
 3158SOL     OW15819   6.012   9.199   8.675 -0.1252 -0.1716 -0.3213
 3158SOL    HW115820   6.012   9.147   8.755 -0.4924 -0.1704 -0.3200
 3158SOL    HW215821   6.085   9.165   8.623 -1.0452 -1.4564 -0.8264
 3159SOL     OW15822   3.100   6.571   4.707  0.2628  0.2795  0.0367
 3159SOL    HW115823   3.141   6.657   4.712  1.7684 -0.3854 -0.1969
 3159SOL    HW215824   3.018   6.580   4.755  1.0939  1.4453  1.2938
 3160SOL     OW15825   0.022   1.310   2.741 -0.1633 -0.7464 -0.0353
 3160SOL    HW115826   0.105   1.263   2.734 -0.1892 -0.8490  0.3223
 3160SOL    HW215827  -0.001   1.332   2.651 -0.3994 -1.8487 -0.2551
 3161SOL     OW15828   1.827   4.300   0.363 -0.0230  0.3934  0.4544
 3161SOL    HW115829   1.763   4.331   0.427  0.0056  0.8999  0.2374
 3161SOL    HW215830   1.844   4.375   0.307  0.4914  0.1560  0.2865
 3162SOL     OW15831   5.130   0.677   7.401 -0.0105 -0.1424 -0.6475
 3162SOL    HW115832   5.177   0.656   7.481 -0.7192 -0.8991 -0.4063
 3162SOL    HW215833   5.052   0.724   7.431  0.7204  1.4065 -1.0653
 3163SOL     OW15834   0.137   5.022   6.463 -0.0880  0.1358  0.0633
 3163SOL    HW115835   0.187   5.087   6.512 -0.1969  0.9574 -0.8739
 3163SOL    HW215836   0.121   4.951   6.526  0.7905  0.6116  0.8554
 3164SOL     OW15837   0.399   7.289   8.748 -0.2435  0.4689 -0.7531
 3164SOL    HW115838   0.324   7.281   8.689 -0.6222  1.1202 -0.3705
 3164SOL    HW215839   0.392   7.377   8.784 -0.1778 -0.0104  0.4824
 3165SOL     OW15840   5.897   7.521   3.743 -0.4089  0.1486  0.0596
 3165SOL    HW115841   5.887   7.428   3.762 -2.6662 -0.0641 -1.6776
 3165SOL    HW215842   5.873   7.529   3.651 -0.4310  2.4758  0.2053
 3166SOL     OW15843   6.455   5.351   7.135  0.1631 -0.0592  0.4098
 3166SOL    HW115844   6.469   5.283   7.202 -1.2499 -1.1769 -0.3828
 3166SOL    HW215845   6.411   5.305   7.064  1.9035  1.0275 -1.4692
 3167SOL     OW15846   4.455   2.831   8.877 -0.3454 -0.3226 -0.3624
 3167SOL    HW115847   4.384   2.856   8.818  0.3882 -0.7048 -1.4595
 3167SOL    HW215848   4.481   2.744   8.846 -0.3873 -0.8275  0.9771
 3168SOL     OW15849   1.503   2.161   1.414 -0.2391  0.2682  0.0916
 3168SOL    HW115850   1.578   2.106   1.437 -0.2708  0.4190  0.5542
 3168SOL    HW215851   1.539   2.250   1.411 -0.6799  0.5265  1.6972
 3169SOL     OW15852   8.193   7.766   8.750  0.0332 -0.3448  0.3492
 3169SOL    HW115853   8.132   7.749   8.678 -1.4965 -0.3017  1.5966
 3169SOL    HW215854   8.138   7.781   8.826  1.5103  2.4364  1.0123
 3170SOL     OW15855   7.683   5.793   3.580 -0.1716  0.5723  0.1936
 3170SOL    HW115856   7.668   5.887   3.574 -1.1497  0.3983 -0.3804
 3170SOL    HW215857   7.721   5.769   3.495 -1.3460  0.2282 -0.2579
 3171SOL     OW15858   1.947   7.228   9.143 -0.0124 -0.3350 -0.1700
 3171SOL    HW115859   1.879   7.162   9.127 -0.2904 -0.6520  2.0189
 3171SOL    HW215860   1.904   7.312   9.126  0.7269 -0.6023 -4.3666
 3172SOL     OW15861   3.197   0.762   6.031 -0.0053 -0.0044 -0.2578
 3172SOL    HW115862   3.253   0.730   5.961 -1.2295 -0.6461 -0.9745
 3172SOL    HW215863   3.110   0.725   6.012 -1.2076  2.6638 -0.3730
 3173SOL     OW15864   0.598   6.008   6.639  0.4560 -0.0262  0.1083
 3173SOL    HW115865   0.547   5.936   6.602 -1.3511  1.6790 -0.9542
 3173SOL    HW215866   0.684   5.971   6.657 -0.3740 -2.3914 -0.4761
 3174SOL     OW15867   2.695   5.446   0.504 -0.5105  0.6869  0.1058
 3174SOL    HW115868   2.727   5.533   0.478  0.1051  0.7703  1.0942
 3174SOL    HW215869   2.631   5.464   0.573 -1.5046  0.4210 -0.7179
 3175SOL     OW15870   3.055   3.045   1.547 -0.3000  0.3927  0.5185
 3175SOL    HW115871   3.085   3.136   1.556  1.2743  0.0351 -0.7999
 3175SOL    HW215872   2.992   3.048   1.475  0.3346  0.3093 -0.0401
 3176SOL     OW15873   1.934   2.823   0.524 -0.2332 -0.4671  0.1013
 3176SOL    HW115874   2.019   2.806   0.483 -0.2611 -2.6670  0.8013
 3176SOL    HW215875   1.870   2.796   0.458 -0.4091  1.1411 -0.4069
 3177SOL     OW15876   1.814   2.221   7.529 -0.0591 -0.1193 -0.5914
 3177SOL    HW115877   1.902   2.255   7.545  0.7557 -2.4250  0.2127
 3177SOL    HW215878   1.806   2.220   7.434  1.2364 -0.8752 -0.7157
 3178SOL     OW15879   7.538   1.541   2.632  0.0464 -0.2021  0.1039
 3178SOL    HW115880   7.633   1.538   2.644 -0.0975  0.0706  1.4936
 3178SOL    HW215881   7.504   1.477   2.695 -0.7393  0.4314  0.3398
 3179SOL     OW15882   4.368   8.104   8.693 -0.3140 -0.1685 -0.6726
 3179SOL    HW115883   4.383   8.168   8.622 -0.0267 -0.0357 -0.4930
 3179SOL    HW215884   4.415   8.026   8.664  0.1087  0.0025 -0.4661
 3180SOL     OW15885   3.876   6.124   1.661  0.6001  0.3829  0.4332
 3180SOL    HW115886   3.793   6.125   1.613  0.3632 -1.4672  0.7359
 3180SOL    HW215887   3.854   6.155   1.748 -0.0008 -0.9197  0.7792
 3181SOL     OW15888   1.938   7.194   3.578 -0.1284  0.5755 -0.1972
 3181SOL    HW115889   1.896   7.171   3.495 -0.3210  1.0298 -0.2320
 3181SOL    HW215890   1.995   7.120   3.598 -0.0333  0.4889 -0.7698
 3182SOL     OW15891   8.148   0.419   1.194 -0.4949 -0.2306  0.0128
 3182SOL    HW115892   8.208   0.485   1.227 -0.1124 -0.4764 -0.1808
 3182SOL    HW215893   8.139   0.439   1.100 -0.4606 -0.3894 -0.0248
 3183SOL     OW15894   0.422   1.593   2.852  0.4227  0.0284  0.0976
 3183SOL    HW115895   0.439   1.618   2.761  0.3906  2.4857  0.7162
 3183SOL    HW215896   0.412   1.497   2.849  1.9255 -0.1264 -2.2203
 3184SOL     OW15897   8.603   2.646   5.313 -0.3717 -0.3188 -0.4140
 3184SOL    HW115898   8.537   2.685   5.371 -0.6149  1.0170 -1.5365
 3184SOL    HW215899   8.677   2.627   5.370 -0.7407  0.6391  0.4166
 3185SOL     OW15900   2.276   2.135   8.569  0.0822 -0.2815  0.0987
 3185SOL    HW115901   2.354   2.090   8.535 -0.6217 -1.0207 -0.5802
 3185SOL    HW215902   2.309   2.187   8.642  0.9582 -1.8223  0.8659
 3186SOL     OW15903   8.225   7.746   1.067  0.1289  0.3015  0.2056
 3186SOL    HW115904   8.146   7.708   1.105  1.5281 -0.6788  2.2833
 3186SOL    HW215905   8.214   7.840   1.077 -1.0424  0.2199 -0.1501
 3187SOL     OW15906   7.542   8.305   3.543  0.2655  0.0470 -0.0653
 3187SOL    HW115907   7.501   8.329   3.626 -0.8334 -0.6912 -0.3746
 3187SOL    HW215908   7.470   8.273   3.489  0.7033  1.8851 -1.8541
 3188SOL     OW15909   7.626   9.099   6.406  0.2851 -0.4625 -0.2879
 3188SOL    HW115910   7.616   9.013   6.448  0.3576 -0.4142 -0.1698
 3188SOL    HW215911   7.614   9.161   6.478  0.2516 -0.3744 -0.3707
 3189SOL     OW15912   3.802   8.125   7.444 -0.2368 -0.7678 -0.0555
 3189SOL    HW115913   3.875   8.155   7.389 -0.0428  1.2427  1.1671
 3189SOL    HW215914   3.814   8.031   7.452  2.6226 -0.4459  0.5657
 3190SOL     OW15915   1.375   4.869   0.143 -0.2896 -0.5521  0.6670
 3190SOL    HW115916   1.440   4.877   0.212  0.2982  0.3034  0.0342
 3190SOL    HW215917   1.296   4.908   0.180 -0.0971 -0.4693  0.9963
 3191SOL     OW15918   6.921   1.123   1.450  0.1543  0.1811  0.3162
 3191SOL    HW115919   6.923   1.045   1.395 -1.9651 -0.9232  1.6386
 3191SOL    HW215920   6.999   1.172   1.426  0.4545 -1.3030 -2.0599
 3192SOL     OW15921   7.334   0.240   1.283  0.3855 -0.1738 -0.1811
 3192SOL    HW115922   7.358   0.267   1.194  1.7913  0.0156  0.2253
 3192SOL    HW215923   7.242   0.265   1.292  1.1090  3.1185 -0.3914
 3193SOL     OW15924   6.807   7.735   0.178 -0.0894 -0.5303 -0.7054
 3193SOL    HW115925   6.782   7.751   0.269 -1.6881 -1.1635 -1.0018
 3193SOL    HW215926   6.869   7.805   0.157  1.7396 -1.3769  1.4003
 3194SOL     OW15927   0.487   8.750   7.608  0.2400  0.1083 -0.1794
 3194SOL    HW115928   0.457   8.840   7.624  1.7591  0.9025 -1.4469
 3194SOL    HW215929   0.407   8.698   7.607 -0.6163  1.2760  1.4501
 3195SOL     OW15930   2.354   3.138   8.179  0.2216 -0.2307 -0.0105
 3195SOL    HW115931   2.387   3.050   8.167  0.2331 -0.2419  0.1012
 3195SOL    HW215932   2.273   3.141   8.128  0.0147 -0.4285  0.3114
 3196SOL     OW15933   8.201   4.430   4.392  0.0797 -0.3363 -0.7261
 3196SOL    HW115934   8.265   4.398   4.455 -2.2657  0.3289  2.2277
 3196SOL    HW215935   8.154   4.352   4.363 -0.2740 -0.4460  0.1198
 3197SOL     OW15936   5.649   3.488   4.493  0.4634  0.1713  0.0456
 3197SOL    HW115937   5.636   3.556   4.427  1.3519 -0.6734 -1.0299
 3197SOL    HW215938   5.654   3.407   4.443 -1.9190 -0.9164  1.3858
 3198SOL     OW15939   4.153   6.717   0.088  0.1856  0.0933 -0.3015
 3198SOL    HW115940   4.067   6.716   0.046  0.3454 -2.1115 -0.7249
 3198SOL    HW215941   4.198   6.791   0.049 -0.7592 -0.0387 -1.7447
 3199SOL     OW15942   3.296   7.816   1.710  0.7351 -0.2415 -0.1992
 3199SOL    HW115943   3.363   7.772   1.657 -0.1364 -0.1139 -1.4342
 3199SOL    HW215944   3.226   7.837   1.648 -0.2153  0.1223  0.9646
 3200SOL     OW15945   0.735   3.423   5.549  0.8519  0.0575 -0.6189
 3200SOL    HW115946   0.739   3.397   5.458 -0.0838  0.0522 -0.6695
 3200SOL    HW215947   0.738   3.341   5.599 -2.5564 -0.3489 -0.7876
 3201SOL     OW15948   4.495   0.126   1.273 -0.0634  0.4609  0.8688
 3201SOL    HW115949   4.495   0.031   1.279 -2.1602  0.0819 -2.2211
 3201SOL    HW215950   4.574   0.154   1.319  2.0830 -2.9759 -0.3419
 3202SOL     OW15951   0.950   4.089   3.258 -0.0234  0.4799 -0.0930
 3202SOL    HW115952   1.007   4.019   3.227 -0.8603 -0.2304 -0.0754
 3202SOL    HW215953   0.929   4.065   3.348 -1.7665 -0.2458 -0.6476
 3203SOL     OW15954   2.029   6.019   1.888  0.5211  0.3030  0.0318
 3203SOL    HW115955   2.084   6.084   1.931 -2.8546  3.4983  0.0623
 3203SOL    HW215956   2.010   5.955   1.956  3.6787 -0.7135  0.1086
 3204SOL     OW15957   8.876   2.176   9.238 -0.2922  1.1757 -0.1438
 3204SOL    HW115958   8.815   2.162   9.165  1.4841  0.5717 -1.5754
 3204SOL    HW215959   8.894   2.270   9.236  0.8297  0.9607 -1.4323
 3205SOL     OW15960   1.813   3.948   3.212 -0.1620 -0.3110 -0.1318
 3205SOL    HW115961   1.838   4.040   3.214  1.6461 -0.7543 -0.0026
 3205SOL    HW215962   1.817   3.921   3.304 -1.0258 -0.4339 -0.1296
 3206SOL     OW15963   4.902   1.820   2.811  0.4310  0.5837 -0.3197
 3206SOL    HW115964   4.845   1.847   2.883 -0.7941 -1.5725 -0.4127
 3206SOL    HW215965   4.965   1.761   2.851 -0.7538 -1.2750 -1.0646
 3207SOL     OW15966   5.415   8.413   9.103  0.6131  0.1111  0.0106
 3207SOL    HW115967   5.461   8.480   9.053  0.5215 -0.8749 -1.4722
 3207SOL    HW215968   5.323   8.428   9.085  0.4900  0.5162  0.9216
 3208SOL     OW15969   5.445   2.073   4.312  0.0146 -0.7685 -0.0069
 3208SOL    HW115970   5.516   2.089   4.250  1.2457 -0.3226  1.4492
 3208SOL    HW215971   5.376   2.134   4.286  1.7963  1.8302  0.9923
 3209SOL     OW15972   6.792   7.466   8.866  0.3760 -0.1891  0.5037
 3209SOL    HW115973   6.723   7.399   8.868 -0.2939  0.4832  0.2211
 3209SOL    HW215974   6.865   7.425   8.911  1.0018 -2.2363 -2.1143
 3210SOL     OW15975   4.394   6.692   7.805 -0.1142  0.0910  0.8884
 3210SOL    HW115976   4.356   6.702   7.892  1.0166 -1.5499  1.6148
 3210SOL    HW215977   4.344   6.621   7.764 -1.0985  1.3065 -0.1111
 3211SOL     OW15978   3.109   1.457   8.054  0.5425 -0.9481 -0.2185
 3211SOL    HW115979   3.018   1.472   8.079  0.4813 -1.4248 -0.1470
 3211SOL    HW215980   3.148   1.412   8.130  1.1911  0.4189  0.3018
 3212SOL     OW15981   2.374   0.694   5.659 -0.3664 -0.0660  0.1021
 3212SOL    HW115982   2.381   0.639   5.737 -1.0223 -0.3197 -0.0108
 3212SOL    HW215983   2.318   0.644   5.600 -0.2282  0.3233 -0.3594
 3213SOL     OW15984   0.292   5.804   3.488 -0.0913 -0.8652 -0.0541
 3213SOL    HW115985   0.318   5.893   3.467 -1.2319 -0.2120  1.1887
 3213SOL    HW215986   0.366   5.750   3.459 -0.2664  0.2012 -2.8366
 3214SOL     OW15987   2.046   5.631   6.190  0.2411 -0.4762  0.2619
 3214SOL    HW115988   2.029   5.711   6.239  1.9053 -0.5010  0.9137
 3214SOL    HW215989   2.088   5.661   6.109 -0.5129 -0.6093 -0.1994
 3215SOL     OW15990   2.683   8.447   0.651  0.6001  0.1459 -0.2548
 3215SOL    HW115991   2.664   8.528   0.697  0.0083 -0.2851  0.2832
 3215SOL    HW215992   2.690   8.472   0.559 -0.0504  0.7355 -0.1514
 3216SOL     OW15993   9.214   6.838   7.098 -0.1780 -0.2481 -0.2516
 3216SOL    HW115994   9.156   6.778   7.052 -0.0958  0.3558 -1.1524
 3216SOL    HW215995   9.270   6.781   7.151 -1.7319 -0.8391  0.8501
 3217SOL     OW15996   8.100   3.427   1.263  0.4505 -0.5304  0.4701
 3217SOL    HW115997   8.128   3.340   1.292 -0.3977 -0.5866  1.1361
 3217SOL    HW215998   8.062   3.412   1.177 -1.1445 -1.0872  1.2456
 3218SOL     OW15999   7.019   4.550   6.377  0.2851 -0.5252  0.4738
 3218SOL    HW116000   7.013   4.553   6.472 -0.5189 -1.2107  0.4586
 3218SOL    HW216001   7.041   4.460   6.356  1.8118 -0.0906  0.0452
 3219SOL     OW16002   6.347   3.980   7.351  0.0368  0.0005  0.4581
 3219SOL    HW116003   6.387   3.895   7.367  1.0121  0.6775  1.8949
 3219SOL    HW216004   6.374   4.004   7.262 -1.1737 -1.6338 -0.4019
 3220SOL     OW16005   5.794   1.067   7.201 -0.0801 -0.4773  0.7348
 3220SOL    HW116006   5.722   1.029   7.250 -1.2869 -1.6967 -1.7749
 3220SOL    HW216007   5.827   0.995   7.146  0.8940  0.8606 -0.5334
 3221SOL     OW16008   6.410   4.077   7.879 -0.0008 -0.1909 -0.4395
 3221SOL    HW116009   6.436   4.054   7.790 -2.3281 -0.4883 -1.0966
 3221SOL    HW216010   6.326   4.122   7.870 -0.2672 -0.1510  1.6019
 3222SOL     OW16011   5.870   4.306   5.648  0.6688 -0.7404  0.1663
 3222SOL    HW116012   5.878   4.367   5.721 -1.1803  0.0762 -0.2484
 3222SOL    HW216013   5.900   4.222   5.683  1.6911  0.0505  1.2419
 3223SOL     OW16014   2.789   5.092   7.357  0.1770  0.5981 -0.4773
 3223SOL    HW116015   2.839   5.166   7.322 -0.6559  0.7849 -1.2856
 3223SOL    HW216016   2.845   5.057   7.427  0.4643  2.1493  0.1030
 3224SOL     OW16017   1.910   2.601   3.952 -0.1248  0.1489 -0.2335
 3224SOL    HW116018   1.971   2.619   3.880 -0.5157  1.6290 -0.2352
 3224SOL    HW216019   1.966   2.589   4.028  0.2654 -0.8559 -0.6689
 3225SOL     OW16020   3.297   4.390   6.181  0.8053  0.5059  0.4305
 3225SOL    HW116021   3.234   4.373   6.251  1.4200 -0.9239  0.6725
 3225SOL    HW216022   3.292   4.313   6.124  0.5566  1.4978 -0.9473
 3226SOL     OW16023   4.997   4.468   6.452  0.5081 -0.9857 -0.1822
 3226SOL    HW116024   5.015   4.411   6.377 -0.1541 -1.3185 -0.0988
 3226SOL    HW216025   4.940   4.416   6.508 -0.4633 -0.0856 -0.3103
 3227SOL     OW16026   6.142   7.680   7.954 -0.0892 -0.2553  0.3276
 3227SOL    HW116027   6.175   7.696   7.865  1.0006  0.0910  0.7744
 3227SOL    HW216028   6.139   7.584   7.961 -1.1572 -0.2988 -0.4093
 3228SOL     OW16029   6.150   7.714   1.048 -0.3396 -0.4390 -0.4127
 3228SOL    HW116030   6.210   7.781   1.015 -0.7437  0.1824  0.0993
 3228SOL    HW216031   6.169   7.637   0.994 -0.3860  0.2970 -1.5086
 3229SOL     OW16032   7.701   3.142   4.652  0.1253  0.0414  0.4207
 3229SOL    HW116033   7.759   3.218   4.660 -0.3641  0.3016  1.6203
 3229SOL    HW216034   7.706   3.098   4.737 -0.5777 -0.5496  0.1689
 3230SOL     OW16035   8.081   2.800   8.091 -0.1883  0.0638 -0.5086
 3230SOL    HW116036   8.003   2.813   8.143  0.3109  2.9113 -0.3155
 3230SOL    HW216037   8.143   2.758   8.151  0.3898  3.2747  1.3840
 3231SOL     OW16038   3.020   1.472   7.190 -0.0845 -0.1012 -0.2164
 3231SOL    HW116039   3.035   1.449   7.282  1.0249 -1.1547 -0.6429
 3231SOL    HW216040   2.955   1.409   7.160  1.6848 -1.7112 -0.9066
 3232SOL     OW16041   8.683   5.445   7.979 -0.3568  0.5058  0.3101
 3232SOL    HW116042   8.609   5.387   7.963 -1.2512  1.2365  1.6033
 3232SOL    HW216043   8.690   5.497   7.900 -1.9321  1.1560  0.5613
 3233SOL     OW16044   8.012   1.088   4.807  0.4359 -0.4378  0.2097
 3233SOL    HW116045   7.990   1.044   4.725  2.4110 -0.5425 -0.2959
 3233SOL    HW216046   8.075   1.031   4.850  1.1646  0.6973  0.7109
 3234SOL     OW16047   5.299   3.859   6.480  0.1955  0.0930  0.1934
 3234SOL    HW116048   5.352   3.939   6.475 -0.5730  0.5667 -0.6229
 3234SOL    HW216049   5.267   3.847   6.390  0.0623 -0.9708  0.3765
 3235SOL     OW16050   2.719   5.532   7.927 -0.0178  0.5883  0.4510
 3235SOL    HW116051   2.781   5.525   7.854  0.2964  0.8019  0.6929
 3235SOL    HW216052   2.770   5.571   7.998 -0.5956  1.3482  0.4594
 3236SOL     OW16053   7.786   6.077   1.548 -0.7064 -0.6929 -0.2253
 3236SOL    HW116054   7.718   6.013   1.524 -0.5021 -1.6120  1.4694
 3236SOL    HW216055   7.848   6.027   1.600 -0.2584  0.7731  0.7077
 3237SOL     OW16056   6.291   2.582   7.778  0.1579 -0.1143 -0.2372
 3237SOL    HW116057   6.198   2.566   7.794  0.0439 -0.2330 -0.9627
 3237SOL    HW216058   6.293   2.630   7.695  0.8074 -1.5038 -1.0820
 3238SOL     OW16059   0.999   2.516   5.329 -0.7191  0.5449 -0.0793
 3238SOL    HW116060   1.052   2.584   5.372  3.2447 -2.1676 -0.1804
 3238SOL    HW216061   0.927   2.500   5.390  1.3864  1.0048  2.7563
 3239SOL     OW16062   5.963   2.940   2.750 -0.1622 -0.3772 -0.4799
 3239SOL    HW116063   6.000   2.952   2.663 -0.2203 -1.4571 -0.6669
 3239SOL    HW216064   5.945   2.846   2.756 -1.9594 -0.0510 -0.0397
 3240SOL     OW16065   5.848   8.660   3.852  0.8072 -0.0116 -0.5246
 3240SOL    HW116066   5.779   8.619   3.799  0.8086 -2.6135  1.2676
 3240SOL    HW216067   5.901   8.708   3.789 -1.3022  0.1618 -2.3018
 3241SOL     OW16068   3.150   4.909   2.180 -0.3960  0.0786 -0.4124
 3241SOL    HW116069   3.227   4.876   2.227 -0.6876 -0.6284 -0.4205
 3241SOL    HW216070   3.185   4.973   2.118  0.2248 -0.4950 -0.6628
 3242SOL     OW16071   5.318   5.954   1.256 -0.1881 -0.1217 -0.0799
 3242SOL    HW116072   5.357   5.927   1.172 -0.0705 -0.7072  0.1573
 3242SOL    HW216073   5.227   5.974   1.234 -0.3048 -0.8031 -0.2575
 3243SOL     OW16074   5.982   3.202   4.662 -0.2506 -0.7984  0.3795
 3243SOL    HW116075   5.904   3.256   4.655 -0.4111 -1.0524  0.1623
 3243SOL    HW216076   6.033   3.223   4.583  0.0684 -0.3758  0.6953
 3244SOL     OW16077   9.235   1.579   0.632  0.2510  0.0643  0.0312
 3244SOL    HW116078   9.192   1.590   0.717 -0.2621 -3.3845  0.3389
 3244SOL    HW216079   9.164   1.571   0.569  0.5795  0.0387 -0.3441
 3245SOL     OW16080   0.057   2.324   7.690 -0.1361  0.4451  0.6371
 3245SOL    HW116081   0.047   2.283   7.604 -0.0354  0.9453  0.3794
 3245SOL    HW216082   0.136   2.285   7.727  0.3347  0.8749  0.1133
 3246SOL     OW16083   9.095   8.738   4.234 -0.1435 -0.2097  0.1653
 3246SOL    HW116084   9.117   8.727   4.326  0.8621  0.6319  0.0431
 3246SOL    HW216085   9.149   8.672   4.189  0.5062  0.3859  0.0571
 3247SOL     OW16086   0.380   3.042   2.975  0.1312  0.1255 -0.2078
 3247SOL    HW116087   0.468   3.022   2.944 -0.3945  0.8704 -2.4067
 3247SOL    HW216088   0.337   2.957   2.984  1.1379 -0.2562  1.1720
 3248SOL     OW16089   3.924   5.822   2.696  0.5349  0.1144  0.0794
 3248SOL    HW116090   4.019   5.820   2.693  0.5463  0.2544 -2.5794
 3248SOL    HW216091   3.900   5.907   2.659 -0.5241 -1.4574 -3.3504
 3249SOL     OW16092   0.875   1.387   3.454 -0.4891  0.4326  0.0651
 3249SOL    HW116093   0.858   1.465   3.401  1.5196  1.3207  0.6297
 3249SOL    HW216094   0.831   1.404   3.537 -1.1647  0.3494 -0.2675
 3250SOL     OW16095   4.083   7.568   0.322  0.5844  0.3135 -0.3176
 3250SOL    HW116096   4.118   7.638   0.377 -1.7162  1.4580 -0.2038
 3250SOL    HW216097   4.041   7.613   0.249 -2.5035 -0.7373  0.6425
 3251SOL     OW16098   1.154   9.091   4.501 -0.4196 -0.4846 -0.0536
 3251SOL    HW116099   1.097   9.110   4.575 -1.5017 -0.7794 -0.7956
 3251SOL    HW216100   1.139   9.163   4.440  0.9306  0.0939  0.2449
 3252SOL     OW16101   3.028   4.739   2.769 -0.4108  0.4516 -0.3050
 3252SOL    HW116102   3.048   4.719   2.678 -0.3904  0.5338 -0.3184
 3252SOL    HW216103   3.071   4.823   2.785 -0.7836  0.6536 -0.3495
 3253SOL     OW16104   6.767   8.702   1.652 -0.4407  0.5927 -0.8567
 3253SOL    HW116105   6.707   8.711   1.727  1.4589  1.1936  0.6527
 3253SOL    HW216106   6.743   8.617   1.613 -0.1087 -0.8043  1.7378
 3254SOL     OW16107   1.028   7.321   2.584  0.6345  0.0010 -0.3448
 3254SOL    HW116108   0.934   7.335   2.600  0.6891  0.8880 -0.7613
 3254SOL    HW216109   1.068   7.330   2.670  0.1443 -2.4205  0.2330
 3255SOL     OW16110   5.580   1.645   4.736 -0.7313 -0.1499 -0.3024
 3255SOL    HW116111   5.563   1.552   4.723  0.0813 -0.3323 -0.1656
 3255SOL    HW216112   5.675   1.650   4.746 -0.4093  1.0547 -3.1441
 3256SOL     OW16113   8.573   6.393   6.173  0.1562 -0.0555 -0.8171
 3256SOL    HW116114   8.496   6.434   6.134 -0.2451 -1.1054 -1.1677
 3256SOL    HW216115   8.640   6.399   6.105  1.2954  3.2516  0.4032
 3257SOL     OW16116   4.363   3.171   3.524 -0.0443 -0.1368  0.3551
 3257SOL    HW116117   4.292   3.174   3.588 -0.3988  1.4197 -0.0617
 3257SOL    HW216118   4.327   3.122   3.450  0.7904 -3.0804  1.7380
 3258SOL     OW16119   3.856   1.638   6.338 -0.1103  0.8338  0.2182
 3258SOL    HW116120   3.937   1.596   6.308 -0.8225  0.2429 -0.9538
 3258SOL    HW216121   3.875   1.665   6.428  0.1657 -2.7595  1.4030
 3259SOL     OW16122   6.031   3.364   3.859 -0.1942 -0.2840  0.1419
 3259SOL    HW116123   5.987   3.328   3.782 -0.1544 -0.3098  0.1315
 3259SOL    HW216124   6.048   3.287   3.914  0.0112 -0.2973  0.0600
 3260SOL     OW16125   1.209   1.673   1.414  0.5323  0.2949 -0.1883
 3260SOL    HW116126   1.149   1.707   1.481  0.0920  1.1439 -0.9939
 3260SOL    HW216127   1.273   1.622   1.464  0.9910  1.9618  1.0375
 3261SOL     OW16128   9.067   0.435   2.150 -0.8429 -0.0847  0.4754
 3261SOL    HW116129   9.037   0.514   2.107  1.2407  1.4172  1.6147
 3261SOL    HW216130   9.116   0.387   2.083 -3.6393 -1.4761 -0.7615
 3262SOL     OW16131   4.726   2.524   6.633 -0.3502  0.0982 -0.0966
 3262SOL    HW116132   4.642   2.500   6.671  0.0695  0.9537  1.4410
 3262SOL    HW216133   4.762   2.441   6.600 -0.9989 -0.5755  0.8455
 3263SOL     OW16134   1.767   3.762   7.574 -0.8881 -0.3091 -0.9655
 3263SOL    HW116135   1.736   3.839   7.621 -0.8763 -1.2809  0.7314
 3263SOL    HW216136   1.710   3.691   7.603  1.4089 -1.6999  0.5731
 3264SOL     OW16137   8.512   2.222   5.704  0.1521  0.0138 -0.0343
 3264SOL    HW116138   8.497   2.128   5.692 -2.2984  0.2439  0.7096
 3264SOL    HW216139   8.432   2.264   5.674  0.2593  1.6819  1.7857
 3265SOL     OW16140   6.673   2.845   2.941 -0.3529 -0.1446  0.4961
 3265SOL    HW116141   6.758   2.808   2.921 -0.0256  0.5290  0.6127
 3265SOL    HW216142   6.621   2.832   2.862  0.8362  2.2390 -0.7774
 3266SOL     OW16143   7.022   8.598   1.676 -0.5376  0.0401  0.3665
 3266SOL    HW116144   6.933   8.610   1.709 -0.2160  0.4017  1.1506
 3266SOL    HW216145   7.078   8.627   1.749  0.2140 -0.0239 -0.1741
 3267SOL     OW16146   6.019   7.408   1.311  0.0531 -0.4548 -0.2302
 3267SOL    HW116147   5.941   7.429   1.259 -0.5351 -0.4081  0.6488
 3267SOL    HW216148   6.064   7.491   1.322  1.8730 -0.8896 -3.2433
 3268SOL     OW16149   2.715   1.371   4.494 -0.3820  0.5346  0.1069
 3268SOL    HW116150   2.685   1.349   4.406 -0.7041 -0.7784  0.5141
 3268SOL    HW216151   2.762   1.453   4.484  0.8033 -0.2858 -1.5447
 3269SOL     OW16152   5.296   1.787   7.679  0.2414  0.5644  0.7116
 3269SOL    HW116153   5.306   1.761   7.587  1.5259  1.1423  0.6694
 3269SOL    HW216154   5.213   1.747   7.706  1.0909 -1.8056  0.0658
 3270SOL     OW16155   1.809   6.645   0.531  0.1288 -0.3860 -0.5734
 3270SOL    HW116156   1.866   6.571   0.508  0.4480 -0.1005 -0.7178
 3270SOL    HW216157   1.849   6.720   0.486  0.0946 -0.0361 -0.0214
 3271SOL     OW16158   0.154   2.724   6.328 -0.2027  0.7156  0.0938
 3271SOL    HW116159   0.180   2.632   6.340  1.5911  0.9184 -1.7860
 3271SOL    HW216160   0.214   2.773   6.385  0.2598  0.8505 -0.5025
 3272SOL     OW16161   6.256   1.596   9.201  0.0105  0.2276  0.3786
 3272SOL    HW116162   6.330   1.625   9.149  1.2105 -0.9919  1.3299
 3272SOL    HW216163   6.206   1.676   9.219  1.0627  1.0670 -0.3003
 3273SOL     OW16164   2.629   1.613   3.786  0.0540  0.1728  0.4821
 3273SOL    HW116165   2.665   1.628   3.698 -0.0766  1.6740  0.6677
 3273SOL    HW216166   2.655   1.523   3.807 -0.6190 -0.5152 -1.4243
 3274SOL     OW16167   4.973   4.021   2.116 -0.4874  0.1035  0.4221
 3274SOL    HW116168   5.021   4.070   2.049  0.6901  0.5424  1.5379
 3274SOL    HW216169   4.915   3.963   2.067  0.8350 -0.0970 -0.9815
 3275SOL     OW16170   1.934   8.851   2.267  0.2439 -0.0882  0.0675
 3275SOL    HW116171   1.896   8.766   2.245 -0.9989  1.2068 -3.4215
 3275SOL    HW216172   1.863   8.899   2.309 -0.0612  0.2267 -0.7847
 3276SOL     OW16173   8.708   3.213   5.857  0.0421  0.0378 -0.5037
 3276SOL    HW116174   8.665   3.219   5.772 -3.2963 -0.5174  0.9751
 3276SOL    HW216175   8.786   3.159   5.841  0.1338  0.8541 -3.3370
 3277SOL     OW16176   3.123   2.692   4.221  0.0104 -0.3596 -0.8180
 3277SOL    HW116177   3.100   2.644   4.301  1.8426 -1.1981 -0.7478
 3277SOL    HW216178   3.044   2.741   4.199 -1.6832 -2.6861 -0.3648
 3278SOL     OW16179   8.770   3.120   1.633 -0.1872 -0.7406  0.0791
 3278SOL    HW116180   8.830   3.186   1.600  0.7577 -2.7272 -2.5225
 3278SOL    HW216181   8.800   3.103   1.723  1.0236  0.6363 -0.0325
 3279SOL     OW16182   0.057   7.302   5.350 -0.3876 -0.0399  0.0445
 3279SOL    HW116183   0.023   7.388   5.329  1.9103  0.8751 -0.2239
 3279SOL    HW216184  -0.019   7.243   5.342 -1.8922  1.8528 -0.2218
 3280SOL     OW16185   4.811   5.204   6.545  0.5760 -0.0861 -0.4474
 3280SOL    HW116186   4.801   5.128   6.602  2.1196 -0.1215 -0.1979
 3280SOL    HW216187   4.889   5.249   6.577  0.8404  0.5014 -1.8327
 3281SOL     OW16188   8.498   2.480   6.099  0.3047  0.4924 -0.2638
 3281SOL    HW116189   8.594   2.478   6.100  0.3267 -1.4849 -0.5975
 3281SOL    HW216190   8.473   2.518   6.183  1.3889  0.1306  0.2439
 3282SOL     OW16191   0.599   6.987   4.544 -0.3633 -0.1000  0.2170
 3282SOL    HW116192   0.633   6.900   4.566 -1.2736 -0.1461  1.5176
 3282SOL    HW216193   0.504   6.977   4.546 -0.4865  0.6052 -0.9996
 3283SOL     OW16194   1.331   8.561   0.533 -0.7617 -0.3012  0.1989
 3283SOL    HW116195   1.308   8.575   0.442 -1.0466  0.1345  0.3351
 3283SOL    HW216196   1.350   8.648   0.567 -0.0670 -0.5222  0.4032
 3284SOL     OW16197   2.054   1.362   7.885  0.3421  0.0463  0.3204
 3284SOL    HW116198   2.038   1.273   7.856  0.5578  0.1023  0.0207
 3284SOL    HW216199   2.049   1.358   7.980  1.3297 -0.4779  0.3590
 3285SOL     OW16200   5.169   5.502   6.525 -0.0496 -0.2270 -0.1654
 3285SOL    HW116201   5.118   5.542   6.454  2.7386  0.9520 -1.6548
 3285SOL    HW216202   5.231   5.445   6.481  1.5119  0.2446  1.3153
 3286SOL     OW16203   8.743   3.100   0.943  0.0699 -0.1362  1.1178
 3286SOL    HW116204   8.775   3.013   0.968 -0.8983 -0.8484 -0.0402
 3286SOL    HW216205   8.809   3.132   0.882  1.3184  0.7037  2.8221
 3287SOL     OW16206   1.507   7.560   6.247 -0.2731 -0.4783 -0.2680
 3287SOL    HW116207   1.539   7.586   6.333  0.5772  1.6600 -1.1495
 3287SOL    HW216208   1.586   7.535   6.199 -0.7340 -1.6089 -0.4550
 3288SOL     OW16209   6.309   5.058   1.512 -0.2423 -0.6999 -0.3433
 3288SOL    HW116210   6.225   5.098   1.536 -1.0605 -0.9689 -2.4975
 3288SOL    HW216211   6.284   4.976   1.469  1.2563 -1.9125  0.9790
 3289SOL     OW16212   4.087   4.943   4.933 -0.1280 -0.0859  0.0422
 3289SOL    HW116213   4.089   5.026   4.884  1.2596  1.0580  1.9386
 3289SOL    HW216214   4.085   4.969   5.025 -1.7842 -2.1906  0.6947
 3290SOL     OW16215   5.233   6.257   4.719  0.3516  0.5585  0.1661
 3290SOL    HW116216   5.170   6.279   4.787  0.7712 -0.1991  0.8153
 3290SOL    HW216217   5.265   6.170   4.742 -1.3164 -0.8434 -2.3477
 3291SOL     OW16218   7.436   9.068   2.511 -0.2792  0.1639 -0.5683
 3291SOL    HW116219   7.410   8.977   2.501  1.9441 -0.5842 -0.1482
 3291SOL    HW216220   7.354   9.117   2.506 -1.4383 -1.7494 -1.7906
 3292SOL     OW16221   1.455   3.761   1.946 -0.0473  0.0915 -0.1383
 3292SOL    HW116222   1.497   3.841   1.914  1.3817 -0.5471  0.0523
 3292SOL    HW216223   1.434   3.711   1.866  2.3808 -0.9393 -0.2139
 3293SOL     OW16224   0.150   2.174   6.153 -0.0954 -0.0181 -0.1323
 3293SOL    HW116225   0.181   2.135   6.235  0.2275 -1.7519 -1.0395
 3293SOL    HW216226   0.209   2.248   6.138  0.6554 -0.4612  0.5498
 3294SOL     OW16227   1.032   7.652   1.461  0.4289  0.3215 -0.2390
 3294SOL    HW116228   1.094   7.593   1.504  2.1269  0.7940 -1.9119
 3294SOL    HW216229   1.055   7.739   1.492  1.3941  0.6216 -1.6734
 3295SOL     OW16230   4.869   2.009   1.859 -0.3530  0.0722 -0.5562
 3295SOL    HW116231   4.874   2.014   1.763 -1.4848 -0.0840 -0.6336
 3295SOL    HW216232   4.778   2.029   1.879  0.2620  1.8332  0.6273
 3296SOL     OW16233   0.058   8.061   7.829  0.1681  0.5192 -0.5688
 3296SOL    HW116234   0.129   8.009   7.866  0.0730  0.9736  0.2671
 3296SOL    HW216235   0.002   8.083   7.904 -0.0745  1.3798 -0.9886
 3297SOL     OW16236   0.069   0.234   3.429 -0.2494  0.4748 -0.1323
 3297SOL    HW116237  -0.007   0.214   3.375  0.9260  0.4044 -1.8234
 3297SOL    HW216238   0.056   0.325   3.456 -1.3089  0.2092  0.2844
 3298SOL     OW16239   5.050   5.995   1.236  0.1825  0.5511  0.4178
 3298SOL    HW116240   4.982   6.063   1.230 -0.2444  0.0290 -1.0383
 3298SOL    HW216241   5.006   5.919   1.274  1.0041  1.4428  3.4538
 3299SOL     OW16242   1.625   6.023   2.793  0.0997 -0.0361  0.2198
 3299SOL    HW116243   1.580   6.041   2.711  0.7416 -1.3206 -0.4369
 3299SOL    HW216244   1.566   5.966   2.842 -0.5826  1.2594  0.9873
 3300SOL     OW16245   4.837   3.588   1.378  0.1186  0.6392 -0.2103
 3300SOL    HW116246   4.766   3.649   1.397 -1.4002 -0.9840 -0.3218
 3300SOL    HW216247   4.917   3.640   1.385 -1.0544  2.4704  0.2418
 3301SOL     OW16248   3.583   8.284   6.824  0.3245  0.3078  0.3026
 3301SOL    HW116249   3.606   8.237   6.904  0.4698  0.6134  0.4383
 3301SOL    HW216250   3.519   8.349   6.852 -0.1855 -0.0715  0.0450
 3302SOL     OW16251   8.202   3.013   5.921 -0.0516  0.1395  0.1423
 3302SOL    HW116252   8.295   2.990   5.920  0.5390  2.2847 -0.4617
 3302SOL    HW216253   8.193   3.075   5.994 -1.6525 -2.1561  2.0259
 3303SOL     OW16254   6.503   4.600   5.117 -0.3612  0.2941 -0.3694
 3303SOL    HW116255   6.472   4.679   5.073  0.7588 -0.3357 -2.4326
 3303SOL    HW216256   6.577   4.629   5.171  0.3777  0.6240 -1.5166
 3304SOL     OW16257   0.368   5.403   3.229  0.0343  0.7396  0.3230
 3304SOL    HW116258   0.288   5.418   3.178 -0.9928  1.3829  2.0470
 3304SOL    HW216259   0.416   5.486   3.222  0.2639  0.5688 -0.1935
 3305SOL     OW16260   4.521   9.179   3.466  0.4463 -0.3692  0.0593
 3305SOL    HW116261   4.612   9.208   3.468  0.4084 -0.1523 -1.0934
 3305SOL    HW216262   4.493   9.185   3.558  1.5561 -0.3585  0.4156
 3306SOL     OW16263   1.864   4.400   7.087  0.3207 -0.0779 -0.0767
 3306SOL    HW116264   1.905   4.331   7.140 -1.1663  0.8214  2.3911
 3306SOL    HW216265   1.790   4.356   7.044  1.0513 -0.6256 -0.8105
 3307SOL     OW16266   6.671   3.104   7.237 -0.0533 -0.0657 -0.5691
 3307SOL    HW116267   6.640   3.100   7.146 -0.2025  1.1202 -0.5805
 3307SOL    HW216268   6.594   3.082   7.289 -0.1743  0.0310 -0.7046
 3308SOL     OW16269   4.486   8.778   0.853  0.6863 -0.2562 -0.0144
 3308SOL    HW116270   4.435   8.857   0.871 -1.1378 -1.0947 -1.1480
 3308SOL    HW216271   4.420   8.711   0.836  2.1954 -1.8579  0.1844
 3309SOL     OW16272   3.845   7.467   3.174  0.3405  0.2600 -0.5743
 3309SOL    HW116273   3.872   7.393   3.229  1.7139  0.0968 -1.4282
 3309SOL    HW216274   3.756   7.488   3.205 -0.1014 -1.7526 -0.3065
 3310SOL     OW16275   6.967   3.457   8.241  0.4059 -0.5010 -0.1402
 3310SOL    HW116276   6.960   3.551   8.224 -0.4527 -0.2331  1.4886
 3310SOL    HW216277   7.045   3.429   8.192 -0.3214  0.6687 -2.0958
 3311SOL     OW16278   5.693   0.687   0.822 -0.6459 -0.2243  0.2484
 3311SOL    HW116279   5.733   0.772   0.841  0.2761 -0.7451  0.7108
 3311SOL    HW216280   5.712   0.634   0.900 -0.1893 -1.2140 -0.5215
 3312SOL     OW16281   2.478   6.120   9.142  0.0033  0.0237 -0.0346
 3312SOL    HW116282   2.409   6.160   9.195 -0.4553 -0.6747 -0.0952
 3312SOL    HW216283   2.478   6.028   9.167 -0.4787 -0.4053 -1.5099
 3313SOL     OW16284   9.098   2.955   4.284  0.3706 -0.2459  0.2955
 3313SOL    HW116285   9.113   2.860   4.288  0.3261 -0.2404  0.5924
 3313SOL    HW216286   9.096   2.983   4.375 -0.2642 -0.0600  0.2278
 3314SOL     OW16287   3.026   0.614   8.620  0.1324  0.2038  0.2863
 3314SOL    HW116288   2.975   0.622   8.540 -0.3052 -1.3448  0.3759
 3314SOL    HW216289   2.980   0.549   8.672  2.4794 -1.7721  0.0991
 3315SOL     OW16290   4.611   3.693   7.495 -0.4533 -0.4616 -0.6710
 3315SOL    HW116291   4.618   3.716   7.403  0.4825 -1.5892 -0.9121
 3315SOL    HW216292   4.658   3.610   7.502  0.2643  0.0429  0.9892
 3316SOL     OW16293   1.513   1.749   8.288 -0.1264  0.0097  0.0388
 3316SOL    HW116294   1.440   1.803   8.318  1.2812  1.5395  0.9017
 3316SOL    HW216295   1.570   1.809   8.242  0.7945 -1.0669 -0.2743
 3317SOL     OW16296   1.567   0.859   4.913 -0.4945 -0.0727 -0.6726
 3317SOL    HW116297   1.550   0.892   4.824 -0.9026 -0.4278 -0.7269
 3317SOL    HW216298   1.529   0.772   4.914 -0.2192 -0.1898 -0.2383
 3318SOL     OW16299   7.350   7.315   8.352 -0.5202  0.5484  0.0222
 3318SOL    HW116300   7.421   7.270   8.397 -1.3975 -0.4929  0.4286
 3318SOL    HW216301   7.392   7.389   8.308  0.7053  0.3020  0.7254
 3319SOL     OW16302   4.242   8.698   4.530 -0.4030 -0.5970  0.0052
 3319SOL    HW116303   4.271   8.639   4.600  0.3171  0.1373  0.3395
 3319SOL    HW216304   4.252   8.786   4.567 -3.2792 -0.2590  0.2251
 3320SOL     OW16305   6.316   3.183   7.590 -0.1511 -0.3979 -0.6108
 3320SOL    HW116306   6.392   3.164   7.535 -0.3103 -0.6887 -0.7352
 3320SOL    HW216307   6.320   3.277   7.605  1.1709 -0.6457  0.7963
 3321SOL     OW16308   5.152   8.262   0.322  0.4661 -0.2201 -0.2417
 3321SOL    HW116309   5.114   8.349   0.334 -1.1210 -0.9257  0.0517
 3321SOL    HW216310   5.087   8.202   0.358  1.2834 -1.5812 -0.9504
 3322SOL     OW16311   8.600   6.497   5.726 -0.4241  0.2050  0.0303
 3322SOL    HW116312   8.664   6.454   5.783 -0.2857  0.5502  0.1447
 3322SOL    HW216313   8.555   6.559   5.784 -0.4928  0.3417 -0.1685
 3323SOL     OW16314   3.307   6.744   0.561  0.0350  0.0176  0.0177
 3323SOL    HW116315   3.276   6.658   0.534 -1.3467  0.4725  0.1018
 3323SOL    HW216316   3.400   6.745   0.536  0.4066 -1.9327  1.1411
 3324SOL     OW16317   2.590   0.210   5.341  0.0568 -0.7335 -0.2458
 3324SOL    HW116318   2.600   0.288   5.286 -2.0912 -0.8515 -0.8784
 3324SOL    HW216319   2.641   0.143   5.295  2.0611  0.2632  0.3832
 3325SOL     OW16320   9.202   4.308   6.174 -0.3099 -0.0036 -0.3513
 3325SOL    HW116321   9.117   4.330   6.212 -0.4261  1.0203 -1.1751
 3325SOL    HW216322   9.208   4.361   6.094  1.4713  0.6196  0.1432
 3326SOL     OW16323   8.549   1.530   4.066  0.2898  0.6158 -0.0474
 3326SOL    HW116324   8.533   1.497   3.977 -1.0033  1.6680 -0.2440
 3326SOL    HW216325   8.642   1.514   4.081  0.0630 -1.6531 -0.7081
 3327SOL     OW16326   6.005   0.831   8.238  0.1691 -0.3620  0.0001
 3327SOL    HW116327   5.915   0.865   8.237  0.1941 -0.2744  0.4383
 3327SOL    HW216328   6.001   0.756   8.298  0.3241 -0.5389 -0.2109
 3328SOL     OW16329   4.135   8.533   5.732 -0.4786 -0.4887  0.2663
 3328SOL    HW116330   4.106   8.444   5.711  2.0038 -1.0050 -1.4067
 3328SOL    HW216331   4.140   8.577   5.647  1.3578  0.2158  0.7001
 3329SOL     OW16332   2.350   6.506   2.153 -0.6997 -0.3590  0.3167
 3329SOL    HW116333   2.330   6.467   2.067 -0.2379 -2.6760  1.1714
 3329SOL    HW216334   2.390   6.590   2.132 -0.7207 -0.7917 -1.7554
 3330SOL     OW16335   6.445   7.080   3.571 -0.4097  0.3236  0.0903
 3330SOL    HW116336   6.403   7.162   3.595 -2.4340 -0.1035 -1.6524
 3330SOL    HW216337   6.393   7.012   3.615 -1.0577 -0.1682 -1.3662
 3331SOL     OW16338   7.635   4.672   6.984 -0.3413 -0.1657 -0.0928
 3331SOL    HW116339   7.558   4.679   6.927  0.3851 -0.2721 -1.1138
 3331SOL    HW216340   7.700   4.730   6.943 -0.5942  1.7721  2.0114
 3332SOL     OW16341   1.158   8.892   5.036  0.0011  0.3927 -0.7542
 3332SOL    HW116342   1.085   8.949   5.061 -1.9790 -2.2827  0.0412
 3332SOL    HW216343   1.203   8.874   5.119  0.6068  0.7617 -0.9964
 3333SOL     OW16344   0.703   6.880   7.936  0.1663  0.0813  0.2371
 3333SOL    HW116345   0.686   6.957   7.882  0.0663  0.2346  0.4883
 3333SOL    HW216346   0.765   6.828   7.884 -0.0254  0.1683 -0.0798
 3334SOL     OW16347   6.263   8.347   8.621 -0.1336  0.4321 -0.0038
 3334SOL    HW116348   6.237   8.424   8.672  1.5591  0.5594  0.7209
 3334SOL    HW216349   6.256   8.274   8.682 -0.2286  0.2359 -0.2458
 3335SOL     OW16350   9.050   5.551   1.733 -0.7504 -0.2059 -0.2139
 3335SOL    HW116351   9.023   5.463   1.759 -2.7018  0.4043  0.0080
 3335SOL    HW216352   9.124   5.537   1.674 -0.5510 -1.9443  0.3896
 3336SOL     OW16353   6.444   1.667   6.992  0.6516  0.0930 -0.7971
 3336SOL    HW116354   6.384   1.642   7.062 -0.5295 -0.5929 -2.0066
 3336SOL    HW216355   6.488   1.745   7.026 -0.2288  0.0633  0.5060
 3337SOL     OW16356   2.709   2.544   7.723  0.0109  0.3626  0.7156
 3337SOL    HW116357   2.782   2.487   7.747  1.6753  1.8225 -0.5384
 3337SOL    HW216358   2.658   2.494   7.659 -0.7406 -1.0607  2.3415
 3338SOL     OW16359   0.249   4.589   0.244  0.3303  0.2486 -0.2028
 3338SOL    HW116360   0.215   4.533   0.313 -0.4339  2.5229  1.3998
 3338SOL    HW216361   0.339   4.607   0.269  1.0849 -1.3996 -1.5390
 3339SOL     OW16362   2.918   4.151   7.829 -0.3899  0.2932  0.4764
 3339SOL    HW116363   2.972   4.186   7.757 -1.2150  1.2751  0.3127
 3339SOL    HW216364   2.973   4.084   7.870  1.6226  2.3565  1.3518
 3340SOL     OW16365   8.446   1.961   5.433 -0.0448  0.4612 -0.1049
 3340SOL    HW116366   8.396   1.950   5.514  2.3899 -1.7081  1.2606
 3340SOL    HW216367   8.427   1.882   5.382 -0.1621  0.9523 -0.8357
 3341SOL     OW16368   9.074   3.232   7.199 -0.0733 -0.3557  0.2628
 3341SOL    HW116369   9.121   3.182   7.266  2.3943 -0.9565 -1.7315
 3341SOL    HW216370   9.081   3.323   7.228 -0.6763 -0.7436  1.7039
 3342SOL     OW16371   0.392   0.556   6.232 -0.6808  0.3611  0.8038
 3342SOL    HW116372   0.402   0.499   6.308 -1.0471  0.5075  0.9683
 3342SOL    HW216373   0.326   0.513   6.178  1.1171 -0.8544 -0.5150
 3343SOL     OW16374   4.134   4.420   0.486 -0.1995  0.5209  0.2695
 3343SOL    HW116375   4.052   4.407   0.533 -1.1689  1.8054 -0.9939
 3343SOL    HW216376   4.163   4.332   0.464 -0.2095 -0.0662  2.3611
 3344SOL     OW16377   2.830   0.600   1.026 -0.3491 -0.6549  0.8472
 3344SOL    HW116378   2.881   0.671   1.065  0.7231 -0.9206 -0.0301
 3344SOL    HW216379   2.798   0.636   0.943 -0.5016 -0.9245  0.7868
 3345SOL     OW16380   2.145   3.758   0.649 -0.7272  0.2075  0.0954
 3345SOL    HW116381   2.160   3.663   0.647  0.2363  0.3568 -1.5819
 3345SOL    HW216382   2.116   3.775   0.738  1.1267 -1.3705  1.0862
 3346SOL     OW16383   6.458   1.682   0.392 -0.2397  0.3152 -0.0406
 3346SOL    HW116384   6.407   1.625   0.334 -0.1095  0.7851 -0.6255
 3346SOL    HW216385   6.548   1.652   0.382 -0.4825 -1.2531  1.8366
 3347SOL     OW16386   6.388   7.552   7.184 -0.0202  0.0214 -0.2492
 3347SOL    HW116387   6.434   7.625   7.227  2.3411 -0.6621 -1.4452
 3347SOL    HW216388   6.452   7.481   7.183 -1.4283 -1.2840 -1.2585
 3348SOL     OW16389   6.445   0.407   9.206  0.0441  0.1837 -0.3104
 3348SOL    HW116390   6.507   0.405   9.278  1.5228  3.4181 -1.2917
 3348SOL    HW216391   6.359   0.410   9.247  0.6363 -1.4304  1.1534
 3349SOL     OW16392   6.656   0.215   4.601  0.2067 -0.7093 -0.0694
 3349SOL    HW116393   6.584   0.173   4.648  1.2584 -0.7154  1.6220
 3349SOL    HW216394   6.615   0.252   4.523 -1.3348 -2.0384  0.0529
 3350SOL     OW16395   1.364   7.434   4.302 -0.0519 -0.1151 -0.3787
 3350SOL    HW116396   1.317   7.356   4.329  0.3016 -0.0159  0.5333
 3350SOL    HW216397   1.295   7.498   4.284 -0.3179  0.6565  2.8206
 3351SOL     OW16398   7.638   5.561   2.564 -0.3426  0.1583 -0.0947
 3351SOL    HW116399   7.728   5.546   2.533 -0.8812 -0.5683 -1.3962
 3351SOL    HW216400   7.590   5.588   2.485 -0.5292  4.3031  1.2109
 3352SOL     OW16401   3.540   0.035   2.631  0.2872  0.7475  0.3651
 3352SOL    HW116402   3.517   0.075   2.715 -1.8777 -0.3800  0.3825
 3352SOL    HW216403   3.470  -0.028   2.615  1.4664 -0.1535 -1.5724
 3353SOL     OW16404   2.043   8.530   7.905 -0.0040 -0.4508  0.4718
 3353SOL    HW116405   1.953   8.520   7.876  0.1504 -0.2222 -0.0971
 3353SOL    HW216406   2.045   8.614   7.951  0.0956 -0.0753 -0.2122
 3354SOL     OW16407   1.501   3.075   1.251  0.2068 -0.2618 -0.8036
 3354SOL    HW116408   1.419   3.059   1.297 -0.2315  0.0898 -1.4472
 3354SOL    HW216409   1.481   3.146   1.190  1.5365  1.3558  0.5391
 3355SOL     OW16410   3.405   4.949   8.130  0.1167 -0.1980  0.0361
 3355SOL    HW116411   3.478   4.956   8.069 -0.2132 -1.4853 -0.5486
 3355SOL    HW216412   3.361   4.868   8.106  0.7058 -1.4533  2.8255
 3356SOL     OW16413   8.059   7.491   6.046  0.4952 -0.3398  0.0113
 3356SOL    HW116414   8.022   7.567   6.091 -0.9875 -0.5996 -0.7171
 3356SOL    HW216415   8.107   7.445   6.115 -0.3005  0.1736  0.9460
 3357SOL     OW16416   0.572   1.909   8.043  0.0132 -0.5829 -0.8273
 3357SOL    HW116417   0.566   1.823   8.084  1.0441  0.1171  0.9225
 3357SOL    HW216418   0.664   1.934   8.054 -0.2789  0.7508 -1.2569
 3358SOL     OW16419   3.013   3.996   5.050  0.3039  0.3275 -0.2244
 3358SOL    HW116420   2.986   4.024   4.962 -1.8358 -1.6050 -0.2871
 3358SOL    HW216421   3.043   3.906   5.037  0.4847  0.2140  0.9375
 3359SOL     OW16422   2.881   2.510   6.653  0.5392  0.2099  0.4761
 3359SOL    HW116423   2.872   2.594   6.607  0.7409  0.3598  0.7033
 3359SOL    HW216424   2.916   2.534   6.739 -2.1112  0.2123  1.6614
 3360SOL     OW16425   0.012   4.343   7.973  0.0533 -0.1556 -0.1883
 3360SOL    HW116426  -0.054   4.359   7.906 -1.6517 -0.3093  1.3802
 3360SOL    HW216427   0.095   4.368   7.931 -1.2485  2.7187 -1.3384
 3361SOL     OW16428   0.606   6.532   4.248  0.1422  0.3229 -0.2259
 3361SOL    HW116429   0.665   6.577   4.309 -1.1381  1.1997  0.3912
 3361SOL    HW216430   0.630   6.566   4.162  0.5886  0.6105  0.0062
 3362SOL     OW16431   1.526   4.399   3.610 -0.8156  0.1213  0.6192
 3362SOL    HW116432   1.607   4.362   3.645 -1.1714 -0.3434  0.9631
 3362SOL    HW216433   1.475   4.423   3.688 -0.7454  1.0010  0.4038
 3363SOL     OW16434   5.420   5.197   0.081 -0.2804  0.3473  0.6758
 3363SOL    HW116435   5.358   5.127   0.061 -1.4018  1.5981 -0.4515
 3363SOL    HW216436   5.443   5.184   0.173 -2.3042 -0.1013  1.1513
 3364SOL     OW16437   3.986   0.353   8.088 -0.2398  0.0092 -0.1566
 3364SOL    HW116438   4.046   0.425   8.068  1.6886 -0.3602  3.4955
 3364SOL    HW216439   4.003   0.289   8.019  2.2476  0.7249 -0.3247
 3365SOL     OW16440   0.646   5.693   2.951 -0.5366  0.1828 -0.1581
 3365SOL    HW116441   0.687   5.774   2.921 -0.2983  0.4821  0.9404
 3365SOL    HW216442   0.709   5.624   2.929  0.3701  0.5847  1.0814
 3366SOL     OW16443   0.734   5.689   4.099  0.4986  0.2420 -0.1215
 3366SOL    HW116444   0.644   5.658   4.089  0.9671 -0.8785 -1.0374
 3366SOL    HW216445   0.738   5.768   4.045  0.2743 -0.1623 -0.7410
 3367SOL     OW16446   0.363   0.123   7.374 -0.3249 -0.7772 -0.0490
 3367SOL    HW116447   0.394   0.163   7.293 -1.4963  0.8578  0.2526
 3367SOL    HW216448   0.443   0.101   7.422  0.3724 -0.2008 -0.9107
 3368SOL     OW16449   2.427   4.151   7.965 -0.2846  0.1769 -0.3249
 3368SOL    HW116450   2.439   4.061   7.994 -0.3283  0.0723 -0.6236
 3368SOL    HW216451   2.510   4.175   7.925  1.5482  1.9132  3.9300
 3369SOL     OW16452   3.020   3.972   5.971  0.1115 -0.2870  0.1742
 3369SOL    HW116453   2.994   4.057   5.935 -0.3866 -0.7310 -0.5398
 3369SOL    HW216454   3.098   3.948   5.922 -0.5687 -0.8927 -0.6396
 3370SOL     OW16455   3.121   4.956   4.383  0.0158  0.0918 -0.1430
 3370SOL    HW116456   3.046   4.942   4.441  1.9208  0.7697  2.6945
 3370SOL    HW216457   3.164   5.034   4.418  2.6293 -0.8783 -0.9393
 3371SOL     OW16458   7.502   9.230   0.326  0.5341 -0.1791  0.3795
 3371SOL    HW116459   7.443   9.273   0.389  1.2416  0.7553  0.4286
 3371SOL    HW216460   7.581   9.211   0.377 -0.2050 -2.7296  0.6876
 3372SOL     OW16461   1.568   8.818   5.378 -0.2040  0.0607 -0.3942
 3372SOL    HW116462   1.645   8.799   5.432 -0.8328 -1.7689 -0.0515
 3372SOL    HW216463   1.584   8.769   5.296 -1.3523 -1.0739  0.0233
 3373SOL     OW16464   8.098   0.552   2.262 -0.5372  0.3825 -0.0469
 3373SOL    HW116465   8.059   0.468   2.288 -0.2695  0.4920  0.7344
 3373SOL    HW216466   8.132   0.589   2.344  1.1897  0.2879 -0.6891
 3374SOL     OW16467   7.594   7.158   6.778 -0.1972  0.6916  0.1106
 3374SOL    HW116468   7.599   7.213   6.700 -0.0263  0.4190 -0.0762
 3374SOL    HW216469   7.508   7.175   6.815 -0.2169  0.9399 -0.0529
 3375SOL     OW16470   7.053   1.625   4.476  0.1905 -0.0514 -0.1231
 3375SOL    HW116471   7.027   1.713   4.449 -1.9636 -0.3577  0.7155
 3375SOL    HW216472   7.031   1.569   4.400  0.6480  0.0011 -0.2958
 3376SOL     OW16473   5.941   0.689   4.363 -0.3212 -0.1165 -0.0334
 3376SOL    HW116474   5.858   0.651   4.390 -0.8894  0.9202 -0.2596
 3376SOL    HW216475   6.003   0.616   4.364 -0.8741 -0.5988  1.6612
 3377SOL     OW16476   1.542   8.192   8.296  0.3143 -0.3437  0.3616
 3377SOL    HW116477   1.611   8.235   8.245  0.1010  0.6723  0.8967
 3377SOL    HW216478   1.587   8.121   8.343  0.8606 -0.1277  0.1664
 3378SOL     OW16479   2.296   4.740   6.719 -0.1732 -0.0816 -0.4947
 3378SOL    HW116480   2.376   4.712   6.675 -0.4401 -0.0190 -1.0277
 3378SOL    HW216481   2.237   4.765   6.648 -1.9038 -3.2470 -0.3597
 3379SOL     OW16482   3.471   7.339   3.455  0.3083  0.3546  0.0096
 3379SOL    HW116483   3.543   7.373   3.508  1.2755  0.2955 -1.2263
 3379SOL    HW216484   3.396   7.336   3.516  1.4299  0.0080  1.4296
 3380SOL     OW16485   1.810   6.875   5.201 -0.3088 -0.2291 -0.6968
 3380SOL    HW116486   1.881   6.926   5.241  0.3601 -1.6408 -0.0035
 3380SOL    HW216487   1.731   6.925   5.220  0.1958  0.0220  0.9333
 3381SOL     OW16488   0.531   8.702   2.715 -0.2195  0.7748  0.0059
 3381SOL    HW116489   0.517   8.649   2.793  0.2086 -1.4137 -1.3098
 3381SOL    HW216490   0.618   8.740   2.727 -1.2931  2.8582  1.8304
 3382SOL     OW16491   7.790   0.505   5.870 -0.0900 -0.1205 -0.1308
 3382SOL    HW116492   7.852   0.577   5.872  0.1335 -0.3010 -0.5582
 3382SOL    HW216493   7.839   0.432   5.832 -0.5485 -0.2762 -0.4326
 3383SOL     OW16494   5.147   6.669   7.077 -0.4118 -0.7321 -0.6129
 3383SOL    HW116495   5.127   6.758   7.048 -0.2454 -0.3278  0.4476
 3383SOL    HW216496   5.213   6.637   7.016  0.3535  0.2985 -0.3374
 3384SOL     OW16497   4.343   8.993   8.651 -0.4597  0.0412 -0.3623
 3384SOL    HW116498   4.315   9.051   8.579  0.4609 -0.3487 -1.0464
 3384SOL    HW216499   4.261   8.966   8.692 -1.0368  0.0209 -1.4695
 3385SOL     OW16500   5.766   4.563   4.489 -0.3721 -0.1202  0.0296
 3385SOL    HW116501   5.819   4.485   4.502 -1.1695 -0.5687  0.6820
 3385SOL    HW216502   5.779   4.586   4.397  1.1198 -0.0754  0.2394
 3386SOL     OW16503   0.446   6.232   2.909 -0.2784 -0.1610  0.4470
 3386SOL    HW116504   0.382   6.225   2.980  1.5210 -4.4181  1.9509
 3386SOL    HW216505   0.506   6.300   2.937 -1.0555  0.0285  1.7150
 3387SOL     OW16506   8.353   5.469   6.519 -0.0829  0.3062 -0.2330
 3387SOL    HW116507   8.377   5.479   6.611 -2.4287  2.4090  0.2723
 3387SOL    HW216508   8.326   5.557   6.492  1.4470 -0.0355 -3.2727
 3388SOL     OW16509   5.669   7.288   2.256  0.7364  0.4215  0.0618
 3388SOL    HW116510   5.674   7.195   2.278 -1.2324  0.7803  2.3770
 3388SOL    HW216511   5.599   7.294   2.192  1.4607  0.2593 -0.7743
 3389SOL     OW16512   7.078   0.255   2.052 -0.0475 -0.4840  0.1766
 3389SOL    HW116513   7.126   0.270   2.134  0.4646  0.2936 -0.2585
 3389SOL    HW216514   7.046   0.341   2.026  1.7299 -0.2718 -1.6051
 3390SOL     OW16515   0.594   6.045   5.732  0.1120 -0.7643 -0.0474
 3390SOL    HW116516   0.598   6.101   5.810  0.3009  0.9196 -1.2058
 3390SOL    HW216517   0.502   6.046   5.707  0.2054 -0.5170 -0.3835
 3391SOL     OW16518   6.728   2.950   6.538 -0.4206 -0.3809  0.2675
 3391SOL    HW116519   6.726   3.025   6.598 -1.3008  0.2981 -0.5901
 3391SOL    HW216520   6.818   2.918   6.543 -0.1375  0.4849  0.9361
 3392SOL     OW16521   3.430   7.930   4.097  0.3274  0.5732 -0.2811
 3392SOL    HW116522   3.491   7.912   4.025  3.9518  1.6320  2.2113
 3392SOL    HW216523   3.392   7.846   4.119 -0.2812  0.1068 -2.8894
 3393SOL     OW16524   0.453   4.544   2.703 -0.1595 -0.7914  0.0524
 3393SOL    HW116525   0.371   4.497   2.717 -0.9972  1.0707  1.8420
 3393SOL    HW216526   0.475   4.579   2.789  1.5575  0.2851 -0.7804
 3394SOL     OW16527   0.138   5.485   8.042  0.7115 -0.6077 -0.1011
 3394SOL    HW116528   0.099   5.398   8.043 -0.5949 -0.0793  2.2704
 3394SOL    HW216529   0.067   5.543   8.015  1.4657 -0.1903 -1.2800
 3395SOL     OW16530   4.687   3.395   5.180 -0.1362 -0.2420 -0.0776
 3395SOL    HW116531   4.600   3.421   5.148 -0.2280 -0.7749 -0.2712
 3395SOL    HW216532   4.679   3.301   5.196 -0.0363 -0.0323  1.3390
 3396SOL     OW16533   2.735   3.740   1.249 -0.0672 -0.1891 -0.9886
 3396SOL    HW116534   2.691   3.814   1.206 -1.9416 -0.0087  1.0245
 3396SOL    HW216535   2.664   3.693   1.294  1.5845 -0.8767  1.0598
 3397SOL     OW16536   6.135   7.904   2.678 -0.1714 -0.0116  0.0172
 3397SOL    HW116537   6.122   7.826   2.732  0.1272  0.3476  0.6134
 3397SOL    HW216538   6.046   7.931   2.653 -0.4128  0.6112  1.4621
 3398SOL     OW16539   1.239   6.151   7.667  0.1462 -0.2507 -0.5854
 3398SOL    HW116540   1.162   6.135   7.613  0.8852 -0.3339 -1.6363
 3398SOL    HW216541   1.245   6.246   7.672  0.0603 -0.2427 -0.6303
 3399SOL     OW16542   7.868   6.281   0.699  0.5021  0.4310 -0.0670
 3399SOL    HW116543   7.910   6.364   0.720  0.1639  0.7345 -0.5505
 3399SOL    HW216544   7.925   6.240   0.634  1.7811 -0.7129  1.6897
 3400SOL     OW16545   2.434   2.314   7.189 -0.3452 -0.3081 -0.0430
 3400SOL    HW116546   2.462   2.374   7.259  0.8803 -0.9749  0.0688
 3400SOL    HW216547   2.374   2.366   7.136 -1.5170  0.1425  1.6309
 3401SOL     OW16548   6.836   5.628   2.173 -0.0688 -0.8526  0.5815
 3401SOL    HW116549   6.872   5.557   2.121 -1.1329 -0.8273 -0.2066
 3401SOL    HW216550   6.752   5.595   2.204 -0.2969 -0.1634  0.7101
 3402SOL     OW16551   2.433   1.367   8.313  0.2397  0.6801  0.6382
 3402SOL    HW116552   2.480   1.387   8.394  0.1181  0.3735  0.7861
 3402SOL    HW216553   2.472   1.286   8.282 -0.8779 -0.1510  1.3189
 3403SOL     OW16554   6.068   1.336   7.114 -0.3188  0.0832 -0.2847
 3403SOL    HW116555   6.162   1.324   7.126  0.1967  1.5655 -2.3082
 3403SOL    HW216556   6.040   1.257   7.067  0.2733  0.3791 -1.1641
 3404SOL     OW16557   7.878   2.568   2.438  0.1419 -0.0375  0.2335
 3404SOL    HW116558   7.907   2.638   2.380  1.1352  0.0591  0.8194
 3404SOL    HW216559   7.920   2.587   2.521  0.3949 -1.2963  0.4135
 3405SOL     OW16560   6.478   2.141   3.432 -0.1889 -0.3298  0.8429
 3405SOL    HW116561   6.496   2.049   3.453  0.5010 -0.1733  0.9430
 3405SOL    HW216562   6.560   2.186   3.450 -0.2495  0.1633 -0.0546
 3406SOL     OW16563   4.375   6.612   9.098  0.6380  0.5039  0.1401
 3406SOL    HW116564   4.366   6.707   9.109  0.8738  0.4584  0.7054
 3406SOL    HW216565   4.458   6.601   9.051  1.0631  0.5283  0.8731
 3407SOL     OW16566   4.364   0.563   5.328 -0.2142 -0.0689 -0.0993
 3407SOL    HW116567   4.308   0.485   5.325  0.6206 -0.6867 -0.0210
 3407SOL    HW216568   4.438   0.540   5.271 -0.1634  0.8376 -0.4067
 3408SOL     OW16569   2.308   4.844   0.690 -0.1756  0.5055  0.8484
 3408SOL    HW116570   2.239   4.903   0.722 -2.4890 -2.4910  1.8470
 3408SOL    HW216571   2.332   4.879   0.604 -0.7697  3.3272  1.7315
 3409SOL     OW16572   9.141   2.953   1.326  0.0173  0.4602 -0.1491
 3409SOL    HW116573   9.119   2.966   1.418 -1.3580 -0.1056 -0.3710
 3409SOL    HW216574   9.142   2.858   1.315  2.6309  0.4233 -0.1997
 3410SOL     OW16575   8.477   9.095   4.238  0.4177  0.0200  0.1081
 3410SOL    HW116576   8.485   9.012   4.285 -1.2389  0.2491  0.8789
 3410SOL    HW216577   8.494   9.162   4.305 -3.0339  0.3824  0.7986
 3411SOL     OW16578   3.709   5.428   2.543 -0.1700  0.1833  0.1278
 3411SOL    HW116579   3.684   5.396   2.629 -1.0037  0.3759 -0.0396
 3411SOL    HW216580   3.681   5.520   2.542 -1.5339 -0.2177 -0.8765
 3412SOL     OW16581   6.971   0.010   5.445  0.0468 -0.2839 -0.4394
 3412SOL    HW116582   6.969   0.086   5.502  0.0827 -0.0579 -0.7373
 3412SOL    HW216583   6.933  -0.061   5.498 -0.8021  0.1397 -0.4598
 3413SOL     OW16584   4.362   0.953   3.388 -0.4558 -0.4035  0.0900
 3413SOL    HW116585   4.391   0.999   3.309 -0.9189  0.0955  0.2027
 3413SOL    HW216586   4.275   0.990   3.407 -0.3479 -0.5116  0.8353
 3414SOL     OW16587   1.183   1.233   6.002 -0.8185 -0.0812 -0.0603
 3414SOL    HW116588   1.189   1.251   6.095 -0.3105  0.3635 -0.1760
 3414SOL    HW216589   1.265   1.189   5.980  0.2971  2.2199 -0.8166
 3415SOL     OW16590   1.663   1.606   8.869 -0.3499 -0.5828 -0.5840
 3415SOL    HW116591   1.620   1.520   8.865 -0.2440 -0.6110 -1.2139
 3415SOL    HW216592   1.657   1.640   8.779  0.1472 -0.1953 -0.4746
 3416SOL     OW16593   3.583   0.539   4.247 -0.3191 -0.1620 -0.4191
 3416SOL    HW116594   3.531   0.609   4.287  1.0736 -0.4089  2.0968
 3416SOL    HW216595   3.520   0.487   4.198 -1.7748  1.5672 -0.5051
 3417SOL     OW16596   8.824   3.297   3.967  0.5764 -0.4688  0.0408
 3417SOL    HW116597   8.761   3.339   3.908  0.3063  1.1367  1.4156
 3417SOL    HW216598   8.770   3.265   4.040  1.4130  2.6747  2.2389
 3418SOL     OW16599   4.701   1.569   7.497  0.0417 -0.3619 -0.0497
 3418SOL    HW116600   4.721   1.662   7.486  0.2418 -0.1816  1.5854
 3418SOL    HW216601   4.781   1.524   7.469  0.7793  0.0919  1.2421
 3419SOL     OW16602   7.503   7.863   2.801 -0.5188 -0.0591 -0.3464
 3419SOL    HW116603   7.545   7.887   2.884 -1.1397 -0.4197  0.0850
 3419SOL    HW216604   7.430   7.925   2.793 -0.1055  0.3621 -0.9332
 3420SOL     OW16605   6.358   7.921   1.031 -0.4687 -0.0269 -0.2233
 3420SOL    HW116606   6.389   7.856   1.094  0.0953 -0.1879 -0.6608
 3420SOL    HW216607   6.338   7.998   1.084  4.1530  1.4191 -0.1957
 3421SOL     OW16608   6.405   8.644   3.384  0.0158  0.1323  0.4679
 3421SOL    HW116609   6.325   8.688   3.412 -0.5942 -1.3448  1.1604
 3421SOL    HW216610   6.379   8.553   3.369  1.4006 -0.2064 -0.0884
 3422SOL     OW16611   2.718   5.222   5.622 -0.3957  0.6624 -0.5662
 3422SOL    HW116612   2.623   5.220   5.608 -0.3889  0.6116 -0.6066
 3422SOL    HW216613   2.731   5.176   5.705 -0.4358  0.9605 -0.3932
 3423SOL     OW16614   2.336   4.828   6.178 -0.6725 -0.6321  0.3628
 3423SOL    HW116615   2.263   4.770   6.196 -2.1236  0.6784 -1.0417
 3423SOL    HW216616   2.296   4.911   6.152  1.3053  0.2291 -0.1729
 3424SOL     OW16617   1.169   9.220   1.354  0.6019  0.5046  0.2703
 3424SOL    HW116618   1.262   9.201   1.362  0.6464 -0.0749 -1.3990
 3424SOL    HW216619   1.147   9.200   1.263 -2.0258 -3.2766  1.4800
 3425SOL     OW16620   2.418   1.979   6.500 -0.0234 -0.5138 -0.4290
 3425SOL    HW116621   2.469   2.058   6.518 -1.4996 -0.0613  2.3389
 3425SOL    HW216622   2.464   1.910   6.548 -2.5650  0.1893  3.4581
 3426SOL     OW16623   3.776   1.017   1.213  0.4773 -0.1064 -0.1140
 3426SOL    HW116624   3.718   0.960   1.263  0.5309 -0.4703 -0.4624
 3426SOL    HW216625   3.853   0.964   1.196  0.2865 -0.1370 -0.9385
 3427SOL     OW16626   6.452   3.935   7.632  0.0072 -0.3325  0.0574
 3427SOL    HW116627   6.457   3.856   7.578  0.6788 -0.2708  0.0151
 3427SOL    HW216628   6.430   4.005   7.571 -1.9918 -0.6858  0.3070
 3428SOL     OW16629   0.189   8.640   6.949 -0.3907  0.4443  0.4531
 3428SOL    HW116630   0.134   8.659   6.873  0.4061  3.1015  0.4274
 3428SOL    HW216631   0.127   8.623   7.020 -1.1564 -0.3404 -0.3727
 3429SOL     OW16632   3.082   3.542   2.448 -0.1387 -0.6779 -0.3849
 3429SOL    HW116633   3.123   3.470   2.400 -0.2729 -0.2161 -1.2268
 3429SOL    HW216634   3.153   3.581   2.499  0.0582 -1.0348 -0.3819
 3430SOL     OW16635   6.100   3.236   8.628  0.5601 -0.4496  0.4798
 3430SOL    HW116636   6.130   3.204   8.543  1.7975  0.6125  0.4820
 3430SOL    HW216637   6.177   3.228   8.685 -0.0102 -0.3833  1.2717
 3431SOL     OW16638   0.992   8.609   6.028  0.7572 -0.2946  0.0564
 3431SOL    HW116639   0.912   8.657   6.047  0.0804 -1.3213 -0.1510
 3431SOL    HW216640   1.043   8.668   5.972 -1.2313 -0.8423 -2.4779
 3432SOL     OW16641   0.349   4.268   7.628  0.2608  0.5653  0.2185
 3432SOL    HW116642   0.396   4.343   7.592 -0.7558  0.5540 -1.1727
 3432SOL    HW216643   0.258   4.296   7.634  0.0250 -0.2319  0.5912
 3433SOL     OW16644   0.891   1.902   2.653  0.5394  0.5160 -0.1532
 3433SOL    HW116645   0.875   1.954   2.732 -0.0279  0.2353 -0.0843
 3433SOL    HW216646   0.813   1.848   2.643  0.7370  0.3330 -0.7406
 3434SOL     OW16647   2.861   5.507   2.260  0.0456  0.1206  0.0977
 3434SOL    HW116648   2.851   5.435   2.197  1.5832  1.2473 -1.5204
 3434SOL    HW216649   2.949   5.497   2.295 -0.6683 -0.3001  1.9284
 3435SOL     OW16650   2.212   8.605   6.702  0.1879 -0.1185 -0.2044
 3435SOL    HW116651   2.301   8.589   6.734 -0.5512 -0.6736  1.7266
 3435SOL    HW216652   2.219   8.686   6.652  2.5334 -2.1720 -3.6359
 3436SOL     OW16653   8.074   8.877   9.173  0.1931 -0.1423  0.1496
 3436SOL    HW116654   8.168   8.864   9.179  0.4456  0.3994 -1.8309
 3436SOL    HW216655   8.054   8.864   9.080 -1.2040  2.5106 -0.0271
 3437SOL     OW16656   4.022   5.566   2.931  0.0672  0.0173 -0.3977
 3437SOL    HW116657   4.105   5.602   2.900  0.3766  0.5456  1.0122
 3437SOL    HW216658   4.045   5.487   2.978 -0.4480 -1.0311 -1.8345
 3438SOL     OW16659   8.357   3.653   4.510 -0.5102  0.2890  0.1315
 3438SOL    HW116660   8.412   3.689   4.580 -0.8377  0.9771  0.0381
 3438SOL    HW216661   8.401   3.572   4.485  1.5219  1.6910 -1.1812
 3439SOL     OW16662   5.569   6.621   7.008 -0.3532  0.3454  0.5984
 3439SOL    HW116663   5.520   6.602   7.088 -0.6607  0.5943  0.4704
 3439SOL    HW216664   5.639   6.556   7.007  1.1301  1.7976  2.3026
 3440SOL     OW16665   9.181   7.512   5.157  0.0964 -0.2960  0.4347
 3440SOL    HW116666   9.121   7.583   5.177 -0.5862 -1.0238  1.0627
 3440SOL    HW216667   9.268   7.552   5.159 -0.3141  0.6246  0.2167
 3441SOL     OW16668   2.226   1.103   2.917  0.2649  0.0330 -0.0717
 3441SOL    HW116669   2.176   1.093   2.836 -3.5330  2.8864  1.6080
 3441SOL    HW216670   2.216   1.019   2.962  0.7386 -0.8872 -1.5876
 3442SOL     OW16671   5.004   2.517   0.743 -0.7425 -0.4815  0.4221
 3442SOL    HW116672   4.917   2.544   0.713 -0.7063 -0.4077  0.3811
 3442SOL    HW216673   5.058   2.520   0.664 -1.3095 -3.2380 -0.1961
 3443SOL     OW16674   9.086   6.709   0.112  0.1655 -0.3157  0.2895
 3443SOL    HW116675   9.011   6.745   0.161  0.1554 -1.0420  0.8403
 3443SOL    HW216676   9.162   6.733   0.164  0.2292 -0.3843  0.2280
 3444SOL     OW16677   1.430   4.793   6.326 -0.4602 -0.1463  0.2251
 3444SOL    HW116678   1.367   4.855   6.363  1.0828  2.6013 -1.3788
 3444SOL    HW216679   1.382   4.750   6.255 -1.0876  0.5723  0.2015
 3445SOL     OW16680   2.550   5.011   6.637  0.3980  0.3301  0.4052
 3445SOL    HW116681   2.641   4.996   6.664  0.9954  0.3465 -1.4603
 3445SOL    HW216682   2.498   4.986   6.713  2.0018  1.7174  2.0529
 3446SOL     OW16683   1.141   9.021   8.741 -0.8374  0.0719  0.4904
 3446SOL    HW116684   1.155   9.050   8.651 -2.2907 -0.2295  0.1456
 3446SOL    HW216685   1.050   8.994   8.744 -1.3658  1.7433  2.5031
 3447SOL     OW16686   1.818   9.092   0.579 -0.3878  0.1750  0.1229
 3447SOL    HW116687   1.833   9.004   0.616  1.2008 -0.1488 -1.1573
 3447SOL    HW216688   1.767   9.137   0.646 -0.2334 -1.3441  1.3504
 3448SOL     OW16689   3.822   7.416   6.317  0.1929  0.4987  0.9400
 3448SOL    HW116690   3.783   7.402   6.403  1.2249  1.7017  1.6389
 3448SOL    HW216691   3.894   7.352   6.313  0.7702  1.1078  1.3996
 3449SOL     OW16692   3.129   2.843   2.365 -0.3887  0.0760 -0.1838
 3449SOL    HW116693   3.116   2.920   2.420  1.5052 -1.1195  2.1136
 3449SOL    HW216694   3.221   2.848   2.338 -0.3351 -1.1812 -0.2901
 3450SOL     OW16695   5.719   8.319   1.223 -0.4537  0.0410  0.1770
 3450SOL    HW116696   5.703   8.261   1.149 -0.3966 -0.3386  0.4641
 3450SOL    HW216697   5.810   8.346   1.213 -0.9461  1.4891 -0.9481
 3451SOL     OW16698   5.968   8.571   5.697  0.2851 -0.3518  0.7719
 3451SOL    HW116699   5.912   8.555   5.621  0.4063 -0.0869  0.6251
 3451SOL    HW216700   5.955   8.495   5.754 -0.9438  0.1405  1.1757
 3452SOL     OW16701   1.631   8.707   0.515 -0.0174 -0.8111  0.1038
 3452SOL    HW116702   1.552   8.699   0.569  0.5107 -0.3870  0.9662
 3452SOL    HW216703   1.681   8.777   0.556  1.4048 -1.9059  0.3335
 3453SOL     OW16704   1.731   0.522   8.886  0.5848 -0.3970 -0.0956
 3453SOL    HW116705   1.673   0.445   8.889 -0.3840  0.3093 -0.2771
 3453SOL    HW216706   1.819   0.485   8.890  0.1616 -1.5724 -0.9926
 3454SOL     OW16707   1.131   0.919   2.797  0.1170  0.2126  0.3064
 3454SOL    HW116708   1.170   0.995   2.754 -0.0530 -0.2610 -0.7223
 3454SOL    HW216709   1.071   0.882   2.731 -1.9752  0.8297  1.7622
 3455SOL     OW16710   5.532   7.364   0.890 -0.1757  0.2348  0.1044
 3455SOL    HW116711   5.578   7.370   0.974  0.2343  1.7483 -0.1987
 3455SOL    HW216712   5.565   7.283   0.851 -0.5334 -0.5974  1.4849
 3456SOL     OW16713   2.395   6.727   2.955  0.0100 -0.0169  0.0661
 3456SOL    HW116714   2.354   6.688   2.878  1.7009 -1.1178 -0.3440
 3456SOL    HW216715   2.333   6.712   3.026 -1.1690  0.2061 -0.8965
 3457SOL     OW16716   2.446   4.899   4.277 -0.0352 -0.2788 -0.5712
 3457SOL    HW116717   2.357   4.935   4.279 -0.0510 -0.2909  1.8379
 3457SOL    HW216718   2.502   4.974   4.295  0.4220 -0.3888 -1.4721
 3458SOL     OW16719   5.884   5.284   4.760 -0.0818  0.4850  0.1675
 3458SOL    HW116720   5.952   5.351   4.774  0.8311 -0.8112  2.4677
 3458SOL    HW216721   5.930   5.213   4.715 -0.3890  0.3466  0.0685
 3459SOL     OW16722   4.081   3.235   4.992  0.0323 -0.0462  0.0836
 3459SOL    HW116723   4.144   3.186   4.939 -0.8000  0.4258 -1.4036
 3459SOL    HW216724   4.073   3.185   5.073  1.8279 -0.4544  0.0455
 3460SOL     OW16725   2.844   3.611   2.018 -0.1777  0.4654 -0.6308
 3460SOL    HW116726   2.870   3.658   2.097 -0.3871  1.5117 -1.1671
 3460SOL    HW216727   2.776   3.551   2.047 -0.1741  0.7675  0.0092
 3461SOL     OW16728   4.253   4.828   4.720 -0.2771  0.0803  0.3297
 3461SOL    HW116729   4.277   4.745   4.761 -0.2420  0.0317  0.2105
 3461SOL    HW216730   4.199   4.873   4.785 -0.1274  0.0522  0.4725
 3462SOL     OW16731   1.402   5.547   4.342  0.1451  0.0024 -0.7634
 3462SOL    HW116732   1.453   5.466   4.334 -3.2691 -2.3065 -1.3168
 3462SOL    HW216733   1.395   5.579   4.252 -1.5256 -1.2335 -1.1236
 3463SOL     OW16734   2.618   3.489   1.011 -0.1248  0.0932  0.1316
 3463SOL    HW116735   2.705   3.523   1.035  0.4342 -1.2586  0.1347
 3463SOL    HW216736   2.598   3.531   0.928 -0.1457  1.5442  0.8355
 3464SOL     OW16737   0.118   2.824   2.088 -0.2191 -0.4371 -0.0585
 3464SOL    HW116738   0.048   2.857   2.031 -0.0978 -1.2588 -0.6940
 3464SOL    HW216739   0.143   2.740   2.050 -0.4929 -1.2725  1.4960
 3465SOL     OW16740   4.752   0.309   3.855  0.0992  0.1388 -0.0423
 3465SOL    HW116741   4.724   0.271   3.938 -1.1722 -0.4331 -0.6948
 3465SOL    HW216742   4.688   0.378   3.837  1.1297  1.1508  0.0797
 3466SOL     OW16743   4.936   3.115   7.871  0.2941 -0.8014  0.0333
 3466SOL    HW116744   4.923   3.204   7.839  0.0300 -1.4235 -1.6364
 3466SOL    HW216745   5.023   3.117   7.911  1.1803 -0.2781 -1.8178
 3467SOL     OW16746   2.649   0.550   6.432  0.5186 -0.2850 -0.2197
 3467SOL    HW116747   2.675   0.566   6.341 -0.9947  0.1919 -0.6021
 3467SOL    HW216748   2.672   0.631   6.478 -0.7760  0.3608 -0.6756
 3468SOL     OW16749   8.106   5.030   8.184  0.4217 -0.4851  0.5967
 3468SOL    HW116750   8.199   5.007   8.187  0.6543 -0.2415 -2.2561
 3468SOL    HW216751   8.067   4.966   8.124 -0.6748  1.0861 -0.4331
 3469SOL     OW16752   2.387   6.569   6.758 -0.1973  0.2086  0.0247
 3469SOL    HW116753   2.374   6.565   6.852  1.2090  2.1067  0.3690
 3469SOL    HW216754   2.299   6.582   6.722 -0.7069 -0.1917  1.0969
 3470SOL     OW16755   2.985   7.916   2.497  0.2528 -0.2220 -0.3866
 3470SOL    HW116756   2.998   7.944   2.407  0.2057 -0.5734 -0.5055
 3470SOL    HW216757   2.893   7.934   2.515 -0.1783 -1.6837 -0.9676
 3471SOL     OW16758   8.719   3.209   9.002 -0.8449 -0.4421  0.0131
 3471SOL    HW116759   8.701   3.150   9.075 -0.9813  0.6041  0.8555
 3471SOL    HW216760   8.657   3.184   8.934  0.9717 -3.1546 -0.8165
 3472SOL     OW16761   5.354   9.158   3.676 -0.0403 -0.5886 -0.0047
 3472SOL    HW116762   5.446   9.130   3.679 -0.3540 -1.6047  0.2466
 3472SOL    HW216763   5.344   9.216   3.751  0.1421 -1.2606  0.5420
 3473SOL     OW16764   3.022   2.907   5.124  0.3367  0.2025  0.5670
 3473SOL    HW116765   2.944   2.921   5.177  1.5122  0.8184  2.2576
 3473SOL    HW216766   3.051   2.995   5.100 -0.5819 -0.0813 -1.8411
 3474SOL     OW16767   6.994   1.876   4.326 -0.3165 -0.0441 -0.2346
 3474SOL    HW116768   7.064   1.939   4.306 -3.0982  3.1011 -0.9985
 3474SOL    HW216769   6.981   1.827   4.245 -0.7986  1.3416 -1.0265
 3475SOL     OW16770   1.475   5.607   3.805 -0.0059 -0.1150 -0.0244
 3475SOL    HW116771   1.495   5.695   3.774  0.1296 -0.6273 -1.4723
 3475SOL    HW216772   1.556   5.557   3.790 -0.3421 -0.6838  0.0060
 3476SOL     OW16773   8.840   3.026   4.216 -0.2602 -0.3793 -0.8705
 3476SOL    HW116774   8.926   3.010   4.255 -1.0597  1.3473  1.8909
 3476SOL    HW216775   8.785   3.055   4.289 -3.1213 -1.0084 -2.5936
 3477SOL     OW16776   2.993   7.418   2.695 -0.7513  0.3418  0.3874
 3477SOL    HW116777   2.950   7.423   2.780 -1.9383 -0.3634 -0.1418
 3477SOL    HW216778   3.041   7.500   2.688 -1.7274  1.0135  1.1788
 3478SOL     OW16779   5.321   5.334   8.643 -0.6532  0.0045 -0.9913
 3478SOL    HW116780   5.248   5.378   8.600 -1.0518 -0.1362 -0.4708
 3478SOL    HW216781   5.398   5.386   8.619 -1.1237  1.0320 -0.3385
 3479SOL     OW16782   3.983   3.158   8.052  0.0884 -0.6213  0.8516
 3479SOL    HW116783   4.029   3.209   7.985 -1.9177 -0.2146 -0.3123
 3479SOL    HW216784   4.036   3.168   8.131  2.7456 -1.3973 -0.7073
 3480SOL     OW16785   4.223   7.533   8.253  0.0158  0.2431 -0.0109
 3480SOL    HW116786   4.260   7.596   8.191 -1.5314  2.5217  1.2393
 3480SOL    HW216787   4.156   7.486   8.202 -0.0875  0.9136 -0.4990
 3481SOL     OW16788   4.678   0.412   1.452 -0.5540  0.2709 -0.0240
 3481SOL    HW116789   4.772   0.416   1.472 -0.7774 -0.8711  1.3832
 3481SOL    HW216790   4.675   0.404   1.356  0.8363 -0.6135 -0.0366
 3482SOL     OW16791   6.532   8.604   6.822 -0.0420 -0.3025  0.3699
 3482SOL    HW116792   6.589   8.601   6.899 -1.1509  1.0201  1.2798
 3482SOL    HW216793   6.456   8.550   6.846 -0.5426  0.3769  0.3590
 3483SOL     OW16794   6.734   6.150   8.066  0.4938  0.5360 -0.6285
 3483SOL    HW116795   6.751   6.227   8.120  0.9398  0.4957 -0.7072
 3483SOL    HW216796   6.738   6.182   7.976  0.3166  0.4899 -0.6539
 3484SOL     OW16797   8.678   6.345   4.627 -0.0095 -0.3316 -0.3841
 3484SOL    HW116798   8.744   6.276   4.615  2.2032  1.6548 -0.3578
 3484SOL    HW216799   8.681   6.364   4.721 -1.0079 -0.5607 -0.3010
 3485SOL     OW16800   7.993   0.843   7.105 -0.6082  0.1042  0.1393
 3485SOL    HW116801   7.992   0.906   7.033  1.3479 -0.9206 -0.8486
 3485SOL    HW216802   7.995   0.757   7.062 -2.4415 -0.6547  1.4554
 3486SOL     OW16803   2.856   5.554   4.610  0.3338 -0.6192  0.0558
 3486SOL    HW116804   2.823   5.472   4.575  1.2775 -0.3475 -1.5443
 3486SOL    HW216805   2.802   5.621   4.569  1.1045 -0.3217 -0.4897
 3487SOL     OW16806   6.653   6.051   1.457 -0.2186 -0.2286  0.1826
 3487SOL    HW116807   6.671   5.958   1.472 -0.5603 -0.1145  1.3890
 3487SOL    HW216808   6.563   6.053   1.426  0.3012 -0.4151 -1.4272
 3488SOL     OW16809   2.619   8.954   9.239  0.7006 -0.5244 -0.0340
 3488SOL    HW116810   2.597   8.957   9.146  0.8410 -1.0892 -0.0936
 3488SOL    HW216811   2.587   8.868   9.268  0.4841 -0.2729  0.4825
 3489SOL     OW16812   8.730   2.732   8.842 -0.4188 -0.0550  0.2281
 3489SOL    HW116813   8.779   2.770   8.915 -1.2201  0.5587  0.4651
 3489SOL    HW216814   8.797   2.699   8.783  0.3282  1.4988  0.1524
 3490SOL     OW16815   1.854   8.243   0.191 -1.2613 -0.3016 -0.2000
 3490SOL    HW116816   1.907   8.321   0.211 -1.2426 -0.5559  0.7972
 3490SOL    HW216817   1.919   8.174   0.176 -1.2950 -0.3627 -0.0606
 3491SOL     OW16818   1.691   6.348   4.758  0.5513  0.2082  0.0522
 3491SOL    HW116819   1.691   6.418   4.693  0.7534  1.0791  0.9616
 3491SOL    HW216820   1.681   6.268   4.707  0.8388  0.8528 -1.0553
 3492SOL     OW16821   1.485   2.444   1.915  0.1471 -0.5022 -0.3301
 3492SOL    HW116822   1.484   2.448   2.011 -0.9657 -0.9136 -0.3090
 3492SOL    HW216823   1.577   2.456   1.891  0.2040  1.4676  0.6944
 3493SOL     OW16824   3.532   6.950   5.486  0.0887  0.5513  0.8811
 3493SOL    HW116825   3.467   7.016   5.509 -0.2107  0.4032  0.4766
 3493SOL    HW216826   3.482   6.880   5.443  0.8332  1.7925 -2.3471
 3494SOL     OW16827   5.732   5.624   6.227  0.7969  0.1355  0.2899
 3494SOL    HW116828   5.663   5.656   6.285 -0.9557  0.6489 -1.9654
 3494SOL    HW216829   5.687   5.566   6.166  2.0461  1.5906 -2.1484
 3495SOL     OW16830   0.866   1.055   7.115  0.2603 -0.9617 -0.1546
 3495SOL    HW116831   0.770   1.054   7.120  0.3293 -1.6651  1.5873
 3495SOL    HW216832   0.888   0.984   7.056 -0.3014 -0.0941 -1.4623
 3496SOL     OW16833   4.092   0.974   3.447  0.0758 -0.2155 -0.0316
 3496SOL    HW116834   4.074   0.935   3.532 -0.4496 -0.8142 -0.4080
 3496SOL    HW216835   4.015   0.953   3.394  0.9479 -1.0076 -1.0416
 3497SOL     OW16836   4.692   3.537   8.625  0.7169 -0.3408  0.1842
 3497SOL    HW116837   4.615   3.564   8.575  0.2228  0.0715  1.1420
 3497SOL    HW216838   4.743   3.484   8.564 -0.8306 -1.4962 -0.1842
 3498SOL     OW16839   0.224   1.494   3.319 -0.1298 -0.0741  0.2200
 3498SOL    HW116840   0.289   1.560   3.293 -0.0510  0.1597  0.9624
 3498SOL    HW216841   0.258   1.461   3.403 -0.4362 -0.6941  0.0982
 3499SOL     OW16842   8.443   0.905   6.688 -0.4740  0.2127 -0.5425
 3499SOL    HW116843   8.388   0.828   6.700 -0.0774  0.0353  0.2072
 3499SOL    HW216844   8.393   0.977   6.727 -0.5558  0.2176 -0.6551
 3500SOL     OW16845   3.897   8.557   1.575 -0.3902  0.3251 -0.2190
 3500SOL    HW116846   3.894   8.627   1.510 -0.8384 -0.9423 -1.6178
 3500SOL    HW216847   3.808   8.556   1.612 -0.5037  0.2266 -0.4925
 3501SOL     OW16848   1.203   2.847   8.026  0.5710  0.3856 -0.5233
 3501SOL    HW116849   1.147   2.770   8.035 -0.6981  1.0115 -2.3956
 3501SOL    HW216850   1.221   2.875   8.116  0.0740 -1.3761  0.1644
 3502SOL     OW16851   0.159   9.035   2.945 -0.5513 -0.2879  0.6006
 3502SOL    HW116852   0.212   8.972   2.897  0.1071 -0.9304  2.0886
 3502SOL    HW216853   0.070   9.002   2.941 -1.1256  1.2817 -2.7236
 3503SOL     OW16854   1.078   8.285   0.573 -0.1931  0.6384  0.3525
 3503SOL    HW116855   1.151   8.294   0.512 -0.9847  0.0676 -0.7011
 3503SOL    HW216856   1.017   8.355   0.549 -0.2123  0.8302  0.9322
 3504SOL     OW16857   6.880   6.831   8.825  0.5945 -0.5790  0.8435
 3504SOL    HW116858   6.831   6.866   8.750  1.1160 -2.1453 -0.2904
 3504SOL    HW216859   6.819   6.770   8.867  0.4797 -0.0839  1.4146
 3505SOL     OW16860   4.709   5.116   6.939  0.3949  0.2842 -0.2088
 3505SOL    HW116861   4.787   5.124   6.995 -0.2361  2.7462  0.4660
 3505SOL    HW216862   4.652   5.056   6.987  1.4457 -0.7133 -0.1801
 3506SOL     OW16863   9.067   8.734   2.379 -0.1459 -0.4328 -0.0119
 3506SOL    HW116864   9.080   8.772   2.293 -1.8795 -0.6194 -0.4060
 3506SOL    HW216865   9.152   8.741   2.422  0.9796 -1.1035 -2.0198
 3507SOL     OW16866   7.592   3.498   0.376  0.0548  0.2000 -0.2700
 3507SOL    HW116867   7.521   3.471   0.434 -0.8583  0.0631 -1.4034
 3507SOL    HW216868   7.671   3.460   0.415 -0.7685 -1.4022 -0.0591
 3508SOL     OW16869   7.492   2.504   4.431  0.2243  0.4210 -0.2248
 3508SOL    HW116870   7.409   2.496   4.477  0.0317 -2.2225 -0.8701
 3508SOL    HW216871   7.551   2.545   4.494 -0.6934 -0.7415  1.4592
 3509SOL     OW16872   4.557   6.229   8.548  0.2581  0.5624  0.5510
 3509SOL    HW116873   4.613   6.248   8.623  1.8809  1.4797 -0.8251
 3509SOL    HW216874   4.581   6.296   8.483 -0.4837 -0.6965 -1.0796
 3510SOL     OW16875   3.091   4.289   7.188  0.0726  0.4980  0.0549
 3510SOL    HW116876   3.032   4.346   7.139 -0.3030  0.4835  0.4766
 3510SOL    HW216877   3.034   4.223   7.226  0.2905  0.7380  0.8321
 3511SOL     OW16878   0.643   4.388   2.930  0.2692  0.1538 -0.5600
 3511SOL    HW116879   0.623   4.481   2.922 -0.3950 -0.0697 -1.6841
 3511SOL    HW216880   0.647   4.372   3.024  1.8979  1.6168 -0.3309
 3512SOL     OW16881   2.183   1.604   0.759  0.3858 -0.0018  0.2743
 3512SOL    HW116882   2.246   1.659   0.713  0.1149  0.8624  0.9055
 3512SOL    HW216883   2.131   1.563   0.689  3.0729 -2.5962 -0.3861
 3513SOL     OW16884   2.886   5.828   4.776  0.6184 -0.1784 -0.6627
 3513SOL    HW116885   2.862   5.749   4.727  0.5084 -0.0258 -0.8582
 3513SOL    HW216886   2.894   5.896   4.708  0.5426  0.0159 -0.4765
 3514SOL     OW16887   2.185   8.033   8.677 -0.0958  0.0588 -0.0013
 3514SOL    HW116888   2.150   7.967   8.617  0.6441  0.7099 -1.1997
 3514SOL    HW216889   2.137   8.113   8.656  0.4464  0.3878 -0.0104
 3515SOL     OW16890   0.966   1.100   7.358  0.0829  0.1275 -0.2170
 3515SOL    HW116891   0.962   1.196   7.365  0.2562  0.2482 -1.4849
 3515SOL    HW216892   0.951   1.083   7.265  0.2167 -1.0762 -0.0288
 3516SOL     OW16893   1.846   2.730   7.058 -0.2036  0.8659 -0.0504
 3516SOL    HW116894   1.882   2.695   6.977  1.1023  1.1436  0.3919
 3516SOL    HW216895   1.817   2.653   7.107  0.6183  0.5618 -0.0319
 3517SOL     OW16896   5.380   2.587   1.248  0.2992 -0.1584 -0.6753
 3517SOL    HW116897   5.309   2.560   1.189 -0.7925  1.6057 -0.2412
 3517SOL    HW216898   5.339   2.592   1.334  1.7310 -2.0745  0.1849
 3518SOL     OW16899   2.537   6.384   0.115  0.3021  0.5298 -0.5704
 3518SOL    HW116900   2.507   6.469   0.145 -1.0889 -0.2509  0.3438
 3518SOL    HW216901   2.471   6.356   0.051  0.1120 -0.3541 -0.0014
 3519SOL     OW16902   1.565   2.686   5.615  1.0135  0.0738  0.0418
 3519SOL    HW116903   1.533   2.708   5.702 -1.5656  0.9510 -1.0350
 3519SOL    HW216904   1.495   2.713   5.556  2.5324 -0.7878 -2.3034
 3520SOL     OW16905   0.151   5.660   2.756  0.1487  0.1213  0.0145
 3520SOL    HW116906   0.218   5.639   2.822 -0.8140 -1.8683  0.4291
 3520SOL    HW216907   0.075   5.610   2.783 -1.3413  1.8427 -0.8146
 3521SOL     OW16908   3.755   5.622   2.846  0.1828 -0.5758 -0.9327
 3521SOL    HW116909   3.764   5.528   2.830  1.1534 -0.9030  1.1974
 3521SOL    HW216910   3.837   5.659   2.814  0.5818 -0.7202 -0.0869
 3522SOL     OW16911   6.307   8.941   0.842  0.5380 -0.0133  0.1126
 3522SOL    HW116912   6.321   8.872   0.907 -0.9205 -0.9907 -0.5597
 3522SOL    HW216913   6.314   8.897   0.758 -1.3405  0.4140 -0.3255
 3523SOL     OW16914   2.525   6.495   3.386 -0.0697  0.1428 -0.7440
 3523SOL    HW116915   2.523   6.588   3.364  0.3944  0.4189  0.3069
 3523SOL    HW216916   2.452   6.457   3.338  0.1528  0.9255 -1.7182
 3524SOL     OW16917   7.478   1.394   3.035  0.4494 -0.1993  0.5352
 3524SOL    HW116918   7.461   1.488   3.047 -0.3897 -0.4674  1.5235
 3524SOL    HW216919   7.487   1.384   2.940 -0.3290  0.7363  0.3453
 3525SOL     OW16920   2.982   2.920   6.222  0.1218  0.3667  0.9088
 3525SOL    HW116921   3.007   3.012   6.222  0.8631  0.1692  1.0712
 3525SOL    HW216922   2.947   2.905   6.134  1.9776  0.2948  0.1236
 3526SOL     OW16923   1.325   5.862   3.596 -0.0281 -0.2072 -0.1358
 3526SOL    HW116924   1.413   5.888   3.622 -0.0760  1.0028 -1.0975
 3526SOL    HW216925   1.282   5.837   3.678  1.3325 -1.2593  0.2781
 3527SOL     OW16926   6.107   2.323   2.976  0.0422  0.5391 -0.0393
 3527SOL    HW116927   6.036   2.282   2.926  2.1919 -1.1278 -1.9290
 3527SOL    HW216928   6.120   2.265   3.050  0.2471  0.1771 -0.3593
 3528SOL     OW16929   5.307   6.276   6.962  0.0776  0.3145 -0.1033
 3528SOL    HW116930   5.213   6.271   6.982 -0.2120 -3.1634 -1.6880
 3528SOL    HW216931   5.310   6.312   6.874  0.2413  0.5383 -0.0052
 3529SOL     OW16932   7.713   9.226   4.680  0.3439  0.3498  0.1180
 3529SOL    HW116933   7.671   9.295   4.732  0.0662 -0.6911  1.3064
 3529SOL    HW216934   7.799   9.214   4.720  0.6639  0.4571 -0.5140
 3530SOL     OW16935   8.958   0.156   4.322 -0.5410  0.5719  0.0900
 3530SOL    HW116936   8.915   0.138   4.405 -0.1682 -1.5361 -0.1176
 3530SOL    HW216937   9.051   0.139   4.339 -0.5862 -0.9567 -0.9882
 3531SOL     OW16938   7.220   5.083   6.977 -0.2064 -0.5303  0.1224
 3531SOL    HW116939   7.194   5.002   7.021 -2.6643 -0.4539 -1.0379
 3531SOL    HW216940   7.203   5.152   7.040  2.8559 -0.8598  1.5077
 3532SOL     OW16941   4.180   7.162   8.620 -0.1982 -0.2475  0.1098
 3532SOL    HW116942   4.247   7.096   8.636  2.3210  2.6574  2.7624
 3532SOL    HW216943   4.165   7.158   8.525  1.3972 -3.0583 -0.1359
 3533SOL     OW16944   6.748   2.754   5.369 -0.4930 -0.1785 -0.2050
 3533SOL    HW116945   6.662   2.722   5.397 -0.6675  0.9031  0.5726
 3533SOL    HW216946   6.799   2.674   5.352 -1.6419 -0.8316 -0.6959
 3534SOL     OW16947   1.230   4.216   9.146 -0.0465 -0.2787 -0.5477
 3534SOL    HW116948   1.320   4.194   9.124  0.3460  2.0790 -1.5527
 3534SOL    HW216949   1.185   4.223   9.061 -0.8781 -0.2463 -0.1212
 3535SOL     OW16950   4.435   7.806   5.719  0.4849 -0.3158 -0.2306
 3535SOL    HW116951   4.514   7.774   5.675 -1.1949 -3.9004 -0.9820
 3535SOL    HW216952   4.394   7.728   5.755 -3.0129  1.2745 -0.3421
 3536SOL     OW16953   4.828   0.023   8.274  0.0722 -0.2973  0.4622
 3536SOL    HW116954   4.900   0.038   8.213  0.8422 -1.2647  1.0968
 3536SOL    HW216955   4.801  -0.068   8.257  0.9579 -0.9300  2.1807
 3537SOL     OW16956   4.721   5.011   8.821 -0.2806  0.5872  0.0820
 3537SOL    HW116957   4.724   5.030   8.727  3.2775  2.5630  0.4090
 3537SOL    HW216958   4.716   5.097   8.863  0.9771 -0.0485  1.6535
 3538SOL     OW16959   8.985   0.481   1.305 -0.5195  0.5113 -0.7788
 3538SOL    HW116960   8.931   0.415   1.261  0.0701  0.8828 -2.1140
 3538SOL    HW216961   8.934   0.506   1.382 -1.1183 -0.9170 -0.6668
 3539SOL     OW16962   6.135   7.731   7.487 -0.2184  0.2798  0.0954
 3539SOL    HW116963   6.083   7.651   7.483  0.4665 -0.1739  0.1413
 3539SOL    HW216964   6.205   7.711   7.550 -0.5241  1.1976  0.7546
 3540SOL     OW16965   6.370   5.217   2.542  0.5475  0.0084  0.6570
 3540SOL    HW116966   6.346   5.127   2.520  2.3145 -0.5632  0.9561
 3540SOL    HW216967   6.335   5.231   2.630 -1.9145  0.5223 -0.2929
 3541SOL     OW16968   6.848   5.533   0.529 -0.2728 -0.3386 -0.4969
 3541SOL    HW116969   6.813   5.573   0.609 -0.7276 -0.7165 -0.5062
 3541SOL    HW216970   6.943   5.541   0.539 -0.3439  0.3643 -0.3015
 3542SOL     OW16971   5.428   0.755   0.813 -0.0018  0.8699  0.0927
 3542SOL    HW116972   5.402   0.664   0.799 -2.2917  1.2820  1.1511
 3542SOL    HW216973   5.523   0.756   0.799 -0.1051 -1.3953 -1.1956
 3543SOL     OW16974   1.859   6.692   8.371  0.5086 -0.0595  0.2165
 3543SOL    HW116975   1.869   6.739   8.454 -1.0680  0.6774  0.0205
 3543SOL    HW216976   1.804   6.750   8.317 -1.0325 -1.8590 -0.2372
 3544SOL     OW16977   8.799   1.132   1.097  0.4013 -0.4233  0.2337
 3544SOL    HW116978   8.846   1.215   1.108 -1.4263  0.5102  1.5898
 3544SOL    HW216979   8.809   1.088   1.182 -1.5034  0.0272  0.7362
 3545SOL     OW16980   4.799   6.673   0.667  0.1527  0.1833  0.1851
 3545SOL    HW116981   4.789   6.638   0.579 -1.4764  2.8383 -0.8226
 3545SOL    HW216982   4.821   6.597   0.721 -0.7765 -1.8858 -2.1447
 3546SOL     OW16983   8.236   2.117   8.258  0.0221  0.5937 -0.0775
 3546SOL    HW116984   8.241   2.155   8.171  1.9927 -0.7753 -0.6242
 3546SOL    HW216985   8.286   2.035   8.252 -0.1276  0.2621  2.2282
 3547SOL     OW16986   1.590   3.892   5.711  0.2775 -0.3963  0.5620
 3547SOL    HW116987   1.543   3.952   5.653  0.8463 -0.5910 -0.1183
 3547SOL    HW216988   1.527   3.868   5.778 -0.3241  0.0114  0.1488
 3548SOL     OW16989   4.502   0.137   5.733  0.1530 -0.8930  0.4990
 3548SOL    HW116990   4.490   0.058   5.784 -0.2341 -1.6983 -0.7837
 3548SOL    HW216991   4.413   0.173   5.723  0.3477 -0.1712  1.2388
 3549SOL     OW16992   8.500   6.697   1.509 -1.0542  0.0356  0.3473
 3549SOL    HW116993   8.579   6.737   1.546 -0.5801 -0.8206  0.2699
 3549SOL    HW216994   8.528   6.611   1.478 -1.8222  0.0608 -0.4771
 3550SOL     OW16995   1.101   0.976   1.268 -0.2973 -0.2938  0.5241
 3550SOL    HW116996   1.141   0.962   1.354 -0.8106  1.2209  1.0524
 3550SOL    HW216997   1.011   0.945   1.279 -0.5257  0.4141  0.7284
 3551SOL     OW16998   4.716   4.579   5.635 -0.1620 -0.3477 -0.3706
 3551SOL    HW116999   4.722   4.674   5.627 -2.8988  0.0363  1.2141
 3551SOL    HW217000   4.717   4.562   5.729 -1.6477 -1.6782 -0.5517
 3552SOL     OW17001   2.177   8.458   4.656  0.4128  0.5766 -0.0944
 3552SOL    HW117002   2.124   8.416   4.723  1.3622 -0.1975  0.2003
 3552SOL    HW217003   2.265   8.424   4.670  0.7459  0.8342 -1.3839
 3553SOL     OW17004   6.131   2.408   6.573 -0.8380  0.1448  0.1343
 3553SOL    HW117005   6.144   2.428   6.480  1.0171  1.3033  0.5973
 3553SOL    HW217006   6.139   2.312   6.577 -1.1082  0.0561 -0.8978
 3554SOL     OW17007   4.862   3.035   4.077  0.3609  0.2772  0.8539
 3554SOL    HW117008   4.826   3.119   4.106  1.5224  0.7168  1.0410
 3554SOL    HW217009   4.786   2.976   4.075 -0.3111  1.0984  1.5736
 3555SOL     OW17010   2.622   6.880   3.555 -0.4191  0.6251  0.1120
 3555SOL    HW117011   2.573   6.822   3.498 -0.9798  0.4451  0.7639
 3555SOL    HW217012   2.664   6.942   3.496 -1.9741  1.2019 -0.4396
 3556SOL     OW17013   2.523   7.154   5.430 -0.2801  0.4872  0.3604
 3556SOL    HW117014   2.522   7.236   5.381 -1.4681 -0.2411 -0.8749
 3556SOL    HW217015   2.439   7.113   5.412 -0.8990  0.2765  3.2086
 3557SOL     OW17016   6.787   5.137   7.495 -0.1042  0.4317 -0.0476
 3557SOL    HW117017   6.786   5.154   7.589  0.4831 -2.0851  0.4975
 3557SOL    HW217018   6.696   5.119   7.472  0.0603 -1.8603  0.7514
 3558SOL     OW17019   5.793   7.401   8.225 -0.1235  0.3783 -0.3605
 3558SOL    HW117020   5.807   7.496   8.230  1.9617  0.0504  1.2228
 3558SOL    HW217021   5.700   7.390   8.244 -1.5838  2.3215 -4.9276
 3559SOL     OW17022   3.284   6.434   6.356 -0.1403  0.2151 -0.2407
 3559SOL    HW117023   3.305   6.493   6.428 -0.2460  0.2480 -0.2366
 3559SOL    HW217024   3.190   6.444   6.343 -0.3369 -0.6866  0.4139
 3560SOL     OW17025   1.089   3.661   7.395  0.0684 -0.1685  0.1432
 3560SOL    HW117026   1.048   3.724   7.335 -0.7995 -2.3086 -1.6433
 3560SOL    HW217027   1.100   3.710   7.477 -1.1246  2.0921 -0.9368
 3561SOL     OW17028   5.830   8.901   8.767  0.8993  0.6804  0.2091
 3561SOL    HW117029   5.783   8.980   8.740  1.6391  1.1121  0.1796
 3561SOL    HW217030   5.887   8.930   8.838 -0.1282 -0.1937  1.4471
 3562SOL     OW17031   5.323   7.179   4.329  0.2175  0.1311 -0.2225
 3562SOL    HW117032   5.288   7.251   4.382 -0.0156 -0.6493  0.7079
 3562SOL    HW217033   5.255   7.112   4.331  1.1004 -0.7766  0.2920
 3563SOL     OW17034   5.661   6.316   8.239 -0.0776 -0.5846 -0.2136
 3563SOL    HW117035   5.590   6.364   8.282 -0.3165 -0.8979 -0.2440
 3563SOL    HW217036   5.716   6.285   8.311  0.4207  0.2571 -0.2331
 3564SOL     OW17037   3.836   7.094   5.072  0.3061 -0.3114  0.1965
 3564SOL    HW117038   3.839   7.088   5.167 -0.1388  0.0115  0.2374
 3564SOL    HW217039   3.829   7.004   5.042  0.5657 -0.4201  0.4640
 3565SOL     OW17040   0.325   7.315   4.135 -0.5313 -0.1648 -0.4226
 3565SOL    HW117041   0.284   7.366   4.065 -0.6674 -0.0611 -0.2674
 3565SOL    HW217042   0.256   7.302   4.199 -0.0535  0.9487  0.3586
 3566SOL     OW17043   1.813   0.348   4.606 -0.1123 -0.0380 -0.3408
 3566SOL    HW117044   1.836   0.410   4.537 -1.5773 -0.8484 -1.6345
 3566SOL    HW217045   1.717   0.350   4.610 -0.0785  0.0067  1.7321
 3567SOL     OW17046   2.780   4.695   8.974 -0.1340  0.0658 -0.5222
 3567SOL    HW117047   2.850   4.662   9.030 -0.0553 -1.6382 -1.5378
 3567SOL    HW217048   2.824   4.730   8.897 -0.3481 -0.3135 -0.8238
 3568SOL     OW17049   1.782   8.200   0.800 -0.4736  0.0016 -0.9275
 3568SOL    HW117050   1.729   8.191   0.879  1.1988  0.5653  0.3196
 3568SOL    HW217051   1.755   8.284   0.763 -0.3054  0.4043 -0.1647
 3569SOL     OW17052   6.472   7.381   4.721  0.4334 -0.1322  0.2082
 3569SOL    HW117053   6.561   7.360   4.750 -0.3261 -1.3892  1.7924
 3569SOL    HW217054   6.482   7.405   4.629  2.3666 -0.5058  0.2762
 3570SOL     OW17055   7.882   1.329   6.390  0.3054 -0.1423 -0.1354
 3570SOL    HW117056   7.930   1.383   6.452  0.2420  0.2016 -0.3784
 3570SOL    HW217057   7.789   1.349   6.407  0.2431 -0.8418  0.3673
 3571SOL     OW17058   0.907   8.193   9.231 -0.4663  0.0462 -0.0688
 3571SOL    HW117059   0.980   8.254   9.227  0.1249 -0.6638 -0.2468
 3571SOL    HW217060   0.890   8.168   9.140  0.0693 -0.9502  0.0932
 3572SOL     OW17061   5.301   1.719   1.671  0.1833  0.1096 -0.4162
 3572SOL    HW117062   5.212   1.689   1.656  0.2240  0.2499 -0.9566
 3572SOL    HW217063   5.337   1.658   1.736 -0.0202 -0.4691 -0.8441
 3573SOL     OW17064   9.169   1.356   6.886  0.5902  0.4088  0.0011
 3573SOL    HW117065   9.135   1.355   6.797  1.1663  2.4364 -0.2823
 3573SOL    HW217066   9.257   1.319   6.879  0.5782  0.4269 -0.2450
 3574SOL     OW17067   1.681   5.606   4.883  0.4734 -0.3862 -0.8241
 3574SOL    HW117068   1.664   5.575   4.794  0.5997 -1.6599 -0.4195
 3574SOL    HW217069   1.721   5.531   4.927 -2.5922 -0.9725  1.2839
 3575SOL     OW17070   1.946   7.779   2.613  0.0935  0.0056  0.0611
 3575SOL    HW117071   1.942   7.685   2.630 -1.5012 -0.0216 -0.2344
 3575SOL    HW217072   1.966   7.786   2.519 -0.7322 -0.0874 -0.1346
 3576SOL     OW17073   2.929   7.816   6.750  0.4697 -1.2315  0.4846
 3576SOL    HW117074   2.914   7.856   6.664  1.6658  0.1668  0.8944
 3576SOL    HW217075   2.891   7.728   6.742 -0.3384 -0.7768 -1.1328
 3577SOL     OW17076   3.588   4.887   0.443  0.3354 -0.1255 -0.2482
 3577SOL    HW117077   3.681   4.907   0.433  0.2399 -0.4009 -2.0592
 3577SOL    HW217078   3.586   4.798   0.476  0.7035  0.3563  1.1373
 3578SOL     OW17079   5.358   4.941   4.975  0.1291  0.0569  0.3340
 3578SOL    HW117080   5.283   4.941   5.035 -1.9026 -1.1973 -2.0266
 3578SOL    HW217081   5.339   5.010   4.912  0.0118 -1.4148 -1.3225
 3579SOL     OW17082   6.603   1.017   8.266 -0.4569  0.0267 -0.0584
 3579SOL    HW117083   6.559   1.005   8.350  1.5408  2.0139  1.3901
 3579SOL    HW217084   6.659   0.939   8.256 -2.3679 -1.3435 -0.7709
 3580SOL     OW17085   4.716   2.519   4.562 -0.1482  0.6170 -0.0049
 3580SOL    HW117086   4.709   2.428   4.533  1.1438  0.5153 -0.0638
 3580SOL    HW217087   4.772   2.515   4.640  1.2853  1.5151 -0.9441
 3581SOL     OW17088   2.080   8.340   6.066  0.1131  0.0573  0.5694
 3581SOL    HW117089   2.122   8.424   6.049  0.1907  0.0970  0.9596
 3581SOL    HW217090   2.130   8.277   6.013 -0.6240  0.4154 -0.5730
 3582SOL     OW17091   8.142   5.225   6.693  0.1165  0.2937 -0.6158
 3582SOL    HW117092   8.134   5.307   6.743 -4.2461 -0.8856  1.1016
 3582SOL    HW217093   8.110   5.248   6.606  1.4270  0.9155 -0.9610
 3583SOL     OW17094   5.877   1.984   9.126 -0.5122 -1.0459  0.2747
 3583SOL    HW117095   5.864   1.896   9.092  0.1518 -0.5483 -1.4055
 3583SOL    HW217096   5.841   1.982   9.214 -2.6286 -2.3736 -0.5396
 3584SOL     OW17097   2.462   5.326   4.918  0.2618  0.1698 -0.5274
 3584SOL    HW117098   2.497   5.378   4.990 -1.4854 -0.2998  0.7043
 3584SOL    HW217099   2.541   5.294   4.873  1.3938  2.9274 -0.7150
 3585SOL     OW17100   1.023   0.477   1.790  0.6227  0.5623 -0.1157
 3585SOL    HW117101   1.071   0.541   1.842  0.8816  0.5385 -0.3190
 3585SOL    HW217102   0.938   0.517   1.773  0.5408  0.5750  0.3132
 3586SOL     OW17103   2.128   7.224   2.785  0.1115  0.2900 -0.3432
 3586SOL    HW117104   2.111   7.279   2.861  1.7740 -0.1136  0.3710
 3586SOL    HW217105   2.209   7.259   2.748 -0.1370 -0.1509 -1.3256
 3587SOL     OW17106   4.624   2.005   0.489 -0.2079  0.4531  0.1230
 3587SOL    HW117107   4.571   1.925   0.489 -0.0589  0.3395 -1.2994
 3587SOL    HW217108   4.630   2.029   0.582 -1.6554 -0.2450  0.4252
 3588SOL     OW17109   5.212   0.535   7.186  0.0364 -0.6073  0.2042
 3588SOL    HW117110   5.170   0.609   7.231  0.1287  0.6562 -1.6529
 3588SOL    HW217111   5.185   0.458   7.235  1.7025  0.7435  3.6391
 3589SOL     OW17112   2.603   5.740   6.010 -0.2984 -0.0589 -0.5716
 3589SOL    HW117113   2.680   5.688   5.989  0.6004  0.7313  0.5947
 3589SOL    HW217114   2.632   5.831   6.002 -1.1922  0.2512 -0.4331
 3590SOL     OW17115   3.252   1.087   3.645  0.1235  0.3081  0.3088
 3590SOL    HW117116   3.298   1.148   3.703  1.6920  0.3608 -0.9144
 3590SOL    HW217117   3.296   1.003   3.660 -0.2722  0.0587  0.0826
 3591SOL     OW17118   0.208   1.699   9.096 -0.1431  0.0918 -0.0599
 3591SOL    HW117119   0.135   1.723   9.153 -0.8854 -1.1379 -0.4396
 3591SOL    HW217120   0.180   1.727   9.009  0.6290  1.2198  0.0373
 3592SOL     OW17121   0.280   5.511   1.623  0.3689 -0.5038  0.2549
 3592SOL    HW117122   0.354   5.510   1.563  0.9317  1.2856  0.8365
 3592SOL    HW217123   0.272   5.603   1.649 -1.8301 -0.7147  0.5053
 3593SOL     OW17124   3.779   5.918   6.246 -0.5206  0.1539  0.4125
 3593SOL    HW117125   3.730   5.995   6.273 -1.3768 -0.4910  0.7129
 3593SOL    HW217126   3.864   5.953   6.219 -1.4433  1.4140 -1.0506
 3594SOL     OW17127   6.608   4.414   2.711 -0.2696 -0.4920 -0.5009
 3594SOL    HW117128   6.533   4.397   2.654 -1.6847 -2.8493  1.8415
 3594SOL    HW217129   6.570   4.442   2.794  1.6186  0.9664 -0.0580
 3595SOL     OW17130   7.184   1.521   2.228 -0.0517 -0.7574  0.4445
 3595SOL    HW117131   7.227   1.544   2.310 -0.4694  1.4372  0.0945
 3595SOL    HW217132   7.100   1.567   2.230  0.3298  0.1678 -1.5863
 3596SOL     OW17133   4.225   5.413   7.956  0.8250  0.5972  0.1215
 3596SOL    HW117134   4.147   5.362   7.975  1.7752 -0.5242  1.1999
 3596SOL    HW217135   4.229   5.479   8.025  0.5297  1.0309 -0.2701
 3597SOL     OW17136   0.852   7.179   2.107  0.3522  0.0341  0.0289
 3597SOL    HW117137   0.821   7.112   2.169 -0.0596 -0.2771 -0.5134
 3597SOL    HW217138   0.843   7.261   2.155 -0.5944 -0.1316  0.1565
 3598SOL     OW17139   3.995   2.973   9.144  0.4124 -0.3558  0.4545
 3598SOL    HW117140   4.073   2.937   9.100 -0.4249 -1.8189  0.1077
 3598SOL    HW217141   3.983   3.058   9.103 -0.0998 -1.4893 -1.9516
 3599SOL     OW17142   7.523   4.474   0.584 -0.4661 -0.7573 -0.0218
 3599SOL    HW117143   7.484   4.521   0.658 -2.1953  0.1987 -1.4549
 3599SOL    HW217144   7.597   4.427   0.622 -0.2286  1.0764  1.9815
 3600SOL     OW17145   3.758   9.208   0.104  0.0757  0.0958 -1.1799
 3600SOL    HW117146   3.698   9.205   0.179  0.5902  2.6663 -0.5674
 3600SOL    HW217147   3.833   9.155   0.132 -0.0035  0.5214 -0.0912
 3601SOL     OW17148   0.011   2.050   8.817  0.5091 -0.1730 -0.1772
 3601SOL    HW117149  -0.073   2.091   8.835 -0.0926 -1.4673  0.0447
 3601SOL    HW217150   0.074   2.100   8.870  0.2348  2.0440 -1.8196
 3602SOL     OW17151   7.826   5.206   6.967  0.2583  0.2585  0.8258
 3602SOL    HW117152   7.788   5.293   6.976 -3.5231 -1.0924 -0.1754
 3602SOL    HW217153   7.817   5.167   7.054  0.5403  0.3685  0.9039
 3603SOL     OW17154   8.572   7.596   8.302  0.2173  0.2268 -0.0188
 3603SOL    HW117155   8.547   7.602   8.210 -1.8014  1.9610  0.5582
 3603SOL    HW217156   8.494   7.562   8.346  1.2358 -0.8307  1.0511
 3604SOL     OW17157   3.679   3.883   7.953 -0.7572  0.2160  0.3523
 3604SOL    HW117158   3.774   3.886   7.937 -0.6322 -1.1865  0.7136
 3604SOL    HW217159   3.646   3.963   7.912  0.3261 -0.2072 -1.4946
 3605SOL     OW17160   7.027   8.830   4.479 -0.0670 -0.5165  0.3425
 3605SOL    HW117161   6.971   8.762   4.515 -0.2454 -0.1423  0.7827
 3605SOL    HW217162   7.108   8.825   4.531 -0.7878  0.8398  1.6698
 3606SOL     OW17163   5.342   3.201   8.365  0.1280  0.3400 -0.0067
 3606SOL    HW117164   5.292   3.181   8.285  0.6326 -0.2778 -0.1799
 3606SOL    HW217165   5.369   3.292   8.354  0.5041  0.1531 -0.7237
 3607SOL     OW17166   5.766   1.205   5.456  0.1301  0.2059 -0.4388
 3607SOL    HW117167   5.793   1.140   5.391  1.8713 -1.1364  1.4807
 3607SOL    HW217168   5.821   1.281   5.440  1.4178 -0.5688  0.1531
 3608SOL     OW17169   1.298   8.534   2.961  0.0638 -0.4716 -0.0732
 3608SOL    HW117170   1.224   8.556   2.904  0.8852 -1.7628 -1.7220
 3608SOL    HW217171   1.328   8.618   2.994 -0.2016  0.3928 -1.8824
 3609SOL     OW17172   0.804   7.425   2.187  0.6507  0.2701 -0.1065
 3609SOL    HW117173   0.880   7.468   2.149  1.5341  0.0027  1.2759
 3609SOL    HW217174   0.730   7.479   2.161  1.3771  0.8358 -1.0320
 3610SOL     OW17175   1.891   5.764   4.844  0.3655 -0.2985 -0.2716
 3610SOL    HW117176   1.835   5.740   4.918  0.8850  1.5767  0.7927
 3610SOL    HW217177   1.894   5.685   4.790 -2.4422 -0.8004  0.1373
 3611SOL     OW17178   8.414   0.787   3.573  0.5066  0.3517  0.4896
 3611SOL    HW117179   8.361   0.788   3.653  0.7235  1.4140  0.6408
 3611SOL    HW217180   8.382   0.712   3.523  0.0223 -0.0214  1.3427
 3612SOL     OW17181   1.243   4.227   4.386  0.8377 -0.0157 -0.0005
 3612SOL    HW117182   1.201   4.278   4.456  1.8456  0.1934  0.4723
 3612SOL    HW217183   1.284   4.154   4.431 -0.0146 -0.8903 -0.6029
 3613SOL     OW17184   1.113   3.065   3.410 -0.3097 -1.2222  0.3214
 3613SOL    HW117185   1.073   3.036   3.327  2.9482  0.2736 -1.9948
 3613SOL    HW217186   1.156   2.987   3.445 -0.7071 -1.6081 -0.0458
 3614SOL     OW17187   0.364   1.555   0.280  0.2148 -0.4416 -0.0651
 3614SOL    HW117188   0.307   1.602   0.340  1.4442  0.5759  0.3470
 3614SOL    HW217189   0.430   1.515   0.336  1.7911  1.0890 -0.7414
 3615SOL     OW17190   3.791   0.582   1.128 -0.6549  0.5387 -0.4434
 3615SOL    HW117191   3.715   0.531   1.101 -1.0739  0.1964  1.2626
 3615SOL    HW217192   3.791   0.658   1.070 -2.2501  0.4872 -0.5587
 3616SOL     OW17193   4.586   4.347   2.907 -0.1795  0.2321  0.1578
 3616SOL    HW117194   4.649   4.321   2.840 -0.7108 -0.6021 -0.0355
 3616SOL    HW217195   4.615   4.301   2.986 -0.6861 -0.3521  0.0056
 3617SOL     OW17196   4.482   8.332   6.363  0.6596 -0.5219 -0.1156
 3617SOL    HW117197   4.493   8.264   6.296  0.2082 -1.4555  0.7292
 3617SOL    HW217198   4.482   8.414   6.314  1.9808 -1.0591 -1.0914
 3618SOL     OW17199   7.438   5.899   4.128  0.3866 -0.2400 -0.1583
 3618SOL    HW117200   7.521   5.854   4.118  1.3883  1.5442 -0.3552
 3618SOL    HW217201   7.448   5.951   4.208 -1.1472 -1.1737  0.7020
 3619SOL     OW17202   3.250   7.633   0.003 -0.0375  0.5946 -0.3400
 3619SOL    HW117203   3.169   7.647   0.051 -0.0088  1.0444 -0.4137
 3619SOL    HW217204   3.292   7.559   0.046 -0.4407  0.4229 -0.2420
 3620SOL     OW17205   4.885   0.531   0.149 -0.0011 -0.3667  0.3036
 3620SOL    HW117206   4.902   0.595   0.079 -1.9927  2.4324  2.1838
 3620SOL    HW217207   4.969   0.524   0.195  0.7294 -0.5547 -0.9796
 3621SOL     OW17208   0.488   5.760   3.772 -0.2318  0.4451 -0.0367
 3621SOL    HW117209   0.393   5.751   3.769 -0.1791 -0.7353  0.8703
 3621SOL    HW217210   0.516   5.698   3.840  1.1541  1.0329 -0.0252
 3622SOL     OW17211   1.928   7.792   5.393 -0.0952  0.4603  0.1760
 3622SOL    HW117212   1.931   7.712   5.446  0.6254  0.4774  0.1593
 3622SOL    HW217213   1.975   7.857   5.444  2.2536  0.0061 -1.2403
 3623SOL     OW17214   5.681   6.644   0.454 -0.1492 -0.2717  0.0552
 3623SOL    HW117215   5.605   6.593   0.480 -1.4669  2.0555  1.0988
 3623SOL    HW217216   5.649   6.734   0.448  1.8702  0.4104 -2.3714
 3624SOL     OW17217   8.286   0.964   1.655 -0.7300  0.0861  0.5056
 3624SOL    HW117218   8.329   0.959   1.570  0.8127  0.9405  1.2147
 3624SOL    HW217219   8.345   0.919   1.715 -0.8134  1.2412  1.4917
 3625SOL     OW17220   5.896   8.283   1.864 -0.4392  0.7614  0.8279
 3625SOL    HW117221   5.802   8.277   1.844 -0.3492 -1.3376  0.8692
 3625SOL    HW217222   5.935   8.319   1.784 -1.1033  0.2007  0.2373
 3626SOL     OW17223   0.985   2.111   7.296  0.1698  0.3811 -0.5880
 3626SOL    HW117224   1.016   2.085   7.209  1.3423  0.4993 -0.2175
 3626SOL    HW217225   0.931   2.038   7.325  3.4365 -1.8225  0.4724
 3627SOL     OW17226   6.878   0.337   8.429  0.1295  0.7170 -0.0098
 3627SOL    HW117227   6.834   0.329   8.344  1.3295 -1.8932 -0.5088
 3627SOL    HW217228   6.946   0.402   8.414 -0.6196  1.4044 -0.5694
 3628SOL     OW17229   5.714   3.215   2.463 -0.5754  0.1540 -0.3553
 3628SOL    HW117230   5.623   3.184   2.461 -0.2432 -0.8541 -0.3994
 3628SOL    HW217231   5.765   3.141   2.429  0.1070  1.2744 -1.9020
 3629SOL     OW17232   7.409   8.251   2.255 -0.5025  0.6163 -0.0666
 3629SOL    HW117233   7.383   8.234   2.165  0.9603  0.3196 -0.4609
 3629SOL    HW217234   7.434   8.343   2.256  0.6799  0.3118 -0.2923
 3630SOL     OW17235   7.998   0.962   6.844  0.0858 -0.3517 -0.1985
 3630SOL    HW117236   8.031   1.050   6.825  2.0413 -1.3064 -1.6537
 3630SOL    HW217237   7.934   0.945   6.776 -0.9082  0.2186  0.5714
 3631SOL     OW17238   0.851   4.636   3.295 -0.4011 -0.6425  0.0754
 3631SOL    HW117239   0.920   4.595   3.243 -2.3910 -1.8331 -1.8372
 3631SOL    HW217240   0.825   4.568   3.358 -0.9520 -0.8535 -0.3674
 3632SOL     OW17241   7.472   3.540   4.959  0.2935 -0.0126  0.3530
 3632SOL    HW117242   7.380   3.567   4.953 -0.0039 -0.7575  1.2537
 3632SOL    HW217243   7.520   3.604   4.907 -0.4650  1.7630  1.7342
 3633SOL     OW17244   6.245   8.409   3.276  0.1550  0.0382  0.0338
 3633SOL    HW117245   6.167   8.427   3.223 -0.4570 -0.2696  0.8160
 3633SOL    HW217246   6.234   8.319   3.306 -0.7392  0.9139  2.6629
 3634SOL     OW17247   1.169   4.831   3.172  0.1263  0.0565  0.2613
 3634SOL    HW117248   1.122   4.749   3.158 -1.1051  0.8485 -0.4585
 3634SOL    HW217249   1.142   4.859   3.259  1.4726 -0.8556  1.0086
 3635SOL     OW17250   1.535   2.123   2.572  0.1268  0.8290  0.2295
 3635SOL    HW117251   1.500   2.073   2.498  0.9442  2.2911 -1.1934
 3635SOL    HW217252   1.628   2.100   2.575  0.0484  0.5628  1.0131
 3636SOL     OW17253   0.676   8.389   6.979 -0.2768 -0.3014  0.0930
 3636SOL    HW117254   0.590   8.414   6.944 -1.2155 -2.0851  1.0028
 3636SOL    HW217255   0.672   8.294   6.988  2.3164 -0.6253 -1.1177
 3637SOL     OW17256   1.257   2.920   0.233  0.7336  0.4439 -0.1915
 3637SOL    HW117257   1.189   2.938   0.297 -0.0225  1.8773 -1.3384
 3637SOL    HW217258   1.225   2.959   0.152  2.6058  0.5415 -0.9331
 3638SOL     OW17259   9.214   3.343   0.309  0.6912 -0.1460  0.2145
 3638SOL    HW117260   9.284   3.278   0.303  0.4659 -0.2597 -2.1710
 3638SOL    HW217261   9.149   3.313   0.246  0.0148  1.7601 -0.0342
 3639SOL     OW17262   4.456   1.198   0.522  0.6093 -0.6158 -0.0982
 3639SOL    HW117263   4.509   1.145   0.581  3.0842  1.7682 -0.0251
 3639SOL    HW217264   4.518   1.255   0.478 -1.6420  0.5406 -2.0106
 3640SOL     OW17265   4.530   1.335   7.413 -0.2178 -0.2744  0.1011
 3640SOL    HW117266   4.469   1.351   7.486 -0.5748 -3.1270  0.5210
 3640SOL    HW217267   4.591   1.409   7.417 -0.9096  0.2672  2.5730
 3641SOL     OW17268   1.880   2.612   1.415 -0.5587  0.0493  0.0597
 3641SOL    HW117269   1.970   2.583   1.405 -0.4362 -0.2536  1.7411
 3641SOL    HW217270   1.876   2.695   1.369  0.3020 -0.4240 -0.8958
 3642SOL     OW17271   8.047   1.478   7.630  0.5848  0.3783  0.1037
 3642SOL    HW117272   8.092   1.548   7.677  1.0743  0.0463  0.1292
 3642SOL    HW217273   8.047   1.507   7.539 -0.9143  1.3211  0.3625
 3643SOL     OW17274   6.510   3.281   3.796  0.0367 -0.2322 -0.1003
 3643SOL    HW117275   6.581   3.345   3.800  0.4238 -0.6979  2.9081
 3643SOL    HW217276   6.430   3.335   3.795  0.3974  0.3145  0.0241
 3644SOL     OW17277   1.800   7.247   5.833  0.2234 -0.0300 -0.7484
 3644SOL    HW117278   1.829   7.331   5.869 -2.1827 -0.2441  1.9510
 3644SOL    HW217279   1.709   7.239   5.861  0.8493 -4.3475  0.6854
 3645SOL     OW17280   0.524   2.054   3.785  0.1218 -0.0217 -0.1666
 3645SOL    HW117281   0.490   1.974   3.826  0.6194  1.0047  2.4526
 3645SOL    HW217282   0.618   2.050   3.800  0.2256  0.7253 -0.5788
 3646SOL     OW17283   0.963   3.106   1.486  0.4688  0.2934 -0.0205
 3646SOL    HW117284   0.968   3.114   1.581 -0.9466  0.0821  0.0923
 3646SOL    HW217285   0.949   3.013   1.470  0.8103  0.3095 -0.4537
 3647SOL     OW17286   5.505   8.511   5.220  0.2228  0.0222 -0.3915
 3647SOL    HW117287   5.512   8.425   5.179 -1.6314 -0.6285  0.5506
 3647SOL    HW217288   5.488   8.571   5.148 -2.4491 -1.0173 -0.7316
 3648SOL     OW17289   5.448   1.619   6.595  0.1680  0.2732  0.1098
 3648SOL    HW117290   5.355   1.604   6.577  0.4980  0.3443 -1.7786
 3648SOL    HW217291   5.450   1.640   6.689 -1.6183 -0.4484  0.3634
 3649SOL     OW17292   4.948   5.263   8.248  0.0940  0.2834 -0.8220
 3649SOL    HW117293   5.005   5.203   8.198  0.8229  0.4996 -0.2606
 3649SOL    HW217294   4.862   5.221   8.245  1.1843 -2.6664  2.3957
 3650SOL     OW17295   1.649   6.221   7.961  0.1909  0.1437 -0.2887
 3650SOL    HW117296   1.710   6.158   7.924 -0.7081 -0.3143 -1.0687
 3650SOL    HW217297   1.573   6.217   7.903 -0.1348  1.5083 -0.0080
 3651SOL     OW17298   6.247   9.129   8.565  0.0463  0.0722 -0.1991
 3651SOL    HW117299   6.190   9.132   8.488  1.4480 -1.6775 -1.3929
 3651SOL    HW217300   6.330   9.094   8.532  1.2459  0.8355  1.8141
 3652SOL     OW17301   4.424   9.208   7.393  0.3173 -0.2572  0.1144
 3652SOL    HW117302   4.491   9.183   7.329  1.6439  0.2501  1.2761
 3652SOL    HW217303   4.365   9.133   7.395 -0.1247 -0.0599 -2.1305
 3653SOL     OW17304   2.305   4.308   4.296 -0.1713 -0.0263  0.3503
 3653SOL    HW117305   2.335   4.377   4.355  0.8560  1.3297 -1.6437
 3653SOL    HW217306   2.378   4.293   4.237 -1.6798 -0.1362 -1.5933
 3654SOL     OW17307   0.395   4.266   0.055 -0.4347 -0.1130 -0.2112
 3654SOL    HW117308   0.441   4.292   0.134 -2.2042 -1.1755  1.2482
 3654SOL    HW217309   0.449   4.196   0.017  0.3442  0.2969  0.1391
 3655SOL     OW17310   5.332   1.328   8.487 -0.5379  0.0459 -0.6379
 3655SOL    HW117311   5.422   1.322   8.520 -0.7681  0.6632  0.1293
 3655SOL    HW217312   5.297   1.407   8.528 -1.9939 -1.0965  0.4495
 3656SOL     OW17313   7.071   8.846   0.446 -0.2321  0.1668 -0.0557
 3656SOL    HW117314   7.019   8.923   0.425  1.5158  0.6142 -3.3157
 3656SOL    HW217315   7.061   8.788   0.370  1.2528 -1.2878  0.7820
 3657SOL     OW17316   4.605   7.109   6.611  0.2328 -0.0690  0.2495
 3657SOL    HW117317   4.649   7.149   6.686 -1.0110  1.6582  0.1295
 3657SOL    HW217318   4.577   7.184   6.558 -2.1584 -1.0837 -0.0433
 3658SOL     OW17319   0.371   4.294   1.713  0.0846 -0.5645 -0.0121
 3658SOL    HW117320   0.313   4.218   1.707 -1.2517  0.3827  0.4501
 3658SOL    HW217321   0.397   4.297   1.805  0.2138 -0.4981 -0.0503
 3659SOL     OW17322   1.954   4.194   6.492  0.5003 -0.1753  0.2378
 3659SOL    HW117323   1.951   4.272   6.547 -1.4893  0.5750 -0.8394
 3659SOL    HW217324   2.037   4.200   6.446  2.3190 -0.8896  3.1338
 3660SOL     OW17325   5.588   8.865   9.085 -0.0470 -0.3532  0.6498
 3660SOL    HW117326   5.544   8.787   9.052  1.7411 -2.0964  2.1760
 3660SOL    HW217327   5.535   8.893   9.160 -1.2473  0.5690 -0.4916
 3661SOL     OW17328   1.286   5.243   1.148  0.4321  0.1856 -0.0492
 3661SOL    HW117329   1.265   5.230   1.056  0.9752 -0.3928 -0.0973
 3661SOL    HW217330   1.380   5.224   1.155  0.0906 -1.3554  0.8857
 3662SOL     OW17331   0.016   1.510   1.863  0.1308  0.2185 -0.3599
 3662SOL    HW117332  -0.063   1.493   1.914 -0.5401  0.7704 -1.1870
 3662SOL    HW217333  -0.015   1.553   1.783  1.1497 -0.5395 -1.2098
 3663SOL     OW17334   6.325   5.594   4.295 -0.4610 -0.2208  0.3226
 3663SOL    HW117335   6.289   5.634   4.374  0.3922 -0.0404  0.6326
 3663SOL    HW217336   6.351   5.668   4.240 -0.1556 -0.3441  0.2981
 3664SOL     OW17337   1.677   0.096   8.500 -0.5404 -0.0054  0.3393
 3664SOL    HW117338   1.653   0.006   8.520  0.6282 -0.4782 -0.3103
 3664SOL    HW217339   1.649   0.109   8.409 -1.8725  0.7311  0.8168
 3665SOL     OW17340   2.323   5.735   3.219  0.2162 -0.1311 -0.5715
 3665SOL    HW117341   2.382   5.743   3.293  0.2284 -1.9675 -0.3248
 3665SOL    HW217342   2.292   5.644   3.223 -2.0713  0.5557 -1.1118
 3666SOL     OW17343   4.912   0.510   1.527  0.3221 -0.3571 -0.4454
 3666SOL    HW117344   4.896   0.553   1.611 -0.9348 -0.8914 -0.3797
 3666SOL    HW217345   4.938   0.581   1.468  0.1969  0.1844  0.1432
 3667SOL     OW17346   5.381   0.354   7.396 -0.0871 -0.4590  0.2676
 3667SOL    HW117347   5.390   0.447   7.374  1.1128 -0.8315 -1.0013
 3667SOL    HW217348   5.468   0.329   7.426 -0.6915 -0.9393  1.6901
 3668SOL     OW17349   0.886   5.637   7.816 -0.2179  0.7148  0.3343
 3668SOL    HW117350   0.834   5.715   7.835  1.9136  2.8063 -1.7660
 3668SOL    HW217351   0.880   5.627   7.721  2.0489  0.2478  0.1843
 3669SOL     OW17352   8.048   3.543   7.094 -0.6358  0.4300  0.4137
 3669SOL    HW117353   7.988   3.498   7.154  0.3733 -1.0366  0.3858
 3669SOL    HW217354   8.063   3.480   7.024  0.3298  1.0679  0.0262
 3670SOL     OW17355   3.208   7.311   5.022 -0.5177  0.2383  0.2509
 3670SOL    HW117356   3.115   7.310   5.001 -0.5987 -0.3414  0.5962
 3670SOL    HW217357   3.212   7.339   5.114 -0.3185  0.7469  0.0879
 3671SOL     OW17358   6.504   6.604   4.386 -0.1096  0.1221  0.0688
 3671SOL    HW117359   6.530   6.530   4.331 -1.7650  0.6802 -1.5790
 3671SOL    HW217360   6.472   6.564   4.467  0.0906 -0.8947 -0.3369
 3672SOL     OW17361   6.268   2.900   8.057 -0.2615 -0.0992  0.3993
 3672SOL    HW117362   6.301   2.908   7.967 -0.3227  0.0637  0.3902
 3672SOL    HW217363   6.277   2.808   8.078 -1.4711 -0.3836 -0.2604
 3673SOL     OW17364   8.912   6.280   6.244  0.5584  0.0935 -0.0024
 3673SOL    HW117365   9.001   6.312   6.254  0.2765  1.1838 -0.8851
 3673SOL    HW217366   8.896   6.281   6.150 -0.4997  0.2199  0.1675
 3674SOL     OW17367   3.139   3.616   0.322 -0.1871 -0.5058  0.1344
 3674SOL    HW117368   3.180   3.599   0.407 -0.7681  0.2308  0.5726
 3674SOL    HW217369   3.062   3.670   0.343 -0.0437  0.1214 -0.9057
 3675SOL     OW17370   6.366   2.322   0.430  0.4289 -0.3215 -0.1021
 3675SOL    HW117371   6.290   2.292   0.381 -0.5076  0.7709  0.6055
 3675SOL    HW217372   6.399   2.396   0.380 -0.8299  1.1180  1.0642
 3676SOL     OW17373   5.672   1.826   5.160  0.5937  0.2495 -0.4174
 3676SOL    HW117374   5.752   1.829   5.213 -0.4515 -2.0372  1.4777
 3676SOL    HW217375   5.700   1.856   5.073  3.1367  0.9953  0.5634
 3677SOL     OW17376   7.938   3.493   3.585 -0.4349  0.1487 -0.2372
 3677SOL    HW117377   7.971   3.526   3.668 -0.0827  2.9188 -1.3670
 3677SOL    HW217378   7.849   3.528   3.578 -1.5454 -2.3915  0.1552
 3678SOL     OW17379   3.734   3.764   3.553 -0.4214 -0.2146 -0.0429
 3678SOL    HW117380   3.778   3.680   3.539  2.5605  0.9393  1.4345
 3678SOL    HW217381   3.806   3.827   3.563 -2.4931  2.1275  1.1855
 3679SOL     OW17382   4.401   3.579   7.153 -0.4710  0.2253 -0.3160
 3679SOL    HW117383   4.344   3.533   7.215 -0.1332 -0.2944 -0.3821
 3679SOL    HW217384   4.403   3.522   7.076 -0.5326  0.6503 -0.6329
 3680SOL     OW17385   0.883   0.092   6.723  1.0021 -0.1222  0.6759
 3680SOL    HW117386   0.978   0.082   6.716  1.0977  0.4433  1.1108
 3680SOL    HW217387   0.860   0.151   6.652  0.9594 -0.3579  0.4941
 3681SOL     OW17388   2.622   5.636   7.275 -0.1383  0.9669 -0.4237
 3681SOL    HW117389   2.574   5.557   7.302 -1.6763  1.8666 -0.3568
 3681SOL    HW217390   2.641   5.622   7.183  2.8246 -0.9946  0.3530
 3682SOL     OW17391   5.054   2.383   6.869  0.4261  0.1860  0.1113
 3682SOL    HW117392   5.038   2.325   6.943  1.2561 -0.3156 -0.0880
 3682SOL    HW217393   5.149   2.389   6.863  0.4063  2.5058  0.8372
 3683SOL     OW17394   8.834   2.808   7.415  0.1449 -0.2818  0.5265
 3683SOL    HW117395   8.867   2.772   7.497 -0.5328 -0.1493  0.8587
 3683SOL    HW217396   8.761   2.751   7.391 -2.1819  1.8886  2.0276
 3684SOL     OW17397   3.903   0.409   1.629 -0.0522 -1.1202  0.4356
 3684SOL    HW117398   3.960   0.351   1.578 -0.7078 -0.7086 -0.8216
 3684SOL    HW217399   3.837   0.438   1.566 -0.8042 -0.4546  1.5045
 3685SOL     OW17400   7.716   3.722   6.313  0.5287 -0.6838 -0.3314
 3685SOL    HW117401   7.656   3.764   6.252 -1.7058 -0.2319  2.0197
 3685SOL    HW217402   7.688   3.630   6.315  0.8624 -0.7878 -0.2632
 3686SOL     OW17403   4.059   5.583   8.619  0.0879  0.1078 -0.0367
 3686SOL    HW117404   4.066   5.554   8.710  0.8146 -1.0631 -0.4546
 3686SOL    HW217405   3.986   5.645   8.620 -1.0985 -1.2352  1.0199
 3687SOL     OW17406   2.193   2.335   4.548 -0.2926  0.2441 -0.9165
 3687SOL    HW117407   2.217   2.267   4.611 -0.9772  1.1777  0.3873
 3687SOL    HW217408   2.104   2.358   4.571 -0.7730  0.2110 -2.6241
 3688SOL     OW17409   4.905   5.734   0.787  0.1605  0.1797  0.2323
 3688SOL    HW117410   4.988   5.749   0.742 -0.3595 -1.6630 -1.4921
 3688SOL    HW217411   4.904   5.640   0.806 -1.0320  0.3743  1.3113
 3689SOL     OW17412   2.010   6.845   4.167 -0.2954 -0.2452 -0.4832
 3689SOL    HW117413   1.982   6.833   4.076 -0.9886  1.8033 -0.6017
 3689SOL    HW217414   2.099   6.879   4.161 -1.2334  2.4322 -0.6032
 3690SOL     OW17415   1.452   5.026   4.212  0.3550  0.1291 -0.0389
 3690SOL    HW117416   1.416   5.093   4.269 -1.6003  0.7984 -1.9110
 3690SOL    HW217417   1.377   4.972   4.188  1.7743 -2.4948  0.9871
 3691SOL     OW17418   2.963   3.492   7.343 -0.2277 -0.1048  0.1388
 3691SOL    HW117419   3.029   3.441   7.296 -0.8956 -1.6866  0.8390
 3691SOL    HW217420   3.007   3.524   7.421  0.5011  1.3514 -0.8422
 3692SOL     OW17421   1.885   8.456   0.478 -0.7017 -0.1137 -0.1682
 3692SOL    HW117422   1.926   8.531   0.523 -1.9847 -0.1467  1.1107
 3692SOL    HW217423   1.955   8.391   0.473 -0.5318 -0.1499  1.9142
 3693SOL     OW17424   3.086   9.108   2.933 -0.0354  0.3013 -0.3880
 3693SOL    HW117425   3.137   9.121   3.013 -0.0622 -1.8661  0.0378
 3693SOL    HW217426   3.010   9.057   2.960 -0.0725 -0.4352 -1.7521
 3694SOL     OW17427   1.717   7.978   1.106 -0.4800 -0.1204 -0.4645
 3694SOL    HW117428   1.727   7.979   1.201  0.8829 -0.5618 -0.5708
 3694SOL    HW217429   1.805   7.959   1.073 -0.7205  0.9564 -1.8534
 3695SOL     OW17430   1.842   0.978   4.441 -0.5230  0.4295 -0.2958
 3695SOL    HW117431   1.806   0.895   4.410 -0.1373  0.0361  0.2957
 3695SOL    HW217432   1.774   1.012   4.500 -0.3728  0.1790  0.0269
 3696SOL     OW17433   6.245   0.762   1.868 -0.3082 -0.2158  0.3105
 3696SOL    HW117434   6.163   0.714   1.855 -0.8827  0.4979  1.2444
 3696SOL    HW217435   6.221   0.839   1.919  0.3966  1.7419 -2.1421
 3697SOL     OW17436   6.169   2.477   6.308  0.0865 -0.4897 -0.4229
 3697SOL    HW117437   6.094   2.448   6.256 -0.6812 -1.0035  0.8902
 3697SOL    HW217438   6.194   2.561   6.270 -0.5333 -0.7802 -1.5048
 3698SOL     OW17439   2.145   6.073   7.857  0.0421 -0.5190 -0.0582
 3698SOL    HW117440   2.089   6.068   7.934  0.5039 -1.3273  0.2440
 3698SOL    HW217441   2.131   5.990   7.812  0.6985 -0.5635 -0.1874
 3699SOL     OW17442   1.178   2.597   1.627 -0.1930  0.0307  0.2004
 3699SOL    HW117443   1.266   2.604   1.588 -1.3192  0.0633 -2.5515
 3699SOL    HW217444   1.177   2.510   1.668  1.0889  0.0069  0.2271
 3700SOL     OW17445   3.815   5.310   5.358 -0.1749 -0.1686  0.5698
 3700SOL    HW117446   3.817   5.215   5.355  1.2366 -0.1399 -1.6889
 3700SOL    HW217447   3.901   5.335   5.394  0.5117  0.2136 -1.2029
 3701SOL     OW17448   2.081   1.856   2.470 -0.2490 -0.2608  0.4289
 3701SOL    HW117449   1.993   1.856   2.432 -0.0502  0.0381 -0.0511
 3701SOL    HW217450   2.130   1.793   2.417  0.0282  0.1484  0.1855
 3702SOL     OW17451   7.199   9.123   1.979 -0.7898 -0.2282 -0.1429
 3702SOL    HW117452   7.172   9.206   1.940 -3.0637 -0.8412 -0.0463
 3702SOL    HW217453   7.171   9.056   1.916 -0.6485 -1.0089  0.5971
 3703SOL     OW17454   2.592   1.477   8.945 -0.0971 -0.0834 -0.0172
 3703SOL    HW117455   2.645   1.399   8.928 -1.3125 -1.7985  3.0860
 3703SOL    HW217456   2.626   1.510   9.028 -1.2353  1.2074 -0.0409
 3704SOL     OW17457   0.210   1.630   6.123 -0.4075  0.5957  0.1456
 3704SOL    HW117458   0.299   1.604   6.101 -0.1137  0.0263  1.8764
 3704SOL    HW217459   0.186   1.575   6.197 -1.5555  1.9290  0.8254
 3705SOL     OW17460   7.070   6.738   7.433 -0.3635  0.0683  0.7511
 3705SOL    HW117461   7.060   6.760   7.340 -0.0060  0.5249  0.8124
 3705SOL    HW217462   7.092   6.645   7.434 -0.7112 -0.0185  0.3998
 3706SOL     OW17463   4.237   2.537   4.724 -0.2201  0.5303 -0.4195
 3706SOL    HW117464   4.322   2.548   4.767  0.5664 -2.6388 -0.8807
 3706SOL    HW217465   4.246   2.582   4.640  0.3995  1.5470  0.1677
 3707SOL     OW17466   1.239   8.928   3.538  0.1008  0.6701 -0.1892
 3707SOL    HW117467   1.231   8.910   3.444  0.6721  0.2037 -0.1572
 3707SOL    HW217468   1.291   9.008   3.542 -0.5538  1.1092 -0.2812
 3708SOL     OW17469   4.040   3.964   2.833  0.2397 -0.2810 -0.5078
 3708SOL    HW117470   4.092   4.020   2.775 -0.4392  0.9941  0.0715
 3708SOL    HW217471   4.031   3.882   2.785  3.6641 -1.0059 -0.2022
 3709SOL     OW17472   4.131   1.745   1.260  0.0843 -0.0576 -0.4423
 3709SOL    HW117473   4.081   1.803   1.317 -0.0206  0.2453 -0.8329
 3709SOL    HW217474   4.073   1.670   1.246 -0.1207  0.1268 -0.6025
 3710SOL     OW17475   0.963   3.084   5.807 -0.2867  0.4450 -0.1485
 3710SOL    HW117476   0.872   3.094   5.834 -0.1082  2.3848 -0.1361
 3710SOL    HW217477   0.962   3.102   5.713 -0.1824 -1.5593 -0.5840
 3711SOL     OW17478   7.475   8.542   5.314  0.2258 -0.1777 -0.4139
 3711SOL    HW117479   7.537   8.615   5.319 -0.1948  0.2239 -0.8914
 3711SOL    HW217480   7.482   8.498   5.399 -0.2030  0.9915  0.2495
 3712SOL     OW17481   2.336   0.183   7.888 -0.0486  0.1260 -0.5723
 3712SOL    HW117482   2.376   0.132   7.818 -0.8809 -0.9765 -0.2621
 3712SOL    HW217483   2.405   0.192   7.953  0.0819 -0.7003 -0.5842
 3713SOL     OW17484   3.983   5.492   9.130 -0.0111  0.3437  0.0790
 3713SOL    HW117485   3.987   5.567   9.189 -0.5619  0.7820 -0.4242
 3713SOL    HW217486   4.040   5.427   9.170  2.8724  2.0404 -0.9276
 3714SOL     OW17487   8.002   8.694   3.883 -0.7051 -0.5716 -0.3542
 3714SOL    HW117488   7.928   8.755   3.883 -1.8049 -1.8290 -0.9580
 3714SOL    HW217489   8.075   8.743   3.919 -2.3597  0.1551  2.2926
 3715SOL     OW17490   0.111   0.411   2.518  0.4467 -0.5166  0.1063
 3715SOL    HW117491   0.068   0.494   2.498  0.4052 -0.6949 -0.5441
 3715SOL    HW217492   0.192   0.436   2.563 -0.2548 -0.1744  1.2374
 3716SOL     OW17493   4.828   1.085   8.245  0.1662  0.4388 -0.1777
 3716SOL    HW117494   4.896   1.033   8.288  0.0145  1.1524  0.9420
 3716SOL    HW217495   4.778   1.123   8.316 -1.2100  0.2154 -0.9926
 3717SOL     OW17496   8.491   0.670   2.771 -0.3624 -0.0674 -0.6045
 3717SOL    HW117497   8.435   0.629   2.837 -1.0849  0.6231 -0.7686
 3717SOL    HW217498   8.517   0.598   2.714 -0.3083 -0.5525  0.0297
 3718SOL     OW17499   4.782   7.759   9.101 -0.6874  0.1216 -0.1963
 3718SOL    HW117500   4.779   7.684   9.161 -0.8157 -1.2815 -1.8798
 3718SOL    HW217501   4.798   7.721   9.015 -2.2723  1.8946 -1.3769
 3719SOL     OW17502   8.372   0.454   5.605  0.2858  0.3082 -0.0727
 3719SOL    HW117503   8.312   0.410   5.665 -2.7679  0.0044 -3.0257
 3719SOL    HW217504   8.369   0.546   5.630  1.9399 -0.2235  2.3615
 3720SOL     OW17505   4.346   3.992   8.953 -0.0836 -0.0272  0.0514
 3720SOL    HW117506   4.315   4.072   8.910  0.1875 -1.0204 -2.1380
 3720SOL    HW217507   4.432   4.015   8.987 -0.4070  0.8758  0.2866
 3721SOL     OW17508   4.635   2.101   8.269  0.6095 -1.2204  0.0519
 3721SOL    HW117509   4.693   2.117   8.344 -0.1641 -0.8100  0.5810
 3721SOL    HW217510   4.648   2.177   8.212 -0.9115 -0.0477  1.1736
 3722SOL     OW17511   8.734   8.708   8.382  0.5331  0.2774 -0.1598
 3722SOL    HW117512   8.759   8.661   8.302 -0.5597  0.0946 -0.4222
 3722SOL    HW217513   8.688   8.786   8.350 -1.2845 -0.5586  0.2415
 3723SOL     OW17514   2.563   1.383   6.703  0.1448  0.0531  0.1678
 3723SOL    HW117515   2.598   1.466   6.668 -0.6047  1.0442  1.6815
 3723SOL    HW217516   2.568   1.393   6.798 -0.6258 -1.3701  0.3822
 3724SOL     OW17517   7.845   4.003   6.755  0.3912 -0.1908 -0.1894
 3724SOL    HW117518   7.787   3.930   6.735  0.3466 -0.9751  2.3653
 3724SOL    HW217519   7.803   4.079   6.717 -0.3096 -1.2784 -1.6782
 3725SOL     OW17520   0.243   1.763   2.974  0.2247  0.0116  0.6519
 3725SOL    HW117521   0.290   1.692   2.929 -0.0349 -0.4872  1.1623
 3725SOL    HW217522   0.153   1.733   2.978  0.1096  0.3798  0.8640
 3726SOL     OW17523   6.757   3.849   6.033  0.7997 -0.0457  0.5819
 3726SOL    HW117524   6.831   3.858   5.974  0.6841  0.5298  0.5213
 3726SOL    HW217525   6.795   3.852   6.120  0.7979  0.7828  0.5610
 3727SOL     OW17526   0.814   0.493   2.005  0.3095 -0.1095 -0.7295
 3727SOL    HW117527   0.764   0.534   1.935 -1.1416  0.9967  0.8600
 3727SOL    HW217528   0.860   0.566   2.047 -0.3890 -0.4222  0.6423
 3728SOL     OW17529   8.471   6.594   3.386 -0.2155 -0.0879  0.3869
 3728SOL    HW117530   8.405   6.563   3.449 -0.3168  0.0259  0.3381
 3728SOL    HW217531   8.423   6.603   3.304  0.3563 -2.1986 -0.2269
 3729SOL     OW17532   5.294   1.697   7.409 -0.6263 -0.4008 -0.6048
 3729SOL    HW117533   5.384   1.725   7.393 -1.0457  2.4446  1.3935
 3729SOL    HW217534   5.248   1.715   7.326  0.2267 -0.1154 -1.0267
 3730SOL     OW17535   7.854   3.161   9.159 -0.1525  0.3308 -0.0090
 3730SOL    HW117536   7.926   3.154   9.221 -0.6977  2.0969  0.8633
 3730SOL    HW217537   7.776   3.133   9.208 -0.3406  0.0977 -0.4266
 3731SOL     OW17538   0.783   0.652   0.011 -0.0909 -0.4666  0.4334
 3731SOL    HW117539   0.705   0.622   0.058 -1.3018 -1.0758 -1.7916
 3731SOL    HW217540   0.779   0.748   0.016 -1.7487 -0.4360 -0.7114
 3732SOL     OW17541   7.839   6.804   2.736  0.4805 -0.6800 -0.6708
 3732SOL    HW117542   7.879   6.888   2.757 -0.5890 -0.2714 -0.1875
 3732SOL    HW217543   7.897   6.765   2.671  1.5199 -0.0150 -0.1610
 3733SOL     OW17544   1.008   4.964   3.475 -1.0311  0.8375 -0.7593
 3733SOL    HW117545   1.050   4.902   3.534 -2.0914  1.4430  0.6683
 3733SOL    HW217546   0.990   5.041   3.528 -1.5876  1.5918 -1.9857
 3734SOL     OW17547   8.813   3.475   5.896 -0.3035 -0.2108  0.1547
 3734SOL    HW117548   8.836   3.466   5.988  0.5693 -1.0535 -0.1234
 3734SOL    HW217549   8.767   3.394   5.875 -0.8946  0.1694 -0.0528
 3735SOL     OW17550   1.872   0.774   7.736  0.1112 -0.2747 -0.0341
 3735SOL    HW117551   1.868   0.720   7.657 -1.5210  1.3680 -1.1488
 3735SOL    HW217552   1.962   0.763   7.768  0.6676 -1.3551 -1.8369
 3736SOL     OW17553   7.410   8.282   1.985 -1.4771 -0.3472  0.0554
 3736SOL    HW117554   7.463   8.361   1.973  0.0641 -1.3542 -0.1232
 3736SOL    HW217555   7.319   8.312   1.980 -0.9974  0.9951 -3.1775
 3737SOL     OW17556   3.458   6.377   8.193  0.3179 -0.4142 -0.6968
 3737SOL    HW117557   3.519   6.366   8.120 -1.1731 -0.4066 -2.0013
 3737SOL    HW217558   3.386   6.429   8.157 -0.4485 -0.3808  0.7965
 3738SOL     OW17559   2.272   5.997   7.384 -0.1739  0.1302  0.5767
 3738SOL    HW117560   2.268   6.029   7.293 -1.4755  0.1116  0.6158
 3738SOL    HW217561   2.286   5.903   7.376  1.2654  0.3397  0.4289
 3739SOL     OW17562   4.992   1.178   7.914 -0.4231 -0.2085  0.2149
 3739SOL    HW117563   4.900   1.157   7.931 -0.1402 -2.7268 -0.8518
 3739SOL    HW217564   5.024   1.103   7.863  1.4905  1.8788 -1.8976
 3740SOL     OW17565   8.669   7.610   6.659 -0.1041  0.2348 -0.3525
 3740SOL    HW117566   8.629   7.689   6.623  2.6172  1.9455  0.0873
 3740SOL    HW217567   8.702   7.637   6.745 -2.4245 -2.5062  1.6307
 3741SOL     OW17568   7.257   7.366   4.679 -0.1795 -0.4700  0.0495
 3741SOL    HW117569   7.180   7.422   4.688  0.5842  0.7561 -0.8085
 3741SOL    HW217570   7.285   7.350   4.769  0.1698  1.3738  0.2905
 3742SOL     OW17571   0.504   3.888   1.870 -1.2472  0.3956 -0.2434
 3742SOL    HW117572   0.561   3.956   1.906 -1.3118 -0.1806  1.0075
 3742SOL    HW217573   0.525   3.885   1.777 -0.6069  1.5059 -0.1459
 3743SOL     OW17574   8.315   5.237   5.442 -0.2634 -0.0500 -0.2523
 3743SOL    HW117575   8.384   5.197   5.389  0.1253  0.6572 -0.2905
 3743SOL    HW217576   8.310   5.327   5.411  0.2938  0.5150  1.2253
 3744SOL     OW17577   5.638   6.684   0.970  0.2835  0.4551  0.6830
 3744SOL    HW117578   5.680   6.600   0.990 -0.7585 -0.6517 -1.4144
 3744SOL    HW217579   5.669   6.743   1.038  3.3254 -0.8769  0.6147
 3745SOL     OW17580   2.570   8.367   7.837  0.2586  0.5016  0.6981
 3745SOL    HW117581   2.591   8.346   7.746  1.9194  2.0412  0.6603
 3745SOL    HW217582   2.579   8.284   7.884  1.2995  0.0483 -0.2551
 3746SOL     OW17583   1.817   3.149   2.716 -0.4098 -0.3361  0.5734
 3746SOL    HW117584   1.848   3.092   2.785 -0.9612 -1.2091  0.1189
 3746SOL    HW217585   1.722   3.151   2.727 -0.4076  0.3687  0.4905
 3747SOL     OW17586   3.642   2.228   0.695 -0.0924  0.0752 -0.1601
 3747SOL    HW117587   3.663   2.182   0.776  0.8541  1.3675  0.3857
 3747SOL    HW217588   3.548   2.217   0.684 -0.8250  2.2609  2.7270
 3748SOL     OW17589   6.619   6.755   7.535 -0.5338  0.1885  0.4643
 3748SOL    HW117590   6.572   6.688   7.486  0.8280 -1.6629  1.5625
 3748SOL    HW217591   6.668   6.803   7.468 -0.3253 -0.9235 -0.2077
 3749SOL     OW17592   1.504   0.807   3.610  0.0691 -0.0010  0.2628
 3749SOL    HW117593   1.578   0.827   3.668 -1.2308  1.3292  1.5663
 3749SOL    HW217594   1.482   0.891   3.570 -0.6094 -0.4171 -0.2502
 3750SOL     OW17595   6.298   6.924   6.078  0.2322 -0.6400  0.5148
 3750SOL    HW117596   6.339   7.009   6.088  2.7083 -1.6106 -0.5638
 3750SOL    HW217597   6.249   6.930   5.997 -0.2020 -0.0444  0.8132
 3751SOL     OW17598   5.198   0.437   5.084  0.6588  0.1008  0.0558
 3751SOL    HW117599   5.104   0.429   5.099  0.3574  2.2871 -0.3500
 3751SOL    HW217600   5.238   0.416   5.168 -0.2558  0.1829  0.5261
 3752SOL     OW17601   3.154   5.010   4.955 -0.4567  0.3624  0.4314
 3752SOL    HW117602   3.113   4.931   4.992 -0.8960  0.7639  0.8187
 3752SOL    HW217603   3.093   5.039   4.888  0.5730 -0.6420 -0.9984
 3753SOL     OW17604   3.101   8.195   6.888  0.6277  0.0384 -0.8808
 3753SOL    HW117605   3.117   8.101   6.881  2.5069  0.4027 -2.1531
 3753SOL    HW217606   3.059   8.218   6.805  1.5939  0.5662 -1.2337
 3754SOL     OW17607   6.724   8.282   8.414 -0.7171 -0.7208  0.0091
 3754SOL    HW117608   6.775   8.315   8.340  0.6083  3.4338  2.4171
 3754SOL    HW217609   6.633   8.301   8.391 -0.4170 -0.3685 -0.9234
 3755SOL     OW17610   4.946   6.100   6.776 -0.6579 -0.0152  0.2319
 3755SOL    HW117611   4.859   6.082   6.811 -0.4670 -3.4499 -0.6536
 3755SOL    HW217612   5.003   6.036   6.819  1.4861  2.0490  0.6853
 3756SOL     OW17613   7.829   7.382   2.645 -0.2642 -0.1547 -0.1086
 3756SOL    HW117614   7.885   7.451   2.680  0.1523 -0.7038  0.3331
 3756SOL    HW217615   7.820   7.403   2.552  1.3872 -0.5164 -0.3765
 3757SOL     OW17616   5.095   7.115   7.581  0.7313 -0.6678 -0.1012
 3757SOL    HW117617   5.016   7.115   7.636  0.8045 -0.2435  0.0126
 3757SOL    HW217618   5.157   7.061   7.629  1.9205  2.2053  1.9474
 3758SOL     OW17619   4.892   2.432   2.469  0.0004  0.2255 -0.1632
 3758SOL    HW117620   4.914   2.465   2.382  0.0189  0.8969  0.0821
 3758SOL    HW217621   4.920   2.341   2.469  0.2856  0.3098 -0.7585
 3759SOL     OW17622   6.555   5.632   2.243 -0.2839  0.0739 -0.0884
 3759SOL    HW117623   6.509   5.554   2.274 -2.4210  1.3608  0.1692
 3759SOL    HW217624   6.526   5.643   2.153 -1.4631  1.5650  0.4413
 3760SOL     OW17625   1.986   5.637   8.156  0.3462  0.2653 -0.1803
 3760SOL    HW117626   1.943   5.721   8.140  0.3671  0.4064  0.4807
 3760SOL    HW217627   2.014   5.608   8.070 -0.3084  0.5876 -0.5137
 3761SOL     OW17628   4.429   5.904   7.946 -0.2871  0.2375  0.3411
 3761SOL    HW117629   4.343   5.939   7.969 -0.0152  1.1283  0.0438
 3761SOL    HW217630   4.460   5.861   8.026 -2.1074 -2.4774 -0.2670
 3762SOL     OW17631   5.676   5.816   0.031  0.5694 -0.5115  0.0279
 3762SOL    HW117632   5.767   5.817   0.001  0.3872 -1.9719 -0.6344
 3762SOL    HW217633   5.661   5.726   0.059 -0.1910  0.1035  1.7082
 3763SOL     OW17634   6.255   3.884   3.475  0.7208  0.1651 -0.7296
 3763SOL    HW117635   6.224   3.848   3.392  1.3008 -0.2375 -0.7732
 3763SOL    HW217636   6.238   3.816   3.540 -0.7855  0.9045 -0.2847
 3764SOL     OW17637   8.307   0.951   4.936  0.2688 -1.1796 -0.5433
 3764SOL    HW117638   8.330   0.979   4.848 -1.2479 -1.7849 -1.1602
 3764SOL    HW217639   8.297   0.856   4.930 -0.1732 -1.1910  0.1809
 3765SOL     OW17640   7.767   3.804   1.969 -0.1405 -0.6033  0.3980
 3765SOL    HW117641   7.707   3.805   2.044  2.2759 -0.8779  2.4759
 3765SOL    HW217642   7.800   3.714   1.966  2.3568  0.1798  1.3085
 3766SOL     OW17643   9.072   2.426   6.235  0.0167 -0.3456  0.2435
 3766SOL    HW117644   8.997   2.373   6.206  0.0509 -0.2423 -0.0400
 3766SOL    HW217645   9.068   2.504   6.179  0.3469 -0.3481  0.2162
 3767SOL     OW17646   7.686   3.849   2.372 -0.0042  0.0506 -0.2069
 3767SOL    HW117647   7.772   3.884   2.348  1.0097 -2.1915 -0.1280
 3767SOL    HW217648   7.649   3.818   2.289 -1.4117  2.2199 -0.4718
 3768SOL     OW17649   8.583   4.012   4.480 -0.3232  0.0456 -0.0681
 3768SOL    HW117650   8.512   4.029   4.418 -1.1417 -0.7808  0.6124
 3768SOL    HW217651   8.604   3.919   4.467  0.8388  0.3508 -0.4589
 3769SOL     OW17652   7.915   3.965   2.286 -0.4464 -0.5860 -0.3230
 3769SOL    HW117653   8.001   3.996   2.314 -0.5342 -1.3831  0.9060
 3769SOL    HW217654   7.897   4.012   2.205  0.8820  0.0347 -0.2708
 3770SOL     OW17655   5.825   5.246   1.615 -0.3755 -0.4639  0.3132
 3770SOL    HW117656   5.759   5.187   1.579  0.3309 -1.1351  0.0862
 3770SOL    HW217657   5.789   5.274   1.699 -1.2213 -0.3210 -0.0795
 3771SOL     OW17658   2.848   1.730   1.265  0.3922 -0.0748 -0.3939
 3771SOL    HW117659   2.820   1.815   1.300  0.2732 -0.1404 -0.3281
 3771SOL    HW217660   2.885   1.684   1.341  1.0443  0.1628 -0.5624
 3772SOL     OW17661   4.101   7.256   0.468 -0.5277  0.5881  0.1792
 3772SOL    HW117662   4.068   7.214   0.389  0.7788 -1.7932  0.7869
 3772SOL    HW217663   4.070   7.346   0.462 -3.4300 -0.3813 -1.2880
 3773SOL     OW17664   4.270   7.407   0.916 -0.3966  0.0367 -0.4640
 3773SOL    HW117665   4.185   7.439   0.945 -0.6083  0.6242 -1.6657
 3773SOL    HW217666   4.251   7.321   0.878 -0.4729  0.2081 -0.8168
 3774SOL     OW17667   5.760   2.466   8.307 -0.0653  0.1609  0.2602
 3774SOL    HW117668   5.810   2.385   8.306 -0.1202  0.1234  0.4501
 3774SOL    HW217669   5.825   2.535   8.316 -0.0672  0.0924  0.8481
 3775SOL     OW17670   4.883   0.450   4.417  0.0979  0.1258  0.0114
 3775SOL    HW117671   4.886   0.391   4.492  0.1056  0.9363  0.6629
 3775SOL    HW217672   4.889   0.392   4.341  0.3392 -0.6901  0.6337
 3776SOL     OW17673   7.863   8.654   0.593 -0.0081  0.4349  0.1320
 3776SOL    HW117674   7.812   8.688   0.666 -1.7594 -0.5035 -0.5920
 3776SOL    HW217675   7.802   8.598   0.545  2.4197 -3.1897  0.8259
 3777SOL     OW17676   2.228   0.298   2.312 -0.6257 -0.0665 -0.0835
 3777SOL    HW117677   2.264   0.308   2.224 -1.5925 -0.8603 -0.5859
 3777SOL    HW217678   2.200   0.207   2.317  4.5514 -1.8582  3.0577
 3778SOL     OW17679   7.571   2.056   6.118 -0.5451  0.2600  0.4674
 3778SOL    HW117680   7.595   2.067   6.210 -0.5641 -0.4878  0.5684
 3778SOL    HW217681   7.484   2.017   6.120  0.7644 -2.9326  0.2186
 3779SOL     OW17682   7.995   0.718   3.869  0.0876  0.3302  0.1226
 3779SOL    HW117683   8.020   0.803   3.832 -2.2731  0.2887 -1.8609
 3779SOL    HW217684   7.959   0.739   3.955  1.5342  1.0370  0.5761
 3780SOL     OW17685   2.586   3.461   7.052  0.4261 -0.1250  0.3753
 3780SOL    HW117686   2.627   3.479   7.137  2.2249  0.9108 -0.6499
 3780SOL    HW217687   2.652   3.412   7.003 -1.1202 -1.9499  0.0235
 3781SOL     OW17688   7.039   2.190   8.665  0.3327 -0.5985 -0.3110
 3781SOL    HW117689   7.115   2.148   8.705  0.9779  0.7903 -0.0373
 3781SOL    HW217690   7.007   2.125   8.602  0.8211 -1.8069  0.6376
 3782SOL     OW17691   0.647   8.529   8.548 -0.1878 -0.0564  0.1491
 3782SOL    HW117692   0.685   8.452   8.506 -1.8659 -0.1553 -1.3206
 3782SOL    HW217693   0.668   8.601   8.488  0.6709  0.5246  1.1076
 3783SOL     OW17694   7.918   3.338   4.653 -0.8036 -0.1163  0.4287
 3783SOL    HW117695   7.862   3.387   4.713 -2.3518 -1.3304  0.0333
 3783SOL    HW217696   7.998   3.391   4.646 -1.7696  1.5177  1.2379
 3784SOL     OW17697   4.298   6.806   2.991 -0.0947  0.0521 -0.1245
 3784SOL    HW117698   4.361   6.737   2.973 -2.0668 -1.4684 -1.6714
 3784SOL    HW217699   4.327   6.880   2.937  0.5157 -0.5106 -0.5815
 3785SOL     OW17700   3.329   4.148   4.603  0.3265 -0.2716 -0.3510
 3785SOL    HW117701   3.270   4.223   4.599 -1.9017 -1.9433 -0.3801
 3785SOL    HW217702   3.411   4.181   4.567 -0.1139  2.5141  0.9028
 3786SOL     OW17703   2.674   3.003   2.197 -0.0316 -0.0449  0.7361
 3786SOL    HW117704   2.654   2.912   2.220 -0.3100 -0.0782  0.3779
 3786SOL    HW217705   2.711   2.998   2.109 -1.8743  0.3533 -0.1168
 3787SOL     OW17706   4.938   3.144   4.982  0.7053  0.5592  0.5136
 3787SOL    HW117707   4.884   3.193   4.920 -0.5795 -0.5874  0.6654
 3787SOL    HW217708   4.957   3.206   5.053  0.7333  1.3724 -0.1994
 3788SOL     OW17709   2.327   7.414   8.989 -0.1101 -0.0239 -0.1327
 3788SOL    HW117710   2.268   7.416   8.914  0.1528 -2.1038 -0.4757
 3788SOL    HW217711   2.407   7.373   8.955 -0.2785 -1.7593  1.4103
 3789SOL     OW17712   1.880   1.473   0.922 -0.1171 -0.5792  0.3714
 3789SOL    HW117713   1.972   1.499   0.920 -0.1716 -0.4036  0.0373
 3789SOL    HW217714   1.882   1.378   0.928  0.0855 -0.5508  0.7984
 3790SOL     OW17715   3.914   3.486   3.130 -0.7767 -0.0667  0.5082
 3790SOL    HW117716   3.846   3.545   3.161 -0.9977  0.1362 -0.3434
 3790SOL    HW217717   3.904   3.407   3.184 -2.5985 -0.5776 -0.5222
 3791SOL     OW17718   5.268   0.886   8.428  0.3294  0.6421  0.2155
 3791SOL    HW117719   5.326   0.893   8.504 -0.9837  0.5196  1.2698
 3791SOL    HW217720   5.203   0.821   8.453  0.7437 -0.5633 -1.6446
 3792SOL     OW17721   3.738   5.713   8.182 -0.2144 -0.2469 -0.1385
 3792SOL    HW117722   3.700   5.665   8.256 -0.5949 -0.5638 -0.5396
 3792SOL    HW217723   3.730   5.805   8.207  0.1707 -0.3663  0.4618
 3793SOL     OW17724   5.054   2.217   7.711 -0.0291  0.5520  0.2564
 3793SOL    HW117725   4.984   2.154   7.733  0.7518 -0.4006  0.0853
 3793SOL    HW217726   5.007   2.297   7.688 -1.0915 -0.1927 -0.2613
 3794SOL     OW17727   1.720   8.026   8.398 -0.6978  0.4100 -0.4731
 3794SOL    HW117728   1.756   7.993   8.316 -2.8710  1.2849 -1.8404
 3794SOL    HW217729   1.796   8.033   8.456  1.0111  0.4164 -2.6085
 3795SOL     OW17730   0.124   0.935   3.938 -0.1801  0.5725  0.6701
 3795SOL    HW117731   0.053   0.921   3.875  0.5985  0.9587 -0.3312
 3795SOL    HW217732   0.168   0.850   3.945  0.3773  0.7739 -0.1540
 3796SOL     OW17733   4.074   3.844   3.292  0.4490  0.2774  0.3030
 3796SOL    HW117734   3.991   3.846   3.245 -0.6449  2.5492  2.1339
 3796SOL    HW217735   4.124   3.774   3.249 -2.0888 -0.6901 -1.3204
 3797SOL     OW17736   3.841   3.411   7.587  0.7550  0.7937 -0.7672
 3797SOL    HW117737   3.905   3.347   7.618  0.8447  1.7063  1.0481
 3797SOL    HW217738   3.766   3.400   7.645  0.3858  1.6689 -1.0584
 3798SOL     OW17739   5.757   0.708   8.978  0.3236  0.2602  0.0912
 3798SOL    HW117740   5.678   0.655   8.963  0.2807  0.7194 -1.4850
 3798SOL    HW217741   5.815   0.651   9.029 -0.0608 -0.9989 -0.8301
 3799SOL     OW17742   9.056   7.851   7.911 -0.1033 -0.3802  0.2926
 3799SOL    HW117743   9.010   7.934   7.913 -0.8257 -0.7564 -0.2156
 3799SOL    HW217744   9.034   7.813   7.826 -0.2347 -1.3336  0.7342
 3800SOL     OW17745   7.231   7.643   8.583 -0.3807  0.8608 -0.0601
 3800SOL    HW117746   7.157   7.661   8.640 -0.8521 -0.4231 -0.2451
 3800SOL    HW217747   7.202   7.571   8.527  0.7399  0.8392 -0.6496
 3801SOL     OW17748   7.120   8.109   1.879  0.1737  0.2139 -0.1431
 3801SOL    HW117749   7.122   8.202   1.903  2.1806  0.8753 -2.4335
 3801SOL    HW217750   7.026   8.087   1.877 -0.3072  1.8702  1.4332
 3802SOL     OW17751   6.649   5.586   5.076 -0.0386 -0.2755 -1.0299
 3802SOL    HW117752   6.565   5.591   5.030 -0.2161  0.2719 -0.6646
 3802SOL    HW217753   6.638   5.645   5.151  0.9079  0.3284 -1.3502
 3803SOL     OW17754   0.269   0.508   0.695 -0.0505  0.0015 -0.5736
 3803SOL    HW117755   0.304   0.576   0.753  0.1757 -2.0136  1.8345
 3803SOL    HW217756   0.269   0.548   0.608  0.6991  2.8058  0.6104
 3804SOL     OW17757   3.872   3.643   2.322 -0.8538  0.1262  0.3297
 3804SOL    HW117758   3.850   3.732   2.350 -0.0672  0.2718  0.5146
 3804SOL    HW217759   3.840   3.637   2.232  1.3688  1.5050 -0.6336
 3805SOL     OW17760   6.722   8.786   0.770 -0.1616 -0.1135 -0.6039
 3805SOL    HW117761   6.712   8.843   0.846 -1.6158  0.6043 -1.2960
 3805SOL    HW217762   6.688   8.702   0.798  0.4861 -0.2041 -0.0773
 3806SOL     OW17763   2.916   7.579   8.537  0.0575 -0.0760 -0.3764
 3806SOL    HW117764   2.853   7.511   8.562 -0.7160  0.4605 -0.8392
 3806SOL    HW217765   2.863   7.648   8.497  0.7052  1.3008  1.0686
 3807SOL     OW17766   1.707   6.027   4.940  0.0887  0.3292  0.4306
 3807SOL    HW117767   1.762   5.961   4.898  0.5926  1.0439 -0.0688
 3807SOL    HW217768   1.617   5.999   4.921  0.2832 -0.4956  0.6923
 3808SOL     OW17769   6.522   0.703   3.206  0.0578  0.0965 -0.6093
 3808SOL    HW117770   6.534   0.797   3.191 -1.5875  0.0166 -2.8645
 3808SOL    HW217771   6.603   0.676   3.250  0.2435  2.6762  0.8728
 3809SOL     OW17772   7.973   0.424   8.850  0.2055  0.7166  0.0359
 3809SOL    HW117773   8.048   0.483   8.843  0.1304  0.9885  1.2548
 3809SOL    HW217774   7.917   0.447   8.775  0.1346  2.2675  0.5289
 3810SOL     OW17775   2.581   4.633   0.660  0.2545  0.2669  0.0179
 3810SOL    HW117776   2.635   4.644   0.582  0.0235  2.1221  0.0719
 3810SOL    HW217777   2.643   4.644   0.733 -0.2038  3.3823  0.0988
 3811SOL     OW17778   2.742   7.715   8.838  0.0203  0.4357 -0.1863
 3811SOL    HW117779   2.690   7.689   8.913 -0.9688 -1.3035 -1.4110
 3811SOL    HW217780   2.791   7.636   8.814 -0.0420  0.8141 -1.6367
 3812SOL     OW17781   3.827   8.117   6.030  0.1334 -0.3578 -0.2234
 3812SOL    HW117782   3.733   8.131   6.041  0.3424  0.0175  1.3467
 3812SOL    HW217783   3.848   8.159   5.947 -0.8951  0.5504 -0.0525
 3813SOL     OW17784   8.875   6.251   1.976  0.1605  0.0040  0.5037
 3813SOL    HW117785   8.969   6.259   1.965  0.6393 -1.0191  3.1472
 3813SOL    HW217786   8.844   6.341   1.983  0.6227  0.4365 -1.9599
 3814SOL     OW17787   2.282   1.240   4.207 -0.5542  0.4772  0.2940
 3814SOL    HW117788   2.201   1.291   4.207 -1.6686 -1.1000 -2.4556
 3814SOL    HW217789   2.337   1.283   4.140 -0.1216  0.0856  0.3935
 3815SOL     OW17790   4.975   8.760   1.008 -0.3357 -0.1029  0.0224
 3815SOL    HW117791   5.005   8.671   1.021 -1.3946 -0.5785 -0.6418
 3815SOL    HW217792   4.911   8.754   0.936 -0.7404  1.1112  0.2508
 3816SOL     OW17793   5.789   1.018   6.781 -0.5456 -0.6421 -0.3291
 3816SOL    HW117794   5.741   1.071   6.717  1.1022  0.3591 -0.7792
 3816SOL    HW217795   5.724   0.995   6.847 -1.6600  0.6064 -0.9528
 3817SOL     OW17796   8.081   6.670   1.336  0.0118 -0.2828  0.3740
 3817SOL    HW117797   8.148   6.734   1.361  2.2074 -2.5652  0.7506
 3817SOL    HW217798   8.091   6.661   1.241  0.3919 -0.7404  0.4516
 3818SOL     OW17799   5.427   3.138   2.403  0.1977  0.0539  0.2682
 3818SOL    HW117800   5.380   3.150   2.321 -0.5426  0.3058  0.7227
 3818SOL    HW217801   5.409   3.048   2.428 -2.0175  0.8137  1.6312
 3819SOL     OW17802   9.194   2.832   1.859  0.0215  0.2720 -0.1063
 3819SOL    HW117803   9.201   2.737   1.869  1.3894  0.2668 -0.8795
 3819SOL    HW217804   9.129   2.845   1.790 -0.7769 -0.0688  0.5767
 3820SOL     OW17805   2.099   0.358   3.782 -0.1076 -0.2865 -1.3416
 3820SOL    HW117806   2.112   0.453   3.781  1.4452 -0.4281  0.2613
 3820SOL    HW217807   2.159   0.325   3.716  0.9236 -0.2675 -0.4453
 3821SOL     OW17808   8.710   5.865   7.380 -0.1361  0.1302 -0.6766
 3821SOL    HW117809   8.717   5.957   7.354 -0.2569  0.1048 -0.7966
 3821SOL    HW217810   8.616   5.847   7.379 -0.0808 -0.1360 -1.1317
 3822SOL     OW17811   4.359   8.786   3.713 -0.4899 -0.1637 -0.1785
 3822SOL    HW117812   4.441   8.817   3.751  0.1807 -0.6826 -1.1887
 3822SOL    HW217813   4.344   8.843   3.637 -0.6235 -0.6224 -0.4986
 3823SOL     OW17814   1.272   0.525   8.283 -0.1151 -0.0013 -0.0050
 3823SOL    HW117815   1.229   0.575   8.353 -0.0956  0.2487 -0.1693
 3823SOL    HW217816   1.259   0.434   8.307 -2.3400 -0.0114 -0.9643
 3824SOL     OW17817   0.784   8.490   7.199  0.3292 -0.2262  0.3217
 3824SOL    HW117818   0.768   8.447   7.115 -0.0507 -2.8172  1.6291
 3824SOL    HW217819   0.751   8.579   7.187 -2.5136 -1.3767 -1.3992
 3825SOL     OW17820   3.327   2.526   8.326 -0.0454 -0.0498 -0.4862
 3825SOL    HW117821   3.377   2.534   8.245  0.5010 -0.0870 -0.1601
 3825SOL    HW217822   3.308   2.432   8.334  0.6367 -0.1641 -0.1433
 3826SOL     OW17823   3.926   2.589   7.127  0.2536 -0.6853 -0.6900
 3826SOL    HW117824   3.851   2.625   7.173  0.0631 -1.3175 -0.4999
 3826SOL    HW217825   3.902   2.593   7.035  0.6556  0.6287 -0.7502
 3827SOL     OW17826   7.808   4.938   7.721  0.0690 -0.1310 -1.0014
 3827SOL    HW117827   7.770   4.913   7.637  0.9236 -0.6719 -1.2416
 3827SOL    HW217828   7.844   5.025   7.706 -1.1704  0.4520 -0.7295
 3828SOL     OW17829   6.044   3.423   6.951  0.0790  0.3578 -0.9970
 3828SOL    HW117830   5.961   3.377   6.955  0.2802 -0.2156 -2.6310
 3828SOL    HW217831   6.041   3.484   7.025  0.2554 -2.9238  1.9963
 3829SOL     OW17832   5.928   2.957   0.244 -0.1928  0.1295 -0.1396
 3829SOL    HW117833   5.975   2.939   0.325 -0.0190  0.3784 -0.1822
 3829SOL    HW217834   5.888   3.043   0.259 -0.2359  0.1341 -0.2844
 3830SOL     OW17835   3.932   6.090   2.778  0.5317  0.7664 -0.5258
 3830SOL    HW117836   3.998   6.145   2.820 -1.1061  1.6971  0.9716
 3830SOL    HW217837   3.936   6.007   2.826  1.8135  0.1728 -1.6296
 3831SOL     OW17838   8.902   7.875   4.458 -0.0826  0.3362 -0.9480
 3831SOL    HW117839   8.870   7.965   4.462  1.5045  1.0356 -2.5616
 3831SOL    HW217840   8.949   7.863   4.540 -1.1515  0.6073 -0.2750
 3832SOL     OW17841   8.323   2.771   8.602  0.6030  0.0553 -0.1877
 3832SOL    HW117842   8.387   2.832   8.638  1.8302 -1.1197 -0.2821
 3832SOL    HW217843   8.316   2.701   8.668 -2.0525  1.0635  0.7081
 3833SOL     OW17844   7.157   9.221   7.878  0.0682  0.1688  0.3738
 3833SOL    HW117845   7.141   9.275   7.801  1.1779  0.1369  0.0923
 3833SOL    HW217846   7.225   9.159   7.851 -1.1517 -1.3766  0.7051
 3834SOL     OW17847   9.016   8.828   8.063  0.3366 -0.0525 -0.3340
 3834SOL    HW117848   8.955   8.759   8.089  0.2989  0.3218  0.6439
 3834SOL    HW217849   9.076   8.786   8.002 -1.3551 -0.2344 -1.9656
 3835SOL     OW17850   8.910   4.212   7.249 -0.1969 -0.0160  0.4544
 3835SOL    HW117851   8.943   4.189   7.335  2.4732  0.2090 -0.4105
 3835SOL    HW217852   8.985   4.252   7.204 -0.9760 -1.5518 -2.4976
 3836SOL     OW17853   7.551   4.807   3.545 -0.2556 -0.1384  0.1050
 3836SOL    HW117854   7.530   4.742   3.478 -0.7486  0.4108 -0.2865
 3836SOL    HW217855   7.641   4.832   3.527  0.1076 -1.0690  0.5652
 3837SOL     OW17856   5.216   0.937   4.947  0.4240  0.2705 -0.6649
 3837SOL    HW117857   5.179   0.848   4.955 -0.9253  0.9649  2.2686
 3837SOL    HW217858   5.215   0.954   4.853  0.6729 -2.7745 -1.3398
 3838SOL     OW17859   7.086   2.707   2.412  0.7296 -0.1924 -0.2658
 3838SOL    HW117860   7.013   2.712   2.352  0.3956  2.2540  0.2321
 3838SOL    HW217861   7.146   2.776   2.383  0.3367  1.4173  2.3595
 3839SOL     OW17862   4.924   6.861   9.217 -0.0102 -0.5448  0.6676
 3839SOL    HW117863   4.839   6.891   9.249  0.7497  1.0838  1.2307
 3839SOL    HW217864   4.988   6.905   9.272  1.2595 -0.0981 -1.0866
 3840SOL     OW17865   0.498   6.556   1.689 -0.3548 -0.5305  0.0156
 3840SOL    HW117866   0.456   6.519   1.612  1.4769 -0.8217 -0.8932
 3840SOL    HW217867   0.427   6.598   1.738 -1.5893 -0.5910 -1.6652
 3841SOL     OW17868   8.949   4.766   0.603 -0.9087  0.2739  0.3681
 3841SOL    HW117869   8.995   4.763   0.687 -0.2242  0.5141  0.0071
 3841SOL    HW217870   8.869   4.815   0.621 -0.1594  1.4466  0.5895
 3842SOL     OW17871   6.487   0.001   6.088 -0.0699 -0.1777  0.0986
 3842SOL    HW117872   6.398  -0.031   6.077  0.0113 -0.0434 -1.0148
 3842SOL    HW217873   6.477   0.090   6.122 -0.4443  0.7437 -2.2656
 3843SOL     OW17874   4.113   2.852   0.226 -0.7745  0.7512 -0.4284
 3843SOL    HW117875   4.077   2.767   0.199 -1.4680  1.1534 -0.7912
 3843SOL    HW217876   4.039   2.898   0.266  0.0107  0.5202  1.3938
 3844SOL     OW17877   5.728   8.121   4.320 -0.2441 -0.1670 -0.7210
 3844SOL    HW117878   5.809   8.152   4.279 -1.2361  2.0899 -1.1384
 3844SOL    HW217879   5.669   8.196   4.316 -2.1695 -1.5449  0.1292
 3845SOL     OW17880   1.952   2.652   3.525 -0.2367 -0.0931 -0.0110
 3845SOL    HW117881   2.029   2.626   3.474  0.8453 -1.3960  2.1095
 3845SOL    HW217882   1.976   2.737   3.562 -0.6068  0.3755 -0.8248
 3846SOL     OW17883   4.253   7.624   7.203 -0.2118  0.1066  0.3455
 3846SOL    HW117884   4.167   7.662   7.186  0.0430  0.7159  0.3950
 3846SOL    HW217885   4.290   7.678   7.273  0.9887  1.0583 -0.9601
 3847SOL     OW17886   7.388   5.332   4.886 -0.4917  0.5258 -0.5446
 3847SOL    HW117887   7.407   5.354   4.977  2.5153 -0.5413 -0.8067
 3847SOL    HW217888   7.387   5.417   4.841  1.3455  0.8592 -0.0201
 3848SOL     OW17889   8.004   3.727   2.381  0.1161  0.3892  0.5258
 3848SOL    HW117890   7.968   3.809   2.347 -1.8878 -0.6553 -0.0612
 3848SOL    HW217891   7.988   3.731   2.475  2.6327  1.8431  0.9683
 3849SOL     OW17892   1.902   2.988   7.823  0.1712  0.9532  0.1896
 3849SOL    HW117893   1.967   2.929   7.861  0.4128  0.0206 -1.5842
 3849SOL    HW217894   1.827   2.932   7.804 -0.4771  1.6757  0.5906
 3850SOL     OW17895   1.903   0.310   6.131  0.2798  0.6095 -0.3316
 3850SOL    HW117896   1.944   0.225   6.116 -1.6305 -0.1184 -1.8303
 3850SOL    HW217897   1.960   0.372   6.086  0.7374 -0.1123 -0.7647
 3851SOL     OW17898   1.704   5.157   3.688  0.6578 -0.4599 -0.2362
 3851SOL    HW117899   1.770   5.093   3.663 -0.0118 -1.5872  0.7530
 3851SOL    HW217900   1.683   5.136   3.779  0.0889  0.8885 -0.0271
 3852SOL     OW17901   8.527   4.295   6.813 -0.6426  0.4745  0.1507
 3852SOL    HW117902   8.610   4.251   6.790 -1.3619 -1.0606  0.3606
 3852SOL    HW217903   8.550   4.350   6.888  0.4673  1.1075 -0.6191
 3853SOL     OW17904   4.201   3.949   6.648 -0.3898 -0.9183  0.3723
 3853SOL    HW117905   4.223   3.943   6.741 -2.8217 -1.2468  0.9870
 3853SOL    HW217906   4.144   4.026   6.642  1.0101  0.0513 -1.1594
 3854SOL     OW17907   7.882   5.489   1.007 -0.3750  0.1146  0.4640
 3854SOL    HW117908   7.944   5.421   1.033 -0.7311 -0.1713  0.5731
 3854SOL    HW217909   7.816   5.490   1.077 -0.0155  1.0272  0.7936
 3855SOL     OW17910   4.549   9.167   3.812  0.4358  0.4997 -0.2815
 3855SOL    HW117911   4.486   9.193   3.879 -0.3753  0.7566 -1.1343
 3855SOL    HW217912   4.553   9.072   3.819 -0.2296  0.4611 -0.3818
 3856SOL     OW17913   0.119   8.888   1.030 -0.2727  0.5836  0.6679
 3856SOL    HW117914   0.156   8.944   1.098  0.7193  1.3013 -0.4130
 3856SOL    HW217915   0.191   8.831   1.003 -0.5568  0.5114  0.0264
 3857SOL     OW17916   8.879   7.138   7.700 -0.1704 -0.5483 -0.0284
 3857SOL    HW117917   8.853   7.046   7.711  0.2340 -0.8738 -1.5621
 3857SOL    HW217918   8.832   7.185   7.769 -1.3674 -1.7206 -0.0149
 3858SOL     OW17919   1.695   0.380   1.295  0.3285 -0.2117  0.0133
 3858SOL    HW117920   1.710   0.308   1.234 -1.6083 -1.3706  0.7942
 3858SOL    HW217921   1.688   0.458   1.239  0.9339 -0.8548 -0.9921
 3859SOL     OW17922   0.603   5.470   0.997 -0.3337 -0.5725  0.0110
 3859SOL    HW117923   0.689   5.504   0.971 -0.3578 -0.1612  0.4453
 3859SOL    HW217924   0.546   5.490   0.923 -0.1161 -0.5953 -0.1648
 3860SOL     OW17925   7.075   2.894   5.782 -0.1266 -0.2262 -0.0486
 3860SOL    HW117926   7.092   2.817   5.728  1.3828  0.1803 -0.1837
 3860SOL    HW217927   6.984   2.883   5.811 -0.3727 -1.3572 -1.1729
 3861SOL     OW17928   2.422   9.133   7.577 -0.0877 -0.3805  0.0343
 3861SOL    HW117929   2.365   9.120   7.501 -1.1393  0.0933  0.7299
 3861SOL    HW217930   2.409   9.224   7.602 -0.2576 -0.7072  1.1839
 3862SOL     OW17931   7.503   6.310   4.840 -0.0645 -0.3976  0.5569
 3862SOL    HW117932   7.544   6.396   4.845 -0.8265  0.1024 -1.0782
 3862SOL    HW217933   7.524   6.269   4.924  1.1154  1.0018  1.0009
 3863SOL     OW17934   6.971   3.782   4.409 -0.8073  0.4228  0.6732
 3863SOL    HW117935   6.979   3.729   4.489  0.1641 -1.3424 -0.5465
 3863SOL    HW217936   6.878   3.804   4.405 -0.8063  1.0008  2.5383
 3864SOL     OW17937   7.089   0.338   1.374  0.0321 -0.2512  0.2872
 3864SOL    HW117938   7.052   0.389   1.446 -1.5163 -1.2505  0.2357
 3864SOL    HW217939   7.035   0.361   1.298  1.4575  0.5597 -0.5281
 3865SOL     OW17940   7.377   3.055   5.278  0.2320 -0.4116 -0.5551
 3865SOL    HW117941   7.470   3.052   5.252  0.1737 -1.7379 -0.6783
 3865SOL    HW217942   7.345   2.966   5.262 -1.1372  0.1061 -0.7555
 3866SOL     OW17943   3.731   3.135   0.514 -0.1207 -0.3570  0.6255
 3866SOL    HW117944   3.652   3.105   0.559 -0.7149 -0.3456 -0.3741
 3866SOL    HW217945   3.750   3.220   0.553  0.0987 -0.8794  1.7015
 3867SOL     OW17946   6.097   5.939   3.495 -0.3459 -0.2202 -0.5076
 3867SOL    HW117947   6.191   5.949   3.480 -0.4599  0.1055 -1.0276
 3867SOL    HW217948   6.074   5.858   3.449 -0.3760 -0.1322 -0.6488
 3868SOL     OW17949   4.831   5.134   3.384 -0.9478 -0.0937 -0.3294
 3868SOL    HW117950   4.830   5.222   3.421  0.7887 -0.2743  0.2532
 3868SOL    HW217951   4.831   5.148   3.289  0.5275  0.6034 -0.2535
 3869SOL     OW17952   2.564   3.460   7.455 -0.4167 -0.0911  0.0482
 3869SOL    HW117953   2.521   3.542   7.481 -0.3668 -0.1092  0.1891
 3869SOL    HW217954   2.589   3.419   7.538  0.1561  0.0667 -0.0428
 3870SOL     OW17955   5.031   2.984   2.208  0.0963  0.3814 -0.0891
 3870SOL    HW117956   5.067   2.904   2.247  0.2953  0.0946 -0.8487
 3870SOL    HW217957   4.991   2.955   2.126  0.8789  1.1762 -0.7757
 3871SOL     OW17958   0.658   7.591   4.014 -0.3226  0.0947  0.5019
 3871SOL    HW117959   0.599   7.558   4.081 -0.1741  0.1485  0.6596
 3871SOL    HW217960   0.643   7.534   3.938  0.6328 -0.9702  1.0731
 3872SOL     OW17961   5.021   2.481   7.782 -0.0440 -0.2909  0.7314
 3872SOL    HW117962   5.101   2.529   7.761  0.8624 -1.0859  2.1602
 3872SOL    HW217963   5.011   2.491   7.877 -0.5033 -1.8655  0.8806
 3873SOL     OW17964   2.680   8.848   5.577  0.1035 -0.1431  0.2294
 3873SOL    HW117965   2.589   8.855   5.550  0.8379 -0.8104 -2.8272
 3873SOL    HW217966   2.701   8.755   5.566  1.5625  0.2687 -0.7444
 3874SOL     OW17967   4.626   1.876   8.144 -0.1387 -0.0401  0.2139
 3874SOL    HW117968   4.632   1.953   8.201 -0.3333 -1.9191  2.9435
 3874SOL    HW217969   4.716   1.845   8.136 -0.4029 -1.4039  1.9827
 3875SOL     OW17970   8.486   0.008   0.465 -0.1727 -0.1022  0.3517
 3875SOL    HW117971   8.490  -0.072   0.518 -0.2885  1.7597  3.4431
 3875SOL    HW217972   8.394   0.016   0.441 -0.2192 -0.7270  0.3040
 3876SOL     OW17973   2.498   5.254   6.195  0.3969  0.0474 -0.5842
 3876SOL    HW117974   2.573   5.242   6.254  1.2466  0.2628 -1.6000
 3876SOL    HW217975   2.439   5.312   6.243  0.5400 -0.6906  0.5182
 3877SOL     OW17976   4.469   4.679   5.323 -0.5302  0.9658  0.1994
 3877SOL    HW117977   4.465   4.773   5.341 -2.2100  1.0158 -0.2567
 3877SOL    HW217978   4.479   4.674   5.228 -2.0722  0.7067  0.0291
 3878SOL     OW17979   6.135   4.638   8.774 -0.1726 -0.8075 -0.2602
 3878SOL    HW117980   6.230   4.637   8.781 -0.0768  0.1198 -1.1755
 3878SOL    HW217981   6.108   4.548   8.792  0.8706 -1.0849 -0.0301
 3879SOL     OW17982   2.088   6.663   2.750 -0.1062  0.3889  0.5355
 3879SOL    HW117983   2.114   6.735   2.809  0.0839 -0.6682  1.7794
 3879SOL    HW217984   2.168   6.615   2.734 -0.5407 -0.5403  1.1041
 3880SOL     OW17985   3.414   5.317   5.270  0.9043  0.0888 -0.4253
 3880SOL    HW117986   3.484   5.369   5.232  1.6824 -1.2670 -0.9309
 3880SOL    HW217987   3.459   5.241   5.309 -0.0392  0.4411  1.5047
 3881SOL     OW17988   5.500   3.749   3.910  0.3898  0.4567 -0.0867
 3881SOL    HW117989   5.532   3.767   3.822  1.3065 -1.1929 -0.1375
 3881SOL    HW217990   5.546   3.811   3.966  1.2751  0.2443 -0.5606
 3882SOL     OW17991   9.188   1.773   0.885  0.2697 -0.5112 -0.0171
 3882SOL    HW117992   9.243   1.827   0.828  1.4335  1.2410  2.5635
 3882SOL    HW217993   9.242   1.696   0.903  1.0872  0.2544  0.9005
 3883SOL     OW17994   0.671   5.707   2.034  0.4005  0.0036 -0.3130
 3883SOL    HW117995   0.646   5.799   2.029  1.7303  0.4806  1.1404
 3883SOL    HW217996   0.767   5.708   2.044  0.3172 -1.4597  1.0870
 3884SOL     OW17997   9.003   1.972   4.410 -0.1828 -0.0494  0.3148
 3884SOL    HW117998   8.990   1.907   4.479 -1.4710  0.7173  0.8391
 3884SOL    HW217999   9.098   1.979   4.401 -0.0168 -1.6351  0.5742
 3885SOL     OW18000   2.283   4.085   2.946 -0.4881  0.6783 -0.3181
 3885SOL    HW118001   2.345   4.155   2.926 -1.5205  1.9140  0.6526
 3885SOL    HW218002   2.202   4.110   2.901 -0.6756 -0.2423 -0.5166
 3886SOL     OW18003   3.375   2.094   3.304  0.0636  0.7210 -0.1425
 3886SOL    HW118004   3.412   2.057   3.223 -0.8240  0.7003 -0.5459
 3886SOL    HW218005   3.293   2.047   3.317 -0.4922  1.7067 -0.0110
 3887SOL     OW18006   2.390   8.026   4.380 -0.3725 -0.0001  0.0268
 3887SOL    HW118007   2.404   7.932   4.390 -1.5444 -0.0570  1.6930
 3887SOL    HW218008   2.305   8.041   4.422  0.2728  1.9534  0.7323
 3888SOL     OW18009   2.383   5.449   1.239 -0.1166  0.3045  0.1853
 3888SOL    HW118010   2.467   5.412   1.266  0.5759  0.9138 -1.0347
 3888SOL    HW218011   2.320   5.377   1.251  0.8906 -0.7333 -0.5328
 3889SOL     OW18012   7.490   7.816   7.788  0.1743  0.3621  0.3154
 3889SOL    HW118013   7.545   7.761   7.734  0.9849 -0.6572  2.0844
 3889SOL    HW218014   7.538   7.899   7.795  0.2900  0.3331 -0.1152
 3890SOL     OW18015   7.089   7.126   4.907  0.0858 -0.5695 -0.2581
 3890SOL    HW118016   7.106   7.218   4.926  0.2489  0.5134 -4.6414
 3890SOL    HW218017   6.998   7.113   4.933 -0.8360  1.7275 -1.9879
 3891SOL     OW18018   1.550   7.958   7.446 -0.7897  0.2705 -0.4937
 3891SOL    HW118019   1.560   7.873   7.491 -0.5000  0.4007 -0.3089
 3891SOL    HW218020   1.557   8.023   7.516  0.5786  0.5216 -0.8428
 3892SOL     OW18021   2.409   4.984   4.718 -0.1517 -0.1776 -0.1073
 3892SOL    HW118022   2.336   4.968   4.777 -1.9581  4.4412 -0.6235
 3892SOL    HW218023   2.368   5.006   4.634  1.9665  0.2018 -1.1270
 3893SOL     OW18024   2.805   3.798   7.079  0.0927  0.4653 -0.5051
 3893SOL    HW118025   2.748   3.724   7.101 -0.5048  0.2199 -2.6141
 3893SOL    HW218026   2.890   3.774   7.116 -0.9798  0.6361  2.3342
 3894SOL     OW18027   4.127   5.097   1.947 -0.3956  0.1615 -0.1700
 3894SOL    HW118028   4.141   5.020   2.003  0.1046  0.3697 -0.0089
 3894SOL    HW218029   4.205   5.150   1.959 -0.6840  0.6388 -0.3825
 3895SOL     OW18030   7.909   1.885   8.444 -0.2918  0.2269 -0.2752
 3895SOL    HW118031   7.848   1.852   8.378 -1.0576  1.6517 -0.3234
 3895SOL    HW218032   7.934   1.808   8.495 -0.8132 -0.6532 -1.3185
 3896SOL     OW18033   2.618   3.230   0.934 -0.0409 -0.0041 -0.2114
 3896SOL    HW118034   2.704   3.222   0.894  1.0811 -0.4172  2.1032
 3896SOL    HW218035   2.613   3.322   0.961 -1.1681  0.5054 -1.9714
 3897SOL     OW18036   6.529   5.886   2.073  0.1800 -0.3675  0.2769
 3897SOL    HW118037   6.481   5.828   2.014  0.0408  0.1548 -0.1402
 3897SOL    HW218038   6.480   5.883   2.155 -0.0686 -0.5171  0.1262
 3898SOL     OW18039   5.158   9.212   3.504 -0.7298  0.0421 -0.7279
 3898SOL    HW118040   5.220   9.178   3.569 -3.2002 -1.8500  0.7966
 3898SOL    HW218041   5.206   9.208   3.421  1.2523 -1.1656  0.4016
 3899SOL     OW18042   0.819   7.065   5.399 -0.1945 -0.3057  0.2645
 3899SOL    HW118043   0.858   7.010   5.468 -1.3610 -0.3144  0.9514
 3899SOL    HW218044   0.780   7.138   5.447  1.0394  0.9962 -0.6090
 3900SOL     OW18045   5.853   8.139   7.213 -0.2136 -0.1544  0.3132
 3900SOL    HW118046   5.940   8.158   7.178  1.1678  0.5615  3.7028
 3900SOL    HW218047   5.870   8.102   7.300 -3.2933  0.2210  1.2019
 3901SOL     OW18048   8.396   4.704   6.448  0.0462  0.4877 -0.4084
 3901SOL    HW118049   8.337   4.728   6.519  0.1295  1.8870 -0.7836
 3901SOL    HW218050   8.459   4.644   6.488 -0.6390  0.2840  0.3875
 3902SOL     OW18051   6.782   5.689   3.965  0.3047 -0.0249 -0.0807
 3902SOL    HW118052   6.761   5.703   4.057  0.0514 -1.2605  0.0654
 3902SOL    HW218053   6.737   5.609   3.941  0.8045 -0.0208 -1.1448
 3903SOL     OW18054   4.976   8.816   8.638  0.0085  0.1023 -0.2230
 3903SOL    HW118055   4.923   8.797   8.561 -0.3854  0.8935 -0.1495
 3903SOL    HW218056   5.042   8.747   8.639 -0.0314  0.0430 -1.2260
 3904SOL     OW18057   5.845   7.569   4.025 -0.4635  0.6650  0.1285
 3904SOL    HW118058   5.787   7.644   4.035 -0.9344  0.4995 -1.1867
 3904SOL    HW218059   5.882   7.579   3.937  0.4578  0.0323  0.4259
 3905SOL     OW18060   6.633   7.861   5.048 -0.1515 -0.2311 -0.5830
 3905SOL    HW118061   6.692   7.797   5.007 -0.8070 -3.4688  2.9443
 3905SOL    HW218062   6.548   7.844   5.007  0.0089 -0.5240 -0.7994
 3906SOL     OW18063   7.529   1.655   3.325  0.0326  0.4592 -0.3288
 3906SOL    HW118064   7.463   1.697   3.380 -0.2992  0.1522 -0.4913
 3906SOL    HW218065   7.592   1.725   3.306  0.1950  0.5501  0.4998
 3907SOL     OW18066   0.774   4.037   7.238  0.2781 -1.0452  0.8486
 3907SOL    HW118067   0.679   4.023   7.239  0.2123 -0.6651  0.0491
 3907SOL    HW218068   0.805   3.986   7.163  0.5003  0.1036  0.1530
 3908SOL     OW18069   1.821   8.102   8.765 -0.4016  0.3512 -0.0916
 3908SOL    HW118070   1.860   8.019   8.736 -0.7712  0.6229 -1.4749
 3908SOL    HW218071   1.890   8.167   8.751 -0.8471  0.6125 -1.2180
 3909SOL     OW18072   5.241   3.769   1.926 -0.1258 -0.5709  0.1812
 3909SOL    HW118073   5.210   3.853   1.890 -0.8789 -0.4060  1.1748
 3909SOL    HW218074   5.170   3.741   1.984 -0.0932 -2.1433 -0.5019
 3910SOL     OW18075   6.628   0.392   6.309 -0.5252 -0.1853  0.4420
 3910SOL    HW118076   6.638   0.299   6.289 -0.6780 -0.7232  2.5957
 3910SOL    HW218077   6.649   0.399   6.402 -1.1694  1.8334  0.4879
 3911SOL     OW18078   8.007   1.201   2.021 -0.2654  0.2601 -0.1059
 3911SOL    HW118079   8.074   1.156   2.072 -0.6411  0.1927  0.3371
 3911SOL    HW218080   8.044   1.209   1.934 -0.2445 -1.0538 -0.2383
 3912SOL     OW18081   6.213   7.380   3.943  0.0188 -0.6273 -0.2681
 3912SOL    HW118082   6.151   7.379   4.016  3.2436  0.4231  2.7688
 3912SOL    HW218083   6.194   7.461   3.896 -0.6646 -0.1296  0.8325
 3913SOL     OW18084   0.881   4.570   1.149  0.2968  0.0341  0.0212
 3913SOL    HW118085   0.944   4.614   1.207 -1.1683  0.8610  1.0393
 3913SOL    HW218086   0.819   4.638   1.124 -1.3085 -1.1429  0.6105
 3914SOL     OW18087   6.617   4.529   2.123  0.1104  0.1809  0.5107
 3914SOL    HW118088   6.559   4.602   2.144 -1.9130 -1.0533 -0.4937
 3914SOL    HW218089   6.620   4.476   2.203 -1.8048 -0.7754 -0.0076
 3915SOL     OW18090   7.674   4.460   1.242 -0.1892 -0.1170  0.3666
 3915SOL    HW118091   7.581   4.480   1.243 -0.0925  0.4837 -0.7649
 3915SOL    HW218092   7.710   4.518   1.175  0.9768 -0.4294  0.7004
 3916SOL     OW18093   2.801   4.295   0.875  0.0788 -0.3229  0.3386
 3916SOL    HW118094   2.723   4.242   0.857 -0.9883  1.2392  0.1836
 3916SOL    HW218095   2.767   4.380   0.899  1.7604  0.3942  0.3102
 3917SOL     OW18096   6.189   4.060   1.225 -0.5826  0.1373  0.1336
 3917SOL    HW118097   6.255   4.122   1.192 -0.1270 -0.6586 -0.4775
 3917SOL    HW218098   6.123   4.116   1.266  0.2600  0.9726  0.3842
 3918SOL     OW18099   6.089   7.814   8.998 -0.1635  0.7950 -0.6023
 3918SOL    HW118100   6.092   7.845   9.088 -1.6686  0.8265 -0.5359
 3918SOL    HW218101   6.034   7.878   8.953 -1.5760 -0.5839 -0.9416
 3919SOL     OW18102   0.773   2.863   3.726 -0.3294  0.8952 -0.2134
 3919SOL    HW118103   0.829   2.873   3.649 -0.9409 -0.2605 -0.8268
 3919SOL    HW218104   0.751   2.770   3.728 -1.5813  1.1896  0.4786
 3920SOL     OW18105   7.080   4.300   0.469  0.6456  0.3283  0.3476
 3920SOL    HW118106   7.105   4.213   0.500 -0.1067 -0.0815 -0.1606
 3920SOL    HW218107   7.147   4.358   0.504  0.3746 -0.2503  1.8870
 3921SOL     OW18108   1.969   6.315   6.432 -0.1414  0.2999 -0.0504
 3921SOL    HW118109   1.944   6.400   6.396 -1.4651  0.7179  1.7340
 3921SOL    HW218110   1.914   6.252   6.385 -0.7322  0.6650  0.1473
 3922SOL     OW18111   5.040   2.897   6.097 -0.2877 -0.0445  0.5364
 3922SOL    HW118112   5.094   2.893   6.175  0.1051 -1.3608  0.2209
 3922SOL    HW218113   4.952   2.874   6.126 -0.5418  1.2787  0.8973
 3923SOL     OW18114   0.359   7.840   8.900  0.2007  0.0009  0.5138
 3923SOL    HW118115   0.402   7.864   8.819 -0.2918  0.8700  0.4993
 3923SOL    HW218116   0.298   7.911   8.918 -1.6768 -1.4437  0.2098
 3924SOL     OW18117   1.511   7.320   5.148  0.3094 -0.0337 -0.4429
 3924SOL    HW118118   1.567   7.395   5.167  0.5752  0.3028 -2.3265
 3924SOL    HW218119   1.569   7.244   5.159  0.6630  0.1957 -0.6896
 3925SOL     OW18120   7.896   7.327   5.259 -0.9935 -0.3904 -0.0152
 3925SOL    HW118121   7.882   7.398   5.196  1.6259  0.6610  0.4665
 3925SOL    HW218122   7.849   7.252   5.222  0.3075  0.2046 -3.2122
 3926SOL     OW18123   0.622   7.189   1.656 -0.4023 -0.3524  0.1277
 3926SOL    HW118124   0.681   7.126   1.697 -0.0821  0.9045  1.6962
 3926SOL    HW218125   0.678   7.262   1.631 -0.7898 -0.5705 -1.5382
 3927SOL     OW18126   4.953   7.065   7.355  0.0827 -0.1254 -0.4817
 3927SOL    HW118127   4.969   7.140   7.299  1.2956 -0.1016 -0.1327
 3927SOL    HW218128   5.023   7.068   7.421 -0.5336 -0.8911  0.2409
 3928SOL     OW18129   4.162   2.418   0.113 -1.1148  0.1045  1.0741
 3928SOL    HW118130   4.225   2.379   0.174 -0.6951  1.0414  1.2518
 3928SOL    HW218131   4.115   2.343   0.076  0.5329 -0.6598  0.4613
 3929SOL     OW18132   4.060   0.403   4.877 -0.0117 -0.2430  0.0591
 3929SOL    HW118133   4.000   0.478   4.873 -1.1109 -1.1341 -2.1249
 3929SOL    HW218134   4.145   0.440   4.855 -0.5659  0.4083 -1.1464
 3930SOL     OW18135   6.590   2.781   8.999 -0.5746  0.3625  0.1050
 3930SOL    HW118136   6.630   2.773   8.912  1.7785 -1.0665  1.2072
 3930SOL    HW218137   6.564   2.873   9.005  1.7262  1.1901 -1.1419
 3931SOL     OW18138   7.157   2.229   2.416  0.0939  0.1207 -0.2015
 3931SOL    HW118139   7.115   2.243   2.500 -0.1788 -0.5181 -0.2319
 3931SOL    HW218140   7.205   2.311   2.400  0.5708  0.0479  0.8074
 3932SOL     OW18141   1.019   5.197   3.635 -0.1156 -0.4106  0.2510
 3932SOL    HW118142   0.979   5.276   3.671 -0.6092 -0.3379 -0.4369
 3932SOL    HW218143   1.075   5.164   3.706 -1.3349 -0.4761  1.2198
 3933SOL     OW18144   1.926   1.462   3.888 -0.0327  0.2749  0.7114
 3933SOL    HW118145   1.848   1.416   3.856 -0.0169  0.3326  0.5918
 3933SOL    HW218146   1.894   1.549   3.912  0.3220  0.9064 -0.9894
 3934SOL     OW18147   7.580   6.898   4.610  0.1811  0.1715 -0.6507
 3934SOL    HW118148   7.563   6.860   4.696 -0.5789 -1.5659 -1.5391
 3934SOL    HW218149   7.627   6.830   4.562 -0.5118  0.6265 -2.0287
 3935SOL     OW18150   4.950   2.250   7.073 -1.0098 -0.1621 -1.1217
 3935SOL    HW118151   4.867   2.272   7.116 -0.6018 -0.2364 -0.2704
 3935SOL    HW218152   4.960   2.155   7.087  0.2573  0.1906  0.7080
 3936SOL     OW18153   5.038   4.380   8.074  0.0872  0.2537 -0.1530
 3936SOL    HW118154   5.009   4.353   8.162  0.8923 -0.5159 -0.1034
 3936SOL    HW218155   5.039   4.298   8.024  1.6958  0.3109 -0.2691
 3937SOL     OW18156   3.095   2.375   0.611  0.0235  0.1141  0.7513
 3937SOL    HW118157   3.029   2.341   0.550  0.1788  0.4722  0.3788
 3937SOL    HW218158   3.086   2.321   0.689  0.5299 -1.0467  0.0261
 3938SOL     OW18159   7.088   3.252   2.704 -0.0786 -0.1361  0.5768
 3938SOL    HW118160   7.100   3.336   2.661 -0.8899  0.2826  1.1347
 3938SOL    HW218161   7.096   3.187   2.634 -1.5503  0.5382 -0.2615
 3939SOL     OW18162   1.518   3.380   7.710 -0.2812  0.2197  0.3790
 3939SOL    HW118163   1.479   3.435   7.643  0.2164 -0.0887 -0.1815
 3939SOL    HW218164   1.612   3.401   7.707 -0.0936 -0.5881  0.2085
 3940SOL     OW18165   5.847   8.979   0.210 -0.4350  0.0266 -0.6463
 3940SOL    HW118166   5.865   8.954   0.119  0.3179  2.2659 -1.1871
 3940SOL    HW218167   5.758   9.014   0.208  0.2440  1.8624 -1.0018
 3941SOL     OW18168   1.198   7.789   5.936 -0.1329  0.1179 -0.4336
 3941SOL    HW118169   1.249   7.755   6.010 -0.3433 -0.3226 -0.4867
 3941SOL    HW218170   1.247   7.865   5.907  1.0733 -0.8782 -1.1195
 3942SOL     OW18171   8.502   4.427   6.335  0.2932 -0.4277 -0.1200
 3942SOL    HW118172   8.532   4.338   6.354  2.9314  0.2973 -0.3942
 3942SOL    HW218173   8.473   4.461   6.419  2.6905 -0.4301  0.8003
 3943SOL     OW18174   1.098   3.778   8.896  0.1252 -0.2754  0.1595
 3943SOL    HW118175   1.011   3.750   8.924 -0.5047  1.4568  0.0088
 3943SOL    HW218176   1.147   3.793   8.977 -0.6227  1.4385  0.3330
 3944SOL     OW18177   0.074   4.672   3.044 -0.2028  0.2553 -0.3164
 3944SOL    HW118178  -0.019   4.674   3.024 -0.4112 -0.3404  0.5913
 3944SOL    HW218179   0.081   4.709   3.132  0.3193 -0.5183 -0.0268
 3945SOL     OW18180   4.302   4.675   1.100 -0.1815 -0.0947 -0.8822
 3945SOL    HW118181   4.385   4.669   1.148 -0.4542 -1.7512 -0.5656
 3945SOL    HW218182   4.243   4.719   1.161  0.0177 -0.3900 -0.4735
 3946SOL     OW18183   1.937   7.784   7.269  0.4191 -0.0887 -0.0131
 3946SOL    HW118184   1.939   7.846   7.342 -3.9190 -0.0022  0.3044
 3946SOL    HW218185   1.956   7.837   7.192 -2.1814  1.5355  0.3646
 3947SOL     OW18186   8.781   3.422   7.855 -0.0814  0.4649 -0.1248
 3947SOL    HW118187   8.852   3.433   7.919  1.2062  1.3491 -1.6385
 3947SOL    HW218188   8.715   3.486   7.881  0.1347  0.3627  0.6990
 3948SOL     OW18189   2.957   9.126   6.151 -0.8133  0.4884 -0.6542
 3948SOL    HW118190   2.942   9.200   6.210 -0.3654  0.3579 -0.3788
 3948SOL    HW218191   2.977   9.167   6.067 -1.4390  0.6735 -0.7151
 3949SOL     OW18192   8.046   8.307   4.806  0.1431  0.2578 -0.2206
 3949SOL    HW118193   7.966   8.349   4.839  0.5601 -0.0962  1.3029
 3949SOL    HW218194   8.098   8.380   4.772 -0.0499  0.7232  0.4507
 3950SOL     OW18195   6.773   6.430   8.467  0.3485  0.0422 -0.5574
 3950SOL    HW118196   6.715   6.388   8.530  0.7273 -0.1350 -0.3234
 3950SOL    HW218197   6.843   6.367   8.453  0.9141  0.5881 -0.2080
 3951SOL     OW18198   0.055   0.462   8.352 -0.2106 -0.1193 -0.6138
 3951SOL    HW118199   0.018   0.550   8.351  0.6320  0.3701  1.9680
 3951SOL    HW218200   0.147   0.475   8.376 -0.2741 -1.6973  0.7138
 3952SOL     OW18201   2.185   7.287   6.546 -0.2921 -0.5060 -0.4568
 3952SOL    HW118202   2.220   7.213   6.496 -2.6512 -2.5460  0.6509
 3952SOL    HW218203   2.239   7.291   6.625  0.3560 -0.5159 -0.8972
 3953SOL     OW18204   4.524   4.064   7.320  0.2020 -0.1472  0.4913
 3953SOL    HW118205   4.495   3.988   7.270  0.5409  0.4341 -0.6454
 3953SOL    HW218206   4.446   4.119   7.329  0.6614  0.9892 -1.7696
 3954SOL     OW18207   2.908   3.432   8.901  0.1533  0.3704 -0.3994
 3954SOL    HW118208   2.979   3.377   8.933 -1.3414 -0.9810  0.7717
 3954SOL    HW218209   2.832   3.407   8.953 -0.5770  3.8428  0.5198
 3955SOL     OW18210   1.121   0.741   7.827 -0.8180 -0.4028 -0.4381
 3955SOL    HW118211   1.063   0.816   7.835 -2.1877 -1.5745  1.4910
 3955SOL    HW218212   1.188   0.755   7.894 -1.4010 -1.1258  0.3212
 3956SOL     OW18213   3.550   0.953   2.547  0.7733  0.6038 -0.0860
 3956SOL    HW118214   3.586   1.036   2.578  1.9188  0.5689 -1.1996
 3956SOL    HW218215   3.499   0.977   2.469 -0.3387  0.4540  0.5782
 3957SOL     OW18216   0.700   8.491   8.146  0.2061  0.8607 -0.5706
 3957SOL    HW118217   0.727   8.400   8.159 -1.0549  0.2644 -1.7288
 3957SOL    HW218218   0.727   8.511   8.056 -0.3828  1.2924 -0.6570
 3958SOL     OW18219   8.756   5.861   4.882 -0.5021 -0.0142  0.0548
 3958SOL    HW118220   8.806   5.904   4.951 -0.2185 -0.1436 -0.0660
 3958SOL    HW218221   8.760   5.768   4.904  0.8217 -0.2141 -0.9126
 3959SOL     OW18222   1.559   1.543   6.994 -0.4942 -0.5431  0.0147
 3959SOL    HW118223   1.478   1.586   6.968 -0.0072  0.6401  0.4061
 3959SOL    HW218224   1.538   1.497   7.075 -0.6506  0.1923  0.3987
 3960SOL     OW18225   6.284   8.028   6.720  0.1556  0.2675  0.0180
 3960SOL    HW118226   6.277   8.121   6.744  0.9144  0.3776 -0.1605
 3960SOL    HW218227   6.195   7.994   6.729 -0.3925  1.3188 -1.1993
 3961SOL     OW18228   8.434   3.474   3.623  0.2608  0.5075  0.1622
 3961SOL    HW118229   8.384   3.402   3.660 -0.8907  0.4712 -1.3634
 3961SOL    HW218230   8.399   3.553   3.664  1.3258  0.2660  1.6194
 3962SOL     OW18231   4.035   6.540   8.721  0.5699 -0.0275  0.0303
 3962SOL    HW118232   4.082   6.460   8.746  0.5506 -0.5587 -1.5375
 3962SOL    HW218233   3.956   6.540   8.775  0.8413 -0.7789  0.4352
 3963SOL     OW18234   5.067   8.049   4.772  0.5589  0.0820  0.0477
 3963SOL    HW118235   5.159   8.043   4.798  0.5555 -0.3131 -0.0199
 3963SOL    HW218236   5.021   7.992   4.833  0.3006  0.6142  0.3509
 3964SOL     OW18237   4.370   7.720   3.457  0.8045 -0.3971  0.1776
 3964SOL    HW118238   4.306   7.718   3.528  0.0782  0.5344 -0.4232
 3964SOL    HW218239   4.330   7.667   3.388  1.3041 -0.9293  0.2951
 3965SOL     OW18240   1.346   6.949   8.658 -0.0178  0.5011  0.2694
 3965SOL    HW118241   1.424   6.963   8.711 -0.0745  2.1434 -0.0423
 3965SOL    HW218242   1.273   6.969   8.717 -0.1281  0.9411 -0.0125
 3966SOL     OW18243   3.541   3.897   5.803 -0.2073  0.9398 -0.3202
 3966SOL    HW118244   3.508   3.858   5.722  0.2490 -1.1761  0.4481
 3966SOL    HW218245   3.613   3.954   5.775 -0.2877  0.5128 -1.4338
 3967SOL     OW18246   0.350   5.070   2.440 -0.1600  0.3237 -0.8215
 3967SOL    HW118247   0.287   5.065   2.368 -0.2739 -0.8861 -0.6584
 3967SOL    HW218248   0.315   5.136   2.499 -1.3298 -0.3913 -0.6951
 3968SOL     OW18249   0.014   9.126   4.647 -0.3101 -0.3859  0.0239
 3968SOL    HW118250   0.046   9.211   4.677 -0.4088 -0.7696  1.2589
 3968SOL    HW218251   0.086   9.065   4.666  0.3720 -0.3764 -2.2132
 3969SOL     OW18252   4.596   3.067   7.482 -0.0975  0.1922 -0.0226
 3969SOL    HW118253   4.544   2.994   7.446  0.5010 -0.4895  0.4589
 3969SOL    HW218254   4.544   3.145   7.463 -0.7573 -0.3612 -0.5537
 3970SOL     OW18255   0.637   6.825   4.951 -0.2404 -0.5375 -0.1202
 3970SOL    HW118256   0.714   6.835   4.895 -0.9501 -1.1757 -1.2444
 3970SOL    HW218257   0.661   6.871   5.032  0.9860  0.0159 -0.7559
 3971SOL     OW18258   3.874   4.919   6.334  0.2413 -0.1216 -0.5309
 3971SOL    HW118259   3.921   4.982   6.280  1.3484  0.5261  1.0887
 3971SOL    HW218260   3.930   4.841   6.335 -0.5157 -0.6950 -1.5184
 3972SOL     OW18261   2.345   7.219   7.911 -0.2177  0.4939  0.1266
 3972SOL    HW118262   2.368   7.147   7.853 -0.6194 -1.2116  1.9689
 3972SOL    HW218263   2.249   7.219   7.912 -0.2156  0.8693  0.3651
 3973SOL     OW18264   8.361   1.580   3.370  0.0567 -0.6366 -0.0267
 3973SOL    HW118265   8.365   1.505   3.430  1.1509 -0.4030  0.2060
 3973SOL    HW218266   8.272   1.577   3.335  0.5545 -3.1100 -1.3896
 3974SOL     OW18267   5.896   4.779   2.630 -0.4045 -0.5188 -0.2003
 3974SOL    HW118268   5.813   4.730   2.630 -1.4214  1.1040  1.7032
 3974SOL    HW218269   5.954   4.728   2.687 -0.5433 -0.9049 -0.3981
 3975SOL     OW18270   2.130   8.296   5.547  0.2596  0.3993  0.2979
 3975SOL    HW118271   2.153   8.388   5.531 -0.9119  0.4716 -1.2815
 3975SOL    HW218272   2.185   8.269   5.620  0.5565  2.3859  0.8598
 3976SOL     OW18273   5.904   8.484   5.391  0.4748  0.1298  0.3610
 3976SOL    HW118274   5.811   8.506   5.389  0.0289 -1.5873  0.3231
 3976SOL    HW218275   5.945   8.548   5.333 -0.7535  0.6045 -0.0289
 3977SOL     OW18276   5.073   3.653   0.491  0.5664  0.1469 -1.2340
 3977SOL    HW118277   4.987   3.614   0.474 -0.3324  0.9368  1.1344
 3977SOL    HW218278   5.131   3.578   0.503  0.1744 -0.3967 -2.5498
 3978SOL     OW18279   7.264   6.939   8.380  0.1326  0.4290  0.8342
 3978SOL    HW118280   7.293   6.880   8.311 -0.1821  0.0753  0.9988
 3978SOL    HW218281   7.171   6.917   8.393 -0.6504  2.4950 -0.6831
 3979SOL     OW18282   4.847   8.623   2.468 -0.3464 -0.0856 -0.3399
 3979SOL    HW118283   4.879   8.669   2.390  0.6653 -2.3462 -1.3559
 3979SOL    HW218284   4.752   8.626   2.461 -0.3590  2.4469  0.0669
 3980SOL     OW18285   4.793   8.563   2.169  0.4905 -0.3474 -0.0611
 3980SOL    HW118286   4.834   8.649   2.180  1.1338 -0.5992 -0.4322
 3980SOL    HW218287   4.862   8.508   2.133 -0.3474 -0.6223 -1.2967
 3981SOL     OW18288   2.729   8.414   5.882  0.5475  0.7746  0.3500
 3981SOL    HW118289   2.720   8.330   5.836 -0.8657  0.3885  1.2819
 3981SOL    HW218290   2.823   8.421   5.898  0.7521 -0.3901 -0.1826
 3982SOL     OW18291   5.860   8.553   1.409 -0.0006  0.3222  0.1323
 3982SOL    HW118292   5.813   8.618   1.357  0.0781  0.8662  0.7324
 3982SOL    HW218293   5.884   8.600   1.489 -1.5308 -0.9665  1.3951
 3983SOL     OW18294   0.573   0.414   5.861  0.2705  0.1012 -0.4518
 3983SOL    HW118295   0.626   0.448   5.933 -0.4814  1.4116 -0.4766
 3983SOL    HW218296   0.629   0.349   5.819  0.6011 -0.9526  1.4916
 3984SOL     OW18297   3.486   2.881   3.069  0.2284 -0.3076 -0.1593
 3984SOL    HW118298   3.487   2.874   2.973 -1.4123 -2.1429 -0.0977
 3984SOL    HW218299   3.577   2.863   3.095  0.4291 -1.0974 -1.3104
 3985SOL     OW18300   4.567   7.667   3.093  0.0273  0.2694 -0.4728
 3985SOL    HW118301   4.654   7.704   3.102  0.0243 -0.0499  1.2250
 3985SOL    HW218302   4.523   7.723   3.029  1.5492  0.2491 -1.5738
 3986SOL     OW18303   8.601   0.153   1.335 -0.5702 -0.2169 -0.5455
 3986SOL    HW118304   8.565   0.076   1.291 -0.1089 -1.9600  1.9171
 3986SOL    HW218305   8.524   0.208   1.353 -1.0119 -0.4456 -1.6392
 3987SOL     OW18306   7.492   2.774   6.406 -0.6685  0.3970  0.3151
 3987SOL    HW118307   7.573   2.825   6.411 -0.5882  0.3294 -0.3242
 3987SOL    HW218308   7.520   2.685   6.384 -0.9657  0.5390 -0.6864
 3988SOL     OW18309   7.914   0.803   0.153 -0.1003  0.6838  0.8420
 3988SOL    HW118310   7.913   0.708   0.157 -1.3886  0.6780  0.8112
 3988SOL    HW218311   7.928   0.823   0.061  1.3014  0.5471  1.0118
 3989SOL     OW18312   3.970   0.621   4.484  0.1802  0.1103 -0.5338
 3989SOL    HW118313   4.004   0.700   4.442  0.4171  0.9890  1.2190
 3989SOL    HW218314   4.045   0.584   4.530 -0.1359 -0.6634 -0.6310
 3990SOL     OW18315   3.158   5.449   2.984  0.3410 -0.2112 -0.0014
 3990SOL    HW118316   3.134   5.358   3.002 -0.0391 -0.4564 -1.6395
 3990SOL    HW218317   3.253   5.449   2.979  0.5032 -0.0697  2.1788
 3991SOL     OW18318   8.841   1.046   1.893 -0.0307 -0.2343 -0.0898
 3991SOL    HW118319   8.764   1.089   1.930 -1.7563 -2.4675 -0.8584
 3991SOL    HW218320   8.807   0.995   1.819  2.3548 -0.5760 -1.0422
 3992SOL     OW18321   8.902   0.248   8.217 -0.1031 -0.1297 -0.3283
 3992SOL    HW118322   8.857   0.166   8.195  0.4761  0.0954 -2.5397
 3992SOL    HW218323   8.847   0.287   8.286 -0.3337 -2.3864  0.8700
 3993SOL     OW18324   8.787   0.970   2.771 -0.1835 -0.0940 -0.3450
 3993SOL    HW118325   8.724   0.945   2.839  0.0233  2.0457  0.7185
 3993SOL    HW218326   8.734   0.981   2.692 -1.2631  1.8855  0.5859
 3994SOL     OW18327   8.528   2.076   3.427 -0.1184  0.4377  0.3957
 3994SOL    HW118328   8.457   2.126   3.467 -1.7195 -1.1487 -0.2984
 3994SOL    HW218329   8.497   1.985   3.430  1.3895 -0.1642 -0.9693
 3995SOL     OW18330   7.692   6.538   5.737  0.1324  0.3817  0.1020
 3995SOL    HW118331   7.656   6.499   5.817  2.3515  0.8372  1.4124
 3995SOL    HW218332   7.689   6.468   5.673 -0.5765 -0.3735  0.9192
 3996SOL     OW18333   5.145   1.522   4.943 -0.5658  0.5186  0.2679
 3996SOL    HW118334   5.089   1.573   5.003 -0.6614 -0.0923  0.7137
 3996SOL    HW218335   5.090   1.449   4.916 -0.6306  0.9598 -0.8382
 3997SOL     OW18336   8.800   0.413   6.239  0.2716 -0.6415 -0.8487
 3997SOL    HW118337   8.763   0.484   6.290 -0.0157  0.6734 -2.7927
 3997SOL    HW218338   8.871   0.379   6.294  0.6661  1.3824 -0.0290
 3998SOL     OW18339   4.131   0.070   5.510 -0.1121  0.5350 -0.3561
 3998SOL    HW118340   4.061   0.067   5.445 -1.6596  0.7909  1.2376
 3998SOL    HW218341   4.091   0.036   5.590  0.1731  4.6362  1.7955
 3999SOL     OW18342   3.691   4.852   1.875 -0.1389  0.0288 -0.0137
 3999SOL    HW118343   3.706   4.868   1.968 -1.8719  1.0962  0.1283
 3999SOL    HW218344   3.742   4.919   1.830 -0.2553  0.2651  0.2114
 4000SOL     OW18345   2.237   5.890   5.814  0.0101 -0.0104 -0.2587
 4000SOL    HW118346   2.232   5.819   5.878  0.3005  0.4607  0.2906
 4000SOL    HW218347   2.245   5.970   5.866  0.8306  0.3321 -0.8837
 4001SOL     OW18348   0.170   2.890   4.368 -0.2688  0.2823 -0.3139
 4001SOL    HW118349   0.139   2.968   4.414  1.2905  0.0085  1.3348
 4001SOL    HW218350   0.194   2.921   4.281 -0.4308  1.4772  0.0504
 4002SOL     OW18351   1.018   7.103   1.893  0.2780  0.3161 -0.2470
 4002SOL    HW118352   1.112   7.121   1.900  0.2498  0.6179 -0.6555
 4002SOL    HW218353   0.979   7.153   1.965  0.1075  2.6432 -1.8562
 4003SOL     OW18354   6.473   5.597   7.224  0.6390 -0.0262 -0.1523
 4003SOL    HW118355   6.458   5.510   7.186 -0.2236  0.0631 -0.0421
 4003SOL    HW218356   6.475   5.582   7.318 -1.0547  0.2569 -0.0353
 4004SOL     OW18357   2.508   4.471   5.284 -0.1163 -0.3758  0.2926
 4004SOL    HW118358   2.522   4.395   5.227  0.5850 -0.6588  0.8281
 4004SOL    HW218359   2.593   4.514   5.290 -0.6465  0.8334 -0.5137
 4005SOL     OW18360   8.001   4.309   4.727  0.2251 -0.5804 -0.2201
 4005SOL    HW118361   7.909   4.294   4.748  0.2869  0.5281  1.0102
 4005SOL    HW218362   8.025   4.237   4.668 -1.7059 -0.2627 -1.4531
 4006SOL     OW18363   5.350   8.619   8.532 -0.2578  0.3462  0.7588
 4006SOL    HW118364   5.378   8.530   8.512 -1.2154 -0.0025  0.9214
 4006SOL    HW218365   5.331   8.619   8.626  0.9793  1.0758  1.0241
 4007SOL     OW18366   6.669   4.042   6.752  0.2894 -0.6234  0.7229
 4007SOL    HW118367   6.727   3.981   6.798  0.8308 -0.3480  0.4094
 4007SOL    HW218368   6.690   4.031   6.659 -0.0724 -0.4313  0.6149
 4008SOL     OW18369   1.302   4.239   6.399 -0.0414  0.2380  0.3377
 4008SOL    HW118370   1.364   4.273   6.463  0.2593  1.7903 -0.7240
 4008SOL    HW218371   1.294   4.146   6.421 -0.4610  0.8333  3.0040
 4009SOL     OW18372   2.063   0.820   2.232  0.4846  0.5182 -0.0975
 4009SOL    HW118373   2.013   0.829   2.151  1.0806 -1.8164 -0.7973
 4009SOL    HW218374   2.010   0.764   2.288  1.3763 -0.3063 -0.0497
 4010SOL     OW18375   2.693   1.874   6.485 -0.2683  0.1051  0.1983
 4010SOL    HW118376   2.734   1.942   6.430 -0.2523 -1.8026 -2.2975
 4010SOL    HW218377   2.766   1.837   6.535 -0.0024  0.7895  0.3322
 4011SOL     OW18378   5.191   4.551   5.787 -0.6920  0.0816  0.1819
 4011SOL    HW118379   5.166   4.463   5.758  1.4084 -0.8089  0.8953
 4011SOL    HW218380   5.147   4.562   5.871 -0.5017 -0.5413  0.3678
 4012SOL     OW18381   5.788   3.463   4.719 -0.4138  0.2271 -0.0096
 4012SOL    HW118382   5.741   3.482   4.638  0.1720 -0.1227 -0.4335
 4012SOL    HW218383   5.754   3.527   4.782 -0.2064  1.1013 -0.7776
 4013SOL     OW18384   5.492   6.311   8.943  0.0546  0.2527 -0.0483
 4013SOL    HW118385   5.509   6.242   8.878 -0.2013  0.5355 -0.4193
 4013SOL    HW218386   5.547   6.384   8.916  1.3857 -0.2684  1.1437
 4014SOL     OW18387   3.214   4.697   7.522 -0.2547  0.3333 -0.6656
 4014SOL    HW118388   3.271   4.676   7.596 -0.0972  2.1804 -0.2211
 4014SOL    HW218389   3.184   4.611   7.490  0.1458 -0.5228  1.1405
 4015SOL     OW18390   3.750   5.984   5.429 -0.3070  0.1029  0.5061
 4015SOL    HW118391   3.708   6.026   5.505 -3.4777 -1.2366 -0.3266
 4015SOL    HW218392   3.746   5.891   5.449  0.2856 -0.1772 -0.6248
 4016SOL     OW18393   6.412   6.450   3.860 -0.1029 -0.1291  0.5470
 4016SOL    HW118394   6.342   6.418   3.803  0.0771 -0.5723  0.5743
 4016SOL    HW218395   6.452   6.522   3.810  0.2882 -0.7453 -0.0449
 4017SOL     OW18396   6.064   8.750   8.757  0.5248 -0.0687  0.3136
 4017SOL    HW118397   5.988   8.740   8.699 -0.3588 -0.4383  1.4992
 4017SOL    HW218398   6.066   8.843   8.779  0.7167  0.0293 -0.1124
 4018SOL     OW18399   1.922   2.240   8.733  0.0704  0.0194 -0.7009
 4018SOL    HW118400   1.829   2.221   8.732  0.0733 -0.0147 -0.3295
 4018SOL    HW218401   1.934   2.306   8.664 -0.0559 -0.7519 -1.4758
 4019SOL     OW18402   5.861   7.967   2.236 -0.6588  0.5528 -0.3427
 4019SOL    HW118403   5.903   8.043   2.274 -0.5542  0.1590  0.3460
 4019SOL    HW218404   5.794   7.942   2.300 -1.3588  0.6505 -1.0175
 4020SOL     OW18405   3.017   7.017   1.385  0.5385 -0.6166 -0.0492
 4020SOL    HW118406   3.066   7.072   1.447  1.4871 -0.4707 -0.8914
 4020SOL    HW218407   2.947   7.074   1.354  1.2789  0.0193 -0.6195
 4021SOL     OW18408   2.330   3.122   5.991  0.1804  0.0324 -0.4442
 4021SOL    HW118409   2.371   3.120   5.905 -0.5252  2.5206 -0.8943
 4021SOL    HW218410   2.392   3.169   6.046  0.3682 -1.0512  0.3083
 4022SOL     OW18411   5.683   0.116   4.317 -0.1436 -0.0031  0.2604
 4022SOL    HW118412   5.649   0.052   4.380 -1.2681  0.2841 -0.0403
 4022SOL    HW218413   5.606   0.145   4.268  0.4347  1.2145  0.0505
 4023SOL     OW18414   0.634   8.896   1.590  0.1665 -0.0723  0.5149
 4023SOL    HW118415   0.692   8.895   1.514 -0.8122  0.1509 -0.2540
 4023SOL    HW218416   0.650   8.811   1.632  0.7192 -0.2017  0.0651
 4024SOL     OW18417   9.042   1.853   2.070  0.9127 -0.1227  0.2474
 4024SOL    HW118418   8.983   1.877   1.998 -0.6779  0.4323  1.6735
 4024SOL    HW218419   8.984   1.819   2.138  2.5869 -3.1836  0.3516
 4025SOL     OW18420   1.065   2.288   2.394 -0.3337  0.1039  0.1710
 4025SOL    HW118421   1.110   2.311   2.313 -0.6999 -0.9472 -0.3508
 4025SOL    HW218422   0.975   2.316   2.380 -0.1042  1.1865  0.7743
 4026SOL     OW18423   3.403   8.528   2.678 -0.1242 -0.2576 -0.1164
 4026SOL    HW118424   3.354   8.446   2.688 -0.0177 -0.1471  1.7365
 4026SOL    HW218425   3.372   8.583   2.750  2.2345  0.0358  0.7875
 4027SOL     OW18426   0.301   2.648   1.584  0.3507 -0.0351  0.3797
 4027SOL    HW118427   0.387   2.606   1.582  1.1093  1.4512  0.0437
 4027SOL    HW218428   0.307   2.710   1.657 -0.6682 -0.3760  0.7613
 4028SOL     OW18429   1.881   1.480   4.795 -0.2313 -0.1658  0.0924
 4028SOL    HW118430   1.959   1.534   4.809 -0.4960 -0.2119  1.8709
 4028SOL    HW218431   1.819   1.508   4.862 -1.1845 -1.1956 -0.3224
 4029SOL     OW18432   5.872   0.373   2.882 -0.2888 -0.0560  0.1332
 4029SOL    HW118433   5.829   0.424   2.814 -1.7697  1.8913  2.3689
 4029SOL    HW218434   5.944   0.428   2.912  0.0718 -0.6826  0.4428
 4030SOL     OW18435   6.321   2.184   8.655 -0.0788  0.7262 -0.0106
 4030SOL    HW118436   6.336   2.190   8.749  0.3310  1.7547 -0.1249
 4030SOL    HW218437   6.281   2.268   8.632 -0.6419  0.2829 -0.6737
 4031SOL     OW18438   6.172   5.509   1.152  0.6640 -0.5702 -0.1959
 4031SOL    HW118439   6.267   5.509   1.152  0.7137 -2.9204  0.7712
 4031SOL    HW218440   6.147   5.500   1.244 -0.6527  3.6114  0.0601
 4032SOL     OW18441   7.437   6.526   8.464  0.5865  0.0950 -0.7233
 4032SOL    HW118442   7.408   6.456   8.405  1.3239  1.1053 -2.3129
 4032SOL    HW218443   7.364   6.535   8.526 -0.1250 -1.1326 -1.3352
 4033SOL     OW18444   8.013   8.835   2.162  0.2485 -0.5559  0.3040
 4033SOL    HW118445   8.035   8.912   2.110 -0.0108 -1.3527 -1.0581
 4033SOL    HW218446   8.091   8.780   2.158 -0.4009 -1.4570 -0.8861
 4034SOL     OW18447   4.269   0.591   4.410 -0.0909 -0.0311  0.0356
 4034SOL    HW118448   4.361   0.570   4.422  0.0490  0.9941  0.8726
 4034SOL    HW218449   4.246   0.550   4.326  0.2287 -3.0834  1.3328
 4035SOL     OW18450   6.102   0.959   8.868  0.7951 -0.3792  0.1276
 4035SOL    HW118451   6.171   1.026   8.865 -1.0817  1.6931  0.9293
 4035SOL    HW218452   6.144   0.884   8.911  3.0596  0.1065 -1.0838
 4036SOL     OW18453   0.729   2.254   7.175 -0.0998 -0.5950 -0.1775
 4036SOL    HW118454   0.814   2.216   7.198 -0.2208 -0.5171  0.4264
 4036SOL    HW218455   0.716   2.232   7.083  1.0190  0.2335 -0.5485
 4037SOL     OW18456   1.823   1.065   5.348  0.1553 -0.1056 -0.2976
 4037SOL    HW118457   1.759   1.064   5.277 -1.1327  1.1939  0.7932
 4037SOL    HW218458   1.872   1.147   5.335  1.5953 -1.0416 -1.0726
 4038SOL     OW18459   2.938   6.069   4.601 -0.0326  0.5635 -0.0877
 4038SOL    HW118460   2.900   6.019   4.529  2.6411 -0.5419 -0.8714
 4038SOL    HW218461   2.951   6.157   4.564 -0.3616  0.5141 -0.3266
 4039SOL     OW18462   7.853   0.808   2.181 -0.4426  0.9947  0.2390
 4039SOL    HW118463   7.841   0.797   2.275 -0.9324  0.2481  0.0963
 4039SOL    HW218464   7.917   0.741   2.157 -2.1003 -0.4399 -0.3451
 4040SOL     OW18465   1.606   5.414   0.041  0.0079 -0.0133  0.0042
 4040SOL    HW118466   1.514   5.406   0.069 -0.2791  1.0289 -0.6064
 4040SOL    HW218467   1.609   5.495  -0.009  1.9670  1.7937  2.7898
 4041SOL     OW18468   7.382   3.507   2.524  0.1414  0.4497 -0.3538
 4041SOL    HW118469   7.341   3.423   2.504  1.3486 -0.5437  1.0942
 4041SOL    HW218470   7.392   3.507   2.619  1.6787  1.4972 -0.4791
 4042SOL     OW18471   4.898   7.929   0.067  0.2852  0.0564  0.5863
 4042SOL    HW118472   4.887   8.017   0.031 -0.0255 -0.3649 -0.3886
 4042SOL    HW218473   4.885   7.870  -0.008 -3.1185 -0.9974  1.7839
 4043SOL     OW18474   1.498   1.294   6.474 -0.2280  0.4076 -0.0001
 4043SOL    HW118475   1.494   1.260   6.384  2.3679 -0.6486  0.2002
 4043SOL    HW218476   1.474   1.219   6.529 -2.0235  1.1081  0.2350
 4044SOL     OW18477   1.849   1.565   7.760  0.0723 -0.1623  0.4120
 4044SOL    HW118478   1.864   1.495   7.696  3.4615 -0.3733  1.2713
 4044SOL    HW218479   1.856   1.646   7.710  1.6007 -0.3628  0.2408
 4045SOL     OW18480   2.834   8.237   3.428  0.4824  0.4995 -0.5542
 4045SOL    HW118481   2.823   8.253   3.334  1.4528  3.0598 -0.3228
 4045SOL    HW218482   2.803   8.318   3.469 -2.7072 -1.6261  1.6308
 4046SOL     OW18483   0.442   0.423   7.561 -0.1425  0.6189 -0.3190
 4046SOL    HW118484   0.524   0.465   7.588 -0.2271 -0.3977  1.6887
 4046SOL    HW218485   0.470   0.338   7.526 -0.1780  1.2602 -1.9894
 4047SOL     OW18486   4.271   9.026   9.173  0.1052  0.1347 -0.3217
 4047SOL    HW118487   4.280   8.939   9.134 -1.7039  0.2498 -1.1290
 4047SOL    HW218488   4.248   9.082   9.099  0.4840  1.1506  0.3168
 4048SOL     OW18489   6.542   2.779   2.700 -0.1623 -0.0842  1.1564
 4048SOL    HW118490   6.498   2.716   2.757  1.1218 -0.9162  1.2581
 4048SOL    HW218491   6.592   2.726   2.638 -0.5361  0.8241  0.0369
 4049SOL     OW18492   6.054   9.192   5.344 -0.0142  0.3516  0.0516
 4049SOL    HW118493   6.048   9.264   5.407 -0.1225  1.5051 -1.2290
 4049SOL    HW218494   5.974   9.200   5.292  1.4905  1.4337 -2.2581
 4050SOL     OW18495   1.352   2.422   8.386 -0.0905  0.8199 -0.4662
 4050SOL    HW118496   1.317   2.356   8.326 -1.9226  0.5473  0.8248
 4050SOL    HW218497   1.442   2.392   8.404  0.0947  0.2669 -2.0916
 4051SOL     OW18498   8.826   7.094   0.199 -0.4163  0.0179  0.5706
 4051SOL    HW118499   8.859   7.184   0.196 -1.7815  0.5436  0.5049
 4051SOL    HW218500   8.806   7.079   0.292  0.4576 -0.4874  0.6927
 4052SOL     OW18501   7.326   5.862   0.663  0.0634  0.2999 -0.1316
 4052SOL    HW118502   7.297   5.771   0.664  0.7432  0.0738  0.6814
 4052SOL    HW218503   7.247   5.912   0.644  0.1402 -0.5733 -3.1909
 4053SOL     OW18504   2.601   3.877   3.220  0.4117 -0.0749 -0.2155
 4053SOL    HW118505   2.547   3.946   3.258  1.6665  1.0867 -0.4820
 4053SOL    HW218506   2.553   3.850   3.142 -0.1354  0.4345 -0.0661
 4054SOL     OW18507   1.905   4.550   3.600  0.2090  0.2924  0.1255
 4054SOL    HW118508   1.837   4.492   3.635  1.7768 -1.1223  0.9807
 4054SOL    HW218509   1.942   4.593   3.677  2.7802 -1.8328  0.2248
 4055SOL     OW18510   4.700   5.271   2.062 -0.0454  0.3833 -0.0183
 4055SOL    HW118511   4.722   5.247   2.152  0.4932 -0.4749 -0.3738
 4055SOL    HW218512   4.672   5.190   2.021  0.5266  0.6003 -0.8667
 4056SOL     OW18513   6.756   4.900   4.478 -0.3452  0.1590  0.8752
 4056SOL    HW118514   6.802   4.928   4.398 -1.7526  2.0753  0.6705
 4056SOL    HW218515   6.663   4.906   4.455 -0.7862  1.0747  2.7587
 4057SOL     OW18516   6.856   1.678   3.370 -0.0361 -0.2863  0.0728
 4057SOL    HW118517   6.820   1.764   3.392  0.3573 -0.0809 -0.0571
 4057SOL    HW218518   6.911   1.695   3.293  1.8897 -0.1887  1.3750
 4058SOL     OW18519   4.706   9.061   8.084  0.0962  0.1370  0.3268
 4058SOL    HW118520   4.641   9.114   8.037  0.2674 -1.4243 -1.8240
 4058SOL    HW218521   4.773   9.042   8.019  0.5799 -1.8093  1.3181
 4059SOL     OW18522   3.218   8.706   0.367  0.4556 -0.5665 -0.1067
 4059SOL    HW118523   3.186   8.616   0.361 -1.9815  0.3148 -2.0079
 4059SOL    HW218524   3.296   8.708   0.312 -0.0571 -1.3017 -0.8784
 4060SOL     OW18525   1.233   3.903   5.160  0.1912  0.1213 -0.7860
 4060SOL    HW118526   1.160   3.882   5.102  1.1570 -0.3286 -1.8861
 4060SOL    HW218527   1.278   3.976   5.117  0.3026  0.4905 -0.0491
 4061SOL     OW18528   8.986   2.448   6.933 -0.1744  0.2579 -0.1821
 4061SOL    HW118529   9.041   2.501   6.875 -0.9280 -1.3748 -2.5716
 4061SOL    HW218530   8.914   2.507   6.957 -1.7058  0.1698 -3.8426
 4062SOL     OW18531   0.466   6.912   4.141  0.1027  0.0183 -0.1015
 4062SOL    HW118532   0.479   6.958   4.059 -2.1685  0.9181 -0.0312
 4062SOL    HW218533   0.510   6.828   4.129  2.2063  1.1812 -1.1497
 4063SOL     OW18534   8.607   7.049   3.481 -0.1750  0.3369 -0.1168
 4063SOL    HW118535   8.686   7.055   3.427 -0.6066 -0.1762 -0.8190
 4063SOL    HW218536   8.536   7.071   3.422 -0.6120  0.2781  0.3784
 4064SOL     OW18537   3.285   2.372   4.341 -0.3918  0.0620 -0.2888
 4064SOL    HW118538   3.328   2.454   4.363 -1.3642  0.4489  0.2702
 4064SOL    HW218539   3.356   2.308   4.337  0.4698  1.0424 -1.4238
 4065SOL     OW18540   7.249   7.743   7.889 -0.5670 -0.5226  0.1813
 4065SOL    HW118541   7.339   7.760   7.861 -0.6427 -1.1745 -0.5163
 4065SOL    HW218542   7.238   7.794   7.968 -0.0351  0.6725 -0.4950
 4066SOL     OW18543   2.143   2.804   0.754 -0.1725 -0.0870  0.5802
 4066SOL    HW118544   2.172   2.717   0.780 -0.3607  0.1412  1.5947
 4066SOL    HW218545   2.048   2.802   0.763 -0.4480 -0.5019 -1.7145
 4067SOL     OW18546   1.528   0.107   6.895 -0.2272  0.0824  0.0934
 4067SOL    HW118547   1.453   0.134   6.841 -0.0675  0.9971  0.3056
 4067SOL    HW218548   1.586   0.183   6.894  0.6977 -0.6137 -0.0516
 4068SOL     OW18549   4.415   8.986   1.965  0.2816  0.3065 -0.2917
 4068SOL    HW118550   4.421   8.904   2.015 -0.0813  0.1251 -0.5465
 4068SOL    HW218551   4.364   9.044   2.021  1.5559  0.7733  0.4341
 4069SOL     OW18552   2.711   6.889   0.764  0.0789  0.1919 -0.6365
 4069SOL    HW118553   2.729   6.897   0.670  0.1100  2.2852 -0.5135
 4069SOL    HW218554   2.780   6.832   0.797 -0.3469 -1.1641 -1.9763
 4070SOL     OW18555   2.146   6.965   0.391  0.0500 -0.3199 -0.0320
 4070SOL    HW118556   2.221   6.985   0.447 -0.6578  1.1761  0.4499
 4070SOL    HW218557   2.152   7.028   0.319 -1.6803  1.0829  0.9634
 4071SOL     OW18558   7.930   6.510   1.797 -0.0906 -0.0230 -0.2826
 4071SOL    HW118559   8.012   6.497   1.748 -0.3404 -0.4670 -0.5883
 4071SOL    HW218560   7.932   6.442   1.865 -0.2524 -0.0970 -0.3520
 4072SOL     OW18561   3.407   5.432   9.171 -0.3473 -0.3858  0.0447
 4072SOL    HW118562   3.498   5.463   9.173  0.1747 -1.8292 -0.2203
 4072SOL    HW218563   3.377   5.440   9.262  0.0182  0.1581  0.1238
 4073SOL     OW18564   2.559   2.048   2.779 -0.0296 -0.1424 -0.1051
 4073SOL    HW118565   2.655   2.047   2.781  0.0162 -0.4406 -1.4773
 4073SOL    HW218566   2.532   1.988   2.848  0.7100  1.4604  1.6936
 4074SOL     OW18567   7.082   3.576   7.660  0.0396  0.3167  0.2951
 4074SOL    HW118568   7.113   3.581   7.570 -0.4342 -1.0858  0.0268
 4074SOL    HW218569   7.119   3.494   7.693 -0.0744  0.6474  1.2659
 4075SOL     OW18570   2.166   6.871   1.955 -0.2432  0.0967  0.7555
 4075SOL    HW118571   2.181   6.868   1.861 -2.2711 -1.2477  0.4048
 4075SOL    HW218572   2.202   6.955   1.983 -0.0440  0.7411 -1.2970
 4076SOL     OW18573   6.207   7.616   5.358  0.3565  0.6142 -0.9571
 4076SOL    HW118574   6.275   7.683   5.366  0.3141  0.5525 -0.0426
 4076SOL    HW218575   6.223   7.555   5.430 -0.1480  0.1266 -1.2462
 4077SOL     OW18576   7.530   2.726   5.154 -0.2353  0.3748 -0.1811
 4077SOL    HW118577   7.486   2.652   5.113 -0.7697  0.8665 -0.5180
 4077SOL    HW218578   7.476   2.746   5.231 -0.3882  0.7357 -0.3795
 4078SOL     OW18579   3.382   7.874   2.000  0.0968 -0.2790 -0.9060
 4078SOL    HW118580   3.372   7.836   1.912 -0.0415  0.4858 -1.2343
 4078SOL    HW218581   3.477   7.872   2.016  0.2753  0.8467 -1.6772
 4079SOL     OW18582   2.657   4.491   0.051  0.0926  0.3593 -0.5183
 4079SOL    HW118583   2.705   4.447  -0.018  0.4543 -0.5964  0.3159
 4079SOL    HW218584   2.565   4.470   0.034  0.3354 -1.9524  0.6347
 4080SOL     OW18585   7.459   0.858   3.871 -0.4628 -0.1324  0.1460
 4080SOL    HW118586   7.534   0.897   3.916 -1.0886 -0.0873  1.2071
 4080SOL    HW218587   7.387   0.919   3.889 -0.5022  0.4931 -1.9300
 4081SOL     OW18588   8.166   1.770   4.358 -0.1956  0.5636 -0.1846
 4081SOL    HW118589   8.164   1.726   4.443 -0.4201  0.9827  0.0278
 4081SOL    HW218590   8.166   1.698   4.295 -0.3604  0.2507  0.1619
 4082SOL     OW18591   2.457   7.740   4.400 -0.0539  0.0692 -0.0793
 4082SOL    HW118592   2.548   7.768   4.406  0.4972 -1.6018 -0.0326
 4082SOL    HW218593   2.443   7.686   4.478 -1.5962  1.5670  0.7548
 4083SOL     OW18594   6.394   2.380   8.143 -0.4352 -0.2249 -1.0540
 4083SOL    HW118595   6.476   2.341   8.171 -0.7363  0.7676  1.5410
 4083SOL    HW218596   6.419   2.452   8.086  0.4872 -0.3061 -0.7663
 4084SOL     OW18597   9.106   3.393   8.246 -0.1884  0.1895 -0.1336
 4084SOL    HW118598   9.144   3.311   8.217  1.2053  0.9823 -0.6209
 4084SOL    HW218599   9.080   3.377   8.337  0.8632 -0.5265  0.0459
 4085SOL     OW18600   0.246   8.479   5.113  0.4210  0.1548  0.4569
 4085SOL    HW118601   0.265   8.390   5.082 -0.3273 -0.1388  0.8137
 4085SOL    HW218602   0.266   8.535   5.038  0.3738 -0.3694  0.0467
 4086SOL     OW18603   6.294   0.137   2.606  0.1911  0.2439  0.2240
 4086SOL    HW118604   6.381   0.159   2.574  0.1055  0.0302 -0.1628
 4086SOL    HW218605   6.308   0.060   2.661  0.4958  1.2687  1.6188
 4087SOL     OW18606   0.020   7.323   1.806 -0.7852 -0.0138 -0.1790
 4087SOL    HW118607   0.020   7.274   1.888  1.0234  1.8877  1.0430
 4087SOL    HW218608  -0.061   7.296   1.762 -1.0164 -2.2601  1.4765
 4088SOL     OW18609   0.910   7.255   0.823  0.3762  0.2154 -0.2967
 4088SOL    HW118610   0.983   7.291   0.771 -0.0804  0.3588 -0.8536
 4088SOL    HW218611   0.835   7.310   0.800  0.4284  1.0847  1.4888
 4089SOL     OW18612   5.621   5.800   5.803 -0.2908  0.0032 -0.4067
 4089SOL    HW118613   5.558   5.747   5.851  0.7394 -0.0610  0.9433
 4089SOL    HW218614   5.634   5.753   5.721 -0.0197 -1.4122  0.4077
 4090SOL     OW18615   5.518   7.871   7.623 -0.0522  0.0004  0.4602
 4090SOL    HW118616   5.604   7.830   7.623 -0.6685 -1.3615  1.1132
 4090SOL    HW218617   5.512   7.916   7.708  0.0251  0.1159  0.4042
 4091SOL     OW18618   9.059   1.161   7.109  0.4113 -0.0835  0.1326
 4091SOL    HW118619   9.001   1.139   7.036  1.4520 -0.1236 -0.7096
 4091SOL    HW218620   9.126   1.217   7.071  2.2732 -1.9031  0.5037
 4092SOL     OW18621   8.299   5.625   3.969 -0.0129 -0.8950 -0.2535
 4092SOL    HW118622   8.353   5.548   3.987 -0.8230 -0.9799  2.1562
 4092SOL    HW218623   8.227   5.619   4.032 -1.9193  0.1302 -2.1875
 4093SOL     OW18624   7.792   7.475   0.162  0.3087  0.5197  0.3575
 4093SOL    HW118625   7.758   7.396   0.120  0.8726 -0.5275  1.8122
 4093SOL    HW218626   7.831   7.444   0.243  0.9360  2.2515  0.7484
 4094SOL     OW18627   5.889   3.657   3.351  0.2787  0.1582 -0.5946
 4094SOL    HW118628   5.829   3.612   3.410  0.6385  0.4560  0.0160
 4094SOL    HW218629   5.918   3.734   3.401 -2.0647  2.3863 -2.3888
 4095SOL     OW18630   7.104   1.060   6.666  0.2097 -0.5164 -0.6355
 4095SOL    HW118631   7.199   1.061   6.660  0.1253 -0.0756 -2.7726
 4095SOL    HW218632   7.078   1.151   6.650 -0.5391 -0.2066  1.9368
 4096SOL     OW18633   0.618   4.996   8.709  0.1168  0.3621 -0.1142
 4096SOL    HW118634   0.613   4.936   8.635  0.0296  0.3159 -0.0712
 4096SOL    HW218635   0.532   4.991   8.750 -0.3594  1.5550 -0.9194
 4097SOL     OW18636   6.700   5.516   3.070 -0.1236  0.6734  0.2939
 4097SOL    HW118637   6.665   5.430   3.047 -0.5811  0.9893 -0.2137
 4097SOL    HW218638   6.674   5.529   3.161  1.1985 -0.3375  0.8492
 4098SOL     OW18639   8.671   3.456   0.183  0.0080 -0.1264 -0.2081
 4098SOL    HW118640   8.744   3.510   0.215 -1.8126  1.4681  1.5360
 4098SOL    HW218641   8.677   3.376   0.236  0.3786  0.0719  0.0597
 4099SOL     OW18642   5.308   2.808   1.019  0.0158  0.0690  0.0832
 4099SOL    HW118643   5.299   2.719   0.986  0.0211 -0.5092  1.5627
 4099SOL    HW218644   5.379   2.803   1.083  2.7138  1.9619 -2.4828
 4100SOL     OW18645   8.059   8.209   8.792  0.2673  0.1492 -0.3191
 4100SOL    HW118646   8.116   8.159   8.733  0.4459  2.0937 -1.8780
 4100SOL    HW218647   8.015   8.272   8.736 -2.2977 -0.2494  1.0944
 4101SOL     OW18648   8.436   2.825   5.753  0.6895  0.0172 -0.1468
 4101SOL    HW118649   8.354   2.856   5.716 -1.3442 -3.3181  1.0952
 4101SOL    HW218650   8.439   2.864   5.840 -1.8405 -2.8422  1.4126
 4102SOL     OW18651   3.003   8.552   3.454  0.1108  0.4000  0.1427
 4102SOL    HW118652   3.041   8.464   3.455 -1.7677 -0.4698  1.7354
 4102SOL    HW218653   2.936   8.549   3.386 -1.4681 -0.1666  1.6511
 4103SOL     OW18654   4.154   4.658   9.148 -0.9657  0.0983 -0.4972
 4103SOL    HW118655   4.082   4.685   9.205 -0.0509  0.3451  0.5786
 4103SOL    HW218656   4.233   4.671   9.201 -0.3172 -3.3021 -0.3605
 4104SOL     OW18657   0.473   8.228   5.227  0.6677  0.0288 -0.0201
 4104SOL    HW118658   0.520   8.146   5.211  0.2419 -0.1002 -0.6438
 4104SOL    HW218659   0.536   8.297   5.205  0.5385 -0.1423 -0.9606
 4105SOL     OW18660   0.111   0.915   9.226 -0.2642 -0.1160  0.1823
 4105SOL    HW118661   0.137   0.829   9.258  0.2233  0.1967  0.6593
 4105SOL    HW218662   0.069   0.957   9.301 -0.6408  0.0043 -0.0942
 4106SOL     OW18663   3.767   7.347   4.782 -0.2813  0.3188  0.1454
 4106SOL    HW118664   3.717   7.356   4.863  0.6381  1.7240  0.5866
 4106SOL    HW218665   3.858   7.346   4.810  0.0490  0.8824 -0.8709
 4107SOL     OW18666   2.545   1.974   6.209  0.2970 -0.2270 -1.0266
 4107SOL    HW118667   2.609   2.036   6.175 -0.5041  1.0047 -0.3578
 4107SOL    HW218668   2.563   1.969   6.303  0.4678 -1.1708 -1.0982
 4108SOL     OW18669   4.382   1.553   6.518  0.3364  0.0812 -0.4025
 4108SOL    HW118670   4.463   1.508   6.495  0.5377  0.4309 -0.3846
 4108SOL    HW218671   4.410   1.629   6.569 -0.0428 -0.1973  0.2437
 4109SOL     OW18672   9.104   0.142   3.577  0.0803  0.5740  0.1277
 4109SOL    HW118673   9.128   0.101   3.494  0.7286 -1.7946  1.3915
 4109SOL    HW218674   9.176   0.201   3.597  0.0383  0.9718 -0.8537
 4110SOL     OW18675   8.124   5.067   2.681  0.3353  0.0625 -0.5044
 4110SOL    HW118676   8.199   5.008   2.684  0.6609  0.4768 -0.3016
 4110SOL    HW218677   8.161   5.152   2.654 -0.0855  0.2269 -0.5748
 4111SOL     OW18678   2.783   3.007   1.913 -0.2562 -0.1949  0.2971
 4111SOL    HW118679   2.858   3.026   1.969 -0.0966  0.0433  0.0032
 4111SOL    HW218680   2.800   2.920   1.877 -0.4124 -0.3952  0.7042
 4112SOL     OW18681   0.732   5.747   3.277 -0.2658 -0.0816  0.4801
 4112SOL    HW118682   0.725   5.795   3.195 -0.8972  0.6299  0.9373
 4112SOL    HW218683   0.745   5.814   3.344  1.0213 -0.7024  0.8868
 4113SOL     OW18684   4.526   8.207   3.433 -0.0623 -0.3688 -0.0818
 4113SOL    HW118685   4.562   8.279   3.485 -1.0054  2.0154 -2.4711
 4113SOL    HW218686   4.603   8.157   3.405  0.6884  0.0982  1.0435
 4114SOL     OW18687   1.898   4.138   8.647 -0.0070 -0.3502  0.2095
 4114SOL    HW118688   1.976   4.087   8.626  0.9266  0.7793  0.7752
 4114SOL    HW218689   1.927   4.229   8.641 -1.4303  0.1096 -0.0742
 4115SOL     OW18690   4.346   3.247   7.598 -0.0149 -0.1321 -0.5786
 4115SOL    HW118691   4.271   3.192   7.617 -0.9332  1.3024  0.1490
 4115SOL    HW218692   4.404   3.237   7.673 -0.6217  0.5894 -0.0003
 4116SOL     OW18693   2.686   4.464   6.432 -0.1610 -0.2949 -0.0838
 4116SOL    HW118694   2.709   4.460   6.339  0.0661 -2.4799  0.0089
 4116SOL    HW218695   2.752   4.521   6.471  1.5973 -1.7461 -0.8031
 4117SOL     OW18696   2.568   0.149   8.435  0.1959 -0.3435  0.1734
 4117SOL    HW118697   2.648   0.112   8.473 -0.5325  0.4880  2.7810
 4117SOL    HW218698   2.595   0.236   8.405  0.2338  0.0877  1.3941
 4118SOL     OW18699   1.073   5.899   3.488  0.4513  0.3536 -0.1396
 4118SOL    HW118700   1.166   5.910   3.509  0.5930  0.8465 -0.9770
 4118SOL    HW218701   1.029   5.964   3.543  0.7501  1.1457 -0.8145
 4119SOL     OW18702   0.092   0.503   8.704  0.1607  0.1094  0.1638
 4119SOL    HW118703   0.086   0.419   8.658  1.2047  0.3721 -0.4889
 4119SOL    HW218704   0.001   0.531   8.714 -0.1696 -0.7757 -0.2148
 4120SOL     OW18705   3.918   5.905   5.206  0.5425  0.3015 -0.1800
 4120SOL    HW118706   3.858   5.942   5.271  1.0071 -0.0617  0.4727
 4120SOL    HW218707   3.997   5.958   5.214  0.5916  0.2761 -0.4821
 4121SOL     OW18708   2.507   0.210   2.772 -0.1123  0.2571  0.1006
 4121SOL    HW118709   2.513   0.135   2.831 -0.3378  0.6906  0.6814
 4121SOL    HW218710   2.534   0.176   2.687  3.2848  0.3180  1.0106
 4122SOL     OW18711   6.877   4.675   3.930  0.1112 -0.1633  0.1329
 4122SOL    HW118712   6.914   4.660   3.843  0.7914 -0.6048  0.4908
 4122SOL    HW218713   6.835   4.761   3.924  0.1329 -0.2053 -0.6363
 4123SOL     OW18714   8.446   7.654   8.049  0.1983 -0.0577 -0.3404
 4123SOL    HW118715   8.489   7.644   7.964  1.6186  2.2526  0.0176
 4123SOL    HW218716   8.363   7.698   8.029  0.9246  1.2916 -0.5106
 4124SOL     OW18717   2.830   7.203   1.319  0.2802  0.1807  0.8698
 4124SOL    HW118718   2.825   7.282   1.265 -1.8212 -0.9252 -0.7230
 4124SOL    HW218719   2.740   7.187   1.347  0.4954 -2.0356  0.4882
 4125SOL     OW18720   6.332   7.707   4.508 -0.0390 -0.1465 -0.0215
 4125SOL    HW118721   6.406   7.649   4.498 -1.1475 -1.4930 -0.7587
 4125SOL    HW218722   6.259   7.662   4.465 -2.0780 -0.3770  3.2595
 4126SOL     OW18723   8.576   0.068   9.184  0.0631 -0.0641 -0.1333
 4126SOL    HW118724   8.649   0.126   9.162  0.1708 -0.5304 -1.0560
 4126SOL    HW218725   8.618  -0.014   9.209 -0.1508 -0.7657 -1.9536
 4127SOL     OW18726   6.218   6.237   1.183  0.1816 -0.1844  0.1469
 4127SOL    HW118727   6.157   6.309   1.170  0.2901 -0.3497 -1.6166
 4127SOL    HW218728   6.195   6.174   1.115 -1.2420 -2.8363  2.8452
 4128SOL     OW18729   0.698   1.047   3.551  0.5986 -0.5644  0.1361
 4128SOL    HW118730   0.760   1.020   3.619  0.8319  0.5197  0.3696
 4128SOL    HW218731   0.750   1.097   3.489  0.2786 -1.0986 -0.5826
 4129SOL     OW18732   1.718   5.739   8.746  0.7536  0.6190 -0.6683
 4129SOL    HW118733   1.753   5.775   8.665  2.8364 -0.3062 -0.2314
 4129SOL    HW218734   1.678   5.814   8.790  0.6667  1.3712 -1.9712
 4130SOL     OW18735   2.867   3.825   3.203 -0.7516 -0.2790  0.5732
 4130SOL    HW118736   2.854   3.732   3.185  1.0275 -0.5214  0.3006
 4130SOL    HW218737   2.779   3.861   3.210 -1.4788 -1.8652  0.0765
 4131SOL     OW18738   0.635   0.116   4.057  0.1789  0.3176  0.2648
 4131SOL    HW118739   0.665   0.050   4.119 -0.8596 -0.5989 -0.1782
 4131SOL    HW218740   0.596   0.184   4.112 -1.4813 -0.8751  0.6294
 4132SOL     OW18741   2.151   4.290   6.946  0.4164 -0.0778  0.2763
 4132SOL    HW118742   2.178   4.296   7.037  0.4908 -0.4829  0.2826
 4132SOL    HW218743   2.118   4.377   6.925  0.9739  0.1922  0.5067
 4133SOL     OW18744   7.563   0.092   4.443 -0.2357  0.3408 -0.7681
 4133SOL    HW118745   7.582   0.184   4.462  1.7826 -0.0644 -0.6200
 4133SOL    HW218746   7.603   0.044   4.515 -2.8923 -0.6304  0.1997
 4134SOL     OW18747   4.262   0.237   8.360 -0.0486  0.6217 -0.3125
 4134SOL    HW118748   4.314   0.315   8.379  3.6011 -1.0317 -2.6019
 4134SOL    HW218749   4.241   0.244   8.267 -4.2246  1.1768  0.4504
 4135SOL     OW18750   8.900   4.050   2.812 -0.3000  0.1430 -0.4159
 4135SOL    HW118751   8.819   4.030   2.859  0.3811 -0.4332  0.5253
 4135SOL    HW218752   8.886   4.139   2.779 -0.4418  0.9502  1.6731
 4136SOL     OW18753   5.352   5.429   8.003 -0.3725  0.0654 -0.2442
 4136SOL    HW118754   5.383   5.404   8.090  0.9603 -0.2797 -0.7964
 4136SOL    HW218755   5.301   5.509   8.018 -2.4250 -1.4157  1.1867
 4137SOL     OW18756   3.836   0.514   0.320 -0.2906 -0.2681  0.1921
 4137SOL    HW118757   3.890   0.566   0.260 -0.7846 -2.5131 -2.4370
 4137SOL    HW218758   3.751   0.557   0.318  0.3552  1.1838  1.4734
 4138SOL     OW18759   1.400   7.355   2.950  0.2471  0.1458 -0.1806
 4138SOL    HW118760   1.493   7.374   2.937  0.2697  0.1224 -0.0566
 4138SOL    HW218761   1.398   7.298   3.026  0.3799 -2.2629 -1.8793
 4139SOL     OW18762   0.544   5.546   5.776  0.1713 -0.1318 -0.3403
 4139SOL    HW118763   0.482   5.614   5.801 -0.7271 -1.0510 -0.0054
 4139SOL    HW218764   0.554   5.493   5.855 -0.0622 -1.0765 -0.9334
 4140SOL     OW18765   3.724   6.421   5.581  0.1037 -0.1367  0.0325
 4140SOL    HW118766   3.797   6.448   5.636 -0.8927  1.8405  0.4744
 4140SOL    HW218767   3.647   6.434   5.636 -0.7966  0.4364 -1.3017
 4141SOL     OW18768   5.020   6.188   3.799  0.2366  0.4303  0.3903
 4141SOL    HW118769   5.093   6.125   3.801  0.5098  0.7534  0.6843
 4141SOL    HW218770   4.956   6.148   3.741 -0.0115 -0.5735  1.3250
 4142SOL     OW18771   5.067   8.292   8.721 -0.3682  0.2378  0.2422
 4142SOL    HW118772   5.031   8.316   8.807 -0.6366  3.3437 -0.6091
 4142SOL    HW218773   4.991   8.263   8.671 -0.2353 -1.4294  0.9254
 4143SOL     OW18774   6.636   2.241   8.255  0.1816 -0.0674 -0.1558
 4143SOL    HW118775   6.615   2.204   8.341 -0.1253  1.1604  0.3121
 4143SOL    HW218776   6.713   2.296   8.271  0.3880 -0.1710 -0.7589
 4144SOL     OW18777   0.628   5.368   6.972 -0.0585 -0.4521  0.1997
 4144SOL    HW118778   0.691   5.346   7.040  0.2766  0.2645  0.1412
 4144SOL    HW218779   0.547   5.325   6.998  0.3506 -1.0644  0.4812
 4145SOL     OW18780   5.915   4.012   5.697  0.0198 -0.1052  0.2208
 4145SOL    HW118781   5.913   4.004   5.793 -1.6186 -0.3239  0.1897
 4145SOL    HW218782   5.896   3.924   5.665 -3.0343  0.6259 -0.2365
 4146SOL     OW18783   2.434   7.591   0.123 -0.8164  0.5094  0.0917
 4146SOL    HW118784   2.434   7.651   0.197 -3.8494  1.2192 -0.3837
 4146SOL    HW218785   2.492   7.632   0.059  2.7367 -0.6273  2.2687
 4147SOL     OW18786   0.496   6.186   5.098  0.2895  0.2964 -0.6631
 4147SOL    HW118787   0.531   6.102   5.067  0.0898 -0.5374  1.2279
 4147SOL    HW218788   0.552   6.252   5.058  1.0703 -0.7882 -1.4088
 4148SOL     OW18789   3.717   3.132   6.890  0.3727 -0.4287 -0.1276
 4148SOL    HW118790   3.700   3.224   6.912  0.4708 -0.6891  1.0969
 4148SOL    HW218791   3.634   3.101   6.854  0.3882  0.1800 -0.7030
 4149SOL     OW18792   7.202   7.771   6.767  0.4250 -0.3244 -0.0499
 4149SOL    HW118793   7.232   7.809   6.850  0.6522 -0.8000  0.0868
 4149SOL    HW218794   7.243   7.827   6.700  1.8154 -1.0758  0.1301
 4150SOL     OW18795   7.705   7.132   5.194 -0.2418  0.0401 -0.2461
 4150SOL    HW118796   7.629   7.076   5.212  0.3735 -0.6768  0.1517
 4150SOL    HW218797   7.780   7.080   5.219  0.3255  1.3436  0.9208
 4151SOL     OW18798   1.419   4.302   0.400 -0.5831 -0.5933  0.1205
 4151SOL    HW118799   1.367   4.266   0.472 -0.2568  1.0609  1.2214
 4151SOL    HW218800   1.498   4.337   0.441 -0.7739  1.1694 -0.8866
 4152SOL     OW18801   5.558   5.767   8.213  0.2581  0.1032 -0.0908
 4152SOL    HW118802   5.637   5.815   8.187  2.0521 -2.3341  0.4847
 4152SOL    HW218803   5.590   5.693   8.264 -2.2979 -1.7640 -0.9616
 4153SOL     OW18804   8.872   5.100   8.573  0.4239  0.6072  0.2297
 4153SOL    HW118805   8.870   5.005   8.556 -1.7158  0.5157  0.6498
 4153SOL    HW218806   8.960   5.127   8.549  1.4867 -1.6908  1.1724
 4154SOL     OW18807   8.905   0.763   1.239  0.2846 -0.8298 -0.6973
 4154SOL    HW118808   8.885   0.670   1.229  0.8464 -1.1362  0.7305
 4154SOL    HW218809   8.993   0.764   1.277  0.0294  0.2710 -0.1084
 4155SOL     OW18810   4.876   4.334   8.979 -0.1765 -0.6310 -0.7257
 4155SOL    HW118811   4.900   4.406   9.037 -0.3413 -0.6433 -0.6415
 4155SOL    HW218812   4.825   4.274   9.034  1.4056 -1.6720 -0.3393
 4156SOL     OW18813   2.536   5.483   3.089  0.2288  0.1541 -0.1076
 4156SOL    HW118814   2.520   5.576   3.071  1.3573  0.3331 -0.2641
 4156SOL    HW218815   2.486   5.465   3.169 -1.7249  0.3384 -1.2463
 4157SOL     OW18816   2.007   0.650   5.690 -1.2064 -0.8371 -0.5440
 4157SOL    HW118817   2.079   0.593   5.716 -0.8784  0.8849  2.8709
 4157SOL    HW218818   2.041   0.701   5.616 -0.3835 -2.6964 -1.5193
 4158SOL     OW18819   5.369   0.961   2.036 -0.4904  0.2952 -0.1381
 4158SOL    HW118820   5.407   0.972   2.123 -0.5462 -0.2819 -0.0399
 4158SOL    HW218821   5.312   0.885   2.044  0.3315 -0.4310 -0.9493
 4159SOL     OW18822   5.083   3.254   1.929  0.6789  0.4892  0.4850
 4159SOL    HW118823   4.988   3.248   1.919  0.5725  1.1318  1.0609
 4159SOL    HW218824   5.096   3.317   1.999  1.5055 -0.5201  1.2760
 4160SOL     OW18825   4.847   2.236   4.786  0.4758  0.3732  0.1598
 4160SOL    HW118826   4.803   2.289   4.719  0.9442  0.8821  0.2446
 4160SOL    HW218827   4.885   2.301   4.846 -1.5536 -0.0353  2.0294
 4161SOL     OW18828   1.622   5.661   9.178 -0.4082 -0.3906  0.0813
 4161SOL    HW118829   1.705   5.667   9.132 -0.7695 -1.6822 -0.8116
 4161SOL    HW218830   1.570   5.734   9.144  0.0521 -0.1254 -0.0460
 4162SOL     OW18831   1.602   6.437   1.639  0.6824  0.4565 -0.4325
 4162SOL    HW118832   1.523   6.409   1.686  2.0597 -2.0062  0.6028
 4162SOL    HW218833   1.604   6.532   1.650 -0.3313  0.2259  2.5347
 4163SOL     OW18834   8.942   5.976   3.333 -0.0945 -0.3221 -0.5711
 4163SOL    HW118835   9.019   6.030   3.346  1.6443 -2.4567 -1.3596
 4163SOL    HW218836   8.976   5.890   3.307 -2.7352 -1.3575 -1.0219
 4164SOL     OW18837   7.765   1.282   8.609 -0.1980 -0.5000  0.5323
 4164SOL    HW118838   7.705   1.212   8.633 -1.6345  0.7762  0.8061
 4164SOL    HW218839   7.731   1.316   8.526  1.5511 -1.2819 -0.5672
 4165SOL     OW18840   1.181   5.890   1.846  0.1916  0.6198  1.3446
 4165SOL    HW118841   1.251   5.869   1.908  2.4866  1.6491 -0.7148
 4165SOL    HW218842   1.222   5.949   1.783 -1.7507 -0.9312 -1.6080
 4166SOL     OW18843   1.425   4.170   2.946 -0.1844 -1.0198 -0.4788
 4166SOL    HW118844   1.464   4.182   3.032 -0.9496 -0.6002 -0.1779
 4166SOL    HW218845   1.347   4.116   2.962 -0.4187 -0.8129 -0.8794
 4167SOL     OW18846   7.202   3.466   8.081  0.3154  0.0620 -0.2464
 4167SOL    HW118847   7.229   3.556   8.099  0.6190 -0.0403 -0.1715
 4167SOL    HW218848   7.272   3.431   8.026  1.2421 -0.7415  1.3688
 4168SOL     OW18849   7.456   0.072   2.194  0.0303  0.2867 -0.4556
 4168SOL    HW118850   7.488   0.128   2.124 -0.5315 -0.1131 -1.0529
 4168SOL    HW218851   7.390   0.124   2.239  0.6989  0.7020  0.0630
 4169SOL     OW18852   9.025   2.417   8.880 -0.0500 -0.3412 -0.4068
 4169SOL    HW118853   9.014   2.471   8.958  0.1992 -0.7452 -0.0871
 4169SOL    HW218854   8.971   2.459   8.814  1.5456  1.3467 -0.7095
 4170SOL     OW18855   2.262   1.292   5.872  0.3401  0.0181  0.3218
 4170SOL    HW118856   2.342   1.309   5.823  0.3988 -1.9554 -0.3345
 4170SOL    HW218857   2.292   1.266   5.959  0.2940  1.4080  0.7920
 4171SOL     OW18858   1.179   8.004   9.185  0.3858 -0.1907  0.1153
 4171SOL    HW118859   1.242   8.020   9.115 -0.7668 -0.4194 -0.9996
 4171SOL    HW218860   1.157   8.092   9.217  0.1519 -0.0243 -0.4987
 4172SOL     OW18861   0.885   1.620   7.473  0.2674  0.1562 -0.9261
 4172SOL    HW118862   0.798   1.659   7.485  0.6099  0.4616  0.8473
 4172SOL    HW218863   0.946   1.693   7.484  0.7896 -0.2996 -0.7226
 4173SOL     OW18864   5.427   8.751   7.521 -0.3738  0.2020 -0.2850
 4173SOL    HW118865   5.415   8.758   7.616 -0.5164  0.5815 -0.3267
 4173SOL    HW218866   5.374   8.675   7.496  1.6752 -1.4960  0.2725
 4174SOL     OW18867   5.004   8.074   0.444 -0.1288  0.2046 -0.6627
 4174SOL    HW118868   4.985   8.061   0.536 -0.7554  6.6690  0.5965
 4174SOL    HW218869   4.933   8.028   0.398 -2.0511 -0.0442  2.2736
 4175SOL     OW18870   0.907   2.818   6.909  0.0096  0.0524 -0.1443
 4175SOL    HW118871   0.949   2.898   6.879  0.1260  0.7337  1.7094
 4175SOL    HW218872   0.841   2.798   6.842 -0.5221  2.1027 -0.2783
 4176SOL     OW18873   8.309   0.050   5.391 -0.1231 -0.1417  0.1466
 4176SOL    HW118874   8.356   0.054   5.307  1.2988 -0.2013  0.9166
 4176SOL    HW218875   8.298  -0.044   5.408  0.2958 -0.1454  0.4057
 4177SOL     OW18876   4.801   1.359   6.113  0.0493 -0.4363  0.7483
 4177SOL    HW118877   4.859   1.417   6.161 -0.7025  0.9745  0.0287
 4177SOL    HW218878   4.835   1.271   6.129  1.4570  0.2299  1.5563
 4178SOL     OW18879   8.350   0.473   0.465  0.0191 -0.1881 -0.1293
 4178SOL    HW118880   8.308   0.388   0.478  0.2368 -0.6264 -2.0115
 4178SOL    HW218881   8.416   0.477   0.534  1.6758 -2.6840 -1.3833
 4179SOL     OW18882   2.252   1.987   0.490 -0.4135  0.0039 -0.2850
 4179SOL    HW118883   2.261   2.034   0.573 -1.0608  1.7026 -1.1307
 4179SOL    HW218884   2.317   1.917   0.495  1.5588  1.7912  0.4890
 4180SOL     OW18885   6.905   0.571   4.072 -0.4104 -0.1368  0.3695
 4180SOL    HW118886   6.893   0.547   4.164 -0.0260  0.6477  0.6315
 4180SOL    HW218887   6.944   0.659   4.075 -1.7861  0.5339 -0.5486
 4181SOL     OW18888   1.642   1.373   4.713 -0.5114 -0.1268 -0.3762
 4181SOL    HW118889   1.681   1.444   4.661  0.8362  0.0098  0.7803
 4181SOL    HW218890   1.702   1.361   4.786 -2.2647 -0.4412  1.0823
 4182SOL     OW18891   7.496   4.247   7.019  0.0987 -0.4719  0.0591
 4182SOL    HW118892   7.457   4.286   6.941  2.0366 -0.9781 -1.2478
 4182SOL    HW218893   7.422   4.227   7.076 -1.3817 -0.0428 -1.6249
 4183SOL     OW18894   0.118   3.361   6.018  0.7532 -0.3913 -0.5668
 4183SOL    HW118895   0.159   3.447   6.004  1.0144 -0.4097  0.0450
 4183SOL    HW218896   0.041   3.362   5.961 -0.4592  1.1049  0.9307
 4184SOL     OW18897   3.958   6.460   7.229 -0.5690 -0.4511 -0.0727
 4184SOL    HW118898   3.896   6.406   7.181 -1.3996  1.5502 -1.3839
 4184SOL    HW218899   3.907   6.536   7.257  0.5303 -0.3282  1.7705
 4185SOL     OW18900   4.230   7.715   4.702  0.4099  0.1040 -0.3894
 4185SOL    HW118901   4.234   7.703   4.607  2.1400  0.0681 -0.3375
 4185SOL    HW218902   4.190   7.634   4.735  0.7067 -0.3011 -1.0078
 4186SOL     OW18903   7.738   2.516   1.339 -0.2684  0.2577  0.4516
 4186SOL    HW118904   7.829   2.496   1.316 -0.7973 -0.3148 -1.3643
 4186SOL    HW218905   7.739   2.608   1.365  0.6249  0.6727 -0.9350
 4187SOL     OW18906   2.775   7.550   6.736  0.1498 -0.5665  0.1198
 4187SOL    HW118907   2.711   7.587   6.675  2.3562  3.1817 -0.1971
 4187SOL    HW218908   2.722   7.521   6.811 -2.0496  1.5486 -0.4890
 4188SOL     OW18909   0.431   3.408   7.694  0.0191 -0.4859 -0.2399
 4188SOL    HW118910   0.375   3.349   7.745  0.0292  0.5524  1.0175
 4188SOL    HW218911   0.513   3.412   7.744  0.2963  0.0067 -0.7258
 4189SOL     OW18912   0.889   1.212   7.695 -0.2073  0.2762 -0.6368
 4189SOL    HW118913   0.814   1.258   7.657  0.9001  1.7530 -1.1570
 4189SOL    HW218914   0.962   1.272   7.682  0.7081 -0.2371  1.6616
 4190SOL     OW18915   3.260   3.989   8.444  0.3204  0.2226 -0.2455
 4190SOL    HW118916   3.282   4.031   8.527 -0.4921  0.0395  0.0738
 4190SOL    HW218917   3.173   4.023   8.422 -0.7531 -1.8921  0.4614
 4191SOL     OW18918   8.262   4.070   3.377 -0.0219 -0.1009 -0.7198
 4191SOL    HW118919   8.198   4.073   3.307 -0.0552  1.6170 -0.6690
 4191SOL    HW218920   8.210   4.059   3.457 -0.1653  0.1357 -0.7800
 4192SOL     OW18921   1.015   0.922   4.100 -0.3105  0.0239  0.5983
 4192SOL    HW118922   0.982   0.998   4.052  0.8285  0.0762 -0.1461
 4192SOL    HW218923   0.959   0.850   4.073 -1.8701  0.7018  1.8562
 4193SOL     OW18924   5.173   5.979   9.159 -0.1224  0.1658 -0.0187
 4193SOL    HW118925   5.191   6.073   9.160 -1.3475  0.4104  0.3943
 4193SOL    HW218926   5.257   5.939   9.133  0.2689  1.3904 -0.7236
 4194SOL     OW18927   6.697   4.268   4.631  0.6415 -0.0068  0.4579
 4194SOL    HW118928   6.661   4.181   4.612  2.1251 -0.5913  0.2508
 4194SOL    HW218929   6.731   4.299   4.547 -0.2139  0.9513  0.4491
 4195SOL     OW18930   0.479   6.612   5.164  0.4772 -0.2391  0.0391
 4195SOL    HW118931   0.419   6.595   5.237 -1.4593  1.2170 -1.0878
 4195SOL    HW218932   0.566   6.593   5.199 -0.5072 -1.2303  2.1661
 4196SOL     OW18933   3.512   5.455   7.245  0.2994 -0.2333  0.1544
 4196SOL    HW118934   3.460   5.393   7.193  2.0083 -1.1096 -0.5954
 4196SOL    HW218935   3.482   5.443   7.335  1.6518 -3.4101  0.3082
 4197SOL     OW18936   2.483   0.708   7.963  0.0394 -0.3155 -0.3284
 4197SOL    HW118937   2.448   0.671   7.882 -0.2596  0.3428 -0.5111
 4197SOL    HW218938   2.409   0.709   8.024  0.4793 -1.5984  0.2407
 4198SOL     OW18939   0.895   2.349   7.433  0.5434  0.7038  0.0914
 4198SOL    HW118940   0.887   2.304   7.349 -0.7597  0.0333  0.5492
 4198SOL    HW218941   0.932   2.434   7.410  0.1251  0.5755 -1.1877
 4199SOL     OW18942   5.609   0.879   5.364  0.0473  0.7258 -0.1811
 4199SOL    HW118943   5.539   0.864   5.427  1.9504  0.1026  1.9191
 4199SOL    HW218944   5.574   0.946   5.304 -2.1128  0.7969  1.0705
 4200SOL     OW18945   0.920   0.846   3.394 -0.1125 -0.4515  0.3071
 4200SOL    HW118946   0.902   0.775   3.455 -0.3185 -0.3239  0.3976
 4200SOL    HW218947   0.835   0.864   3.353  0.3243 -1.6719 -1.2541
 4201SOL     OW18948   5.940   1.578   7.044 -0.0047 -0.4535 -0.0880
 4201SOL    HW118949   5.987   1.495   7.036 -1.3033 -1.2895  0.5790
 4201SOL    HW218950   5.848   1.556   7.026 -0.4298  0.7769  0.4133
 4202SOL     OW18951   7.154   1.974   3.483 -0.7712 -0.1851 -0.4030
 4202SOL    HW118952   7.206   2.031   3.425 -0.3120 -1.6721 -1.5167
 4202SOL    HW218953   7.114   2.034   3.545  1.6469  1.1461  0.0144
 4203SOL     OW18954   2.831   6.674   5.279 -0.6147 -0.4124  0.2634
 4203SOL    HW118955   2.782   6.610   5.227 -1.8259  1.6235 -1.2465
 4203SOL    HW218956   2.799   6.759   5.249  2.1825  0.9908  0.9078
 4204SOL     OW18957   2.898   1.587   3.330  0.0477 -0.4634  0.4907
 4204SOL    HW118958   2.910   1.493   3.317 -1.0945 -0.5007 -0.5133
 4204SOL    HW218959   2.986   1.621   3.345  0.4628 -1.7016  0.9297
 4205SOL     OW18960   5.570   7.946   1.800 -0.2784 -0.5789  0.0596
 4205SOL    HW118961   5.496   7.897   1.834 -2.1866  1.3481 -1.0690
 4205SOL    HW218962   5.615   7.980   1.877 -0.6099 -1.6929  0.7574
 4206SOL     OW18963   1.257   7.248   7.395  0.2807  0.1664 -0.1905
 4206SOL    HW118964   1.254   7.200   7.478  0.1682  0.2147 -0.1664
 4206SOL    HW218965   1.165   7.263   7.373  0.2326 -1.2759 -1.1579
 4207SOL     OW18966   6.668   0.217   6.809 -0.6720  0.3753  0.1156
 4207SOL    HW118967   6.585   0.193   6.851  0.0485 -1.8094  0.4374
 4207SOL    HW218968   6.658   0.187   6.719 -0.3821  0.5330  0.0308
 4208SOL     OW18969   7.216   1.674   1.032  0.3069  0.1265  0.1687
 4208SOL    HW118970   7.294   1.619   1.033  0.5044  0.1870 -2.8125
 4208SOL    HW218971   7.155   1.629   0.973 -2.8462 -0.9305  3.8088
 4209SOL     OW18972   5.839   3.655   2.473  0.3138 -0.4076 -0.6545
 4209SOL    HW118973   5.785   3.576   2.483  1.4222 -0.8975  2.9375
 4209SOL    HW218974   5.791   3.723   2.520  2.5962 -0.8840  2.7418
 4210SOL     OW18975   6.183   4.130   0.587  0.0139 -0.0774 -0.3265
 4210SOL    HW118976   6.136   4.119   0.504  1.7526  0.4267 -1.4315
 4210SOL    HW218977   6.167   4.049   0.635 -0.9448 -0.4147 -1.1914
 4211SOL     OW18978   1.299   6.113   7.140  0.5529 -0.3191 -0.0544
 4211SOL    HW118979   1.311   6.019   7.142 -0.5459 -0.4656  0.2675
 4211SOL    HW218980   1.212   6.127   7.177  1.6989  1.0033  2.3883
 4212SOL     OW18981   1.163   2.083   7.708  0.4117  0.5281  0.4174
 4212SOL    HW118982   1.174   2.096   7.614  1.0104  1.0209  0.5523
 4212SOL    HW218983   1.194   1.994   7.724  0.4909  0.5135  0.1850
 4213SOL     OW18984   8.179   2.797   9.159 -0.0754 -0.2242  0.2559
 4213SOL    HW118985   8.229   2.873   9.189 -0.7882  0.0180  0.8625
 4213SOL    HW218986   8.123   2.832   9.089  0.7327 -0.5370 -0.5608
 4214SOL     OW18987   6.973   7.917   7.782 -0.5217 -0.5002  0.3396
 4214SOL    HW118988   6.979   7.980   7.711  1.4314 -1.1722 -0.1588
 4214SOL    HW218989   6.925   7.963   7.852 -1.6402  0.4924 -1.0289
 4215SOL     OW18990   1.941   4.885   1.049  0.4367 -0.6970  0.3243
 4215SOL    HW118991   2.034   4.864   1.059  0.2477 -1.8391 -0.1687
 4215SOL    HW218992   1.915   4.841   0.968 -0.5165 -0.3016  0.4028
 4216SOL     OW18993   3.534   6.180   6.827 -0.0013  0.1841 -0.7137
 4216SOL    HW118994   3.574   6.244   6.886 -1.3961 -0.3228  0.8540
 4216SOL    HW218995   3.450   6.220   6.802 -1.9936 -1.8788  2.1388
 4217SOL     OW18996   2.315   9.112   1.041 -0.3148 -0.0559 -0.2940
 4217SOL    HW118997   2.257   9.049   0.999  0.9256 -1.0989 -0.5085
 4217SOL    HW218998   2.295   9.195   0.997 -2.5782 -0.0657  0.5854
 4218SOL     OW18999   6.234   6.135   8.168  0.1435 -0.3710 -0.2942
 4218SOL    HW119000   6.280   6.185   8.235 -0.0327 -2.1452  1.2261
 4218SOL    HW219001   6.303   6.095   8.115  0.2964  2.1213 -2.1193
 4219SOL     OW19002   2.797   3.719   3.749 -0.6374 -0.1690 -0.1436
 4219SOL    HW119003   2.877   3.666   3.745 -0.2288  0.3401  0.9571
 4219SOL    HW219004   2.827   3.809   3.738 -1.2313 -0.0710 -1.1242
 4220SOL     OW19005   4.952   8.344   8.135 -0.0724  0.9690 -0.3159
 4220SOL    HW119006   5.013   8.416   8.119  0.7922  0.2197 -0.5144
 4220SOL    HW219007   4.940   8.343   8.230 -1.1270  2.1792 -0.4118
 4221SOL     OW19008   6.704   2.961   5.686  0.4635 -0.5823 -0.4895
 4221SOL    HW119009   6.719   3.046   5.645  1.2235 -0.2515  0.4385
 4221SOL    HW219010   6.680   2.903   5.614 -1.2118  0.6714 -0.9873
 4222SOL     OW19011   6.268   8.700   2.075 -0.0791  0.0733 -0.4953
 4222SOL    HW119012   6.202   8.768   2.063  2.2214  3.1367  2.3966
 4222SOL    HW219013   6.228   8.637   2.134 -0.0840  2.8240  2.7351
 4223SOL     OW19014   3.306   9.178   0.898  0.0235 -0.4438  0.4333
 4223SOL    HW119015   3.218   9.209   0.919  0.0126 -1.3344  1.8584
 4223SOL    HW219016   3.350   9.175   0.983  1.4477  0.0028 -0.2638
 4224SOL     OW19017   0.790   1.160   8.975  0.2736 -0.1341 -0.2777
 4224SOL    HW119018   0.729   1.223   8.937  0.9158  0.4188 -0.4129
 4224SOL    HW219019   0.783   1.173   9.069  0.3703  0.1111 -0.3032
 4225SOL     OW19020   4.988   4.211   5.316 -0.0589 -0.1858 -0.5937
 4225SOL    HW119021   5.034   4.294   5.328 -2.1431  1.0816 -1.0021
 4225SOL    HW219022   5.005   4.163   5.397 -0.1959  1.3425  0.3805
 4226SOL     OW19023   2.830   2.877   6.666 -0.0848  0.2514 -0.0948
 4226SOL    HW119024   2.782   2.956   6.640  0.6609  0.4644 -0.8385
 4226SOL    HW219025   2.850   2.833   6.584  1.3302  0.3724  0.1617
 4227SOL     OW19026   0.671   4.140   1.844 -0.1890 -0.0085 -0.4176
 4227SOL    HW119027   0.597   4.150   1.785 -0.9975  0.4773  0.6448
 4227SOL    HW219028   0.705   4.228   1.856 -0.5115  0.0103  0.4238
 4228SOL     OW19029   3.538   8.919   1.124 -0.1178 -0.5003 -0.4373
 4228SOL    HW119030   3.501   8.929   1.036 -0.1334 -0.7990 -0.4678
 4228SOL    HW219031   3.627   8.888   1.109  0.2686  0.5359 -0.3706
 4229SOL     OW19032   8.800   0.138   3.863  0.1293  0.2722  0.2034
 4229SOL    HW119033   8.893   0.157   3.856  0.5712 -1.5994  0.5756
 4229SOL    HW219034   8.780   0.144   3.956  0.2753 -0.9958  0.3266
 4230SOL     OW19035   5.843   2.839   5.585 -0.0945  0.3659 -0.2494
 4230SOL    HW119036   5.825   2.791   5.504  0.4773 -0.1052 -0.1055
 4230SOL    HW219037   5.793   2.793   5.652  1.3007 -0.7388  0.0898
 4231SOL     OW19038   2.665   7.698   7.446  0.3582 -0.6738 -0.3313
 4231SOL    HW119039   2.642   7.756   7.518  2.6050  0.2190 -0.2416
 4231SOL    HW219040   2.596   7.632   7.444 -0.2300 -0.2071  2.0631
 4232SOL     OW19041   1.956   7.531   7.617  0.3919 -0.4262 -0.0397
 4232SOL    HW119042   1.958   7.613   7.667  0.1599 -0.9123  0.7975
 4232SOL    HW219043   2.029   7.480   7.652  1.3110 -0.1105 -1.4213
 4233SOL     OW19044   5.699   8.019   2.794 -0.5110 -0.0056  0.3990
 4233SOL    HW119045   5.613   8.014   2.834 -0.4376  2.9073  1.1707
 4233SOL    HW219046   5.704   8.108   2.759  2.3005  0.0543  0.7094
 4234SOL     OW19047   2.269   7.005   4.186 -0.4105 -1.0249  0.0640
 4234SOL    HW119048   2.233   7.051   4.263 -1.4148 -2.3300  0.4141
 4234SOL    HW219049   2.310   7.074   4.134  0.5451 -0.1382  1.9015
 4235SOL     OW19050   3.655   0.967   3.119  0.0326 -0.1642 -0.1342
 4235SOL    HW119051   3.574   0.917   3.129 -1.4568  1.6758 -2.1191
 4235SOL    HW219052   3.658   1.023   3.196 -0.4664 -0.4282  0.0842
 4236SOL     OW19053   8.230   4.885   0.335  0.0719  0.1976 -0.1712
 4236SOL    HW119054   8.314   4.862   0.376 -0.2030 -0.6046 -0.0473
 4236SOL    HW219055   8.254   4.936   0.258  0.5968  2.7903  1.5562
 4237SOL     OW19056   5.493   0.575   2.047 -0.6490  0.0786  0.0438
 4237SOL    HW119057   5.435   0.618   1.984 -0.3334  0.3092 -0.0955
 4237SOL    HW219058   5.557   0.643   2.071  0.2545 -0.4940 -0.6660
 4238SOL     OW19059   5.069   8.680   5.916  0.3210  0.5061  1.0369
 4238SOL    HW119060   5.133   8.720   5.856  0.0650  0.7727  0.9399
 4238SOL    HW219061   4.985   8.715   5.887  0.2061  0.7196  1.6243
 4239SOL     OW19062   3.617   1.269   7.198 -0.2437  0.0334 -0.0259
 4239SOL    HW119063   3.611   1.215   7.277 -0.2624 -0.6443 -0.4821
 4239SOL    HW219064   3.710   1.273   7.179 -0.2388  0.2014  0.0343
 4240SOL     OW19065   6.814   6.615   4.621 -0.4506 -1.1382  0.2296
 4240SOL    HW119066   6.829   6.582   4.533 -1.1135  0.2611 -0.4322
 4240SOL    HW219067   6.737   6.567   4.653  0.0289 -1.9290  0.2127
 4241SOL     OW19068   0.164   2.033   5.223  0.2474  0.0704  0.2230
 4241SOL    HW119069   0.070   2.045   5.214  0.2010 -1.4419 -1.9245
 4241SOL    HW219070   0.203   2.099   5.166  0.3621 -1.1441 -1.1578
 4242SOL     OW19071   5.935   4.604   4.069 -0.3400  0.2755  0.1751
 4242SOL    HW119072   5.880   4.652   4.130 -0.7020 -0.0838  0.1309
 4242SOL    HW219073   5.949   4.519   4.111 -1.2611 -0.2761 -0.6042
 4243SOL     OW19074   6.163   8.975   7.530 -0.2156  0.0310  0.3380
 4243SOL    HW119075   6.071   8.954   7.543 -0.3770  0.5477  0.0319
 4243SOL    HW219076   6.191   9.013   7.613 -0.4353  0.4247  0.2347
 4244SOL     OW19077   2.495   8.315   2.322 -0.5769  0.0667  0.2538
 4244SOL    HW119078   2.445   8.376   2.377  0.1709  0.8804  0.0574
 4244SOL    HW219079   2.584   8.321   2.355 -0.1565  0.4150 -0.9200
 4245SOL     OW19080   2.227   7.477   8.471  0.4401  0.4630  0.4219
 4245SOL    HW119081   2.178   7.504   8.548  1.0856 -3.6031  2.5176
 4245SOL    HW219082   2.304   7.535   8.469  0.0174  1.1450  2.3966
 4246SOL     OW19083   3.400   1.035   4.584  0.0355  0.2865  0.1423
 4246SOL    HW119084   3.461   1.003   4.517 -1.4615  0.1922 -1.2318
 4246SOL    HW219085   3.358   0.956   4.617 -0.1305  0.4421  0.3014
 4247SOL     OW19086   4.483   3.370   5.581  0.0184 -0.2122  0.0905
 4247SOL    HW119087   4.388   3.360   5.584  0.1394 -1.2309  1.3027
 4247SOL    HW219088   4.508   3.336   5.495 -0.6278 -0.6737  0.0774
 4248SOL     OW19089   4.500   7.791   7.952  0.1534 -0.1743 -0.2030
 4248SOL    HW119090   4.439   7.764   7.884  0.9521  0.6653 -1.3032
 4248SOL    HW219091   4.480   7.884   7.965  1.2935  0.1620 -0.7281
 4249SOL     OW19092   1.485   7.055   9.035 -0.0963 -0.4122  0.2114
 4249SOL    HW119093   1.417   6.997   9.069  0.7203 -0.9978  0.9002
 4249SOL    HW219094   1.461   7.141   9.068 -1.4965 -0.2728 -1.0889
 4250SOL     OW19095   9.109   2.902   0.743 -0.2026 -0.0373 -0.4853
 4250SOL    HW119096   9.182   2.851   0.708  0.3582 -0.1224  0.7582
 4250SOL    HW219097   9.082   2.855   0.822 -0.9705  0.5249 -0.4030
 4251SOL     OW19098   8.572   9.055   8.579 -0.1482  0.3160  0.4003
 4251SOL    HW119099   8.585   9.118   8.507  0.2632  1.5031  1.4709
 4251SOL    HW219100   8.506   8.994   8.546 -0.8942  1.5715 -0.5221
 4252SOL     OW19101   2.698   6.605   9.170  0.3388  0.1158  0.2564
 4252SOL    HW119102   2.749   6.542   9.220 -0.3395 -0.0188  0.7854
 4252SOL    HW219103   2.701   6.686   9.221  1.7171  0.7103 -0.7202
 4253SOL     OW19104   3.724   5.135   1.365 -0.2841 -0.2596  0.4217
 4253SOL    HW119105   3.736   5.133   1.270 -0.3771 -1.5156  0.4234
 4253SOL    HW219106   3.762   5.053   1.396  0.1468  0.3398  1.5241
 4254SOL     OW19107   1.235   8.438   4.092  0.5251 -0.3414 -0.4259
 4254SOL    HW119108   1.155   8.452   4.143  0.7239  0.1346 -0.2355
 4254SOL    HW219109   1.206   8.438   4.001  0.5062  1.4251 -0.4527
 4255SOL     OW19110   1.780   8.836   6.690  0.2933  0.3246 -0.0679
 4255SOL    HW119111   1.847   8.828   6.622 -0.0292 -0.8079 -0.2635
 4255SOL    HW219112   1.739   8.750   6.694  0.6468  0.2164  1.9293
 4256SOL     OW19113   7.422   1.966   1.838 -0.0201  0.4029  0.4155
 4256SOL    HW119114   7.331   1.995   1.836  0.3410  1.5567 -0.0960
 4256SOL    HW219115   7.419   1.881   1.883 -1.5630 -0.4497 -1.1979
 4257SOL     OW19116   6.301   4.546   4.607 -0.6972  0.3298  0.0916
 4257SOL    HW119117   6.214   4.546   4.646  0.4338  2.0323  2.9059
 4257SOL    HW219118   6.337   4.460   4.628 -0.5153  0.8310  1.9645
 4258SOL     OW19119   2.024   6.352   2.630 -0.3003  0.4936  0.1097
 4258SOL    HW119120   1.935   6.349   2.666 -0.0215  0.7786  0.8456
 4258SOL    HW219121   2.025   6.431   2.575  0.1495  1.8118  1.9273
 4259SOL     OW19122   0.253   2.215   0.562  0.0127 -0.7962  0.2932
 4259SOL    HW119123   0.348   2.205   0.566  0.0141 -0.4303  1.7429
 4259SOL    HW219124   0.228   2.167   0.483  1.5955  0.8198 -1.2834
 4260SOL     OW19125   5.811   4.185   6.127  0.1823  0.1776  0.8141
 4260SOL    HW119126   5.716   4.168   6.127  0.0474  0.8702  0.9923
 4260SOL    HW219127   5.848   4.113   6.077 -0.5905  0.6183 -0.4541
 4261SOL     OW19128   4.842   7.794   7.712 -0.6870 -0.6179 -0.0351
 4261SOL    HW119129   4.875   7.818   7.626  0.9762 -2.0546  0.1341
 4261SOL    HW219130   4.910   7.823   7.773 -1.2575 -0.7318  0.6794
 4262SOL     OW19131   2.517   1.009   7.428  0.4258  0.3101 -0.2231
 4262SOL    HW119132   2.478   0.940   7.374  1.5774  0.0189 -0.7102
 4262SOL    HW219133   2.444   1.069   7.446 -0.2960 -0.3325 -0.9093
 4263SOL     OW19134   2.491   8.486   4.529  0.1938  0.1094 -0.3728
 4263SOL    HW119135   2.473   8.529   4.446  0.4289 -0.3696 -0.6751
 4263SOL    HW219136   2.586   8.477   4.532  0.1873  0.1278 -0.0513
 4264SOL     OW19137   0.638   0.260   1.877  0.4018 -1.0636 -0.1838
 4264SOL    HW119138   0.678   0.190   1.928  2.3950 -0.0614 -0.2682
 4264SOL    HW219139   0.696   0.335   1.891 -1.9253  0.7503  0.3325
 4265SOL     OW19140   7.086   4.305   1.597  0.2268  0.2532 -0.5507
 4265SOL    HW119141   7.088   4.218   1.557 -1.9736 -0.0631 -0.0679
 4265SOL    HW219142   7.119   4.292   1.686 -0.7403 -0.2263 -0.2576
 4266SOL     OW19143   2.770   1.068   3.209 -0.2711  0.5100 -0.4628
 4266SOL    HW119144   2.690   1.119   3.219 -0.6701  0.0005 -0.9659
 4266SOL    HW219145   2.781   1.060   3.114  1.1721  1.7938 -0.4511
 4267SOL     OW19146   4.493   0.403   0.838 -0.3670  0.3528  0.0672
 4267SOL    HW119147   4.457   0.466   0.776 -1.1856  0.5912  0.7679
 4267SOL    HW219148   4.525   0.456   0.912 -1.9759 -0.0671  1.1226
 4268SOL     OW19149   3.373   3.385   2.199 -0.3918 -0.0680 -0.1025
 4268SOL    HW119150   3.433   3.311   2.203  0.0593  0.3077  0.0460
 4268SOL    HW219151   3.305   3.356   2.138  0.5951 -0.0177 -1.2622
 4269SOL     OW19152   2.399   2.257   0.080  0.3968 -0.2412 -0.2037
 4269SOL    HW119153   2.427   2.338   0.037 -0.0486  0.2664  0.4404
 4269SOL    HW219154   2.325   2.226   0.027 -0.1764  0.4032  0.1882
 4270SOL     OW19155   0.548   0.923   7.801  0.3698 -0.6694  0.5409
 4270SOL    HW119156   0.503   0.841   7.823 -0.4305 -0.2954  0.3285
 4270SOL    HW219157   0.570   0.961   7.886 -1.4913  0.1004  0.7330
 4271SOL     OW19158   0.545   1.010   4.377  0.6976 -0.1566  0.4082
 4271SOL    HW119159   0.493   1.090   4.377  0.3476 -0.3436 -1.3136
 4271SOL    HW219160   0.636   1.040   4.380  0.5448  0.2535  0.9898
 4272SOL     OW19161   0.497   5.122   1.754 -0.1037 -0.5696 -0.1480
 4272SOL    HW119162   0.532   5.144   1.668  1.2394 -0.5327  0.3756
 4272SOL    HW219163   0.426   5.061   1.736 -1.1349  0.9093 -1.3829
 4273SOL     OW19164   6.992   8.264   3.971 -0.0447 -0.0473  0.2302
 4273SOL    HW119165   7.035   8.240   3.889  1.0961 -0.8974  1.0401
 4273SOL    HW219166   6.916   8.316   3.944  2.5297  3.3430 -1.2317
 4274SOL     OW19167   0.123   8.271   6.169  0.3224 -0.3781  0.4762
 4274SOL    HW119168   0.095   8.209   6.101  0.8930  1.2702 -1.3313
 4274SOL    HW219169   0.199   8.315   6.132  1.0562  0.1350  2.4732
 4275SOL     OW19170   3.125   5.082   7.158 -0.5699  0.2786  0.2032
 4275SOL    HW119171   3.114   5.146   7.229  1.6757 -0.1967  1.0765
 4275SOL    HW219172   3.205   5.109   7.113 -0.6845 -0.7752 -0.6812
 4276SOL     OW19173   0.961   2.747   8.203 -0.2758 -0.3168 -0.3081
 4276SOL    HW119174   1.037   2.689   8.211 -0.7229 -1.0072 -0.8899
 4276SOL    HW219175   0.937   2.768   8.293  1.9777  1.7837 -0.1114
 4277SOL     OW19176   4.206   1.720   6.728 -0.1857 -0.0538  0.2657
 4277SOL    HW119177   4.228   1.648   6.786 -0.6983 -1.0100 -0.6960
 4277SOL    HW219178   4.147   1.682   6.663 -0.9358  1.3568  0.0653
 4278SOL     OW19179   8.558   1.733   7.252 -0.0526 -0.0703 -0.1300
 4278SOL    HW119180   8.608   1.775   7.323  0.8854 -1.9982  0.4237
 4278SOL    HW219181   8.467   1.741   7.279  0.3298 -1.9355  2.0891
 4279SOL     OW19182   0.843   8.437   1.140 -0.7621  0.3620 -0.3865
 4279SOL    HW119183   0.866   8.442   1.233  2.1693 -0.5828 -0.9613
 4279SOL    HW219184   0.926   8.453   1.094 -1.6865 -1.2429 -2.7997
 4280SOL     OW19185   5.350   0.619   0.563  0.5823 -0.0097  0.2605
 4280SOL    HW119186   5.407   0.557   0.517 -0.0438  0.4826 -1.2736
 4280SOL    HW219187   5.389   0.705   0.544  1.1745  0.1323  1.9661
 4281SOL     OW19188   2.846   3.574   4.315  0.0821  0.3567  0.1617
 4281SOL    HW119189   2.808   3.657   4.342  1.3658  0.6417  1.2124
 4281SOL    HW219190   2.810   3.510   4.377  0.2160  0.3888  0.2741
 4282SOL     OW19191   7.001   5.274   7.952 -0.7537 -0.1048 -0.2371
 4282SOL    HW119192   7.037   5.196   7.993  0.7912  0.8065  0.2486
 4282SOL    HW219193   6.909   5.275   7.978 -0.0461 -0.0167  2.5720
 4283SOL     OW19194   5.565   6.017   6.610  0.0859 -0.2062 -0.5366
 4283SOL    HW119195   5.553   5.923   6.625  1.2631 -0.3673 -0.4603
 4283SOL    HW219196   5.591   6.052   6.695 -0.9784  0.3168 -0.4162
 4284SOL     OW19197   7.249   5.045   3.031  0.4023  0.1928 -0.1313
 4284SOL    HW119198   7.213   5.049   3.119  0.5484  0.6046 -0.0885
 4284SOL    HW219199   7.299   4.964   3.028  0.1234  0.0134  0.0581
 4285SOL     OW19200   6.999   4.252   6.386 -0.1311 -0.2903  0.2598
 4285SOL    HW119201   6.907   4.259   6.412  0.2985  1.4098  1.5147
 4285SOL    HW219202   7.032   4.176   6.434 -0.9141 -1.0112 -0.3313
 4286SOL     OW19203   1.333   0.423   1.681  0.2450  0.1243  0.0591
 4286SOL    HW119204   1.320   0.398   1.772  0.3835  0.2857  0.1242
 4286SOL    HW219205   1.287   0.356   1.630  0.0896  0.0871  0.2505
 4287SOL     OW19206   8.889   8.353   1.462 -0.1092  0.2920 -0.0534
 4287SOL    HW119207   8.818   8.350   1.527  0.1173  0.0822  0.1873
 4287SOL    HW219208   8.914   8.445   1.459  0.3532  0.2030  0.6808
 4288SOL     OW19209   6.103   5.524   5.169  0.1419  0.2402 -0.0480
 4288SOL    HW119210   6.134   5.505   5.258 -2.6659  0.5145  1.0871
 4288SOL    HW219211   6.169   5.583   5.133  1.3698  0.1161  1.8276
 4289SOL     OW19212   2.487   1.741   7.769  0.1220  0.6407  0.3864
 4289SOL    HW119213   2.444   1.809   7.820 -1.2607 -0.0848  0.2419
 4289SOL    HW219214   2.420   1.673   7.758  1.2173 -0.4049 -0.1178
 4290SOL     OW19215   2.768   7.442   0.040  0.2349  0.1816  0.4037
 4290SOL    HW119216   2.745   7.535   0.035  1.2601  0.4256 -0.2103
 4290SOL    HW219217   2.800   7.421  -0.047 -1.1238 -1.0891  0.1787
 4291SOL     OW19218   1.161   2.045   8.004 -0.2592 -0.3038  0.6397
 4291SOL    HW119219   1.133   2.047   7.913  1.7376 -0.7582 -0.0259
 4291SOL    HW219220   1.128   1.962   8.038 -1.4738  0.1078  0.5277
 4292SOL     OW19221   7.034   6.266   9.106  0.1614 -0.3166 -0.0686
 4292SOL    HW119222   6.995   6.181   9.085 -0.4161  0.0243 -0.4178
 4292SOL    HW219223   7.072   6.295   9.023 -1.4326  0.6780 -0.5023
 4293SOL     OW19224   7.975   2.220   4.331  0.0671  0.1024  0.9779
 4293SOL    HW119225   7.914   2.179   4.269  1.3921 -0.8565  0.2544
 4293SOL    HW219226   8.005   2.148   4.386  1.3086  0.3522  0.6611
 4294SOL     OW19227   1.297   7.443   6.107 -0.5677 -0.3678  0.4667
 4294SOL    HW119228   1.229   7.464   6.171 -1.6867  2.0938 -1.3815
 4294SOL    HW219229   1.377   7.481   6.143 -1.2116  1.1315  0.3584
 4295SOL     OW19230   1.885   5.667   3.162 -0.1979 -0.3032 -0.3667
 4295SOL    HW119231   1.894   5.756   3.196  1.1014 -0.1967 -0.9301
 4295SOL    HW219232   1.972   5.644   3.130 -0.5511 -1.7170 -0.4011
 4296SOL     OW19233   7.224   7.093   4.270  0.3178 -0.2884  1.1115
 4296SOL    HW119234   7.185   7.172   4.309  0.9750 -0.1508  1.4916
 4296SOL    HW219235   7.271   7.052   4.342  2.5071  0.5698  0.2475
 4297SOL     OW19236   5.882   8.441   0.060  0.1204  0.2670 -0.0697
 4297SOL    HW119237   5.906   8.476   0.146 -1.5640  0.3266  0.3958
 4297SOL    HW219238   5.921   8.503  -0.002  0.5755  0.7378  0.6652
 4298SOL     OW19239   0.035   0.315   1.982 -0.4549  0.1356 -0.0531
 4298SOL    HW119240   0.082   0.347   2.059 -0.4395 -1.6948  0.7511
 4298SOL    HW219241   0.079   0.356   1.908  1.8710 -0.8154  0.7167
 4299SOL     OW19242   4.955   5.213   5.816 -0.6146 -0.2098  0.6803
 4299SOL    HW119243   4.948   5.246   5.726  0.3526 -1.4231  0.1342
 4299SOL    HW219244   4.899   5.272   5.867 -1.4541  0.2991 -0.7559
 4300SOL     OW19245   1.724   7.485   5.195  0.3907 -0.0883 -0.1107
 4300SOL    HW119246   1.732   7.484   5.291 -1.2280 -0.7735  0.0575
 4300SOL    HW219247   1.814   7.479   5.163  1.3380  3.7962  1.3126
 4301SOL     OW19248   8.113   0.980   0.919 -0.0794  0.3955  0.4813
 4301SOL    HW119249   8.204   0.976   0.889  0.2984 -0.8042  1.6969
 4301SOL    HW219250   8.061   0.961   0.841  0.7317  0.3588 -0.0646
 4302SOL     OW19251   3.313   0.524   6.946 -0.2234 -0.2605 -0.5220
 4302SOL    HW119252   3.315   0.531   7.041 -0.4919  1.0790 -0.6073
 4302SOL    HW219253   3.358   0.441   6.928  1.5168  0.3718  0.6734
 4303SOL     OW19254   5.741   0.659   3.060  0.1742 -0.1205  0.2384
 4303SOL    HW119255   5.784   0.729   3.109 -0.3774  0.1343  0.3602
 4303SOL    HW219256   5.722   0.698   2.975 -3.7830  1.2837  1.5604
 4304SOL     OW19257   9.223   0.521   1.399 -0.0337 -0.4915 -0.4138
 4304SOL    HW119258   9.202   0.452   1.462 -0.8237  1.5288  1.6989
 4304SOL    HW219259   9.143   0.529   1.346 -0.7532  0.1218  0.7044
 4305SOL     OW19260   2.824   0.346   7.033  0.2695  0.5797  0.2140
 4305SOL    HW119261   2.876   0.336   6.953 -0.2764 -2.0807  0.0963
 4305SOL    HW219262   2.734   0.329   7.005 -0.0728  0.6788  1.2172
 4306SOL     OW19263   3.483   8.008   3.062  0.3818  0.3453  0.2534
 4306SOL    HW119264   3.394   8.034   3.038 -0.0202 -0.9371  0.2871
 4306SOL    HW219265   3.497   8.048   3.148 -1.0187 -1.2146  1.2737
 4307SOL     OW19266   4.808   7.559   3.283 -0.1921  0.0522 -0.0292
 4307SOL    HW119267   4.741   7.593   3.342 -0.9844 -1.1982 -0.1645
 4307SOL    HW219268   4.773   7.573   3.195  0.5113  0.9428 -0.1865
 4308SOL     OW19269   3.352   2.405   0.112  0.2030 -0.2147  0.4377
 4308SOL    HW119270   3.437   2.370   0.140  1.2215  1.6021 -0.1871
 4308SOL    HW219271   3.374   2.474   0.049 -1.8078 -0.5705 -0.7477
 4309SOL     OW19272   3.804   9.193   5.485  0.3727  0.1706 -0.1903
 4309SOL    HW119273   3.880   9.233   5.444  1.9240 -1.1644  1.1897
 4309SOL    HW219274   3.841   9.132   5.549 -1.8442 -1.7829 -0.6257
 4310SOL     OW19275   5.767   2.224   6.928  0.0622  0.1376  0.1241
 4310SOL    HW119276   5.677   2.233   6.959 -0.4708 -0.1657 -1.2647
 4310SOL    HW219277   5.821   2.236   7.006 -1.2151 -0.7393  1.1669
 4311SOL     OW19278   2.362   8.482   0.284  0.2664  0.2976 -0.1040
 4311SOL    HW119279   2.307   8.558   0.301 -3.5293 -1.9214 -1.4122
 4311SOL    HW219280   2.344   8.458   0.193  3.3557 -0.7522 -0.5821
 4312SOL     OW19281   3.273   2.291   2.415  0.6319 -0.1830 -0.1922
 4312SOL    HW119282   3.219   2.222   2.453  1.1399 -1.7447 -2.1212
 4312SOL    HW219283   3.357   2.284   2.459  0.1861  0.3057  0.7548
 4313SOL     OW19284   7.631   7.407   6.617 -0.1765  0.2599 -0.7855
 4313SOL    HW119285   7.701   7.458   6.576  0.5561  0.0188  0.1372
 4313SOL    HW219286   7.564   7.472   6.640  0.4706  0.7208 -0.1853
 4314SOL     OW19287   3.595   5.001   0.832 -0.0909  0.0151 -0.0851
 4314SOL    HW119288   3.588   4.911   0.800  0.7189 -0.2816  0.5175
 4314SOL    HW219289   3.571   5.055   0.757 -0.4650 -0.7008 -0.4941
 4315SOL     OW19290   0.656   4.017   6.638  0.1048  0.1703  0.7557
 4315SOL    HW119291   0.669   3.928   6.605  1.0660  0.9614 -1.1315
 4315SOL    HW219292   0.744   4.048   6.658 -0.2791  0.4900  2.0935
 4316SOL     OW19293   3.990   3.505   8.245 -0.5356  0.4700  0.1506
 4316SOL    HW119294   3.903   3.545   8.242 -0.6313  0.2035 -1.4910
 4316SOL    HW219295   3.973   3.411   8.250 -0.3107  0.4840  1.6310
 4317SOL     OW19296   1.957   3.297   1.479  0.8280  0.0360 -0.1329
 4317SOL    HW119297   2.005   3.288   1.396  0.2793  1.6081 -0.6475
 4317SOL    HW219298   1.990   3.378   1.517 -0.6602  0.6203 -0.0135
 4318SOL     OW19299   3.398   4.874   0.125 -0.5991 -0.2285  0.0273
 4318SOL    HW119300   3.330   4.899   0.062 -0.3867 -0.8865 -0.4772
 4318SOL    HW219301   3.350   4.858   0.207 -0.9681 -0.0595 -0.1517
 4319SOL     OW19302   9.034   6.419   8.308 -0.3241 -0.2959 -0.5199
 4319SOL    HW119303   9.073   6.415   8.221  0.9390 -0.1767  0.0188
 4319SOL    HW219304   9.078   6.493   8.350 -0.3513 -0.8417  0.4885
 4320SOL     OW19305   9.237   0.010   5.825 -0.3435 -0.2391 -0.1642
 4320SOL    HW119306   9.256   0.021   5.918  2.1073 -1.0589 -0.5045
 4320SOL    HW219307   9.166  -0.054   5.822  0.4140 -1.1615  1.1016
 4321SOL     OW19308   7.597   7.299   5.514 -0.1673  0.6490 -0.3145
 4321SOL    HW119309   7.547   7.365   5.562 -1.1824  0.7695 -1.5075
 4321SOL    HW219310   7.537   7.265   5.448  0.6643 -0.7421 -0.4098
 4322SOL     OW19311   6.752   3.405   8.040 -0.6660 -0.0041  0.5693
 4322SOL    HW119312   6.821   3.405   8.106  2.0005 -1.4874 -2.0134
 4322SOL    HW219313   6.671   3.418   8.090  1.4148  2.2802  3.7227
 4323SOL     OW19314   5.452   4.794   3.074 -0.1492  0.0870 -0.7651
 4323SOL    HW119315   5.521   4.859   3.090 -1.0764  0.8568  0.2741
 4323SOL    HW219316   5.499   4.711   3.067  0.8422  0.4894  0.6107
 4324SOL     OW19317   5.000   7.146   8.759 -0.1217  0.2050 -0.2320
 4324SOL    HW119318   4.987   7.237   8.735 -0.5740 -0.1139 -1.2567
 4324SOL    HW219319   4.939   7.097   8.704 -0.4922 -0.6544  0.8990
 4325SOL     OW19320   4.140   4.539   0.946 -0.4569 -0.7917  0.0279
 4325SOL    HW119321   4.220   4.573   0.987  0.4958 -0.4275 -2.0018
 4325SOL    HW219322   4.071   4.598   0.976  0.8246  1.7992 -1.7994
 4326SOL     OW19323   0.987   3.740   6.054 -0.9112  0.2370 -0.2509
 4326SOL    HW119324   0.982   3.780   6.141 -0.0003 -0.0391 -0.0651
 4326SOL    HW219325   0.961   3.810   5.994 -1.0419  0.5812  0.2012
 4327SOL     OW19326   8.434   3.576   0.424  0.1477  0.2815 -0.4292
 4327SOL    HW119327   8.382   3.507   0.383  1.1127  0.3782 -1.8859
 4327SOL    HW219328   8.442   3.643   0.356  2.7548 -0.0311 -0.5113
 4328SOL     OW19329   8.045   7.209   2.552  0.3234  0.1079  1.0157
 4328SOL    HW119330   7.999   7.285   2.589  0.2305 -0.4224  2.0460
 4328SOL    HW219331   8.056   7.150   2.627  0.1509 -1.0119  0.1796
 4329SOL     OW19332   2.147   6.815   8.539  0.0290 -0.2941  0.4510
 4329SOL    HW119333   2.130   6.721   8.535  0.0322 -0.2508 -1.6216
 4329SOL    HW219334   2.148   6.843   8.447 -0.8386  1.8888  1.0524
 4330SOL     OW19335   1.540   4.255   1.457  0.2917  0.1563 -0.1430
 4330SOL    HW119336   1.477   4.187   1.430  0.2553  0.4310 -0.7667
 4330SOL    HW219337   1.620   4.206   1.477 -0.7906 -0.5235  3.1943
 4331SOL     OW19338   0.184   0.588   2.914 -0.2766  0.0114 -0.3335
 4331SOL    HW119339   0.101   0.630   2.892  0.0134  0.2828 -0.9616
 4331SOL    HW219340   0.248   0.659   2.910  0.1272 -0.3681 -0.7979
 4332SOL     OW19341   0.704   4.639   7.099 -0.0013  0.0694  0.0628
 4332SOL    HW119342   0.628   4.681   7.058 -1.2262 -2.7322 -0.7228
 4332SOL    HW219343   0.677   4.625   7.190  0.5689  1.2597  0.4366
 4333SOL     OW19344   6.905   4.872   2.559  0.0961 -0.5543 -0.5155
 4333SOL    HW119345   6.983   4.820   2.580  0.9389  0.1087 -1.8528
 4333SOL    HW219346   6.854   4.873   2.640  2.0161 -0.0471  0.7403
 4334SOL     OW19347   9.052   6.862   3.758 -0.3609 -0.2670  0.0114
 4334SOL    HW119348   9.036   6.853   3.852 -1.9508 -0.1812 -0.2185
 4334SOL    HW219349   9.145   6.881   3.751 -0.3692  0.5144  1.6285
 4335SOL     OW19350   1.978   2.438   8.008  0.3010  0.7496  0.2596
 4335SOL    HW119351   1.920   2.478   7.943  0.2770  0.5698  0.1694
 4335SOL    HW219352   2.051   2.403   7.957  0.5304  1.0475  0.3819
 4336SOL     OW19353   8.284   7.315   7.578  0.9447 -0.1317  0.1029
 4336SOL    HW119354   8.206   7.287   7.627  0.7521 -0.2568 -0.2683
 4336SOL    HW219355   8.250   7.375   7.512  0.9208 -1.3972 -1.0957
 4337SOL     OW19356   2.786   6.998   7.979 -0.2627  0.1488  0.0790
 4337SOL    HW119357   2.776   7.092   7.992  1.3421  0.2661  0.6942
 4337SOL    HW219358   2.862   6.989   7.921 -1.2339 -0.7446 -1.1127
 4338SOL     OW19359   2.774   6.008   3.091 -0.0652  0.1650  0.0049
 4338SOL    HW119360   2.804   6.046   3.008 -0.5617 -0.0672 -0.2851
 4338SOL    HW219361   2.694   6.056   3.111  0.8827  1.3417  1.1862
 4339SOL     OW19362   7.438   3.431   8.761  0.1419  0.3774  0.5149
 4339SOL    HW119363   7.442   3.336   8.750  0.7972  0.4085  0.4631
 4339SOL    HW219364   7.418   3.443   8.853 -2.5172  0.1605  0.0397
 4340SOL     OW19365   8.279   3.193   5.647  0.0560  0.0935  0.4132
 4340SOL    HW119366   8.260   3.287   5.643  0.7062  0.2048 -0.4517
 4340SOL    HW219367   8.374   3.189   5.654 -0.0364 -0.4930  1.3904
 4341SOL     OW19368   7.588   5.927   8.932 -0.1128 -0.1099  0.2954
 4341SOL    HW119369   7.566   5.843   8.893  1.8030 -0.7315  0.4585
 4341SOL    HW219370   7.606   5.908   9.024 -2.4768  0.9987  1.0903
 4342SOL     OW19371   1.349   8.293   6.532  0.4631  0.2028 -0.1344
 4342SOL    HW119372   1.333   8.199   6.526 -2.4310  0.5306  1.2534
 4342SOL    HW219373   1.386   8.306   6.619  1.1545  0.3492 -0.4398
 4343SOL     OW19374   3.998   4.838   4.391 -0.6166  0.6732  0.1600
 4343SOL    HW119375   4.089   4.834   4.419 -0.0049 -0.9416 -1.8036
 4343SOL    HW219376   4.003   4.874   4.302 -1.9397  0.8986  0.1600
 4344SOL     OW19377   2.555   5.181   1.820  0.3293 -0.0992  0.5646
 4344SOL    HW119378   2.645   5.148   1.816  1.2203  2.1666  0.6319
 4344SOL    HW219379   2.508   5.115   1.871  1.9580 -1.3017  0.5874
 4345SOL     OW19380   6.293   3.947   0.968 -0.1468  0.7153 -0.1766
 4345SOL    HW119381   6.366   4.008   0.963  1.2982 -0.9101  0.3608
 4345SOL    HW219382   6.319   3.881   1.032 -2.1624  0.1715  0.1814
 4346SOL     OW19383   6.778   1.923   3.403 -0.6432 -0.0591 -0.1323
 4346SOL    HW119384   6.801   1.990   3.338  0.8816  1.0507  1.4635
 4346SOL    HW219385   6.683   1.930   3.412 -0.6215  1.2643 -0.6491
 4347SOL     OW19386   0.926   7.538   4.059 -0.0581 -0.3666  0.5272
 4347SOL    HW119387   0.943   7.603   4.127 -0.4407 -1.8913  2.1624
 4347SOL    HW219388   0.842   7.566   4.020 -0.0117  0.3328  0.9150
 4348SOL     OW19389   2.487   6.904   0.302  0.2007  0.2334  0.1169
 4348SOL    HW119390   2.454   6.970   0.363  0.3265  0.5356 -0.1386
 4348SOL    HW219391   2.471   6.942   0.215  0.9785  0.2737 -0.0184
 4349SOL     OW19392   4.274   0.108   6.888 -0.3518  0.5746  0.5241
 4349SOL    HW119393   4.250   0.198   6.866 -0.1326  0.6858  0.7309
 4349SOL    HW219394   4.366   0.114   6.916 -0.6714  0.4678  1.6238
 4350SOL     OW19395   2.700   4.132   9.241 -0.5967 -0.5775 -0.2469
 4350SOL    HW119396   2.605   4.141   9.234 -0.5045  0.5317 -0.1739
 4350SOL    HW219397   2.735   4.212   9.203  0.3044 -0.7450  0.2009
 4351SOL     OW19398   2.203   9.011   3.418 -0.4908  0.8511 -0.4591
 4351SOL    HW119399   2.285   8.966   3.439 -1.2302 -1.0478 -1.4011
 4351SOL    HW219400   2.197   9.081   3.483  1.3437  0.3775  0.2907
 4352SOL     OW19401   4.520   6.565   7.428 -0.1858  0.0926 -0.1249
 4352SOL    HW119402   4.470   6.623   7.370 -0.6859  1.3077  1.4290
 4352SOL    HW219403   4.456   6.536   7.493  0.8003  0.6378  1.1464
 4353SOL     OW19404   6.012   4.228   7.823 -0.0614  0.2838  0.3685
 4353SOL    HW119405   6.037   4.315   7.792  0.4215 -0.3100 -0.9871
 4353SOL    HW219406   5.951   4.245   7.895 -0.6034  1.7386 -0.3862
 4354SOL     OW19407   7.621   1.251   5.022 -0.1439 -0.0321 -0.3314
 4354SOL    HW119408   7.639   1.280   5.111  2.0022 -1.0982 -0.3523
 4354SOL    HW219409   7.638   1.157   5.023 -4.1005 -0.9136 -0.9437
 4355SOL     OW19410   4.365   5.335   1.184  0.1845 -0.3756 -0.2326
 4355SOL    HW119411   4.390   5.269   1.120 -0.1681 -1.4540  0.6982
 4355SOL    HW219412   4.416   5.312   1.262 -0.8093 -0.2768  0.4692
 4356SOL     OW19413   7.406   1.167   1.376  0.2859  0.7381  0.6573
 4356SOL    HW119414   7.397   1.084   1.423  0.6418 -1.3503 -2.5803
 4356SOL    HW219415   7.499   1.171   1.352 -0.0227  1.2419 -0.5435
 4357SOL     OW19416   7.205   8.940   7.108  0.2847  0.1009 -0.3806
 4357SOL    HW119417   7.160   8.876   7.052  1.8795 -0.5277 -0.9834
 4357SOL    HW219418   7.232   9.009   7.049  0.4293  0.2989 -0.0869
 4358SOL     OW19419   5.717   8.756   0.409  0.0154  0.2099 -0.7553
 4358SOL    HW119420   5.781   8.803   0.357 -2.0952  0.7975 -3.0132
 4358SOL    HW219421   5.735   8.664   0.393  0.8540  0.3446 -0.6042
 4359SOL     OW19422   8.716   7.270   5.832  0.1793  0.8835 -0.1482
 4359SOL    HW119423   8.760   7.202   5.884 -2.3218 -1.7285 -1.1840
 4359SOL    HW219424   8.720   7.239   5.742  0.2733  2.9430 -0.9159
 4360SOL     OW19425   8.163   0.335   0.908  0.0928  0.4781 -0.5746
 4360SOL    HW119426   8.212   0.274   0.963 -0.2536  0.5673 -0.1622
 4360SOL    HW219427   8.071   0.313   0.923 -0.0058  0.4953 -1.1298
 4361SOL     OW19428   1.958   4.060   7.537  0.3368  0.1820 -0.1778
 4361SOL    HW119429   1.926   4.003   7.467  0.1713  1.2918 -1.0287
 4361SOL    HW219430   2.052   4.044   7.540  0.5577  1.0867 -1.5737
 4362SOL     OW19431   8.823   5.912   3.048 -0.1769 -0.5325  0.1086
 4362SOL    HW119432   8.885   5.840   3.039  0.4013  0.1376 -1.8445
 4362SOL    HW219433   8.876   5.986   3.078 -0.3411 -0.3694  0.0016
 4363SOL     OW19434   0.656   8.553   7.685  0.0479 -0.0606  0.0569
 4363SOL    HW119435   0.708   8.529   7.608  1.1679 -1.5794  1.2155
 4363SOL    HW219436   0.592   8.616   7.652  1.6292  0.7137 -1.7575
 4364SOL     OW19437   5.650   7.423   0.301 -0.4718  0.0637 -0.6521
 4364SOL    HW119438   5.631   7.509   0.263 -1.1840 -0.1147 -0.7014
 4364SOL    HW219439   5.574   7.403   0.354 -0.2789 -0.5146 -0.5919
 4365SOL     OW19440   6.943   2.199   3.261  0.1752  0.0190 -0.0428
 4365SOL    HW119441   6.884   2.163   3.195 -0.4699  0.8337  0.0605
 4365SOL    HW219442   6.898   2.278   3.292  0.3440 -0.4751  1.5558
 4366SOL     OW19443   3.981   8.494   8.155 -0.1182  0.5843 -0.1077
 4366SOL    HW119444   4.053   8.539   8.199 -0.0729  0.0319  0.3910
 4366SOL    HW219445   3.908   8.556   8.161  0.4026  1.3102 -0.9643
 4367SOL     OW19446   7.866   4.849   7.174 -0.3769 -0.0221  0.2515
 4367SOL    HW119447   7.873   4.776   7.113  0.0641 -0.0819  0.3691
 4367SOL    HW219448   7.779   4.884   7.160 -0.1597  0.1815 -0.6552
 4368SOL     OW19449   6.182   6.192   6.648  0.0341  0.5604  0.2946
 4368SOL    HW119450   6.163   6.272   6.599 -1.2190  0.1295  0.0336
 4368SOL    HW219451   6.105   6.137   6.634  1.8451 -1.6784 -1.4291
 4369SOL     OW19452   3.857   6.673   7.344  0.1501  0.1053  0.4576
 4369SOL    HW119453   3.896   6.760   7.357  0.3464 -0.0383  0.8337
 4369SOL    HW219454   3.798   6.662   7.418  0.4398 -0.2554  0.6351
 4370SOL     OW19455   2.591   9.147   4.093 -0.9225  0.5804  0.4427
 4370SOL    HW119456   2.617   9.188   4.010 -0.8194  1.1921  0.7694
 4370SOL    HW219457   2.501   9.116   4.078 -1.5846  2.2947  0.6532
 4371SOL     OW19458   8.120   6.919   4.263 -0.3509 -0.2364 -0.1292
 4371SOL    HW119459   8.077   6.835   4.248 -1.7839  0.4940 -0.2052
 4371SOL    HW219460   8.181   6.928   4.189 -1.4836 -0.3891 -1.1118
 4372SOL     OW19461   8.764   6.681   3.216 -0.4940  0.4228  0.1112
 4372SOL    HW119462   8.696   6.633   3.169 -1.2271 -1.0359  2.5110
 4372SOL    HW219463   8.804   6.616   3.274  1.5712  1.7397  0.2780
 4373SOL     OW19464   5.449   3.674   8.995  0.2143 -0.1449  0.0103
 4373SOL    HW119465   5.385   3.647   8.929  0.7336 -1.7914  0.1248
 4373SOL    HW219466   5.516   3.722   8.946  0.0725 -0.4574 -0.4986
 4374SOL     OW19467   6.284   8.872   6.767 -0.0333  0.2485 -0.0378
 4374SOL    HW119468   6.329   8.951   6.798 -0.5527  1.5078 -2.3288
 4374SOL    HW219469   6.312   8.862   6.676 -0.3237 -1.9933  0.0705
 4375SOL     OW19470   3.158   7.950   6.838 -0.3715 -0.3335  0.6314
 4375SOL    HW119471   3.220   7.932   6.768  1.0856 -1.6191  2.1859
 4375SOL    HW219472   3.078   7.905   6.811 -0.5590  0.9551 -1.1676
 4376SOL     OW19473   5.162   1.485   2.445 -0.2511 -0.0480  0.0458
 4376SOL    HW119474   5.151   1.391   2.429  1.5459 -0.3235  0.1704
 4376SOL    HW219475   5.112   1.528   2.376  0.0842 -1.1178 -0.8868
 4377SOL     OW19476   3.050   3.188   0.505  0.0083  0.4791 -0.2182
 4377SOL    HW119477   3.023   3.245   0.433 -0.4588 -0.5993 -0.9118
 4377SOL    HW219478   2.970   3.143   0.531  0.9309 -2.4575 -2.0126
 4378SOL     OW19479   9.212   0.528   3.499  0.3976  0.5923 -0.3475
 4378SOL    HW119480   9.130   0.498   3.537  0.2849  0.6213 -0.5640
 4378SOL    HW219481   9.190   0.611   3.457  1.0833  1.9329  1.7754
 4379SOL     OW19482   5.264   6.315   7.811  0.1092 -0.7193 -0.0474
 4379SOL    HW119483   5.256   6.402   7.772 -1.1758 -0.3618  0.9468
 4379SOL    HW219484   5.335   6.323   7.875  1.1788 -0.9034 -1.1632
 4380SOL     OW19485   2.021   8.844   4.192 -0.2449  0.3719  0.2706
 4380SOL    HW119486   2.061   8.920   4.151  3.1156 -0.6432  1.3969
 4380SOL    HW219487   2.059   8.768   4.147 -0.3272 -0.6819  1.8820
 4381SOL     OW19488   0.302   7.430   6.627  0.8561  0.6095 -0.1043
 4381SOL    HW119489   0.264   7.480   6.555 -0.8363  2.5836  1.9994
 4381SOL    HW219490   0.229   7.381   6.664  1.8453 -0.9450 -0.1152
 4382SOL     OW19491   9.204   6.374   7.431 -0.2792  0.2207  0.4763
 4382SOL    HW119492   9.185   6.411   7.344  0.6282  0.5361  0.4022
 4382SOL    HW219493   9.145   6.299   7.438 -2.4885  1.8446  0.7784
 4383SOL     OW19494   2.131   6.562   6.622  0.4129  0.6562  0.0178
 4383SOL    HW119495   2.140   6.590   6.531  0.5547  0.4466 -0.0314
 4383SOL    HW219496   2.036   6.565   6.638  0.3830  0.6347 -0.1536
 4384SOL     OW19497   0.122   7.586   3.304 -0.0356 -0.0146  0.3382
 4384SOL    HW119498   0.169   7.503   3.298 -1.6821 -1.0230  0.8052
 4384SOL    HW219499   0.069   7.589   3.224  0.1889  0.7093  0.2126
 4385SOL     OW19500   3.979   2.891   0.971 -0.5373  0.0270  0.2685
 4385SOL    HW119501   3.965   2.883   0.877  1.7469  1.9773 -0.3418
 4385SOL    HW219502   4.075   2.887   0.981 -0.7274 -0.1965  2.5272
 4386SOL     OW19503   1.595   0.211   7.355 -0.2247  0.2250 -0.4847
 4386SOL    HW119504   1.557   0.183   7.272  0.8735  2.8242 -1.9781
 4386SOL    HW219505   1.543   0.288   7.380  1.6799  1.6379 -0.6861
 4387SOL     OW19506   4.333   1.552   5.517  0.1740  0.1826  0.4776
 4387SOL    HW119507   4.300   1.641   5.512  0.3990  0.2214 -2.5989
 4387SOL    HW219508   4.260   1.497   5.488  0.9848 -0.2446 -0.9025
 4388SOL     OW19509   0.208   2.555   8.249 -0.7011  0.2730  0.1569
 4388SOL    HW119510   0.199   2.630   8.308  1.5579 -0.4036  1.4560
 4388SOL    HW219511   0.301   2.551   8.229 -0.7428 -2.2128  0.1613
 4389SOL     OW19512   8.806   0.638   3.813  0.2158 -0.0203  0.3769
 4389SOL    HW119513   8.796   0.715   3.868  2.9154 -0.1766  1.2035
 4389SOL    HW219514   8.881   0.591   3.850 -0.7114 -2.5287 -0.7084
 4390SOL     OW19515   0.472   3.116   0.831  0.1527 -0.2251  0.5898
 4390SOL    HW119516   0.416   3.066   0.891  1.8018 -2.0542  0.6892
 4390SOL    HW219517   0.498   3.053   0.764  1.0961  0.9177 -0.1554
 4391SOL     OW19518   7.359   7.412   1.684  0.2713 -0.2983  0.0460
 4391SOL    HW119519   7.264   7.423   1.672  0.2075 -1.6546 -0.9423
 4391SOL    HW219520   7.381   7.472   1.755 -1.4170 -0.3195  0.6413
 4392SOL     OW19521   8.866   5.155   0.371 -0.0094 -0.2269  0.4503
 4392SOL    HW119522   8.883   5.193   0.284 -0.6891  1.1238  0.8873
 4392SOL    HW219523   8.921   5.076   0.373 -1.6149 -1.5487 -2.0504
 4393SOL     OW19524   2.358   6.097   4.921 -0.2795  0.0608  0.0783
 4393SOL    HW119525   2.332   6.174   4.973 -1.3404 -1.5193  2.0631
 4393SOL    HW219526   2.284   6.081   4.863 -0.2229  0.3337 -0.0665
 4394SOL     OW19527   3.371   7.799   5.325 -0.4080 -0.4785  0.1178
 4394SOL    HW119528   3.460   7.782   5.293 -1.0392 -2.7338 -0.6023
 4394SOL    HW219529   3.339   7.870   5.270  0.7471 -0.0016  0.0251
 4395SOL     OW19530   6.727   4.563   0.758 -0.0096  0.0269 -0.1647
 4395SOL    HW119531   6.700   4.650   0.785  0.6334 -0.1128  0.9950
 4395SOL    HW219532   6.651   4.507   0.778 -0.3656  0.2899 -0.7704
 4396SOL     OW19533   1.370   6.505   4.593 -0.6109  0.3630  0.4843
 4396SOL    HW119534   1.371   6.591   4.635  1.9418  0.5618  0.1858
 4396SOL    HW219535   1.332   6.521   4.506  0.9917  1.5074 -0.0505
 4397SOL     OW19536   7.061   4.896   0.924  0.3925  0.2404 -0.1587
 4397SOL    HW119537   7.075   4.976   0.975  1.1696 -0.1727  0.2990
 4397SOL    HW219538   6.995   4.847   0.974  1.5100 -0.3898  0.7491
 4398SOL     OW19539   8.300   5.926   4.049  0.0276 -0.1322  0.1675
 4398SOL    HW119540   8.307   5.838   4.012 -2.1014 -0.6717  0.9185
 4398SOL    HW219541   8.214   5.928   4.090  1.6544  0.8647  3.9376
 4399SOL     OW19542   1.511   7.352   0.344  0.3924 -0.2627  0.0425
 4399SOL    HW119543   1.565   7.417   0.299 -0.9379  0.2868 -0.8395
 4399SOL    HW219544   1.528   7.270   0.297  1.3609 -0.3686  0.5543
 4400SOL     OW19545   7.016   7.686   4.018  0.1955  0.4215 -0.4184
 4400SOL    HW119546   7.094   7.741   4.014  1.3051 -0.9923  0.6412
 4400SOL    HW219547   6.961   7.717   3.947  1.3370  2.0363 -0.6438
 4401SOL     OW19548   5.689   3.724   2.018  0.7076  0.0681  0.2053
 4401SOL    HW119549   5.673   3.642   1.973 -1.0114 -0.0001  0.8581
 4401SOL    HW219550   5.767   3.708   2.071  0.3273 -1.1798  0.4002
 4402SOL     OW19551   5.071   0.836   3.040  0.2021 -0.2405  0.3377
 4402SOL    HW119552   5.051   0.742   3.049 -0.1023 -0.4592 -2.0552
 4402SOL    HW219553   4.985   0.877   3.032  0.3626  0.1588  0.6690
 4403SOL     OW19554   4.072   6.554   0.419 -0.0302 -0.1299 -0.6591
 4403SOL    HW119555   3.981   6.556   0.447  0.2226 -0.4587  0.2082
 4403SOL    HW219556   4.083   6.635   0.369 -1.1429 -0.7333 -1.9343
 4404SOL     OW19557   8.467   8.778   4.733 -0.4210  0.2598  0.3988
 4404SOL    HW119558   8.539   8.840   4.742  0.3593 -0.5136 -0.3222
 4404SOL    HW219559   8.489   8.706   4.792  1.3653 -1.7291 -2.4544
 4405SOL     OW19560   2.554   8.139   2.803 -0.1697  0.3118 -0.3973
 4405SOL    HW119561   2.568   8.233   2.795  0.4479  0.3246  0.6139
 4405SOL    HW219562   2.459   8.128   2.798 -0.1769  0.8303 -1.8125
 4406SOL     OW19563   9.233   3.401   2.478  0.7460 -0.5063 -0.4331
 4406SOL    HW119564   9.198   3.490   2.478 -0.8508 -1.0220  2.1219
 4406SOL    HW219565   9.161   3.347   2.443  0.5391 -1.0961  0.8443
 4407SOL     OW19566   4.282   7.423   3.320 -0.7981  0.6013  0.2495
 4407SOL    HW119567   4.363   7.413   3.271 -1.8905  0.3163 -1.5731
 4407SOL    HW219568   4.216   7.446   3.255 -2.3176  0.2472  1.5794
 4408SOL     OW19569   3.075   0.033   7.116  0.3025  0.2186  0.0130
 4408SOL    HW119570   3.014   0.105   7.098  0.8462  0.8327  0.5928
 4408SOL    HW219571   3.082  -0.013   7.033 -1.4791 -0.2769  0.0967
 4409SOL     OW19572   3.686   6.115   5.673  0.5033  0.0180  0.3894
 4409SOL    HW119573   3.692   6.159   5.758  0.3872  1.0283 -0.0988
 4409SOL    HW219574   3.592   6.102   5.660  0.5932 -1.3529  0.9960
 4410SOL     OW19575   1.459   5.884   9.147 -0.1896  0.5419  0.2208
 4410SOL    HW119576   1.371   5.908   9.119 -0.4875 -0.8847 -0.1351
 4410SOL    HW219577   1.473   5.932   9.228 -1.2484  0.8836  0.2095
 4411SOL     OW19578   8.418   1.250   5.587 -0.1858  0.4647 -0.4947
 4411SOL    HW119579   8.379   1.167   5.615 -0.5536  0.6874 -0.3362
 4411SOL    HW219580   8.459   1.230   5.503  1.4893 -0.3587  0.4882
 4412SOL     OW19581   4.180   8.210   2.372 -0.3309 -0.3913 -0.0298
 4412SOL    HW119582   4.252   8.241   2.427  0.8541 -1.0026 -1.1869
 4412SOL    HW219583   4.127   8.289   2.355  0.4009  0.1910  0.3364
 4413SOL     OW19584   2.689   4.681   8.169  0.2561 -0.4674  0.0744
 4413SOL    HW119585   2.621   4.744   8.192 -0.3503 -0.7652 -0.8380
 4413SOL    HW219586   2.744   4.726   8.105 -0.2105 -0.8659 -0.6211
 4414SOL     OW19587   3.537   7.532   1.315 -0.4570 -0.3871 -0.0991
 4414SOL    HW119588   3.577   7.446   1.325  2.2835  0.6477 -1.3349
 4414SOL    HW219589   3.529   7.544   1.220 -0.1070  0.9822  0.0201
 4415SOL     OW19590   8.443   2.504   8.293 -0.1756 -0.3099  0.2478
 4415SOL    HW119591   8.390   2.466   8.363  0.0493 -0.6314  0.2429
 4415SOL    HW219592   8.381   2.560   8.245 -0.3506 -0.1585  0.6462
 4416SOL     OW19593   5.485   8.028   8.754 -0.6323 -0.9903 -0.5402
 4416SOL    HW119594   5.428   8.096   8.719  0.0575 -0.3658 -0.4857
 4416SOL    HW219595   5.523   7.986   8.677 -0.4727 -0.8032 -0.5632
 4417SOL     OW19596   6.656   0.419   7.774  0.2684  0.1838 -0.0891
 4417SOL    HW119597   6.589   0.387   7.714  0.6009  0.7567 -0.7822
 4417SOL    HW219598   6.610   0.480   7.833 -0.0995 -0.5424  0.3852
 4418SOL     OW19599   1.507   2.570   8.009  0.1499 -0.1790  0.2663
 4418SOL    HW119600   1.499   2.644   7.948 -0.3269  0.2290  0.8125
 4418SOL    HW219601   1.421   2.527   8.004  0.2378 -0.3621  0.3720
 4419SOL     OW19602   1.114   6.096   0.626  0.9355 -0.2736 -0.9274
 4419SOL    HW119603   1.025   6.114   0.658  0.9419 -0.7318 -0.6440
 4419SOL    HW219604   1.110   6.005   0.595  0.4833  0.6014 -3.7717
 4420SOL     OW19605   3.512   9.140   6.982 -0.1627 -0.0694  0.1385
 4420SOL    HW119606   3.606   9.124   6.994  0.0767 -0.2015 -1.6039
 4420SOL    HW219607   3.470   9.085   7.048  0.9525 -1.1547 -0.0162
 4421SOL     OW19608   2.999   4.079   6.761 -0.4930  0.0454 -0.6675
 4421SOL    HW119609   3.043   4.049   6.682 -0.8090  0.2168 -0.9071
 4421SOL    HW219610   3.019   4.172   6.767 -2.1649  0.4894 -1.6645
 4422SOL     OW19611   4.987   0.566   7.791 -0.3699  0.2861  0.5630
 4422SOL    HW119612   4.914   0.527   7.742 -0.7620  0.8628  0.6763
 4422SOL    HW219613   5.058   0.572   7.728 -0.3563 -0.4663  0.5024
 4423SOL     OW19614   2.730   0.015   5.924 -0.0316  0.0332  0.2275
 4423SOL    HW119615   2.818   0.049   5.938  0.0925 -0.0709 -0.3021
 4423SOL    HW219616   2.726  -0.005   5.831  0.0147 -1.7089  0.5706
 4424SOL     OW19617   3.810   7.097   6.389 -0.0757  0.2586  0.2340
 4424SOL    HW119618   3.745   7.167   6.395 -1.5862 -1.1781  1.4513
 4424SOL    HW219619   3.782   7.032   6.453  0.0147 -2.4939 -2.2841
 4425SOL     OW19620   8.710   3.410   6.436  0.0309  0.0146  0.1060
 4425SOL    HW119621   8.748   3.397   6.523 -0.2840  2.2007  0.6322
 4425SOL    HW219622   8.664   3.328   6.417 -0.3677 -0.3192  2.2543
 4426SOL     OW19623   2.142   8.808   5.370 -0.7167 -0.4470  0.3348
 4426SOL    HW119624   2.135   8.904   5.366  0.5552 -0.3189  0.7821
 4426SOL    HW219625   2.060   8.777   5.330 -2.2833  0.8020  2.3865
 4427SOL     OW19626   7.692   9.014   0.729  0.2376  0.3329  0.5426
 4427SOL    HW119627   7.731   9.008   0.816 -0.0566  0.4932  0.6886
 4427SOL    HW219628   7.661   9.105   0.724  2.4916  1.1127 -0.6894
 4428SOL     OW19629   6.973   1.802   6.835 -0.8199 -0.2559 -0.0420
 4428SOL    HW119630   6.940   1.733   6.892 -0.2573 -0.0058  0.5972
 4428SOL    HW219631   6.913   1.875   6.847  0.2231  0.3946  1.5395
 4429SOL     OW19632   8.911   4.202   3.269  0.4315  0.5646 -0.2570
 4429SOL    HW119633   8.820   4.231   3.258  0.4827  1.4371  1.2683
 4429SOL    HW219634   8.912   4.160   3.355  1.5103  0.7678 -0.1608
 4430SOL     OW19635   8.616   0.177   4.431  0.5310 -0.3007 -0.0265
 4430SOL    HW119636   8.534   0.128   4.444  0.7049 -0.4207  0.6453
 4430SOL    HW219637   8.682   0.126   4.479  0.2526  1.9651  3.0510
 4431SOL     OW19638   0.679   2.259   4.675 -0.3056 -0.0885 -0.3433
 4431SOL    HW119639   0.761   2.215   4.697 -1.2967 -1.6018  0.5284
 4431SOL    HW219640   0.672   2.330   4.738  1.5958  1.8193 -2.1192
 4432SOL     OW19641   1.091   7.747   9.240 -0.0891  0.4825  0.2132
 4432SOL    HW119642   1.137   7.763   9.322 -1.3838  1.4271  0.7796
 4432SOL    HW219643   1.099   7.829   9.192 -1.3489  0.7268  0.4072
 4433SOL     OW19644   2.480   8.626   7.720 -0.0314 -0.3020 -0.4295
 4433SOL    HW119645   2.513   8.541   7.752 -0.7510 -1.0969 -1.7216
 4433SOL    HW219646   2.558   8.673   7.692  0.3845 -0.5058  0.3561
 4434SOL     OW19647   8.287   3.418   0.249  0.5372 -0.0289 -0.4709
 4434SOL    HW119648   8.252   3.330   0.238  0.2946 -0.2613  1.6296
 4434SOL    HW219649   8.269   3.462   0.166 -2.3027 -0.9646 -0.4692
 4435SOL     OW19650   3.807   5.162   8.854 -0.0089  0.0724  0.2879
 4435SOL    HW119651   3.897   5.177   8.884 -0.1633  1.3322  0.1844
 4435SOL    HW219652   3.753   5.179   8.932 -0.1684 -0.4877  0.2998
 4436SOL     OW19653   2.767   3.052   8.958  0.2079  0.1198  0.2645
 4436SOL    HW119654   2.755   2.989   9.029 -0.1849  0.0632  0.1494
 4436SOL    HW219655   2.862   3.067   8.955  0.2819 -0.3070  0.4242
 4437SOL     OW19656   7.149   8.975   0.964 -0.4308  0.8107 -0.4783
 4437SOL    HW119657   7.191   9.040   1.021 -1.9053  1.9902 -0.6826
 4437SOL    HW219658   7.061   9.008   0.950 -0.8929 -0.7179 -1.4737
 4438SOL     OW19659   8.066   5.132   2.116  0.4080  0.1068  0.0338
 4438SOL    HW119660   8.024   5.053   2.151  0.1759  0.7234  1.2059
 4438SOL    HW219661   8.155   5.105   2.093  0.6862 -0.2701  1.4518
 4439SOL     OW19662   8.026   7.765   7.694  0.0388 -0.0130 -0.3640
 4439SOL    HW119663   7.939   7.726   7.706 -0.3156  1.3042  1.9976
 4439SOL    HW219664   8.078   7.728   7.766  1.9115 -1.7890 -2.4867
 4440SOL     OW19665   0.067   0.464   4.072 -0.0103  0.0736  0.1776
 4440SOL    HW119666   0.109   0.458   4.158 -0.3414 -1.4132  0.2645
 4440SOL    HW219667  -0.024   0.484   4.091 -0.3070 -1.2591  0.2554
 4441SOL     OW19668   5.058   5.197   2.743  0.3541 -1.0542 -0.4984
 4441SOL    HW119669   5.031   5.158   2.827  0.2426 -0.2796 -0.1628
 4441SOL    HW219670   4.984   5.253   2.719  0.7259 -0.6634 -0.7191
 4442SOL     OW19671   3.580   0.806   0.686  0.0731  0.0263  0.2433
 4442SOL    HW119672   3.624   0.759   0.615 -0.2966  1.0218 -0.6761
 4442SOL    HW219673   3.504   0.752   0.707  1.7723 -1.8888  2.0703
 4443SOL     OW19674   0.158   4.021   9.119  0.0469 -0.1078  0.1315
 4443SOL    HW119675   0.183   4.109   9.147  0.7872 -0.3688  0.3204
 4443SOL    HW219676   0.211   3.963   9.174 -0.3106 -0.6700 -0.1084
 4444SOL     OW19677   2.742   5.486   6.961 -0.1576 -0.5380 -0.6174
 4444SOL    HW119678   2.799   5.540   6.906 -0.3853  1.9346  1.3887
 4444SOL    HW219679   2.802   5.422   7.001  0.9173  0.7648 -0.0536
 4445SOL     OW19680   3.769   9.240   7.444 -0.6051 -0.0558 -0.4435
 4445SOL    HW119681   3.807   9.259   7.530 -0.4489  1.1886 -0.7686
 4445SOL    HW219682   3.789   9.318   7.391 -1.2427 -0.5372 -1.4235
 4446SOL     OW19683   3.466   5.071   1.994 -0.1275  0.3957  0.1872
 4446SOL    HW119684   3.543   5.026   2.029 -0.5622 -0.9838 -0.5768
 4446SOL    HW219685   3.473   5.060   1.899 -2.1050 -1.1935  0.1835
 4447SOL     OW19686   9.219   6.351   7.807 -0.3842  0.3271 -0.2804
 4447SOL    HW119687   9.255   6.274   7.762  0.5544 -0.1791  1.2434
 4447SOL    HW219688   9.248   6.425   7.755  0.3328 -0.2613 -0.7408
 4448SOL     OW19689   8.861   3.005   0.335  0.1049  0.1281 -0.7250
 4448SOL    HW119690   8.774   3.043   0.349 -0.0053  1.1314 -3.4816
 4448SOL    HW219691   8.878   2.954   0.414 -2.7258  0.3877  0.1661
 4449SOL     OW19692   0.792   8.016   2.987 -0.1314  0.1948  0.1914
 4449SOL    HW119693   0.791   8.079   3.059 -0.4934  0.3207  0.0768
 4449SOL    HW219694   0.774   7.932   3.029 -1.6922  0.4493  0.0787
 4450SOL     OW19695   3.121   2.089   0.697  0.5472 -0.1507 -0.2173
 4450SOL    HW119696   3.127   1.996   0.718  1.0220 -0.3773 -1.2628
 4450SOL    HW219697   3.103   2.132   0.780 -1.6126 -1.3399 -0.0146
 4451SOL     OW19698   3.628   4.944   7.628  0.0006 -0.0177 -0.1282
 4451SOL    HW119699   3.575   4.963   7.550 -0.7597 -0.2939  0.3075
 4451SOL    HW219700   3.701   4.892   7.595  0.2734  0.7694 -0.8134
 4452SOL     OW19701   1.756   0.994   1.802  0.1589 -0.4779  0.2499
 4452SOL    HW119702   1.816   1.062   1.770 -0.6087 -1.0673 -2.7705
 4452SOL    HW219703   1.795   0.912   1.772  0.5523 -1.3856  2.9706
 4453SOL     OW19704   2.637   4.057   2.949 -0.3784  0.1984  0.8326
 4453SOL    HW119705   2.589   4.025   2.873 -0.7527 -0.9582  1.5393
 4453SOL    HW219706   2.603   4.146   2.963  1.4547  1.4568 -1.8053
 4454SOL     OW19707   2.622   3.448   5.648  0.0481  0.1506 -0.6018
 4454SOL    HW119708   2.671   3.425   5.727 -2.0619 -1.1911  0.3986
 4454SOL    HW219709   2.546   3.497   5.679  0.6875  2.2928 -2.1302
 4455SOL     OW19710   8.440   3.140   3.455  0.2005 -0.1636 -0.2581
 4455SOL    HW119711   8.379   3.188   3.511 -0.1993  1.6189 -2.0913
 4455SOL    HW219712   8.525   3.150   3.499  0.0364  1.8736 -0.3179
 4456SOL     OW19713   2.290   6.223   0.044 -0.2769  0.3065 -0.0313
 4456SOL    HW119714   2.240   6.302   0.064  0.4714  0.4788  1.2635
 4456SOL    HW219715   2.286   6.171   0.124 -2.4516 -1.9720 -1.4581
 4457SOL     OW19716   6.319   4.030   7.053 -1.1657  0.1351 -0.3595
 4457SOL    HW119717   6.233   3.989   7.045 -1.4028  0.6810 -0.6275
 4457SOL    HW219718   6.365   4.004   6.973 -0.0755 -2.4271  0.9678
 4458SOL     OW19719   7.225   8.799   4.708  0.1864  0.4140  0.4237
 4458SOL    HW119720   7.219   8.704   4.706  0.1365  0.4127  0.5866
 4458SOL    HW219721   7.280   8.818   4.785  2.0300  0.4257 -0.8263
 4459SOL     OW19722   2.660   0.331   8.913  0.2148 -0.0594  0.2652
 4459SOL    HW119723   2.638   0.279   8.990  1.1108 -1.3234 -0.2924
 4459SOL    HW219724   2.586   0.319   8.853  0.8872 -1.6817 -0.3140
 4460SOL     OW19725   7.686   4.253   8.225  0.3428 -0.4465 -0.4752
 4460SOL    HW119726   7.677   4.309   8.148 -0.5925 -0.0516 -0.0939
 4460SOL    HW219727   7.619   4.186   8.214 -0.2563  0.0104  0.3242
 4461SOL     OW19728   5.068   8.362   2.657  0.2371 -0.4734  0.4953
 4461SOL    HW119729   5.013   8.388   2.731  0.6533  2.0079  0.0441
 4461SOL    HW219730   5.157   8.386   2.684  1.2171 -4.1860  1.1165
 4462SOL     OW19731   1.772   7.826   7.033  0.2576  0.1868 -0.4197
 4462SOL    HW119732   1.778   7.732   7.051  1.1986 -0.1505 -2.2394
 4462SOL    HW219733   1.760   7.866   7.119  0.2733 -1.5592  0.4457
 4463SOL     OW19734   5.566   4.121   1.212 -0.1419 -0.0574 -0.2624
 4463SOL    HW119735   5.516   4.191   1.170  0.1154  0.3597  0.1219
 4463SOL    HW219736   5.506   4.085   1.276 -0.1382  0.0824 -0.1794
 4464SOL     OW19737   1.993   2.820   4.871  0.1936 -0.4982  0.0448
 4464SOL    HW119738   1.993   2.734   4.831  0.7687  0.0458 -1.1864
 4464SOL    HW219739   1.901   2.838   4.891 -0.0600 -0.9274 -0.7150
 4465SOL     OW19740   3.445   7.075   0.991 -0.0120  0.3247  0.9198
 4465SOL    HW119741   3.508   7.031   1.047  1.2964 -0.3713 -0.9929
 4465SOL    HW219742   3.396   7.005   0.949  0.6796  0.7017 -0.5913
 4466SOL     OW19743   4.647   8.509   3.474 -0.0574  0.2916 -0.3131
 4466SOL    HW119744   4.606   8.588   3.436  1.1989  0.6433 -0.9968
 4466SOL    HW219745   4.607   8.501   3.561 -3.1707 -0.6245 -1.6635
 4467SOL     OW19746   1.961   5.473   7.704  0.1367  0.0241 -0.5141
 4467SOL    HW119747   1.926   5.549   7.657 -1.6851 -0.1729  0.4250
 4467SOL    HW219748   1.898   5.403   7.688 -0.1117 -0.2817  1.4827
 4468SOL     OW19749   3.822   1.908   3.630  0.0864 -0.5449  0.2675
 4468SOL    HW119750   3.780   1.981   3.585  1.9462  1.0554  0.9539
 4468SOL    HW219751   3.889   1.878   3.570 -0.0165 -1.0373  0.3969
 4469SOL     OW19752   5.369   0.462   6.292  0.0930 -0.1161 -0.4298
 4469SOL    HW119753   5.373   0.400   6.218 -0.4327 -0.6921  0.0133
 4469SOL    HW219754   5.276   0.484   6.300  0.0497 -0.5800  0.4763
 4470SOL     OW19755   0.364   4.061   0.451  0.4830 -0.2438 -0.1750
 4470SOL    HW119756   0.390   3.974   0.481  1.2708  0.3660  0.9778
 4470SOL    HW219757   0.428   4.084   0.384 -0.0193 -0.7358 -0.8399
 4471SOL     OW19758   8.508   6.254   9.152 -0.0708  0.1053  0.0986
 4471SOL    HW119759   8.450   6.188   9.188 -2.2395  2.1132  0.4862
 4471SOL    HW219760   8.508   6.238   9.058 -1.6193  0.3129  0.0454
 4472SOL     OW19761   8.523   4.871   0.440  0.1796 -0.4353 -0.6972
 4472SOL    HW119762   8.601   4.820   0.463 -0.3320 -0.5812  0.7883
 4472SOL    HW219763   8.554   4.961   0.433  0.1176 -0.1193  2.1728
 4473SOL     OW19764   4.949   8.552   7.762  0.6914  0.4342 -0.9384
 4473SOL    HW119765   4.859   8.555   7.794  1.0509  2.4489  0.0649
 4473SOL    HW219766   4.980   8.464   7.782 -0.6417  0.1369 -0.1083
 4474SOL     OW19767   5.567   5.107   4.115 -0.2694  0.5540  0.0442
 4474SOL    HW119768   5.523   5.049   4.177 -0.7479  1.7969  0.9202
 4474SOL    HW219769   5.656   5.118   4.150 -0.7764  1.8892  1.0158
 4475SOL     OW19770   8.933   4.015   5.104 -0.4253  0.0289  0.1573
 4475SOL    HW119771   9.002   4.068   5.143 -0.5552  0.2378  0.1031
 4475SOL    HW219772   8.974   3.930   5.089 -0.0042  0.3290 -0.4253
 4476SOL     OW19773   1.977   5.569   3.875  0.3966 -0.1259 -0.1217
 4476SOL    HW119774   1.998   5.510   3.804 -0.3490 -1.1235  0.4611
 4476SOL    HW219775   2.034   5.542   3.947 -0.9346 -1.1115  0.6047
 4477SOL     OW19776   7.541   8.042   3.077 -0.4262  0.5569  0.5187
 4477SOL    HW119777   7.509   8.020   3.164  0.4693 -0.0408  0.7109
 4477SOL    HW219778   7.620   8.095   3.092 -0.1316  0.2576  0.0878
 4478SOL     OW19779   2.973   6.821   8.278 -0.0879  0.1152  0.5675
 4478SOL    HW119780   2.888   6.796   8.241 -0.4058  1.3207  0.4371
 4478SOL    HW219781   3.033   6.816   8.204  0.0002 -0.8888  0.6926
 4479SOL     OW19782   6.646   1.253   8.445 -0.4005 -0.1378 -0.2283
 4479SOL    HW119783   6.582   1.262   8.375 -1.0975  1.7252  0.5851
 4479SOL    HW219784   6.646   1.160   8.466 -2.3663 -0.2826 -0.7140
 4480SOL     OW19785   1.462   6.485   0.300 -0.4115  0.0572 -0.3499
 4480SOL    HW119786   1.469   6.510   0.208  0.3354  1.0562 -0.0260
 4480SOL    HW219787   1.384   6.428   0.303 -0.7645  0.4552 -1.4925
 4481SOL     OW19788   7.069   5.948   0.595 -0.0463 -0.2804  0.1313
 4481SOL    HW119789   7.078   5.869   0.542  0.4497 -1.4814  1.9023
 4481SOL    HW219790   6.977   5.973   0.584 -0.3904 -1.5041  0.0484
 4482SOL     OW19791   9.212   6.039   0.828  0.2301 -0.4458  0.3447
 4482SOL    HW119792   9.178   6.113   0.778 -0.2634 -1.3467 -0.7007
 4482SOL    HW219793   9.146   6.024   0.895  0.4881  0.2486  0.7647
 4483SOL     OW19794   7.681   1.624   9.088  0.2216 -0.3088 -0.6873
 4483SOL    HW119795   7.677   1.557   9.020 -1.1641  0.5713 -1.5326
 4483SOL    HW219796   7.728   1.582   9.160  1.2546 -1.4525 -1.9675
 4484SOL     OW19797   5.006   4.699   8.299  0.1784 -0.3014  0.3036
 4484SOL    HW119798   5.021   4.783   8.343  0.5187 -0.4398  0.4509
 4484SOL    HW219799   5.036   4.714   8.209  2.8649 -1.0507  0.9638
 4485SOL     OW19800   0.049   1.728   3.541  0.1964  0.6439 -0.2342
 4485SOL    HW119801  -0.013   1.685   3.600  1.5462  0.2848  0.9606
 4485SOL    HW219802  -0.004   1.791   3.493 -1.1936 -0.0044  0.3886
 4486SOL     OW19803   3.383   1.847   4.079 -0.3417 -0.5187  0.2674
 4486SOL    HW119804   3.388   1.761   4.039  0.3301 -0.2787 -0.1863
 4486SOL    HW219805   3.408   1.908   4.009 -1.2589  0.0865  0.4486
 4487SOL     OW19806   4.278   8.588   0.439  0.2689  0.2647 -0.2094
 4487SOL    HW119807   4.317   8.664   0.482  1.2307 -0.7578  0.8038
 4487SOL    HW219808   4.322   8.583   0.354  0.2668  0.7712 -0.2429
 4488SOL     OW19809   8.484   8.321   6.692  0.0005  0.1677  0.0988
 4488SOL    HW119810   8.403   8.322   6.639 -0.6843  1.2286  1.1235
 4488SOL    HW219811   8.468   8.386   6.760  2.6697  2.2131 -1.0574
 4489SOL     OW19812   4.279   2.485   6.070  0.4434 -0.5236  0.0542
 4489SOL    HW119813   4.226   2.483   6.149  0.7605  0.4800  0.3067
 4489SOL    HW219814   4.264   2.572   6.032 -0.9361 -1.5137 -1.8607
 4490SOL     OW19815   3.512   0.280   2.037  0.1148  0.4041  0.0116
 4490SOL    HW119816   3.553   0.209   1.987 -0.5865 -0.3387  0.4679
 4490SOL    HW219817   3.576   0.302   2.104  1.1359  1.5157 -1.2635
 4491SOL     OW19818   3.843   8.919   4.511  0.3234  0.2477  0.0076
 4491SOL    HW119819   3.861   8.841   4.458  0.2743  1.7071 -2.3138
 4491SOL    HW219820   3.928   8.963   4.518  0.2972  0.1464  1.0639
 4492SOL     OW19821   2.314   7.822   7.414 -0.4528 -0.2220  0.4017
 4492SOL    HW119822   2.385   7.885   7.429 -0.1566 -0.2592 -0.7831
 4492SOL    HW219823   2.265   7.822   7.496  1.9132 -1.5121  1.9166
 4493SOL     OW19824   5.335   7.946   0.324 -0.0577  0.6263  0.1474
 4493SOL    HW119825   5.386   7.928   0.404 -0.7198 -0.4848  0.3318
 4493SOL    HW219826   5.279   7.870   0.313 -1.9258  1.9246  0.1035
 4494SOL     OW19827   5.558   5.425   8.464 -0.1111  0.2754 -0.1134
 4494SOL    HW119828   5.603   5.469   8.392 -0.8255  2.4252  0.6640
 4494SOL    HW219829   5.602   5.457   8.543 -1.1735  0.2399  0.5155
 4495SOL     OW19830   2.872   5.807   6.165 -0.1784  0.1248 -0.6452
 4495SOL    HW119831   2.869   5.903   6.171  0.6771  0.0816  1.0425
 4495SOL    HW219832   2.869   5.789   6.071  0.0699  1.8169 -1.0166
 4496SOL     OW19833   0.647   4.682   5.785 -0.0526 -0.1842  0.1428
 4496SOL    HW119834   0.613   4.742   5.851 -0.0333 -0.8044  0.7161
 4496SOL    HW219835   0.623   4.723   5.701 -1.5133 -0.1986  0.5244
 4497SOL     OW19836   1.731   4.922   5.600  0.3800  0.7275 -0.1851
 4497SOL    HW119837   1.740   4.943   5.693 -0.2338  1.4470 -0.2796
 4497SOL    HW219838   1.773   4.837   5.590  2.2506  1.5456  0.3687
 4498SOL     OW19839   0.115   5.901   7.979  0.1366 -0.0558 -0.1191
 4498SOL    HW119840   0.159   5.861   8.054 -1.1113 -0.5842  0.3565
 4498SOL    HW219841   0.024   5.908   8.006  0.1299  2.2947 -0.5373
 4499SOL     OW19842   0.439   9.189   5.251 -0.1364 -0.4262 -0.1221
 4499SOL    HW119843   0.388   9.266   5.277 -0.5547 -0.8016  0.1720
 4499SOL    HW219844   0.434   9.130   5.326 -2.0249 -1.8607 -1.2899
 4500SOL     OW19845   5.773   6.277   3.949 -0.0421  0.0943  0.7559
 4500SOL    HW119846   5.835   6.211   3.979 -0.1805  1.1331  3.5949
 4500SOL    HW219847   5.788   6.282   3.854  2.7374 -1.1590  1.0280
 4501SOL     OW19848   4.200   6.656   4.179  0.0283 -0.4288  0.2054
 4501SOL    HW119849   4.174   6.606   4.256 -1.2998  1.2782  0.9386
 4501SOL    HW219850   4.251   6.730   4.214 -0.0737  0.0416 -0.6016
 4502SOL     OW19851   6.560   9.098   0.218 -0.3136  0.1269  0.0915
 4502SOL    HW119852   6.638   9.043   0.216  1.0067  1.7898  2.0598
 4502SOL    HW219853   6.556   9.137   0.130  1.4454  0.4622  0.1195
 4503SOL     OW19854   5.583   8.381   0.069 -0.4447 -1.1630 -0.4216
 4503SOL    HW119855   5.668   8.381   0.025  0.2231  0.6112  0.7776
 4503SOL    HW219856   5.521   8.404  -0.000  0.4069  0.1820 -0.7735
 4504SOL     OW19857   2.820   8.489   1.350  0.2233  0.4959 -0.2020
 4504SOL    HW119858   2.801   8.453   1.436  0.4496  4.4050  1.6825
 4504SOL    HW219859   2.872   8.568   1.367  2.6911  0.0319 -4.0999
 4505SOL     OW19860   2.641   5.366   9.122  0.0138  0.3578  0.0965
 4505SOL    HW119861   2.679   5.436   9.069  0.7672  1.1189  1.5898
 4505SOL    HW219862   2.547   5.380   9.116  0.1195  0.8960 -0.4009
 4506SOL     OW19863   4.823   4.845   1.962  0.1117  0.0116  0.5618
 4506SOL    HW119864   4.760   4.881   1.900  1.6352  2.8646  0.4882
 4506SOL    HW219865   4.875   4.783   1.910 -0.0140  0.7380 -0.4518
 4507SOL     OW19866   2.257   2.574   0.886 -0.3477  0.0429  0.3170
 4507SOL    HW119867   2.198   2.532   0.949  0.7964 -3.5953 -0.8250
 4507SOL    HW219868   2.341   2.579   0.931 -0.0691 -0.4731 -0.1430
 4508SOL     OW19869   6.540   5.053   4.657  0.4355 -0.5475 -0.2727
 4508SOL    HW119870   6.483   5.034   4.583  0.1305 -0.3316 -0.0932
 4508SOL    HW219871   6.607   5.111   4.621 -0.8240  1.1815  0.0446
 4509SOL     OW19872   3.713   5.700   1.487  0.0311  0.2770 -0.2248
 4509SOL    HW119873   3.765   5.709   1.567  0.1902 -0.5224 -0.2287
 4509SOL    HW219874   3.679   5.788   1.470 -2.1245 -0.0135  2.1330
 4510SOL     OW19875   7.524   0.785   5.579  0.2220 -0.6025 -0.0574
 4510SOL    HW119876   7.431   0.804   5.581  0.6462  1.6925  1.8126
 4510SOL    HW219877   7.541   0.739   5.661  1.3875  3.1950  2.0439
 4511SOL     OW19878   0.588   4.552   0.886 -0.1303 -0.0619 -0.0372
 4511SOL    HW119879   0.679   4.568   0.860 -0.5727  1.2473 -0.9241
 4511SOL    HW219880   0.543   4.533   0.804 -0.6593 -0.7811  0.4043
 4512SOL     OW19881   6.321   3.910   4.163 -1.0326  0.0210  0.0944
 4512SOL    HW119882   6.287   3.884   4.078 -1.3630 -1.2631  0.5810
 4512SOL    HW219883   6.256   3.877   4.226  0.2551 -1.0290  0.9497
 4513SOL     OW19884   6.347   2.670   0.782  0.0061  0.1053  0.5136
 4513SOL    HW119885   6.432   2.678   0.738 -0.5505 -2.7177 -1.3655
 4513SOL    HW219886   6.359   2.599   0.844 -0.9154 -0.2069  0.3408
 4514SOL     OW19887   4.759   3.278   3.818  0.1336  0.2447  0.1815
 4514SOL    HW119888   4.740   3.193   3.779 -0.8110  1.1414 -1.4120
 4514SOL    HW219889   4.675   3.324   3.820  0.8801  1.7287 -0.5109
 4515SOL     OW19890   0.287   0.340   2.887 -0.2013  0.2258 -0.5010
 4515SOL    HW119891   0.247   0.426   2.874 -0.5189  0.1098 -0.3112
 4515SOL    HW219892   0.252   0.309   2.971  0.6060  0.2887 -0.1392
 4516SOL     OW19893   5.863   2.517   2.608 -0.1151  0.5917  0.6669
 4516SOL    HW119894   5.838   2.533   2.517 -0.4738  1.7088  0.9402
 4516SOL    HW219895   5.901   2.429   2.608  0.4090  0.7958 -0.6651
 4517SOL     OW19896   0.406   2.889   7.291 -0.4726 -0.1903 -0.0990
 4517SOL    HW119897   0.348   2.930   7.228 -0.6335 -0.1201  0.0927
 4517SOL    HW219898   0.490   2.881   7.246  0.0352  1.8260  0.3788
 4518SOL     OW19899   5.757   8.736   4.302 -0.5658 -0.6785 -0.5750
 4518SOL    HW119900   5.815   8.792   4.354 -0.1375 -1.5766 -0.0487
 4518SOL    HW219901   5.675   8.784   4.297  0.4012  0.9140 -1.8718
 4519SOL     OW19902   7.646   2.519   6.960  0.1611  0.1934 -0.5160
 4519SOL    HW119903   7.622   2.544   7.049  1.6497  0.1716 -0.0781
 4519SOL    HW219904   7.578   2.557   6.904  0.3674  2.0457  0.4452
 4520SOL     OW19905   4.163   7.200   8.343  0.0174 -0.4481  0.2398
 4520SOL    HW119906   4.106   7.159   8.278 -0.8630  1.8291 -0.5330
 4520SOL    HW219907   4.228   7.247   8.291 -0.0948  0.5826  0.9921
 4521SOL     OW19908   1.575   8.720   6.228 -0.1058  0.7371  0.1237
 4521SOL    HW119909   1.662   8.749   6.203 -0.2321 -0.3498 -1.7869
 4521SOL    HW219910   1.517   8.791   6.200  0.0891  1.1742  0.8043
 4522SOL     OW19911   0.121   8.974   8.543  0.3673 -0.2397 -0.6004
 4522SOL    HW119912   0.040   9.001   8.500  0.7341  0.1905 -1.0236
 4522SOL    HW219913   0.095   8.958   8.634 -0.2602 -0.4463 -0.8085
 4523SOL     OW19914   8.955   6.188   7.985 -0.3133  0.3492  0.2590
 4523SOL    HW119915   9.015   6.261   8.000 -0.8624  1.0031 -0.5982
 4523SOL    HW219916   8.958   6.173   7.891  0.4079 -1.3071  0.5191
 4524SOL     OW19917   5.994   4.641   3.788 -0.2945  0.1483 -0.1393
 4524SOL    HW119918   6.080   4.677   3.810 -0.2424 -0.2202  0.2940
 4524SOL    HW219919   5.944   4.646   3.870  0.4326 -2.7773  0.6113
 4525SOL     OW19920   3.355   9.101   3.728  0.1830 -0.6223  0.2539
 4525SOL    HW119921   3.270   9.134   3.697  0.7822 -0.0986 -0.8960
 4525SOL    HW219922   3.418   9.165   3.696  0.9082 -0.2375  2.3125
 4526SOL     OW19923   4.651   8.690   4.009 -0.1803 -0.4063 -0.0290
 4526SOL    HW119924   4.716   8.706   4.078 -1.1422  1.3857  0.5513
 4526SOL    HW219925   4.576   8.652   4.055 -0.5252  0.0513 -0.1958
 4527SOL     OW19926   9.157   0.298   1.112 -0.6117 -0.2355 -0.6121
 4527SOL    HW119927   9.102   0.347   1.051  0.2874 -0.9618 -2.0610
 4527SOL    HW219928   9.216   0.248   1.056  0.2207 -0.9757  0.8694
 4528SOL     OW19929   8.737   6.115   7.782  0.2075  0.3496  0.4316
 4528SOL    HW119930   8.651   6.116   7.825  0.4993  1.1330  1.0171
 4528SOL    HW219931   8.733   6.040   7.722 -0.6075 -0.0944  1.0217
 4529SOL     OW19932   5.198   3.957   0.009  0.4925 -0.2237  0.5859
 4529SOL    HW119933   5.238   3.957   0.096 -0.1805 -0.5033  0.9019
 4529SOL    HW219934   5.182   3.864  -0.011  0.0895 -0.1259  0.4303
 4530SOL     OW19935   1.371   8.802   2.925 -0.1099  0.3892 -0.1742
 4530SOL    HW119936   1.325   8.783   2.843 -1.6435 -1.5967  1.0447
 4530SOL    HW219937   1.369   8.897   2.931  0.7118  0.6554 -2.7577
 4531SOL     OW19938   5.244   3.182   5.097 -0.2342 -0.4878  0.1743
 4531SOL    HW119939   5.271   3.266   5.134 -0.3144 -0.0109 -0.8171
 4531SOL    HW219940   5.230   3.200   5.004  2.2987 -2.1520 -0.6369
 4532SOL     OW19941   1.073   6.500   6.790  0.2605 -0.7994 -0.0037
 4532SOL    HW119942   1.083   6.444   6.867  1.1975  2.0310  2.1369
 4532SOL    HW219943   1.017   6.572   6.820  0.8343  0.5143 -1.9077
 4533SOL     OW19944   1.244   4.480   4.897 -0.8729 -0.1234 -0.1917
 4533SOL    HW119945   1.280   4.391   4.898 -0.4370  0.0280 -1.0103
 4533SOL    HW219946   1.216   4.496   4.987 -0.2042 -0.7866  0.1438
 4534SOL     OW19947   7.944   8.049   1.410  0.0779 -0.7000 -0.6716
 4534SOL    HW119948   7.989   7.977   1.454  1.4578  0.0343 -0.8049
 4534SOL    HW219949   7.959   8.125   1.466 -1.1764 -0.4567 -0.6393
 4535SOL     OW19950   8.480   0.356   8.533  0.0680  0.4403  0.2283
 4535SOL    HW119951   8.499   0.439   8.577 -0.5034 -0.1272  1.6126
 4535SOL    HW219952   8.387   0.342   8.548 -0.2541  0.4348 -1.5956
 4536SOL     OW19953   0.494   3.642   6.860 -0.1753  0.3206 -0.4267
 4536SOL    HW119954   0.418   3.591   6.831 -0.0019 -0.4673  0.4689
 4536SOL    HW219955   0.569   3.599   6.818  0.3278 -2.1492  2.6521
 4537SOL     OW19956   6.095   6.876   8.280 -0.0690 -0.3200  0.3059
 4537SOL    HW119957   6.010   6.912   8.253  0.7451  2.7305  1.3760
 4537SOL    HW219958   6.086   6.861   8.374  0.7216  0.7064  0.5699
 4538SOL     OW19959   4.877   6.787   7.611  0.0532 -0.1519  0.1322
 4538SOL    HW119960   4.851   6.702   7.574 -0.0222 -0.8599  1.6965
 4538SOL    HW219961   4.928   6.764   7.689 -0.6672  1.2351  1.0488
 4539SOL     OW19962   2.634   1.805   0.449 -0.3339  0.5053  0.3557
 4539SOL    HW119963   2.639   1.900   0.454 -1.0597  0.8380 -2.8598
 4539SOL    HW219964   2.691   1.781   0.376 -0.4732 -1.5004  0.8366
 4540SOL     OW19965   5.313   4.985   1.299 -0.1049  0.0927  0.3203
 4540SOL    HW119966   5.360   4.920   1.246 -2.6632 -2.9893  1.4751
 4540SOL    HW219967   5.367   4.996   1.377 -0.2600 -1.8661  0.7564
 4541SOL     OW19968   5.474   3.638   7.340 -0.0477 -0.7790 -0.3551
 4541SOL    HW119969   5.454   3.721   7.298 -0.1492 -0.6231 -0.0018
 4541SOL    HW219970   5.557   3.611   7.301 -0.3476 -0.8489 -0.9660
 4542SOL     OW19971   4.315   6.496   7.578 -0.2396 -0.6819  0.2554
 4542SOL    HW119972   4.341   6.424   7.635 -0.8575 -0.5400  0.7195
 4542SOL    HW219973   4.234   6.466   7.537 -0.1055 -0.5468 -0.1141
 4543SOL     OW19974   9.023   5.441   2.547 -0.9249 -0.4954 -0.1778
 4543SOL    HW119975   9.022   5.346   2.531 -3.3850 -0.4545 -0.5425
 4543SOL    HW219976   9.083   5.451   2.621  0.4375 -2.1578 -0.9604
 4544SOL     OW19977   3.077   4.046   3.848 -0.4468 -0.1569  0.6564
 4544SOL    HW119978   3.129   4.024   3.771 -1.9685  0.0988 -0.5034
 4544SOL    HW219979   3.072   3.964   3.898 -2.0221 -1.2486 -1.1421
 4545SOL     OW19980   8.612   7.348   1.091  0.0061  0.1887 -0.4920
 4545SOL    HW119981   8.630   7.435   1.055 -1.5095  0.5762 -0.3880
 4545SOL    HW219982   8.677   7.338   1.161 -0.0295  1.3974 -0.2575
 4546SOL     OW19983   5.098   3.250   4.300  0.5851 -0.1232  0.3250
 4546SOL    HW119984   5.049   3.319   4.255  0.9134  0.2440  0.5274
 4546SOL    HW219985   5.187   3.284   4.305  0.6837 -0.4372  0.6853
 4547SOL     OW19986   5.375   8.818   0.885 -0.5621  0.0938 -0.1550
 4547SOL    HW119987   5.284   8.803   0.857  0.2396 -0.5816 -2.7196
 4547SOL    HW219988   5.402   8.896   0.835  0.5123 -0.2342 -0.1125
 4548SOL     OW19989   1.288   6.788   7.215 -0.4474  0.1954  0.0593
 4548SOL    HW119990   1.296   6.766   7.122 -1.1175  0.5330 -0.0892
 4548SOL    HW219991   1.369   6.836   7.235  0.2638 -0.9352 -0.0242
 4549SOL     OW19992   7.302   1.325   4.349 -0.0723  0.2273  0.0748
 4549SOL    HW119993   7.218   1.314   4.305  0.6496  0.5139 -1.4182
 4549SOL    HW219994   7.298   1.412   4.388 -0.9265 -0.2424  1.1161
 4550SOL     OW19995   6.543   3.524   1.933  0.0685  0.3159  0.1553
 4550SOL    HW119996   6.625   3.572   1.939 -0.0128  0.5376 -0.4584
 4550SOL    HW219997   6.523   3.521   1.840 -0.5565  0.1527  0.2859
 4551SOL     OW19998   0.571   2.825   3.166  0.5118 -0.2365  0.1110
 4551SOL    HW119999   0.653   2.778   3.183 -0.1060 -1.4082 -0.0854
 4551SOL    HW220000   0.572   2.839   3.071  1.2154  1.1721  0.2948
 4552SOL     OW20001   5.569   1.083   8.358 -0.3602  0.5276 -0.3058
 4552SOL    HW120002   5.537   1.148   8.295  0.5942  1.4523  0.1400
 4552SOL    HW220003   5.573   1.130   8.441 -0.0801 -0.2257  0.1128
 4553SOL     OW20004   1.861   0.184   3.505 -0.4125  0.6066 -0.1740
 4553SOL    HW120005   1.889   0.146   3.588 -0.2062 -0.8606 -0.8801
 4553SOL    HW220006   1.766   0.175   3.505 -0.4290  0.7771 -0.0224
 4554SOL     OW20007   0.331   6.848   7.367 -0.4356 -0.6289 -0.3409
 4554SOL    HW120008   0.302   6.909   7.435  0.4463  0.1022 -0.6136
 4554SOL    HW220009   0.345   6.765   7.414  1.1303  0.1153  0.5891
 4555SOL     OW20010   4.584   1.427   0.473  0.3746  0.0251  0.5755
 4555SOL    HW120011   4.604   1.516   0.503 -0.3803  1.0026 -1.5417
 4555SOL    HW220012   4.629   1.420   0.389 -0.3800 -1.2250  0.2448
 4556SOL     OW20013   6.857   4.214   8.993  0.1142  0.0433 -0.3942
 4556SOL    HW120014   6.929   4.165   9.033 -0.2909 -1.3182 -1.2766
 4556SOL    HW220015   6.866   4.197   8.899 -1.4070 -0.2231 -0.5055
 4557SOL     OW20016   4.853   8.687   1.725 -0.0176 -0.3016 -0.3086
 4557SOL    HW120017   4.844   8.781   1.735  0.6224 -0.2573 -0.0802
 4557SOL    HW220018   4.935   8.666   1.769 -0.6826 -1.1156  0.5887
 4558SOL     OW20019   5.182   0.812   7.906 -0.1338  1.1708 -0.5450
 4558SOL    HW120020   5.115   0.756   7.945  1.7839 -2.1811 -1.6539
 4558SOL    HW220021   5.261   0.793   7.956  1.2312  0.6054 -2.7741
 4559SOL     OW20022   6.753   8.710   7.871 -0.0522 -1.0311 -0.3433
 4559SOL    HW120023   6.729   8.802   7.861  1.8538 -0.5646 -1.0084
 4559SOL    HW220024   6.798   8.706   7.956  3.4398 -0.4371 -1.9982
 4560SOL     OW20025   3.860   1.100   0.912 -0.0594 -0.0896 -0.1677
 4560SOL    HW120026   3.872   1.026   0.852 -0.7411 -0.1387 -0.2538
 4560SOL    HW220027   3.920   1.082   0.984  0.6795 -0.0928 -0.7685
 4561SOL     OW20028   0.489   9.059   7.624  0.0711  0.0023  0.2312
 4561SOL    HW120029   0.542   9.062   7.544 -0.0410  0.2143  0.1634
 4561SOL    HW220030   0.546   9.096   7.691 -0.3141  1.1052 -0.0299
 4562SOL     OW20031   8.105   3.499   6.312  0.1064  0.2901  0.1329
 4562SOL    HW120032   8.062   3.476   6.229  0.1388 -1.8948  0.6480
 4562SOL    HW220033   8.179   3.438   6.318 -0.5605 -0.4028  2.2741
 4563SOL     OW20034   7.561   0.556   7.210  0.0399 -0.3093  0.2791
 4563SOL    HW120035   7.656   0.569   7.203  0.1042 -1.3331 -1.4150
 4563SOL    HW220036   7.552   0.479   7.267  0.3413 -1.1609 -0.7812
 4564SOL     OW20037   0.680   7.591   4.431  0.2889  0.5474 -0.1670
 4564SOL    HW120038   0.773   7.593   4.457  0.2367 -1.7492  0.3526
 4564SOL    HW220039   0.680   7.550   4.345 -0.3619 -1.2009  0.6287
 4565SOL     OW20040   2.129   3.845   0.342 -0.4874 -0.4461  0.4790
 4565SOL    HW120041   2.056   3.837   0.403 -0.3039  2.1515  1.1265
 4565SOL    HW220042   2.206   3.856   0.398  0.3697 -2.5159 -0.2067
 4566SOL     OW20043   0.988   3.568   5.621  0.3600 -0.1691 -0.1172
 4566SOL    HW120044   1.063   3.573   5.562 -0.1188 -1.3728 -0.8634
 4566SOL    HW220045   0.925   3.512   5.575 -0.0536 -1.0813  1.4808
 4567SOL     OW20046   9.238   6.567   2.508  0.1729  0.2667  0.5579
 4567SOL    HW120047   9.221   6.646   2.456  1.7424 -0.7415 -1.6458
 4567SOL    HW220048   9.167   6.507   2.484  0.4329  0.0948  0.2162
 4568SOL     OW20049   0.473   4.234   7.932 -0.2167 -0.0285 -0.2466
 4568SOL    HW120050   0.499   4.213   7.842 -1.4674 -2.0284 -0.2178
 4568SOL    HW220051   0.434   4.321   7.927 -1.6614 -0.6996 -1.9835
 4569SOL     OW20052   2.251   2.826   4.833 -0.5576 -1.0476 -0.2166
 4569SOL    HW120053   2.160   2.827   4.860 -0.2516  0.0158  0.8318
 4569SOL    HW220054   2.249   2.856   4.742 -1.0908  1.2149  0.4666
 4570SOL     OW20055   8.332   0.698   7.656 -0.0796  0.1924  0.0345
 4570SOL    HW120056   8.423   0.691   7.627 -0.2286 -0.3906 -0.3009
 4570SOL    HW220057   8.281   0.656   7.587 -0.6836  1.2204 -0.1697
 4571SOL     OW20058   7.219   7.678   0.684 -0.1747  0.1199 -0.3065
 4571SOL    HW120059   7.313   7.659   0.684 -0.3058 -0.6150 -1.3709
 4571SOL    HW220060   7.200   7.707   0.594 -0.9840  0.1669 -0.1328
 4572SOL     OW20061   0.884   1.562   2.713  0.4564  0.7513 -0.5493
 4572SOL    HW120062   0.816   1.543   2.649  0.3909 -0.4989 -0.1359
 4572SOL    HW220063   0.849   1.530   2.796  1.5165  0.0912 -0.3260
 4573SOL     OW20064   5.996   7.168   8.072  0.2700  0.2587  0.3376
 4573SOL    HW120065   6.070   7.179   8.132 -0.1108  1.2259  0.6560
 4573SOL    HW220066   5.919   7.186   8.126 -0.0301  2.2874 -0.6653
 4574SOL     OW20067   7.482   0.670   7.972  0.0562  0.1081  0.0015
 4574SOL    HW120068   7.462   0.587   7.928  0.7626  0.0549 -0.2213
 4574SOL    HW220069   7.460   0.737   7.907 -0.6271  0.1116  0.2227
 4575SOL     OW20070   4.394   7.941   4.396 -0.2151 -0.1642  0.2662
 4575SOL    HW120071   4.383   8.034   4.379  0.5390  0.1212  1.3209
 4575SOL    HW220072   4.343   7.898   4.326  1.2201  0.9798 -1.5770
 4576SOL     OW20073   7.028   1.934   7.142 -0.3396  0.0758 -0.1712
 4576SOL    HW120074   7.085   1.857   7.146 -0.8226 -0.3419 -1.0846
 4576SOL    HW220075   6.942   1.902   7.167 -0.0281  0.9232  2.2607
 4577SOL     OW20076   3.313   7.893   0.245  0.1616  0.1983 -0.1711
 4577SOL    HW120077   3.327   7.807   0.285 -0.2534 -0.5459 -1.5678
 4577SOL    HW220078   3.358   7.888   0.161  1.9041  2.0891  0.5712
 4578SOL     OW20079   7.169   0.863   8.780  0.9283  0.1352  0.4438
 4578SOL    HW120080   7.259   0.896   8.777  0.6289  0.8732 -1.3070
 4578SOL    HW220081   7.177   0.769   8.763  1.4043  0.1028  0.8344
 4579SOL     OW20082   2.789   3.283   4.040 -0.0316 -0.6190 -0.7851
 4579SOL    HW120083   2.881   3.308   4.046 -0.0623 -0.8838  1.6419
 4579SOL    HW220084   2.790   3.191   4.016  0.3246 -0.6016 -0.8354
 4580SOL     OW20085   7.429   4.073   4.966 -0.3907 -0.3275 -0.2232
 4580SOL    HW120086   7.382   4.013   4.908  1.2028 -0.3783 -1.5575
 4580SOL    HW220087   7.482   4.016   5.021  1.0369 -0.2028 -1.4122
 4581SOL     OW20088   5.767   0.904   2.313 -0.6073  0.0521  0.6635
 4581SOL    HW120089   5.750   0.869   2.400  0.7501 -1.3145  0.4158
 4581SOL    HW220090   5.854   0.942   2.318 -0.0324 -1.0763 -0.3777
 4582SOL     OW20091   0.910   0.341   3.747  0.0549  0.2306 -0.0142
 4582SOL    HW120092   0.902   0.422   3.798  1.0646 -0.4620  1.2700
 4582SOL    HW220093   0.837   0.346   3.685  1.5434  3.3815 -1.8046
 4583SOL     OW20094   7.678   3.661   2.786 -0.2469  0.2263  0.3382
 4583SOL    HW120095   7.718   3.662   2.700 -0.9447  0.7268  0.0118
 4583SOL    HW220096   7.625   3.581   2.788 -0.3673  0.3031  0.2354
 4584SOL     OW20097   8.316   1.179   1.007  0.1685  0.2021 -0.3998
 4584SOL    HW120098   8.396   1.132   1.029 -0.2835  0.5198  2.2016
 4584SOL    HW220099   8.246   1.120   1.031 -0.4145  0.4895 -1.3254
 4585SOL     OW20100   4.954   1.330   1.722 -0.0690 -0.2699  0.1444
 4585SOL    HW120101   5.040   1.297   1.696  0.5260  0.7758  0.7078
 4585SOL    HW220102   4.909   1.348   1.640  0.5633 -0.0608 -0.1596
 4586SOL     OW20103   5.641   3.226   9.212 -0.7810 -0.0374 -0.3076
 4586SOL    HW120104   5.645   3.143   9.163 -0.6607 -0.6733  0.7579
 4586SOL    HW220105   5.557   3.264   9.187 -1.0160 -0.6661 -0.5066
 4587SOL     OW20106   4.635   6.336   5.555 -0.0448  0.2422  0.7855
 4587SOL    HW120107   4.685   6.258   5.579 -0.8896 -0.0181  1.7470
 4587SOL    HW220108   4.643   6.341   5.459 -0.3673 -1.2928  0.6585
 4588SOL     OW20109   1.265   2.606   2.157  0.2066  0.0176  0.5621
 4588SOL    HW120110   1.241   2.652   2.076  1.8848 -0.5993 -0.3351
 4588SOL    HW220111   1.282   2.676   2.220 -0.8234  0.5131  0.3135
 4589SOL     OW20112   7.563   3.825   4.179 -0.5753 -0.6373 -0.1533
 4589SOL    HW120113   7.653   3.796   4.166 -0.2241  0.0820  0.5403
 4589SOL    HW220114   7.509   3.759   4.136  0.3124 -0.6915 -1.2313
 4590SOL     OW20115   5.594   2.197   8.913  0.1679 -0.1130  0.4453
 4590SOL    HW120116   5.570   2.119   8.964 -1.5863 -0.0578 -0.2130
 4590SOL    HW220117   5.664   2.238   8.963  1.1536 -2.1214  0.8055
 4591SOL     OW20118   3.422   9.216   3.081  0.7674  0.3957  0.5180
 4591SOL    HW120119   3.357   9.166   3.131  0.2003  1.0177  0.4069
 4591SOL    HW220120   3.385   9.304   3.073  0.5925  0.1852 -1.4472
 4592SOL     OW20121   8.630   1.611   2.038 -0.2879  0.1327 -0.2505
 4592SOL    HW120122   8.689   1.683   2.016 -1.2094  0.5979 -1.2921
 4592SOL    HW220123   8.561   1.651   2.090  0.5421 -0.5084  1.4366
 4593SOL     OW20124   7.525   7.563   4.600 -0.6476  0.5387 -0.4552
 4593SOL    HW120125   7.477   7.537   4.679 -0.3050 -1.8493 -0.9610
 4593SOL    HW220126   7.509   7.658   4.592 -0.7752  0.8354  2.3767
 4594SOL     OW20127   4.682   8.552   9.060  0.7639  0.3685 -0.2031
 4594SOL    HW120128   4.593   8.562   9.092 -0.3662  1.4255 -3.2652
 4594SOL    HW220129   4.723   8.489   9.120 -1.9823 -0.1044  1.3354
 4595SOL     OW20130   2.189   8.894   8.961 -0.4349 -0.6320 -0.1273
 4595SOL    HW120131   2.111   8.935   8.925  0.3221  0.2614 -0.7994
 4595SOL    HW220132   2.261   8.924   8.905  0.3896 -1.4726  0.4365
 4596SOL     OW20133   8.699   2.725   1.705  0.5236  0.1880 -0.2988
 4596SOL    HW120134   8.627   2.736   1.643 -1.7857 -1.6515  1.8779
 4596SOL    HW220135   8.778   2.726   1.650 -1.3645 -1.2517 -3.2738
 4597SOL     OW20136   5.132   8.899   0.689 -0.3810 -0.0264 -0.6469
 4597SOL    HW120137   5.052   8.940   0.723  0.1571 -1.2552  2.4181
 4597SOL    HW220138   5.200   8.965   0.701 -0.1598 -0.4993  1.1184
 4598SOL     OW20139   4.379   5.792   5.598 -0.2829  0.0170 -0.7524
 4598SOL    HW120140   4.365   5.831   5.684  0.6552 -0.7906 -0.2111
 4598SOL    HW220141   4.470   5.760   5.600 -0.0128  0.5773 -2.2806
 4599SOL     OW20142   1.963   0.708   6.828 -0.2328  0.3179  0.7305
 4599SOL    HW120143   2.049   0.751   6.834  0.7836 -1.4293 -0.5474
 4599SOL    HW220144   1.951   0.691   6.735 -1.0708 -1.1917  1.0819
 4600SOL     OW20145   3.187   5.478   8.398  0.2346 -0.1443  0.1528
 4600SOL    HW120146   3.191   5.508   8.308 -0.6070  1.1727  0.5331
 4600SOL    HW220147   3.160   5.386   8.391  1.3771 -0.4330 -0.9589
 4601SOL     OW20148   3.159   0.873   8.519  0.8320 -0.2745 -0.8079
 4601SOL    HW120149   3.245   0.915   8.526  1.5197 -1.6476 -0.7246
 4601SOL    HW220150   3.164   0.798   8.579 -1.3304  1.0421  1.2002
 4602SOL     OW20151   8.611   2.288   4.933 -0.5652  0.4864 -0.2294
 4602SOL    HW120152   8.623   2.352   5.003  0.8076  0.0513 -0.0288
 4602SOL    HW220153   8.657   2.210   4.964 -2.1324 -0.5842 -0.5087
 4603SOL     OW20154   1.513   1.334   1.741  0.0099  0.2885  0.9013
 4603SOL    HW120155   1.571   1.299   1.674  1.8976 -0.0738  2.6543
 4603SOL    HW220156   1.425   1.312   1.710  0.7898  0.2088 -1.4548
 4604SOL     OW20157   0.788   3.747   2.721 -0.2904 -0.3632  0.0602
 4604SOL    HW120158   0.799   3.691   2.644  1.3801  1.1735 -0.8766
 4604SOL    HW220159   0.843   3.706   2.788 -0.4298 -0.7749 -0.0728
 4605SOL     OW20160   8.563   8.914   9.164  0.4115 -0.3832 -0.3147
 4605SOL    HW120161   8.508   8.855   9.112  1.3235 -1.3383 -0.2341
 4605SOL    HW220162   8.625   8.950   9.100  0.2111  0.0634 -0.2601
 4606SOL     OW20163   3.834   3.230   1.947  0.2824 -0.2254  0.0465
 4606SOL    HW120164   3.807   3.296   1.884 -3.5227  0.1305  1.8191
 4606SOL    HW220165   3.787   3.151   1.921  1.1399 -0.9717  0.6677
 4607SOL     OW20166   0.474   6.041   8.551  0.2042  0.3679  0.0739
 4607SOL    HW120167   0.484   6.017   8.459 -1.5746 -0.8784  0.1680
 4607SOL    HW220168   0.475   6.137   8.551  1.2649  0.3855 -1.0787
 4608SOL     OW20169   5.408   2.303   0.903  0.6697 -0.0448  0.0859
 4608SOL    HW120170   5.337   2.366   0.893  0.2040 -0.5066  0.3982
 4608SOL    HW220171   5.465   2.318   0.827 -0.5107 -0.6219 -0.9487
 4609SOL     OW20172   7.843   0.956   7.297  0.5932  0.0146 -0.1344
 4609SOL    HW120173   7.879   0.898   7.230  1.9454  0.9894 -0.3153
 4609SOL    HW220174   7.920   1.002   7.333 -0.4715  2.4641 -0.7557
 4610SOL     OW20175   7.400   4.296   0.247 -0.1870  0.3364  0.1944
 4610SOL    HW120176   7.405   4.244   0.166 -0.8502  0.9176 -0.2383
 4610SOL    HW220177   7.463   4.366   0.234  0.2818 -0.0137  0.5295
 4611SOL     OW20178   0.823   1.996   1.537  0.5579 -0.0461 -0.2266
 4611SOL    HW120179   0.793   2.087   1.543  0.3803 -0.0202 -1.2464
 4611SOL    HW220180   0.899   1.992   1.594  1.3363  1.1025 -1.1252
 4612SOL     OW20181   0.384   7.715   5.663  0.0770 -0.2235 -0.0901
 4612SOL    HW120182   0.388   7.736   5.756  0.1753 -2.2940  0.4240
 4612SOL    HW220183   0.408   7.796   5.619  0.7628  0.5993  1.7061
 4613SOL     OW20184   3.848   4.038   5.101  0.2703  0.7574 -0.2170
 4613SOL    HW120185   3.827   4.123   5.139  0.4635  0.9546 -0.5518
 4613SOL    HW220186   3.943   4.031   5.107  0.4030  1.1686 -1.4339
 4614SOL     OW20187   6.132   4.204   8.204 -1.1084  0.8924  0.0648
 4614SOL    HW120188   6.112   4.111   8.215  1.4765  0.5009  2.4123
 4614SOL    HW220189   6.158   4.233   8.291  2.1756  2.7318 -1.3607
 4615SOL     OW20190   0.626   5.561   3.509  0.2350  0.4326  0.0702
 4615SOL    HW120191   0.578   5.607   3.439 -0.0215  1.9336  1.1893
 4615SOL    HW220192   0.682   5.499   3.462 -0.8610  0.4990 -1.4067
 4616SOL     OW20193   1.795   5.080   3.034  0.4141  0.1025 -0.8898
 4616SOL    HW120194   1.812   5.010   3.098 -2.3812 -1.7200 -1.9617
 4616SOL    HW220195   1.706   5.108   3.052  1.1591  2.9093 -1.0666
 4617SOL     OW20196   8.723   2.827   0.993  0.2846 -0.2595  0.0276
 4617SOL    HW120197   8.659   2.833   1.064 -0.6233 -0.5369 -0.7323
 4617SOL    HW220198   8.691   2.754   0.939  2.1822 -1.5318  0.5275
 4618SOL     OW20199   6.969   2.266   2.634 -0.1256 -0.1978  0.1259
 4618SOL    HW120200   6.876   2.245   2.631 -0.2681  0.3155  0.7976
 4618SOL    HW220201   7.000   2.227   2.716  0.5592 -1.5447 -0.7261
 4619SOL     OW20202   7.041   4.479   7.637  0.1041 -0.3529  0.0264
 4619SOL    HW120203   7.031   4.532   7.716  1.1780 -0.2253  0.0917
 4619SOL    HW220204   6.954   4.445   7.620 -0.0394 -0.8113  1.5651
 4620SOL     OW20205   4.761   2.895   6.138 -0.1846  0.0791 -0.6321
 4620SOL    HW120206   4.677   2.885   6.093  0.6385 -0.1006 -2.1977
 4620SOL    HW220207   4.746   2.860   6.226 -1.2242 -1.7741 -1.5110
 4621SOL     OW20208   4.405   1.274   8.784  0.7624 -0.4397  0.2984
 4621SOL    HW120209   4.402   1.185   8.820 -0.8180 -1.2968 -1.7456
 4621SOL    HW220210   4.314   1.304   8.790  1.1684  0.8159  0.3843
 4622SOL     OW20211   1.256   0.679   8.499  0.6011 -0.2077  0.1021
 4622SOL    HW120212   1.296   0.646   8.580  1.7977 -0.7116 -0.6751
 4622SOL    HW220213   1.309   0.756   8.476  0.2448 -0.0465 -0.1814
 4623SOL     OW20214   5.431   1.775   8.361 -0.4655  0.1730 -0.0899
 4623SOL    HW120215   5.502   1.729   8.317 -1.3003 -1.8216  0.5050
 4623SOL    HW220216   5.474   1.827   8.429  0.4254 -2.5211  1.5859
 4624SOL     OW20217   3.995   8.415   2.384 -0.1281  0.4216 -0.2869
 4624SOL    HW120218   4.005   8.453   2.471 -2.3822  0.6649 -0.0624
 4624SOL    HW220219   3.900   8.402   2.374  0.1372 -0.3946 -2.3683
 4625SOL     OW20220   4.280   3.779   5.810  0.2854 -0.3414  0.1831
 4625SOL    HW120221   4.328   3.729   5.876  0.2190  0.1891  0.6455
 4625SOL    HW220222   4.240   3.851   5.859  3.3959  2.3997 -0.9339
 4626SOL     OW20223   1.099   8.865   1.094 -0.1470  0.0704 -0.1126
 4626SOL    HW120224   1.005   8.878   1.096 -0.0461  0.6901  1.1411
 4626SOL    HW220225   1.120   8.822   1.176  0.6280 -0.4012 -0.5400
 4627SOL     OW20226   1.108   6.881   1.066 -0.8422 -0.1846  0.0818
 4627SOL    HW120227   1.167   6.943   1.024 -2.8984  2.1992  0.4656
 4627SOL    HW220228   1.054   6.846   0.996  0.4237 -1.7707 -0.1587
 4628SOL     OW20229   2.507   7.795   3.095  0.0337  0.0839  0.7982
 4628SOL    HW120230   2.438   7.764   3.154 -0.2407 -0.2942  0.2881
 4628SOL    HW220231   2.461   7.820   3.015  0.5773 -1.0889  0.0920
 4629SOL     OW20232   2.890   0.990   2.251  0.6076  0.2256 -0.2507
 4629SOL    HW120233   2.940   1.022   2.176  0.2242 -1.2578 -1.1860
 4629SOL    HW220234   2.864   0.901   2.226 -3.4234  1.2530 -0.2787
 4630SOL     OW20235   6.450   8.935   5.404  0.1790 -0.6618  0.5668
 4630SOL    HW120236   6.516   8.893   5.349  1.4964  1.2971  0.5383
 4630SOL    HW220237   6.500   8.986   5.467 -1.3254 -0.5525  1.7321
 4631SOL     OW20238   7.150   6.143   0.282 -0.0222  0.0578  0.0630
 4631SOL    HW120239   7.215   6.080   0.313 -1.6582 -0.5954  2.4219
 4631SOL    HW220240   7.087   6.090   0.233 -0.0245  0.2960 -0.1932
 4632SOL     OW20241   1.630   1.299   2.998  0.1493  0.0908  0.3871
 4632SOL    HW120242   1.699   1.286   3.064  0.3506 -1.5661 -0.0808
 4632SOL    HW220243   1.642   1.388   2.967  0.3585  0.7418  2.2366
 4633SOL     OW20244   6.749   5.613   7.601  0.4103  0.7813 -0.1639
 4633SOL    HW120245   6.708   5.665   7.532 -0.7403 -1.4591 -1.2653
 4633SOL    HW220246   6.742   5.667   7.680 -3.8544  1.0185 -0.4882
 4634SOL     OW20247   8.162   4.800   7.205  0.2747 -0.0241 -0.1681
 4634SOL    HW120248   8.181   4.710   7.179  2.5343  0.4108 -0.1865
 4634SOL    HW220249   8.079   4.821   7.161  1.0378 -1.2292 -2.3343
 4635SOL     OW20250   3.471   2.188   4.210  0.4255 -0.4147  0.4678
 4635SOL    HW120251   3.507   2.237   4.136 -1.1156 -0.9914 -0.7188
 4635SOL    HW220252   3.535   2.118   4.225  1.0779  0.0946  0.1120
 4636SOL     OW20253   6.800   8.075   8.571 -0.6643 -0.0619 -0.4483
 4636SOL    HW120254   6.760   8.156   8.540 -0.4540 -0.1111 -0.8684
 4636SOL    HW220255   6.867   8.055   8.505  2.1856  1.6034  1.7085
 4637SOL     OW20256   5.613   4.215   6.755  0.6245 -0.0485 -0.1469
 4637SOL    HW120257   5.573   4.278   6.814 -0.0986 -1.6901  1.1884
 4637SOL    HW220258   5.704   4.208   6.784  0.4191 -0.4242  0.4126
 4638SOL     OW20259   8.289   6.577   2.228  0.0535 -0.1109  0.3368
 4638SOL    HW120260   8.363   6.519   2.211 -1.2269 -1.6651 -0.1972
 4638SOL    HW220261   8.236   6.530   2.292  0.0558  1.4757  1.5491
 4639SOL     OW20262   5.259   4.277   0.748 -0.9087 -0.2356 -0.1959
 4639SOL    HW120263   5.332   4.216   0.750 -0.6255  0.1061  0.3890
 4639SOL    HW220264   5.299   4.361   0.724 -0.7022  0.4373  2.2613
 4640SOL     OW20265   0.934   4.766   0.846  0.4658 -0.4014  0.1614
 4640SOL    HW120266   0.937   4.833   0.778  2.0954 -0.0117  0.5708
 4640SOL    HW220267   0.881   4.805   0.916  0.0620 -0.1969 -0.2542
 4641SOL     OW20268   0.758   8.871   3.302 -0.0208 -0.1108 -0.4161
 4641SOL    HW120269   0.682   8.829   3.262  0.8930 -1.9517 -0.2786
 4641SOL    HW220270   0.808   8.906   3.228 -0.1073 -0.4389 -0.6285
 4642SOL     OW20271   5.121   4.576   0.612  0.6011 -0.5277 -0.2677
 4642SOL    HW120272   5.197   4.586   0.670  1.3001 -0.8770 -1.0992
 4642SOL    HW220273   5.155   4.530   0.535  0.1484  1.5247 -1.7930
 4643SOL     OW20274   8.005   3.773   3.432  0.2274 -0.2775  0.3285
 4643SOL    HW120275   7.961   3.718   3.496 -1.7497 -0.4432 -1.1101
 4643SOL    HW220276   7.958   3.857   3.436 -0.6736 -0.6491 -1.6465
 4644SOL     OW20277   5.644   1.176   2.985  0.6543 -0.4241  0.1615
 4644SOL    HW120278   5.672   1.241   3.049  0.1930 -0.2951  0.2358
 4644SOL    HW220279   5.565   1.213   2.945  0.6167 -0.7548 -0.0778
 4645SOL     OW20280   5.429   6.447   1.997  0.0848 -0.7622  0.4959
 4645SOL    HW120281   5.515   6.410   1.980 -1.1696 -3.5626 -0.3617
 4645SOL    HW220282   5.389   6.456   1.910 -0.9685 -0.7794  0.9547
 4646SOL     OW20283   0.803   9.048   3.501 -0.2151  0.2032  0.1776
 4646SOL    HW120284   0.794   8.998   3.420 -0.6414  0.0343  0.3286
 4646SOL    HW220285   0.732   9.112   3.497  0.3731  0.8711 -0.0577
 4647SOL     OW20286   5.060   6.232   0.442  0.4436  0.4718 -0.0226
 4647SOL    HW120287   5.045   6.310   0.388 -0.4149  0.1147 -0.3144
 4647SOL    HW220288   5.073   6.161   0.380 -0.0884  0.1448  0.2249
 4648SOL     OW20289   3.567   2.895   1.329  0.3190  0.1486  0.0929
 4648SOL    HW120290   3.583   2.823   1.268  0.4925 -0.1046  0.4312
 4648SOL    HW220291   3.655   2.922   1.357  0.4576  2.4204 -2.2104
 4649SOL     OW20292   6.114   6.671   7.027 -0.7777  0.2523 -0.2886
 4649SOL    HW120293   6.106   6.723   6.947  0.2897 -0.8214 -1.1307
 4649SOL    HW220294   6.046   6.706   7.085 -0.2461  2.4121 -0.8873
 4650SOL     OW20295   1.808   6.322   1.485 -0.2396 -0.2535  0.2949
 4650SOL    HW120296   1.752   6.371   1.546  0.5971  0.1875  0.7253
 4650SOL    HW220297   1.833   6.243   1.534  0.2686  0.0049  0.4678
 4651SOL     OW20298   2.165   3.393   0.803  0.0704 -0.8898  0.0778
 4651SOL    HW120299   2.088   3.447   0.820  1.0336  0.5569 -0.0341
 4651SOL    HW220300   2.208   3.385   0.888  0.0910 -1.2643  0.0371
 4652SOL     OW20301   4.156   0.430   0.777  0.0907 -0.3042 -0.5241
 4652SOL    HW120302   4.158   0.464   0.867 -1.8195  0.3894 -0.6869
 4652SOL    HW220303   4.084   0.478   0.736 -0.3311 -1.9925 -1.8470
 4653SOL     OW20304   0.041   4.494   6.408  0.0121 -0.2791  0.9289
 4653SOL    HW120305  -0.019   4.420   6.417 -0.3492 -0.1790 -0.4751
 4653SOL    HW220306   0.111   4.461   6.352  0.4703  0.0849  1.2814
 4654SOL     OW20307   0.488   5.967   8.289 -0.5161 -0.4478  0.4210
 4654SOL    HW120308   0.465   5.906   8.219  0.5350  0.5422 -0.8509
 4654SOL    HW220309   0.504   6.050   8.244  0.8750  0.0533  1.7567
 4655SOL     OW20310   3.580   0.536   1.932  0.3760  0.1975  0.4356
 4655SOL    HW120311   3.676   0.532   1.928  0.2919 -0.7448 -2.7013
 4655SOL    HW220312   3.552   0.445   1.937 -0.4013  0.4502  0.8494
 4656SOL     OW20313   1.939   6.789   0.325  0.0677  0.4972 -0.7227
 4656SOL    HW120314   1.883   6.860   0.294 -0.0817  0.9410  0.4856
 4656SOL    HW220315   2.014   6.835   0.366  0.0581 -0.0326 -0.0899
 4657SOL     OW20316   3.354   5.282   4.921 -0.0490 -0.0556 -0.5867
 4657SOL    HW120317   3.384   5.301   5.010  0.7748 -1.5348 -0.5343
 4657SOL    HW220318   3.258   5.276   4.930 -0.1058  1.1638 -0.0914
 4658SOL     OW20319   6.493   7.726   1.230 -0.4092  0.1717 -0.7351
 4658SOL    HW120320   6.533   7.799   1.277 -1.5530  0.5551 -0.3204
 4658SOL    HW220321   6.502   7.651   1.290  2.3980 -0.5457 -1.8888
 4659SOL     OW20322   0.819   1.436   4.832 -0.3563  0.3552 -1.0840
 4659SOL    HW120323   0.859   1.350   4.850 -0.2713  0.2811 -1.6021
 4659SOL    HW220324   0.892   1.489   4.801  0.3703  1.7075  2.4929
 4660SOL     OW20325   4.244   1.388   8.386 -0.4924  0.6335  0.5316
 4660SOL    HW120326   4.169   1.353   8.434  0.5295 -0.4772  1.3575
 4660SOL    HW220327   4.258   1.327   8.314 -0.0783  0.5730  0.6615
 4661SOL     OW20328   6.734   1.036   4.318 -0.8474  0.2498  0.6452
 4661SOL    HW120329   6.707   0.947   4.296  0.5310  0.0510 -0.3908
 4661SOL    HW220330   6.825   1.042   4.289 -0.7380  1.8300  1.1850
 4662SOL     OW20331   3.356   1.381   9.232 -0.0297  0.0503  0.4761
 4662SOL    HW120332   3.434   1.377   9.177 -1.2348 -1.1964 -1.2564
 4662SOL    HW220333   3.331   1.289   9.244 -1.1215  0.4225  1.1604
 4663SOL     OW20334   8.734   1.859   0.532  0.3658  0.3235  0.4274
 4663SOL    HW120335   8.729   1.858   0.627 -3.1544  1.1004  0.3835
 4663SOL    HW220336   8.700   1.773   0.505 -0.4807  0.8025 -0.0959
 4664SOL     OW20337   3.804   7.633   2.394  0.0919  0.4598  0.3334
 4664SOL    HW120338   3.891   7.622   2.431 -0.4986  0.6843  1.8550
 4664SOL    HW220339   3.786   7.727   2.401 -0.2298  0.4365 -0.0821
 4665SOL     OW20340   8.436   5.467   1.634 -0.1453 -0.1301  0.1117
 4665SOL    HW120341   8.450   5.452   1.728 -0.8264  0.9770  0.4044
 4665SOL    HW220342   8.476   5.391   1.592 -0.1232 -0.8133  1.3151
 4666SOL     OW20343   8.543   4.356   2.767 -0.1939 -0.0306  0.0835
 4666SOL    HW120344   8.569   4.324   2.854 -1.4026 -0.2114  0.3997
 4666SOL    HW220345   8.542   4.451   2.777  1.6707  0.0839 -0.3517
 4667SOL     OW20346   2.924   3.350   1.210  0.1467 -0.4496 -0.0275
 4667SOL    HW120347   2.928   3.435   1.168  0.2659 -0.5842 -0.2924
 4667SOL    HW220348   2.913   3.288   1.137 -0.3413 -0.6243  0.1886
 4668SOL     OW20349   1.064   1.509   0.860 -0.3475  1.0799  0.3103
 4668SOL    HW120350   1.058   1.515   0.955  0.2424  1.3239  0.3339
 4668SOL    HW220351   1.102   1.423   0.843 -2.0192  0.3106  0.2222
 4669SOL     OW20352   1.142   7.860   1.554  0.7983 -0.0582  0.4545
 4669SOL    HW120353   1.219   7.890   1.506  1.2382 -1.6948  0.0590
 4669SOL    HW220354   1.143   7.910   1.636  4.0703 -2.1144  1.8687
 4670SOL     OW20355   7.581   5.753   4.834  0.2043 -0.9267  0.0409
 4670SOL    HW120356   7.601   5.785   4.922 -2.2223 -0.7900  0.6327
 4670SOL    HW220357   7.662   5.764   4.785  1.0090  1.0738  1.6721
 4671SOL     OW20358   0.260   3.099   2.172  0.0289 -0.1624  0.0607
 4671SOL    HW120359   0.229   3.025   2.224  0.6698 -0.9612 -0.6820
 4671SOL    HW220360   0.225   3.176   2.218 -0.3485 -0.8926  1.0388
 4672SOL     OW20361   3.207   5.752   4.553 -0.0885  0.0771  0.1913
 4672SOL    HW120362   3.189   5.672   4.603  2.4018 -2.2759 -2.2514
 4672SOL    HW220363   3.122   5.778   4.519 -1.1036 -1.0718  1.6857
 4673SOL     OW20364   6.820   7.328   2.421 -0.4340  0.1079 -0.5688
 4673SOL    HW120365   6.858   7.240   2.426 -0.9266 -0.1249 -0.8016
 4673SOL    HW220366   6.817   7.347   2.327  1.7372  1.3075 -0.4451
 4674SOL     OW20367   9.008   8.239   0.509 -0.0816  0.2268  0.2867
 4674SOL    HW120368   9.035   8.196   0.427  0.5616 -0.7484  0.9819
 4674SOL    HW220369   9.083   8.227   0.568 -0.9427 -0.0310  1.3662
 4675SOL     OW20370   2.224   4.321   8.834  0.3272  0.0089 -0.1526
 4675SOL    HW120371   2.144   4.351   8.876  1.1108  1.2792  0.5270
 4675SOL    HW220372   2.215   4.226   8.828 -2.3649  0.2735 -2.5197
 4676SOL     OW20373   0.043   1.771   0.051  0.1190  0.2169 -0.4617
 4676SOL    HW120374   0.033   1.712   0.126  0.6963  1.9340  1.0358
 4676SOL    HW220375  -0.044   1.809   0.039  0.3758  1.1476  0.4365
 4677SOL     OW20376   5.279   2.054   5.346  0.2434 -0.5134  0.6217
 4677SOL    HW120377   5.252   1.969   5.312 -2.4706  0.5426 -0.1495
 4677SOL    HW220378   5.272   2.113   5.271 -0.5728  0.8823  1.7435
 4678SOL     OW20379   7.349   2.128   7.590  0.2811  0.2158 -0.1860
 4678SOL    HW120380   7.373   2.181   7.514  1.7202 -0.4999 -0.2686
 4678SOL    HW220381   7.306   2.051   7.552  1.6104 -0.4733 -0.3731
 4679SOL     OW20382   7.682   5.341   6.060 -0.2963 -0.1112  0.0746
 4679SOL    HW120383   7.672   5.253   6.024 -2.6097 -0.1208  0.5652
 4679SOL    HW220384   7.711   5.395   5.987  2.2145 -1.4018  0.0044
 4680SOL     OW20385   3.323   3.096   3.129 -0.1900 -0.0301  0.1362
 4680SOL    HW120386   3.360   3.017   3.091 -0.0353  0.5429 -0.9374
 4680SOL    HW220387   3.249   3.118   3.074 -0.0896  0.7069  0.2735
 4681SOL     OW20388   1.751   2.371   1.427  0.1566 -0.1796  0.3597
 4681SOL    HW120389   1.791   2.457   1.433  0.1569 -0.2435  1.5848
 4681SOL    HW220390   1.820   2.310   1.452 -0.0463 -0.4788  0.2059
 4682SOL     OW20391   4.695   6.504   2.792 -0.0044 -0.4382  0.2017
 4682SOL    HW120392   4.632   6.438   2.766  0.6843 -0.2048 -2.3013
 4682SOL    HW220393   4.771   6.489   2.735  1.8280 -0.0625  2.3765
 4683SOL     OW20394   4.678   0.853   7.261 -0.4290  0.3719  0.1371
 4683SOL    HW120395   4.653   0.942   7.286  0.5354  0.7927 -0.3389
 4683SOL    HW220396   4.754   0.865   7.204 -1.5627 -0.6115 -1.6906
 4684SOL     OW20397   2.943   7.517   3.333 -0.3065  0.5836  0.0773
 4684SOL    HW120398   3.006   7.577   3.293  1.8220 -0.5481  1.5166
 4684SOL    HW220399   2.879   7.573   3.375 -0.6934  1.7899 -2.0047
 4685SOL     OW20400   1.872   4.039   4.126  0.1284  0.3718 -0.0914
 4685SOL    HW120401   1.879   4.126   4.086 -0.3628  0.1698 -0.6215
 4685SOL    HW220402   1.842   4.056   4.216 -3.3271  0.6112 -1.1423
 4686SOL     OW20403   1.547   8.192   7.587 -0.2743 -0.3552 -0.6443
 4686SOL    HW120404   1.594   8.274   7.575 -1.7749  0.7140  0.3581
 4686SOL    HW220405   1.465   8.204   7.538 -0.3446 -1.4155 -0.8113
 4687SOL     OW20406   0.179   9.081   8.214  0.1132 -0.0019 -0.0457
 4687SOL    HW120407   0.149   9.171   8.214 -0.0576 -0.0391 -1.2219
 4687SOL    HW220408   0.102   9.030   8.237 -0.1112  0.0715 -0.6235
 4688SOL     OW20409   8.710   3.856   6.805 -0.0530  0.1883 -0.0093
 4688SOL    HW120410   8.698   3.808   6.887  4.6508  1.2749  1.6373
 4688SOL    HW220411   8.777   3.807   6.757  0.1943  1.6769 -1.3030
 4689SOL     OW20412   2.011   7.779   4.888 -0.0948 -0.1580  0.0296
 4689SOL    HW120413   1.999   7.701   4.835  1.7465  0.3987 -1.2916
 4689SOL    HW220414   2.076   7.754   4.954  0.6735  0.3025 -0.5408
 4690SOL     OW20415   4.854   1.903   5.234  0.1799 -0.1686  0.1790
 4690SOL    HW120416   4.863   1.997   5.251  1.0987  0.2598 -2.2353
 4690SOL    HW220417   4.916   1.862   5.294 -1.0532  0.6107  2.0784
 4691SOL     OW20418   2.671   2.943   2.997  0.0238 -0.0299  0.0223
 4691SOL    HW120419   2.680   2.942   2.901  1.3583  1.1205  0.1154
 4691SOL    HW220420   2.579   2.964   3.011  0.0313  0.7970 -1.0174
 4692SOL     OW20421   9.149   1.472   4.325  0.3549 -0.3013 -0.5860
 4692SOL    HW120422   9.140   1.534   4.253  0.2663  0.2996 -0.0690
 4692SOL    HW220423   9.176   1.390   4.283 -0.4482 -0.1756 -1.3760
 4693SOL     OW20424   1.039   5.100   7.488  0.3002 -0.2460 -0.2352
 4693SOL    HW120425   1.010   5.062   7.570  0.3179 -1.9339 -0.9624
 4693SOL    HW220426   1.070   5.025   7.436  0.7056  0.8151 -1.6049
 4694SOL     OW20427   8.151   4.905   4.510  0.4053 -0.1681  0.0530
 4694SOL    HW120428   8.116   4.877   4.425 -3.3445  0.5838  1.1474
 4694SOL    HW220429   8.191   4.990   4.493 -0.5610  0.1061 -0.9634
 4695SOL     OW20430   8.860   0.389   2.943  0.4480  0.1842  0.3380
 4695SOL    HW120431   8.936   0.346   2.983 -0.9420 -1.5861  1.2570
 4695SOL    HW220432   8.788   0.328   2.959 -1.4512  2.4103  0.6815
 4696SOL     OW20433   8.396   6.417   4.974  0.2864  0.6128  0.0204
 4696SOL    HW120434   8.415   6.350   5.040  0.4901 -0.3371 -0.9714
 4696SOL    HW220435   8.323   6.381   4.924  1.8825  0.0325 -2.0000
 4697SOL     OW20436   2.762   2.668   4.045  0.2475 -0.1832 -0.3448
 4697SOL    HW120437   2.735   2.629   4.128  1.6381  1.0195  0.7145
 4697SOL    HW220438   2.789   2.757   4.068 -0.5491  0.6297 -2.3035
 4698SOL     OW20439   0.725   7.262   3.573  0.4536  0.4428  0.0200
 4698SOL    HW120440   0.750   7.171   3.557  0.1573  0.6632 -1.9585
 4698SOL    HW220441   0.783   7.312   3.516  0.3150  1.4827  0.7700
 4699SOL     OW20442   6.898   3.249   4.253 -0.0768 -0.5532 -0.1065
 4699SOL    HW120443   6.883   3.165   4.209  2.9494 -1.1021 -0.3215
 4699SOL    HW220444   6.954   3.227   4.327 -1.5077  0.9607  1.4989
 4700SOL     OW20445   5.831   3.768   5.575 -0.4786 -0.4963 -0.1752
 4700SOL    HW120446   5.863   3.711   5.644  0.0117 -0.3843 -0.3049
 4700SOL    HW220447   5.824   3.712   5.498 -3.2406 -1.1896  0.4807
 4701SOL     OW20448   6.170   1.494   8.754  0.3230 -0.0033  0.5669
 4701SOL    HW120449   6.101   1.519   8.816 -0.3624 -0.0015 -0.1890
 4701SOL    HW220450   6.160   1.400   8.744 -0.9748  0.2873 -1.1853
 4702SOL     OW20451   7.868   1.921   6.633  0.1859 -0.2860  0.3280
 4702SOL    HW120452   7.935   1.855   6.652  0.6660  0.5629  1.7768
 4702SOL    HW220453   7.819   1.885   6.559  0.1985 -2.4171  1.2920
 4703SOL     OW20454   2.244   8.973   7.264 -0.3112 -0.2411  0.1154
 4703SOL    HW120455   2.178   9.012   7.320  0.4893  0.1628  0.8087
 4703SOL    HW220456   2.209   8.980   7.176 -1.0143  0.3159  0.4307
 4704SOL     OW20457   8.193   7.769   3.302 -0.2883  0.1348  0.2343
 4704SOL    HW120458   8.098   7.773   3.289 -0.1016  0.5273 -1.3165
 4704SOL    HW220459   8.222   7.860   3.289  0.4514 -0.2430 -0.9153
 4705SOL     OW20460   3.022   7.648   0.921  0.0706 -0.2127  0.9271
 4705SOL    HW120461   3.080   7.723   0.935  0.4488 -0.4611  0.6960
 4705SOL    HW220462   2.940   7.687   0.892  1.1723 -0.0254 -2.2391
 4706SOL     OW20463   5.935   2.261   2.649 -0.0915 -0.6880  0.4319
 4706SOL    HW120464   5.910   2.272   2.740 -0.4064  1.7053  0.1224
 4706SOL    HW220465   5.881   2.189   2.617 -1.5628 -0.1352  1.5837
 4707SOL     OW20466   7.313   4.794   5.175  0.0185  0.1852  0.4627
 4707SOL    HW120467   7.282   4.822   5.261 -1.1535  0.8656 -0.1617
 4707SOL    HW220468   7.314   4.874   5.122  0.7653 -0.2108 -0.1507
 4708SOL     OW20469   8.306   7.373   1.860 -0.6738  0.1945 -0.5612
 4708SOL    HW120470   8.394   7.342   1.838 -0.8058 -2.1354  1.6130
 4708SOL    HW220471   8.318   7.423   1.941 -1.2590  0.5272 -0.6726
 4709SOL     OW20472   3.844   8.788   2.746  0.3055  0.4870 -0.2650
 4709SOL    HW120473   3.892   8.821   2.822  3.7566 -1.0492 -1.5435
 4709SOL    HW220474   3.796   8.712   2.778 -0.6406  1.5381  0.8937
 4710SOL     OW20475   7.857   0.289   5.737  0.1164 -0.1767  0.3958
 4710SOL    HW120476   7.839   0.344   5.661  0.8219  1.2381  1.2136
 4710SOL    HW220477   7.845   0.199   5.705  0.3449  0.3803 -1.3593
 4711SOL     OW20478   7.820   0.461   8.630  0.4711 -0.0002 -0.2379
 4711SOL    HW120479   7.847   0.380   8.588 -0.6199 -1.2201  1.2925
 4711SOL    HW220480   7.731   0.475   8.599  0.0650 -0.3029  0.7588
 4712SOL     OW20481   3.584   0.170   0.928  0.0314  0.0366  0.2286
 4712SOL    HW120482   3.534   0.178   1.009  1.0839  2.1740  0.7328
 4712SOL    HW220483   3.607   0.260   0.905 -0.9203 -0.3831 -2.9060
 4713SOL     OW20484   7.288   1.377   6.538  0.1115  0.0188  0.4120
 4713SOL    HW120485   7.310   1.465   6.570 -0.3203  0.2717  0.0304
 4713SOL    HW220486   7.205   1.356   6.580  1.1369 -1.0141  2.0042
 4714SOL     OW20487   5.019   3.993   9.036 -0.1031 -0.1037 -0.8051
 4714SOL    HW120488   5.086   4.013   9.102 -0.3678  1.3973 -0.9561
 4714SOL    HW220489   5.069   3.977   8.956  0.1154  0.5264 -0.8027
 4715SOL     OW20490   2.686   6.273   8.979  0.1279  0.1198 -0.5127
 4715SOL    HW120491   2.633   6.242   9.053 -1.4587  0.3100 -1.5101
 4715SOL    HW220492   2.773   6.236   8.995 -0.8667 -2.2057  0.0041
 4716SOL     OW20493   0.218   8.566   2.649  0.5402 -0.4636  0.2007
 4716SOL    HW120494   0.251   8.551   2.561 -1.1956 -3.3944 -0.0886
 4716SOL    HW220495   0.281   8.522   2.707 -0.0965 -1.6061  0.0664
 4717SOL     OW20496   8.959   1.454   7.808  0.2886 -0.3839 -0.8986
 4717SOL    HW120497   8.889   1.515   7.786  0.6685  0.3505 -0.1448
 4717SOL    HW220498   8.984   1.477   7.897  1.3475 -0.7768 -1.0741
 4718SOL     OW20499   0.829   7.201   4.516  0.1781  0.4045  0.5497
 4718SOL    HW120500   0.848   7.251   4.437 -1.9032  0.8865  0.2931
 4718SOL    HW220501   0.775   7.128   4.485  1.2503 -0.7245  1.2439
 4719SOL     OW20502   2.432   3.500   3.402 -0.5392 -0.2986 -0.0676
 4719SOL    HW120503   2.487   3.567   3.442  1.3799 -0.2209 -2.5961
 4719SOL    HW220504   2.345   3.540   3.398  0.3841  1.8024 -0.7904
 4720SOL     OW20505   1.703   4.830   4.283 -0.6614  0.8687 -0.2895
 4720SOL    HW120506   1.712   4.829   4.378 -1.8777  0.0089 -0.1545
 4720SOL    HW220507   1.687   4.739   4.259 -2.2815  1.3211 -1.0784
 4721SOL     OW20508   8.253   5.769   8.776  0.0379 -0.0185 -0.2550
 4721SOL    HW120509   8.222   5.801   8.691 -1.1916 -0.4507  0.0062
 4721SOL    HW220510   8.280   5.679   8.760 -1.3350 -0.4996  0.0392
 4722SOL     OW20511   4.955   4.870   7.049 -0.1730 -0.4692  0.2713
 4722SOL    HW120512   5.032   4.843   7.100 -0.7192 -1.2235  0.7207
 4722SOL    HW220513   4.909   4.788   7.030  0.0321 -0.2143 -1.4958
 4723SOL     OW20514   1.176   2.548   8.535 -0.4740 -0.2474 -0.5339
 4723SOL    HW120515   1.232   2.489   8.484 -0.8633  0.7157 -2.1156
 4723SOL    HW220516   1.228   2.628   8.546  1.7457 -1.9245  4.9928
 4724SOL     OW20517   5.930   1.408   2.920  0.1714 -0.5930 -0.1771
 4724SOL    HW120518   5.948   1.394   3.013 -0.5841 -0.4294  0.0010
 4724SOL    HW220519   6.014   1.434   2.883  0.4207 -0.3920  0.5173
 4725SOL     OW20520   4.997   4.066   7.609  0.0864  0.0731  0.4340
 4725SOL    HW120521   4.969   3.995   7.552  1.5163  0.2730 -0.5881
 4725SOL    HW220522   4.928   4.131   7.602  0.3666  0.2313 -1.3795
 4726SOL     OW20523   6.103   8.422   1.385  0.2325 -0.7613  0.5330
 4726SOL    HW120524   6.022   8.473   1.381 -0.2204 -1.4854 -2.9889
 4726SOL    HW220525   6.171   8.482   1.354  0.1798 -1.4212 -0.9464
 4727SOL     OW20526   2.284   0.459   0.233  0.1626  0.5618  0.1857
 4727SOL    HW120527   2.239   0.530   0.187 -1.3862 -0.1432  0.5648
 4727SOL    HW220528   2.215   0.396   0.254  1.6634 -1.7998 -1.4348
 4728SOL     OW20529   4.533   2.956   5.439 -0.3056 -0.1337  0.2914
 4728SOL    HW120530   4.504   3.046   5.424 -0.8545 -0.3448  0.0601
 4728SOL    HW220531   4.458   2.913   5.480 -1.1598 -1.2663 -2.2915
 4729SOL     OW20532   8.685   9.083   7.864 -0.5878  0.7156  0.7233
 4729SOL    HW120533   8.608   9.073   7.808 -0.9630  0.6490  1.2487
 4729SOL    HW220534   8.710   9.175   7.855  1.1724  0.1244 -1.9050
 4730SOL     OW20535   8.909   3.551   3.623  0.3742  0.0128  0.0161
 4730SOL    HW120536   8.923   3.590   3.537 -0.4782  3.7707  1.3911
 4730SOL    HW220537   8.996   3.548   3.662  0.3004  2.8704  0.6456
 4731SOL     OW20538   0.447   7.836   5.383 -0.1578  0.1423  0.1807
 4731SOL    HW120539   0.403   7.889   5.317  0.9473  0.0494 -0.6581
 4731SOL    HW220540   0.540   7.852   5.369  0.1632 -1.1680  0.6197
 4732SOL     OW20541   8.994   1.685   0.448  0.1255 -0.3100 -0.5323
 4732SOL    HW120542   8.956   1.636   0.521 -0.4550 -0.1534 -0.7242
 4732SOL    HW220543   8.968   1.775   0.463  0.1722 -0.2474 -0.8271
 4733SOL     OW20544   3.339   3.361   8.156 -0.5339  0.3268 -0.3891
 4733SOL    HW120545   3.403   3.298   8.191  1.2972  1.1565 -2.0197
 4733SOL    HW220546   3.268   3.306   8.123 -1.5378 -0.5449  2.9242
 4734SOL     OW20547   7.682   1.705   2.950  0.6693  0.0027 -0.0078
 4734SOL    HW120548   7.738   1.630   2.970  0.5915  0.0944  0.5803
 4734SOL    HW220549   7.594   1.677   2.975  0.4653 -0.1005 -0.8233
 4735SOL     OW20550   1.066   2.033   7.036 -0.2547 -0.2117 -0.2865
 4735SOL    HW120551   1.082   2.060   6.946 -0.5868 -0.2690 -0.3619
 4735SOL    HW220552   1.144   1.983   7.060  0.4850  1.0107 -0.0669
 4736SOL     OW20553   8.907   0.053   7.800  0.0722 -0.5141 -0.4626
 4736SOL    HW120554   8.977   0.095   7.850 -0.5122  0.4317 -0.4065
 4736SOL    HW220555   8.827   0.096   7.830 -0.3893 -0.5772 -1.5333
 4737SOL     OW20556   5.578   3.721   5.814 -0.6246 -0.1998 -0.2105
 4737SOL    HW120557   5.526   3.794   5.781 -1.7224 -0.3160  1.1808
 4737SOL    HW220558   5.603   3.748   5.903  1.4475 -0.2898 -0.6998
 4738SOL     OW20559   5.403   8.697   8.124  0.1911  0.6102  0.1300
 4738SOL    HW120560   5.383   8.733   8.210  1.1402 -0.4683  0.8371
 4738SOL    HW220561   5.373   8.764   8.062 -0.9785  1.1789  1.2662
 4739SOL     OW20562   2.955   0.747   1.399  0.1971 -0.3984  0.5790
 4739SOL    HW120563   3.021   0.734   1.467 -0.1171 -1.1754  0.7498
 4739SOL    HW220564   3.004   0.741   1.317  0.8321  1.9891  0.7163
 4740SOL     OW20565   3.526   0.659   3.944 -0.0387  0.2876 -0.3440
 4740SOL    HW120566   3.467   0.586   3.924 -1.7417  1.8237 -1.2251
 4740SOL    HW220567   3.493   0.732   3.891 -0.5703  2.6735  2.9613
 4741SOL     OW20568   8.255   6.595   1.677  0.4844  0.1325  0.1105
 4741SOL    HW120569   8.301   6.530   1.731  1.3451 -0.4739 -1.3057
 4741SOL    HW220570   8.316   6.615   1.606 -1.0502  0.0498 -1.2831
 4742SOL     OW20571   6.615   4.678   3.064  0.2818 -0.5438 -0.2353
 4742SOL    HW120572   6.551   4.628   3.014 -1.0702  1.2023 -0.3275
 4742SOL    HW220573   6.659   4.733   2.999 -0.8469  1.0635  0.2904
 4743SOL     OW20574   3.795   2.224   1.998 -0.6257 -0.1312 -0.1179
 4743SOL    HW120575   3.885   2.208   2.027 -0.2235 -1.8871 -2.0637
 4743SOL    HW220576   3.762   2.137   1.975 -2.4170  0.6274 -0.5922
 4744SOL     OW20577   3.967   2.997   8.578 -0.4148 -0.7450  0.5806
 4744SOL    HW120578   3.920   2.947   8.511 -0.6324  2.0646 -1.5723
 4744SOL    HW220579   3.900   3.021   8.641 -1.2347  0.3112 -0.6347
 4745SOL     OW20580   3.641   3.054   8.025 -0.1354 -0.2581 -0.1049
 4745SOL    HW120581   3.619   2.974   8.073  2.4651 -0.8392  0.2616
 4745SOL    HW220582   3.653   3.025   7.935  1.6426 -0.4974  0.1780
 4746SOL     OW20583   2.848   1.433   5.831  0.2919 -0.1155 -0.0520
 4746SOL    HW120584   2.833   1.341   5.809  1.1957 -0.1249 -0.6874
 4746SOL    HW220585   2.770   1.459   5.881  0.4592 -1.4936  1.0014
 4747SOL     OW20586   7.612   4.244   7.450  0.0554 -0.2067  0.1196
 4747SOL    HW120587   7.677   4.225   7.518  0.0964 -2.1853 -0.3942
 4747SOL    HW220588   7.664   4.259   7.371 -0.0416  0.7620  0.2301
 4748SOL     OW20589   9.238   0.496   5.416 -0.4670  0.3859  0.6500
 4748SOL    HW120590   9.249   0.419   5.360  0.4773  1.5214 -0.7975
 4748SOL    HW220591   9.293   0.478   5.492 -1.2084 -0.8718  0.9164
 4749SOL     OW20592   9.076   7.225   1.577  0.2062 -0.6072  0.0700
 4749SOL    HW120593   9.155   7.202   1.530  0.8312  0.9922  0.2799
 4749SOL    HW220594   9.012   7.159   1.550  1.7433 -2.3149  0.3812
 4750SOL     OW20595   5.230   6.685   6.808  0.6277 -0.4480  0.3347
 4750SOL    HW120596   5.315   6.689   6.763 -0.0478 -1.2780 -1.0763
 4750SOL    HW220597   5.174   6.633   6.750 -1.4390  1.6741  0.2944
 4751SOL     OW20598   7.449   2.172   4.045  0.3459  0.1225  0.6329
 4751SOL    HW120599   7.452   2.168   3.950  1.7604  0.4681  0.6535
 4751SOL    HW220600   7.462   2.081   4.074 -1.2995 -0.1962  0.5127
 4752SOL     OW20601   5.086   6.451   3.291 -0.4773 -0.4358  0.6829
 4752SOL    HW120602   5.122   6.363   3.289  1.9880  0.5037  0.4952
 4752SOL    HW220603   5.007   6.444   3.344 -0.4413 -2.7685  0.5017
 4753SOL     OW20604   3.670   7.617   4.782  0.1434  0.8901 -0.6292
 4753SOL    HW120605   3.620   7.536   4.790  0.4996  0.7747  0.6919
 4753SOL    HW220606   3.605   7.686   4.795  0.3442  0.7342  1.5908
 4754SOL     OW20607   0.921   3.861   0.363 -0.1571 -0.3613 -0.6460
 4754SOL    HW120608   0.972   3.792   0.406 -0.4792  0.4823  1.1793
 4754SOL    HW220609   0.863   3.814   0.303 -0.6009 -1.7405  0.7895
 4755SOL     OW20610   3.573   9.221   3.564  0.4528  0.6511 -0.6694
 4755SOL    HW120611   3.556   9.209   3.471  1.9211  1.8617 -1.1377
 4755SOL    HW220612   3.663   9.254   3.568  1.3056 -1.5747  1.3442
 4756SOL     OW20613   1.793   7.478   6.781  0.1654  0.1987 -0.2768
 4756SOL    HW120614   1.723   7.415   6.801  0.4723 -0.0667 -0.0252
 4756SOL    HW220615   1.830   7.447   6.699 -0.0952  0.4126 -0.4761
 4757SOL     OW20616   9.210   7.165   4.480  0.2214  0.5146  0.2578
 4757SOL    HW120617   9.279   7.112   4.520 -1.5170 -2.7373 -0.6988
 4757SOL    HW220618   9.130   7.138   4.526 -0.7325  2.9122  0.1773
 4758SOL     OW20619   4.630   8.913   8.583  0.3440  0.1742 -0.2461
 4758SOL    HW120620   4.676   8.874   8.509  0.5107  0.0224 -0.0610
 4758SOL    HW220621   4.626   8.844   8.649 -0.2143  0.1633 -0.2874
 4759SOL     OW20622   5.198   6.194   1.408 -0.6593  0.2593  0.2796
 4759SOL    HW120623   5.183   6.127   1.341  2.0064  0.7669 -0.9376
 4759SOL    HW220624   5.222   6.144   1.486 -1.1004 -0.2537  0.0987
 4760SOL     OW20625   7.022   4.516   2.303 -0.4523  0.2350 -0.0154
 4760SOL    HW120626   7.062   4.567   2.232 -1.9668 -0.3364 -1.3594
 4760SOL    HW220627   6.934   4.552   2.311 -1.5495 -2.0195 -0.9452
 4761SOL     OW20628   0.231   7.823   0.954  0.3805  0.2743  0.2788
 4761SOL    HW120629   0.287   7.892   0.918  0.4328 -0.2609 -0.6944
 4761SOL    HW220630   0.213   7.766   0.880 -0.5237 -0.1890  0.8406
 4762SOL     OW20631   8.943   8.904   1.397 -0.1378 -0.4807 -0.0821
 4762SOL    HW120632   8.985   8.968   1.339 -0.7092  0.6052  0.6537
 4762SOL    HW220633   9.008   8.886   1.464 -0.8720  1.4564  1.2466
 4763SOL     OW20634   8.964   8.660   8.962 -0.2389  0.3960  0.8698
 4763SOL    HW120635   8.976   8.623   8.875  1.2656  0.2505  1.0970
 4763SOL    HW220636   9.046   8.639   9.008 -2.0677 -2.2476  3.3455
 4764SOL     OW20637   7.032   8.477   5.616  0.2363  0.0381  0.2886
 4764SOL    HW120638   7.116   8.433   5.607 -1.0535 -2.1960 -2.3610
 4764SOL    HW220639   7.042   8.559   5.569  0.8768 -0.3182 -0.2073
 4765SOL     OW20640   0.809   1.633   8.422 -0.1013  0.3267  0.4411
 4765SOL    HW120641   0.720   1.627   8.457 -0.6889 -0.8873 -1.1093
 4765SOL    HW220642   0.843   1.544   8.428 -0.5713 -0.1864 -2.7038
 4766SOL     OW20643   2.728   4.278   2.762 -0.2701  0.2016  0.3367
 4766SOL    HW120644   2.781   4.212   2.718  0.4420  0.4477  0.8211
 4766SOL    HW220645   2.758   4.278   2.853  0.0481  1.4754  0.2594
 4767SOL     OW20646   1.568   1.423   3.650 -0.3136 -0.3686 -0.3006
 4767SOL    HW120647   1.474   1.419   3.632 -0.2879  0.2157 -0.5869
 4767SOL    HW220648   1.582   1.510   3.686  0.1832 -0.2996 -0.6453
 4768SOL     OW20649   2.512   8.526   6.741 -0.0803  0.4946  0.1338
 4768SOL    HW120650   2.515   8.503   6.648 -2.8602  0.6716 -0.0636
 4768SOL    HW220651   2.492   8.443   6.785 -0.1058  0.6656  0.4447
 4769SOL     OW20652   3.369   8.774   2.060  0.1112 -0.3583  0.4109
 4769SOL    HW120653   3.439   8.840   2.057 -0.5394  0.3114 -0.6480
 4769SOL    HW220654   3.347   8.769   2.153  0.7617  0.2876  0.6200
 4770SOL     OW20655   2.933   6.344   6.957 -0.4760 -0.0196 -0.4969
 4770SOL    HW120656   3.025   6.364   6.939 -1.0400  2.6512 -0.7747
 4770SOL    HW220657   2.919   6.374   7.047 -1.2756  0.4073 -0.7538
 4771SOL     OW20658   0.442   4.245   1.146 -0.0793 -0.0176 -0.3842
 4771SOL    HW120659   0.526   4.278   1.179  0.1860 -0.9933 -0.0464
 4771SOL    HW220660   0.435   4.157   1.183  0.7558 -1.6549 -3.7477
 4772SOL     OW20661   6.419   1.085   1.967 -0.7075  0.2648  0.7300
 4772SOL    HW120662   6.464   1.005   1.997 -2.5558 -1.0993  0.0781
 4772SOL    HW220663   6.462   1.156   2.014  1.9067 -0.9601  0.3276
 4773SOL     OW20664   8.925   1.601   0.190 -0.3617 -0.3845  0.5781
 4773SOL    HW120665   8.966   1.616   0.275 -0.8436 -1.2642  0.9845
 4773SOL    HW220666   8.832   1.615   0.205 -0.4772 -0.7696  0.2457
 4774SOL     OW20667   5.686   0.362   4.963 -0.2611 -0.5607 -0.2192
 4774SOL    HW120668   5.779   0.356   4.983 -0.1171  0.9836 -0.3474
 4774SOL    HW220669   5.649   0.280   4.997  1.1151 -1.1664 -0.1171
 4775SOL     OW20670   3.074   6.502   2.706  0.2699 -0.2078 -0.2463
 4775SOL    HW120671   3.078   6.414   2.671  0.0992 -1.1560  1.9363
 4775SOL    HW220672   2.982   6.527   2.697  0.2876 -0.3040 -0.7188
 4776SOL     OW20673   8.028   6.564   3.392  0.3113 -0.2408 -0.0643
 4776SOL    HW120674   7.982   6.494   3.438 -0.7832 -1.1279 -2.3501
 4776SOL    HW220675   7.961   6.607   3.339  1.1618  1.9104  0.4748
 4777SOL     OW20676   4.337   0.104   6.185 -0.4045  0.0416  0.1067
 4777SOL    HW120677   4.264   0.068   6.235 -0.9132  0.2267 -0.4909
 4777SOL    HW220678   4.326   0.067   6.097  0.2409  0.0431  0.0213
 4778SOL     OW20679   0.479   5.540   7.332  0.1329  0.6636 -0.5720
 4778SOL    HW120680   0.537   5.504   7.399  0.6990  2.4028 -0.0693
 4778SOL    HW220681   0.391   5.523   7.364  0.3924  1.6570  0.7781
 4779SOL     OW20682   3.914   4.957   6.993 -0.1784 -0.4529  0.2002
 4779SOL    HW120683   3.881   4.992   6.911  1.9612 -0.3691 -0.6990
 4779SOL    HW220684   4.004   4.989   6.998 -0.1143 -0.8116  2.3806
 4780SOL     OW20685   6.814   3.502   7.683 -0.2495  0.1113  0.2639
 4780SOL    HW120686   6.909   3.509   7.681 -0.1077 -1.4058  0.4599
 4780SOL    HW220687   6.785   3.549   7.605  0.6455  0.6703  0.2514
 4781SOL     OW20688   4.018   6.125   4.043 -0.0586 -0.3686 -0.0190
 4781SOL    HW120689   4.051   6.213   4.060  0.1067 -0.2293 -1.0391
 4781SOL    HW220690   4.011   6.085   4.130 -1.4821  1.1114  0.5899
 4782SOL     OW20691   1.901   4.937   0.121  0.5382  0.3376  0.0696
 4782SOL    HW120692   1.962   4.902   0.056  0.6862 -1.0255  0.9142
 4782SOL    HW220693   1.944   4.922   0.205  0.0122  1.3940  0.5503
 4783SOL     OW20694   1.527   0.618   2.105  0.0865  0.2269  0.2915
 4783SOL    HW120695   1.519   0.594   2.197 -1.6111 -0.0658  0.0952
 4783SOL    HW220696   1.481   0.702   2.098  0.4363  0.3765 -0.2405
 4784SOL     OW20697   4.648   6.684   7.906 -0.2276  0.3199 -0.0896
 4784SOL    HW120698   4.643   6.589   7.897  0.3920  0.4438 -2.2229
 4784SOL    HW220699   4.557   6.713   7.907 -0.4403 -0.3191  1.3437
 4785SOL     OW20700   7.858   6.585   1.478  0.8629 -0.2327  0.0903
 4785SOL    HW120701   7.930   6.602   1.416  1.2674 -0.4645  0.4907
 4785SOL    HW220702   7.829   6.672   1.504  1.2762 -0.1363  0.2395
 4786SOL     OW20703   7.693   6.115   1.943  0.4858  0.2702 -0.1223
 4786SOL    HW120704   7.724   6.049   2.005 -1.6908  0.9703  1.8945
 4786SOL    HW220705   7.679   6.193   1.996 -1.3765  0.9573 -1.4948
 4787SOL     OW20706   2.858   1.040   2.679 -0.2803 -0.1409 -0.1892
 4787SOL    HW120707   2.928   0.977   2.659 -0.5138  0.0612 -1.7583
 4787SOL    HW220708   2.840   1.082   2.595 -0.3198  1.8408  0.7683
 4788SOL     OW20709   8.077   7.166   6.911  0.1015  0.0397  0.0465
 4788SOL    HW120710   8.013   7.212   6.857  0.6771  0.2977 -0.4253
 4788SOL    HW220711   8.042   7.172   7.000  0.2225  1.5263  0.0297
 4789SOL     OW20712   4.760   1.669   8.989  0.3695  0.5565  0.7278
 4789SOL    HW120713   4.670   1.702   8.989  0.2613  0.3554 -1.1314
 4789SOL    HW220714   4.753   1.580   8.955  1.3776  0.9472 -0.5689
 4790SOL     OW20715   5.726   3.102   2.105  0.3289  0.3003  0.2443
 4790SOL    HW120716   5.770   3.095   2.020  0.1646 -0.8490  0.2432
 4790SOL    HW220717   5.797   3.103   2.169  0.4159 -0.0906  0.1574
 4791SOL     OW20718   6.433   2.701   1.102 -0.4378 -0.3313 -0.0156
 4791SOL    HW120719   6.347   2.736   1.126 -1.3800 -0.4413 -2.8332
 4791SOL    HW220720   6.414   2.617   1.062  1.2301 -1.3116  1.1416
 4792SOL     OW20721   8.500   9.192   2.066 -0.3734 -0.2666 -0.0685
 4792SOL    HW120722   8.595   9.182   2.072 -0.3310 -0.2053 -0.6581
 4792SOL    HW220723   8.485   9.231   1.981 -0.9638 -0.7307 -0.1819
 4793SOL     OW20724   0.454   1.396   5.472  0.0086  0.0892  0.1105
 4793SOL    HW120725   0.420   1.361   5.555 -1.4571 -0.6492 -0.7610
 4793SOL    HW220726   0.411   1.481   5.463 -1.1351 -0.5316 -0.6377
 4794SOL     OW20727   3.590   4.246   5.161  0.3026  0.1663  0.2779
 4794SOL    HW120728   3.524   4.180   5.182  0.4028 -0.2194 -0.5937
 4794SOL    HW220729   3.564   4.280   5.075  0.6251  0.7957  0.4197
 4795SOL     OW20730   3.894   3.250   1.521  0.2282  0.6695  0.0271
 4795SOL    HW120731   3.989   3.237   1.514 -0.0224 -0.7618 -1.1435
 4795SOL    HW220732   3.857   3.164   1.506 -1.2597  1.0468  1.3101
 4796SOL     OW20733   2.779   2.556   3.800 -0.3516 -0.3219 -0.1334
 4796SOL    HW120734   2.715   2.599   3.742 -0.6433 -1.0735 -0.3852
 4796SOL    HW220735   2.763   2.595   3.886  0.7580  1.5368 -0.7273
 4797SOL     OW20736   3.439   3.016   7.749  0.4034  0.4497  0.6768
 4797SOL    HW120737   3.496   2.942   7.773 -0.1217  0.2727  1.4076
 4797SOL    HW220738   3.419   3.058   7.832  1.3957  1.9629  0.1913
 4798SOL     OW20739   9.094   8.264   4.593  0.2791  0.1783 -0.2429
 4798SOL    HW120740   9.087   8.342   4.648  0.2711  0.8408 -1.1598
 4798SOL    HW220741   9.004   8.238   4.575  0.2820  0.0874 -0.1327
 4799SOL     OW20742   2.781   8.907   7.921  0.6207 -0.2606 -0.3096
 4799SOL    HW120743   2.708   8.939   7.869  0.7682  1.0082  0.2293
 4799SOL    HW220744   2.806   8.824   7.879 -0.5227 -0.2500 -1.0428
 4800SOL     OW20745   1.930   0.701   8.649  0.3313 -0.3046 -0.0814
 4800SOL    HW120746   1.867   0.702   8.721  0.9813  2.5597  0.5710
 4800SOL    HW220747   1.963   0.610   8.647 -1.2469 -0.9796  1.8072
 4801SOL     OW20748   7.514   0.333   0.459 -0.1024  0.0761 -0.4780
 4801SOL    HW120749   7.602   0.306   0.432  0.9553  1.7602  1.0659
 4801SOL    HW220750   7.467   0.251   0.472  1.3839 -0.8816 -0.8756
 4802SOL     OW20751   6.700   6.590   0.299 -0.4366  0.4426  0.2569
 4802SOL    HW120752   6.676   6.518   0.240  0.4642  0.0414  0.3495
 4802SOL    HW220753   6.773   6.633   0.254 -0.9574  1.2928  0.2168
 4803SOL     OW20754   8.088   2.187   7.392  0.4850 -0.0359 -0.2596
 4803SOL    HW120755   8.064   2.152   7.307 -1.0342  0.4737 -0.0609
 4803SOL    HW220756   8.008   2.228   7.426  0.0945 -2.8048  2.7354
 4804SOL     OW20757   5.970   8.703   1.612  0.2167  0.4610 -0.4946
 4804SOL    HW120758   5.922   8.711   1.695  1.1111  0.0657  0.0796
 4804SOL    HW220759   5.999   8.792   1.593  3.1044  0.1156  1.5617
 4805SOL     OW20760   8.243   6.924   8.513  0.2813  0.2004 -0.2926
 4805SOL    HW120761   8.333   6.892   8.513  0.5075  0.7716 -1.7271
 4805SOL    HW220762   8.242   6.992   8.446 -0.6692  1.8301  1.2811
 4806SOL     OW20763   8.613   5.128   9.069  0.0497  0.2529  0.2376
 4806SOL    HW120764   8.704   5.109   9.091  0.9200  0.2254 -2.8672
 4806SOL    HW220765   8.616   5.213   9.025 -1.3372  0.0014 -0.4037
 4807SOL     OW20766   6.793   1.001   3.917  0.0974  0.3486  0.1616
 4807SOL    HW120767   6.823   0.969   3.832  1.4122  0.3413  0.6068
 4807SOL    HW220768   6.865   0.981   3.977 -1.4575 -1.1889  1.6361
 4808SOL     OW20769   8.125   4.919   8.631 -0.1642 -0.0856  0.1739
 4808SOL    HW120770   8.148   5.007   8.601 -0.7773  0.5791  1.5649
 4808SOL    HW220771   8.125   4.925   8.726  1.3445 -2.0238  0.3666
 4809SOL     OW20772   6.585   5.234   2.174  0.2159  0.3182  0.0225
 4809SOL    HW120773   6.593   5.252   2.080 -0.7764  0.3561 -0.0634
 4809SOL    HW220774   6.536   5.307   2.209 -0.4026 -0.2507  0.3693
 4810SOL     OW20775   2.075   5.326   2.781 -0.1909  0.5536  0.2854
 4810SOL    HW120776   2.078   5.290   2.869 -0.4382 -0.8971 -0.2654
 4810SOL    HW220777   2.023   5.263   2.731 -2.6681  2.8660 -0.2381
 4811SOL     OW20778   6.627   7.778   9.200 -0.3514  0.3303 -0.0427
 4811SOL    HW120779   6.629   7.683   9.204  0.7347  0.3200 -0.3738
 4811SOL    HW220780   6.680   7.799   9.122 -0.5256  1.2014  0.0659
 4812SOL     OW20781   2.967   7.692   6.120 -0.3870 -0.6620 -0.1305
 4812SOL    HW120782   2.967   7.775   6.168 -0.4934 -0.6430 -0.1642
 4812SOL    HW220783   3.016   7.632   6.176  0.9062 -0.2107 -0.7381
 4813SOL     OW20784   5.255   1.196   5.559 -0.1122 -1.0728  0.2986
 4813SOL    HW120785   5.177   1.181   5.505  0.3274 -2.1523 -0.0569
 4813SOL    HW220786   5.223   1.249   5.632 -0.1463  3.3470 -2.5793
 4814SOL     OW20787   0.883   1.658   3.190  0.6556 -0.6285 -0.0334
 4814SOL    HW120788   0.949   1.727   3.193 -1.0749  1.0698  0.5438
 4814SOL    HW220789   0.831   1.670   3.269 -0.5219 -1.7567 -0.5877
 4815SOL     OW20790   4.341   6.667   7.004 -0.0641  0.1455  0.2606
 4815SOL    HW120791   4.282   6.689   6.932 -0.8585 -2.3859  0.0292
 4815SOL    HW220792   4.284   6.662   7.081  0.5444  1.4799  0.8208
 4816SOL     OW20793   4.345   5.895   9.121 -0.1008 -0.5133 -0.4726
 4816SOL    HW120794   4.397   5.829   9.075  0.8585  0.1380 -0.3384
 4816SOL    HW220795   4.319   5.956   9.052  0.4505 -0.1077 -0.3230
 4817SOL     OW20796   2.421   4.588   5.524 -0.4030  0.3244 -0.5921
 4817SOL    HW120797   2.492   4.560   5.582 -1.6396 -0.5890  0.5450
 4817SOL    HW220798   2.452   4.565   5.436  0.3447 -0.8926 -0.0343
 4818SOL     OW20799   1.913   0.301   6.987 -0.1246  0.2577  0.4445
 4818SOL    HW120800   1.911   0.224   7.043 -1.3989 -0.0696 -0.0035
 4818SOL    HW220801   1.824   0.306   6.951 -0.2966  2.3397  1.0149
 4819SOL     OW20802   6.944   8.876   1.470 -0.1921  0.1571  0.1313
 4819SOL    HW120803   6.890   8.823   1.529 -0.7853 -1.8870 -2.0648
 4819SOL    HW220804   7.017   8.818   1.446  0.1104  0.9690 -0.9796
 4820SOL     OW20805   3.516   0.198   7.483  0.4726 -0.5609  0.0658
 4820SOL    HW120806   3.535   0.279   7.530  0.0195  0.3953 -1.3258
 4820SOL    HW220807   3.562   0.208   7.399  0.7706 -1.9496  0.0388
 4821SOL     OW20808   6.746   6.695   8.402 -0.0509 -0.3746 -0.6377
 4821SOL    HW120809   6.733   6.602   8.418  1.5457 -0.5694 -0.3692
 4821SOL    HW220810   6.724   6.736   8.486 -0.2465 -0.5515 -0.6003
 4822SOL     OW20811   3.374   0.827   5.186  0.5096  0.3202  0.8478
 4822SOL    HW120812   3.385   0.884   5.110  1.4660 -1.2679 -0.2740
 4822SOL    HW220813   3.463   0.800   5.210  0.2710  1.1296  2.8493
 4823SOL     OW20814   0.700   6.823   6.800 -0.3191 -0.8038 -0.1156
 4823SOL    HW120815   0.720   6.861   6.714 -0.2005  0.3893  0.4136
 4823SOL    HW220816   0.781   6.778   6.825  0.6464  1.1748  0.5417
 4824SOL     OW20817   3.566   5.819   2.768 -0.4613 -0.2761 -0.0729
 4824SOL    HW120818   3.641   5.760   2.776 -0.1758 -0.0003 -0.6386
 4824SOL    HW220819   3.500   5.783   2.828 -0.0461 -0.7803  0.0872
 4825SOL     OW20820   3.475   3.073   0.134  0.1183  0.6152  0.6734
 4825SOL    HW120821   3.538   3.011   0.098  0.1174  1.9405 -1.8490
 4825SOL    HW220822   3.527   3.150   0.156 -0.4087  1.2251 -0.1552
 4826SOL     OW20823   5.673   3.717   0.139  0.0818  0.0954 -0.5318
 4826SOL    HW120824   5.662   3.628   0.106  1.0152  0.1105 -0.9221
 4826SOL    HW220825   5.706   3.705   0.228  0.9037  0.0300 -0.8314
 4827SOL     OW20826   4.221   4.265   8.120  0.0718  0.1875  0.2367
 4827SOL    HW120827   4.257   4.302   8.039  2.1783 -1.1930  0.4630
 4827SOL    HW220828   4.207   4.340   8.177  0.1319  1.0191 -0.8205
 4828SOL     OW20829   5.505   4.803   1.579  0.2118 -0.0855 -0.4237
 4828SOL    HW120830   5.588   4.757   1.589  0.3337 -0.1766 -1.7179
 4828SOL    HW220831   5.527   4.883   1.532 -0.3701  0.0819 -0.4170
 4829SOL     OW20832   6.957   6.132   3.641  0.0845 -0.0385  0.7423
 4829SOL    HW120833   7.010   6.125   3.721  0.8613  0.2762  0.2717
 4829SOL    HW220834   6.867   6.132   3.672  0.3181 -1.2401  1.5311
 4830SOL     OW20835   5.687   1.419   0.885 -0.4031 -0.2165  0.0730
 4830SOL    HW120836   5.716   1.403   0.975 -1.3990  1.4604  0.7329
 4830SOL    HW220837   5.593   1.399   0.886 -0.9658  2.1910  0.0959
 4831SOL     OW20838   5.697   3.818   7.238  0.0958 -0.7197 -0.1436
 4831SOL    HW120839   5.700   3.761   7.162  3.8224  0.7515 -1.3336
 4831SOL    HW220840   5.763   3.783   7.298  1.0261  1.1012 -0.0219
 4832SOL     OW20841   4.445   1.427   0.761  0.2375  0.3207 -0.1231
 4832SOL    HW120842   4.472   1.382   0.681 -0.0845  1.0141 -0.6325
 4832SOL    HW220843   4.418   1.514   0.732  1.5098  1.1079  0.9224
 4833SOL     OW20844   6.817   6.388   8.158 -0.0583 -0.5366 -0.1774
 4833SOL    HW120845   6.863   6.376   8.241  1.2067  1.3183 -0.5515
 4833SOL    HW220846   6.732   6.424   8.182  0.4527  0.3631  0.3094
 4834SOL     OW20847   8.376   5.791   8.164 -0.0806 -0.0359  0.0912
 4834SOL    HW120848   8.323   5.833   8.231 -0.1480  1.1698 -0.6898
 4834SOL    HW220849   8.432   5.729   8.213 -2.5895 -1.8512  0.8795
 4835SOL     OW20850   4.897   3.784   0.099  0.2894  0.2153 -0.4934
 4835SOL    HW120851   4.964   3.827   0.152  0.4898 -2.1418  1.3581
 4835SOL    HW220852   4.946   3.739   0.030  0.2303  1.4679 -1.3789
 4836SOL     OW20853   0.307   3.358   5.063 -0.2696 -0.1178  0.2107
 4836SOL    HW120854   0.367   3.285   5.048  1.0162  1.2371 -1.7072
 4836SOL    HW220855   0.258   3.366   4.982 -1.5805  0.1521  0.9997
 4837SOL     OW20856   1.057   0.278   5.505  0.0288 -0.1021 -0.1585
 4837SOL    HW120857   1.139   0.242   5.538  0.5184  0.2005 -0.9841
 4837SOL    HW220858   1.000   0.203   5.493 -0.0723 -0.2412  1.0895
 4838SOL     OW20859   3.055   8.193   2.541  0.1556 -0.1877 -0.1403
 4838SOL    HW120860   3.108   8.213   2.465  1.0752  0.2610  0.5934
 4838SOL    HW220861   3.056   8.097   2.547  1.8319 -0.1723  0.4765
 4839SOL     OW20862   4.395   4.044   2.262  0.0381 -0.5196 -0.2274
 4839SOL    HW120863   4.401   4.055   2.167 -0.3292  2.1317 -0.0117
 4839SOL    HW220864   4.300   4.039   2.279  0.1085 -1.2240  0.0116
 4840SOL     OW20865   5.621   2.483   2.863  0.3988 -0.0307 -0.7485
 4840SOL    HW120866   5.533   2.517   2.845 -0.6769 -0.8841  2.2542
 4840SOL    HW220867   5.670   2.501   2.783 -2.0479  1.9284 -1.9673
 4841SOL     OW20868   4.386   7.595   9.084 -0.1241  0.0967  0.0876
 4841SOL    HW120869   4.387   7.522   9.023  0.6392  0.3492 -0.2187
 4841SOL    HW220870   4.371   7.556   9.170  0.3626 -0.4192 -0.0652
 4842SOL     OW20871   1.938   6.041   9.019  0.3270 -0.3118  0.1750
 4842SOL    HW120872   1.942   6.049   8.923 -0.4617  1.6771  0.2786
 4842SOL    HW220873   1.960   5.949   9.035  1.7217 -0.3964 -1.8199
 4843SOL     OW20874   1.279   5.219   6.870  0.5317 -0.4692 -0.6115
 4843SOL    HW120875   1.248   5.163   6.941  0.0608  0.6210  0.0683
 4843SOL    HW220876   1.347   5.273   6.910  0.6045 -0.1813 -1.1159
 4844SOL     OW20877   2.915   5.586   8.462 -0.5937 -0.0742 -0.5543
 4844SOL    HW120878   2.836   5.531   8.465 -1.0786  0.6028 -0.5047
 4844SOL    HW220879   2.913   5.626   8.375  0.6934 -1.4453 -1.2566
 4845SOL     OW20880   7.973   2.374   3.507 -0.3923 -0.0408  0.5657
 4845SOL    HW120881   7.983   2.282   3.486 -1.1900 -0.3187  1.3445
 4845SOL    HW220882   8.007   2.420   3.431 -2.9430 -0.9873 -1.2731
 4846SOL     OW20883   6.303   4.238   3.160  0.0675 -0.1379 -0.1932
 4846SOL    HW120884   6.219   4.237   3.113 -0.2317 -0.5760  0.3277
 4846SOL    HW220885   6.305   4.323   3.203 -0.1093 -0.1164 -0.2243
 4847SOL     OW20886   4.769   4.941   7.895 -0.8487 -0.3805 -0.4458
 4847SOL    HW120887   4.802   4.931   7.984 -0.5754  1.0835 -0.3485
 4847SOL    HW220888   4.674   4.943   7.904 -0.8052  0.3904 -0.0993
 4848SOL     OW20889   0.848   0.980   2.867  0.0253  0.6825 -0.2208
 4848SOL    HW120890   0.813   1.066   2.888 -1.1468  0.8024 -2.3346
 4848SOL    HW220891   0.859   0.981   2.772  0.9795 -1.1592 -0.1875
 4849SOL     OW20892   2.885   7.755   0.516 -0.0256  0.1670 -0.1442
 4849SOL    HW120893   2.897   7.660   0.508  0.7381  0.1274  1.3296
 4849SOL    HW220894   2.824   7.776   0.445 -1.0676 -1.5873  0.1610
 4850SOL     OW20895   8.900   8.300   7.403 -0.0980  0.7938  0.4789
 4850SOL    HW120896   8.934   8.360   7.469  1.3559  1.4108 -0.7476
 4850SOL    HW220897   8.940   8.215   7.425 -0.7770  0.6522  1.2077
 4851SOL     OW20898   1.122   9.062   7.571 -0.3091  0.4834 -0.4223
 4851SOL    HW120899   1.214   9.039   7.584 -0.8704 -1.0713  1.1668
 4851SOL    HW220900   1.121   9.157   7.570  0.8198  0.8358  4.6063
 4852SOL     OW20901   1.615   0.185   3.495 -0.1206  0.0997  0.0632
 4852SOL    HW120902   1.593   0.252   3.431 -0.8647  1.1727  1.3887
 4852SOL    HW220903   1.538   0.179   3.552  1.2507  0.6704  2.0865
 4853SOL     OW20904   6.578   1.634   5.955  0.5260  0.5401 -0.0423
 4853SOL    HW120905   6.532   1.573   5.897 -0.4466  1.2844 -0.0765
 4853SOL    HW220906   6.520   1.643   6.031 -0.5452  3.2217 -1.0635
 4854SOL     OW20907   6.977   2.566   7.499  0.3480  0.0688 -0.3605
 4854SOL    HW120908   7.063   2.580   7.539  0.4001  0.6862 -0.6783
 4854SOL    HW220909   6.973   2.471   7.483  0.6008 -0.0973  0.4698
 4855SOL     OW20910   1.327   2.520   3.097 -0.3096  0.7470  0.3035
 4855SOL    HW120911   1.249   2.486   3.141 -0.3462 -1.3886 -1.2298
 4855SOL    HW220912   1.392   2.530   3.166 -0.1706 -3.0608  0.9127
 4856SOL     OW20913   4.444   4.430   6.964  0.4590 -0.5910  0.3767
 4856SOL    HW120914   4.409   4.401   6.880 -2.2259 -1.5867  1.7405
 4856SOL    HW220915   4.475   4.350   7.006 -3.9790 -1.3655  2.7854
 4857SOL     OW20916   7.676   1.379   7.931 -0.1698 -0.1196 -0.7013
 4857SOL    HW120917   7.611   1.443   7.900 -1.7058 -0.7040  1.0969
 4857SOL    HW220918   7.653   1.366   8.023  1.8271 -1.2381 -0.3208
 4858SOL     OW20919   8.436   8.469   8.883 -0.0869  0.4348  0.6630
 4858SOL    HW120920   8.474   8.537   8.938  2.8741 -0.2553 -0.3267
 4858SOL    HW220921   8.365   8.513   8.836  1.2592  2.6683  0.5663
 4859SOL     OW20922   3.373   4.535   3.848 -0.3264 -0.6925  0.0896
 4859SOL    HW120923   3.333   4.448   3.839  1.2725 -1.6718  1.7546
 4859SOL    HW220924   3.432   4.542   3.774 -4.6137  1.6013 -3.6250
 4860SOL     OW20925   8.464   9.008   6.958 -0.2201  0.0966 -0.0941
 4860SOL    HW120926   8.464   8.965   7.043 -1.7402 -1.3890 -0.7901
 4860SOL    HW220927   8.465   9.102   6.978  0.3050 -0.2265  1.5234
 4861SOL     OW20928   1.134   5.798   0.626 -0.2047 -0.1001 -0.1405
 4861SOL    HW120929   1.158   5.708   0.604 -0.4364 -0.0083 -0.8090
 4861SOL    HW220930   1.102   5.834   0.543 -2.3880 -0.1509  0.6109
 4862SOL     OW20931   6.513   7.540   1.008 -0.3190 -0.9298  0.6150
 4862SOL    HW120932   6.441   7.557   0.947 -2.0641 -0.9358  2.5856
 4862SOL    HW220933   6.520   7.619   1.061  1.9681 -0.4592 -0.2474
 4863SOL     OW20934   2.690   3.878   2.189 -0.6907 -0.6761  0.4360
 4863SOL    HW120935   2.621   3.945   2.190 -0.8767 -0.7815 -1.4215
 4863SOL    HW220936   2.665   3.820   2.118  1.5086 -0.5084 -0.5526
 4864SOL     OW20937   4.807   4.830   8.156 -0.4067  0.5831  0.6500
 4864SOL    HW120938   4.764   4.751   8.188  1.8842 -0.4983  1.1976
 4864SOL    HW220939   4.820   4.884   8.233 -0.7598  0.9075  0.4863
 4865SOL     OW20940   8.805   7.019   4.997  0.3194  0.1397  0.0625
 4865SOL    HW120941   8.809   6.925   5.011 -0.2539 -0.0659 -1.0497
 4865SOL    HW220942   8.889   7.040   4.955  0.1312 -0.0105 -0.3948
 4866SOL     OW20943   5.286   1.248   6.529 -0.0783 -1.0512  0.0466
 4866SOL    HW120944   5.252   1.217   6.445  0.0063 -0.0597 -0.3773
 4866SOL    HW220945   5.261   1.341   6.531  3.9126  0.2755 -1.0531
 4867SOL     OW20946   4.916   1.048   7.324  0.1489  0.2944  0.0989
 4867SOL    HW120947   4.902   0.956   7.300 -2.3332  0.7652 -0.5429
 4867SOL    HW220948   5.002   1.069   7.288  1.4193 -2.1203  1.4512
 4868SOL     OW20949   7.015   1.041   8.930 -0.2922  0.8675 -0.6371
 4868SOL    HW120950   7.033   0.974   8.864 -0.0621 -0.5968  0.8252
 4868SOL    HW220951   7.098   1.052   8.976 -0.9718  0.1715  0.8316
 4869SOL     OW20952   9.165   2.801   8.300  0.2502  0.0558  0.1332
 4869SOL    HW120953   9.200   2.756   8.224 -0.1917  1.1573 -0.7586
 4869SOL    HW220954   9.228   2.872   8.316  0.0159  0.2047  0.4004
 4870SOL     OW20955   0.942   8.993   5.236 -0.3079 -0.2375  0.2250
 4870SOL    HW120956   0.971   8.994   5.327 -1.4544  0.2234  0.6042
 4870SOL    HW220957   0.870   9.056   5.234  0.1305  0.2589 -1.1496
 4871SOL     OW20958   1.338   6.116   6.222 -0.5311  0.5183 -0.1058
 4871SOL    HW120959   1.288   6.186   6.264  0.2609  0.6812  0.5947
 4871SOL    HW220960   1.429   6.146   6.225 -0.2086 -0.4293  0.0137
 4872SOL     OW20961   8.683   0.210   5.099 -0.0529 -0.5624  0.8750
 4872SOL    HW120962   8.682   0.264   5.178  1.2633 -0.0310  0.5611
 4872SOL    HW220963   8.761   0.157   5.107 -1.6141 -2.9166  1.4345
 4873SOL     OW20964   2.155   4.599   4.251 -0.4842  0.0807 -0.0605
 4873SOL    HW120965   2.165   4.513   4.293 -1.5572 -0.7041 -1.3324
 4873SOL    HW220966   2.153   4.661   4.324 -0.1720 -1.0181  0.9131
 4874SOL     OW20967   0.882   3.183   6.370  0.3916 -0.0269  0.4637
 4874SOL    HW120968   0.793   3.208   6.394  0.7557  1.5182  0.3008
 4874SOL    HW220969   0.937   3.249   6.411  1.0922  2.9268 -4.3483
 4875SOL     OW20970   6.046   5.386   4.384 -0.0716  0.2307  0.1275
 4875SOL    HW120971   6.091   5.453   4.435 -1.1343 -0.3231  1.8685
 4875SOL    HW220972   5.955   5.416   4.379 -0.5875 -1.0824  1.0277
 4876SOL     OW20973   8.502   2.700   9.216 -0.6117 -0.1664  0.3452
 4876SOL    HW120974   8.493   2.654   9.133 -2.8391  1.7835 -0.6002
 4876SOL    HW220975   8.413   2.723   9.241 -0.1968 -1.7424  4.0122
 4877SOL     OW20976   5.154   0.453   0.219 -0.0902 -0.3402 -0.0028
 4877SOL    HW120977   5.208   0.529   0.199  1.0577 -1.1249  0.0519
 4877SOL    HW220978   5.186   0.384   0.161 -1.0959 -0.8012 -0.0296
 4878SOL     OW20979   2.092   8.088   0.119  1.1357  0.5855  0.3036
 4878SOL    HW120980   2.150   8.076   0.194  0.3637 -1.3060  0.6463
 4878SOL    HW220981   2.151   8.090   0.043  1.7067 -1.1084  0.6692
 4879SOL     OW20982   4.228   3.794   8.040 -0.4252 -0.6574  0.3256
 4879SOL    HW120983   4.185   3.864   8.090  1.8501 -0.6812  2.5121
 4879SOL    HW220984   4.301   3.838   7.997 -1.9846 -0.7711 -2.6656
 4880SOL     OW20985   4.768   0.364   2.307  0.2733  0.1684  0.2072
 4880SOL    HW120986   4.692   0.306   2.309 -0.3869  1.0256  0.6453
 4880SOL    HW220987   4.782   0.383   2.214 -0.7747  0.9066  0.1769
 4881SOL     OW20988   3.343   5.434   2.686  0.6014 -0.2821  0.6068
 4881SOL    HW120989   3.355   5.394   2.600 -1.8948  1.7490 -0.8543
 4881SOL    HW220990   3.258   5.402   2.716  0.7516  0.2032  1.5873
 4882SOL     OW20991   1.007   0.727   0.386  0.2288 -0.4971 -0.5623
 4882SOL    HW120992   1.059   0.741   0.465  0.8392 -0.0375 -1.0401
 4882SOL    HW220993   1.070   0.698   0.321  0.2031  1.7505 -1.6537
 4883SOL     OW20994   7.589   0.810   3.447  0.1535  0.0564  0.5333
 4883SOL    HW120995   7.624   0.897   3.426  0.0752  0.4395  1.9148
 4883SOL    HW220996   7.603   0.800   3.541 -0.2168 -1.2664  0.4675
 4884SOL     OW20997   7.699   1.471   4.043  0.2606  0.5583  0.4007
 4884SOL    HW120998   7.697   1.492   4.137 -0.6904  0.6804  0.3633
 4884SOL    HW220999   7.785   1.432   4.030  1.3179  2.5638  0.8754
 4885SOL     OW21000   4.924   0.510   5.079 -0.1578 -0.4154 -0.2509
 4885SOL    HW121001   4.886   0.594   5.105 -0.1513 -0.1456 -1.0810
 4885SOL    HW221002   4.851   0.460   5.043  0.0269 -0.3635 -0.7149
 4886SOL     OW21003   7.746   6.931   0.220 -0.0320 -0.2445 -0.2999
 4886SOL    HW121004   7.686   6.857   0.206  0.1678 -0.3829 -0.4213
 4886SOL    HW221005   7.804   6.902   0.291 -1.1152  0.4996  0.9396
 4887SOL     OW21006   1.055   5.933   7.845  0.0685 -0.0693 -0.1646
 4887SOL    HW121007   1.107   5.977   7.778 -1.0887 -0.0397 -1.0826
 4887SOL    HW221008   0.964   5.954   7.823 -0.3317  0.5204  1.8298
 4888SOL     OW21009   7.452   2.605   0.757 -0.2905 -0.0943 -0.4606
 4888SOL    HW121010   7.406   2.531   0.716 -0.4389  0.4401 -1.2853
 4888SOL    HW221011   7.392   2.679   0.748  1.1472  0.9048 -2.6266
 4889SOL     OW21012   8.166   5.147   1.459  0.5544 -0.2547 -0.4954
 4889SOL    HW121013   8.088   5.171   1.411  0.7633 -0.9862 -1.2301
 4889SOL    HW221014   8.185   5.222   1.516 -0.3190  0.1669 -0.7578
 4890SOL     OW21015   5.473   7.256   6.696  0.0105  0.0742  0.5980
 4890SOL    HW121016   5.430   7.307   6.626 -0.6010 -1.5695 -0.2743
 4890SOL    HW221017   5.460   7.165   6.670 -0.2404 -0.5907  2.8852
 4891SOL     OW21018   8.575   0.737   6.051 -0.7712  0.0345  0.2840
 4891SOL    HW121019   8.540   0.761   6.136  1.1053 -0.6311  1.2973
 4891SOL    HW221020   8.586   0.821   6.005  1.0874  0.7633  1.9064
 4892SOL     OW21021   7.003   0.323   0.219  0.2475 -0.3093 -1.0532
 4892SOL    HW121022   6.950   0.299   0.294  0.3828  2.0976 -0.1005
 4892SOL    HW221023   6.943   0.320   0.145  0.1660 -2.9259 -0.9741
 4893SOL     OW21024   8.030   1.169   3.336  1.1358 -0.5487 -0.3625
 4893SOL    HW121025   8.008   1.117   3.259  1.2822 -0.5903 -0.3780
 4893SOL    HW221026   8.095   1.116   3.383  0.3823 -0.9435  0.2695
 4894SOL     OW21027   6.912   2.629   1.074 -0.0935 -0.5798  0.3528
 4894SOL    HW121028   6.835   2.654   1.022 -0.9931  2.6147  2.8846
 4894SOL    HW221029   6.878   2.569   1.139  0.0618 -0.9887  0.0584
 4895SOL     OW21030   5.236   9.068   3.056  0.0939  0.5701  0.1393
 4895SOL    HW121031   5.188   9.087   2.976 -1.0906  3.3955  1.3772
 4895SOL    HW221032   5.205   8.982   3.084 -0.0403 -0.1108 -1.9851
 4896SOL     OW21033   0.111   6.649   4.948 -0.2504 -0.2757 -0.1310
 4896SOL    HW121034   0.062   6.582   4.996  0.6812 -0.5240  0.4987
 4896SOL    HW221035   0.190   6.664   5.000 -0.3640  1.2174 -0.3387
 4897SOL     OW21036   4.686   2.558   3.976 -0.1068  0.4977 -0.7014
 4897SOL    HW121037   4.704   2.480   3.922 -0.5555  0.3079 -0.5835
 4897SOL    HW221038   4.770   2.577   4.019 -0.3931 -0.9561  0.5926
 4898SOL     OW21039   8.601   4.894   5.175 -0.4781 -0.6273  0.0033
 4898SOL    HW121040   8.691   4.887   5.207 -0.4349  0.8747  0.3036
 4898SOL    HW221041   8.583   4.988   5.176 -1.1818 -0.6531 -2.4689
 4899SOL     OW21042   1.473   2.433   2.199  0.0924 -0.1241  0.5746
 4899SOL    HW121043   1.401   2.496   2.192  0.7357  0.4962 -0.8662
 4899SOL    HW221044   1.489   2.426   2.293  0.0425  1.9085  0.7839
 4900SOL     OW21045   0.909   2.329   8.258 -0.2654 -0.0296  0.2951
 4900SOL    HW121046   0.866   2.270   8.197  0.6338 -2.6516  2.0131
 4900SOL    HW221047   1.001   2.327   8.234 -0.2626  1.0554  0.1321
 4901SOL     OW21048   2.015   3.055   7.572 -0.5503  0.2153  0.1509
 4901SOL    HW121049   1.965   3.071   7.653  0.0785  2.1020  0.2274
 4901SOL    HW221050   2.104   3.037   7.602 -0.3104  0.9409 -0.0937
 4902SOL     OW21051   9.199   7.913   9.146  0.4016 -0.5948  0.0259
 4902SOL    HW121052   9.211   7.845   9.079  2.7930  0.7672 -1.0398
 4902SOL    HW221053   9.162   7.987   9.098  0.4684 -0.1827  0.6054
 4903SOL     OW21054   5.123   8.497   1.020 -0.1056  0.7164  0.0105
 4903SOL    HW121055   5.148   8.488   0.928  1.1286  1.6116  0.2385
 4903SOL    HW221056   5.197   8.540   1.062 -1.7143  2.8057  0.8961
 4904SOL     OW21057   0.388   2.547   6.503 -0.3084 -0.0595  0.1793
 4904SOL    HW121058   0.406   2.638   6.480  1.6496 -0.0885  1.3717
 4904SOL    HW221059   0.367   2.505   6.419 -0.1631  1.2418 -0.5412
 4905SOL     OW21060   4.010   8.512   2.648  0.6164  0.3846  0.1612
 4905SOL    HW121061   4.028   8.434   2.701 -0.8086 -1.5954 -2.0194
 4905SOL    HW221062   3.929   8.548   2.686 -0.0633 -0.6634 -0.2394
 4906SOL     OW21063   3.239   2.314   8.617  0.1085  0.0949 -0.1866
 4906SOL    HW121064   3.206   2.241   8.564  1.3840  1.5790 -3.2415
 4906SOL    HW221065   3.328   2.287   8.641 -0.1116 -0.1451  0.3831
 4907SOL     OW21066   3.727   4.226   1.320 -0.2543  0.1973  0.1452
 4907SOL    HW121067   3.802   4.254   1.267  0.0296 -1.1725 -0.2158
 4907SOL    HW221068   3.695   4.307   1.360 -0.0535  1.1903 -1.5611
 4908SOL     OW21069   3.056   0.389   7.628 -0.0958 -0.7991 -0.1967
 4908SOL    HW121070   2.996   0.452   7.586 -2.4056 -3.3300 -0.9659
 4908SOL    HW221071   3.131   0.385   7.568 -0.1447  0.7410 -0.4232
 4909SOL     OW21072   3.824   1.971   3.234  0.0516 -0.1655  0.1317
 4909SOL    HW121073   3.809   1.881   3.206 -0.5224 -0.4640  1.3147
 4909SOL    HW221074   3.883   1.963   3.309  1.0208  0.5535 -0.5327
 4910SOL     OW21075   9.197   4.267   5.852  0.4531 -0.7941 -0.2329
 4910SOL    HW121076   9.251   4.280   5.773 -0.2541  0.4034 -0.5363
 4910SOL    HW221077   9.226   4.335   5.912 -0.1027 -0.7108 -0.0611
 4911SOL     OW21078   5.769   0.893   8.394 -0.3443  0.3384 -0.4120
 4911SOL    HW121079   5.697   0.956   8.391 -1.9222 -1.3685 -0.2870
 4911SOL    HW221080   5.833   0.931   8.454 -2.3910  0.6924  1.6597
 4912SOL     OW21081   0.913   5.065   1.996  0.2742 -0.2292  0.2150
 4912SOL    HW121082   0.894   5.042   1.905 -0.6911  1.8775 -0.1621
 4912SOL    HW221083   0.995   5.113   1.991 -0.6021  1.3252  0.1909
 4913SOL     OW21084   7.897   4.653   7.711 -0.2599  0.3296 -0.2439
 4913SOL    HW121085   7.871   4.736   7.750 -1.8809 -0.7399  1.1118
 4913SOL    HW221086   7.815   4.615   7.678  0.1036 -1.5301  0.8402
 4914SOL     OW21087   7.420   5.991   3.471  0.8743 -0.3016  0.1539
 4914SOL    HW121088   7.360   6.014   3.542 -0.6223  1.6001 -1.6023
 4914SOL    HW221089   7.502   6.036   3.493  1.0367 -1.1815  1.4971
 4915SOL     OW21090   0.882   4.007   4.036 -0.3954 -0.2503  0.2898
 4915SOL    HW121091   0.899   3.917   4.064 -1.6132 -0.0353  1.8825
 4915SOL    HW221092   0.956   4.058   4.069 -1.0605 -0.2530  1.8419
 4916SOL     OW21093   5.124   7.717   5.511  0.3218  0.0924 -0.1387
 4916SOL    HW121094   5.102   7.782   5.578  0.1022 -1.3369  1.2082
 4916SOL    HW221095   5.219   7.712   5.513  0.2902 -3.3057  3.5174
 4917SOL     OW21096   7.766   1.556   6.671 -0.1961 -0.3522  0.4457
 4917SOL    HW121097   7.714   1.512   6.604  0.5889 -1.2218  0.3938
 4917SOL    HW221098   7.854   1.563   6.632  0.1228 -0.3396  1.1545
 4918SOL     OW21099   9.131   8.576   1.226  0.6602  0.5943 -0.4704
 4918SOL    HW121100   9.045   8.598   1.191  1.3732  1.8500 -1.5442
 4918SOL    HW221101   9.120   8.490   1.266 -1.0164  0.6127 -0.8209
 4919SOL     OW21102   5.165   3.018   1.464  0.2234  0.0968 -0.6263
 4919SOL    HW121103   5.150   3.091   1.525 -0.3882 -0.1986 -0.4227
 4919SOL    HW221104   5.089   3.019   1.406 -0.0685 -0.7383 -0.2642
 4920SOL     OW21105   5.955   6.970   9.103  0.0143 -0.1002  0.2720
 4920SOL    HW121106   6.045   6.971   9.070 -0.2725  0.8528 -0.5379
 4920SOL    HW221107   5.943   6.882   9.137  0.5338 -0.9721 -1.6511
 4921SOL     OW21108   2.257   4.247   2.218 -0.4073  0.1654  0.0540
 4921SOL    HW121109   2.250   4.330   2.170  0.3056 -0.2327 -0.7714
 4921SOL    HW221110   2.167   4.216   2.227 -0.7099  1.1690  0.6394
 4922SOL     OW21111   8.587   3.548   8.028 -0.0217 -0.1666  0.0351
 4922SOL    HW121112   8.650   3.586   8.089  0.5633  0.5808 -1.0073
 4922SOL    HW221113   8.549   3.474   8.076  0.5715  0.2672  1.2180
 4923SOL     OW21114   3.143   6.626   8.743  0.1623 -0.7817 -0.6361
 4923SOL    HW121115   3.156   6.718   8.717 -0.5954 -0.3436  0.4713
 4923SOL    HW221116   3.169   6.576   8.665  2.0065  0.2845 -0.7704
 4924SOL     OW21117   1.669   3.369   3.633  0.2795 -0.3919  0.2864
 4924SOL    HW121118   1.702   3.459   3.638 -1.3312  0.1783  1.6818
 4924SOL    HW221119   1.708   3.325   3.708  1.7052 -1.1461 -0.8385
 4925SOL     OW21120   3.112   4.174   2.072  0.0184  0.0981  0.1095
 4925SOL    HW121121   3.040   4.132   2.026 -0.4125 -0.2241  1.0460
 4925SOL    HW221122   3.070   4.242   2.124  0.4376  0.1632  0.3668
 4926SOL     OW21123   6.987   4.345   4.360 -0.0508  0.2919 -0.5762
 4926SOL    HW121124   7.060   4.407   4.353 -0.0828  0.3975  0.0330
 4926SOL    HW221125   6.911   4.400   4.379  0.2141 -0.0554  1.7558
 4927SOL     OW21126   8.994   1.283   2.373  0.2742 -0.3339 -0.4022
 4927SOL    HW121127   8.940   1.344   2.422  1.7629  0.8141 -0.1269
 4927SOL    HW221128   9.081   1.291   2.411  0.5732 -2.5094 -0.4922
 4928SOL     OW21129   0.106   0.947   5.658 -0.0426  0.3762  0.3616
 4928SOL    HW121130   0.120   1.029   5.705 -1.8190  0.0665  1.5667
 4928SOL    HW221131   0.137   0.879   5.718  0.6891  0.1148 -0.2991
 4929SOL     OW21132   0.268   2.101   1.190  0.3203  0.4065 -0.0251
 4929SOL    HW121133   0.249   2.047   1.113  1.1419 -1.9293  1.3211
 4929SOL    HW221134   0.356   2.075   1.218  0.0125  1.0994  1.7651
 4930SOL     OW21135   3.057   4.633   1.876  0.6764 -0.1651 -0.4532
 4930SOL    HW121136   3.130   4.626   1.938  1.0937 -2.2963 -1.1070
 4930SOL    HW221137   3.096   4.617   1.790  0.0689  2.5378 -1.3501
 4931SOL     OW21138   8.854   3.372   7.575  0.8190 -0.4784 -0.9715
 4931SOL    HW121139   8.846   3.368   7.670 -1.2944  1.5401 -0.9903
 4931SOL    HW221140   8.860   3.280   7.548 -0.1975 -1.1801  0.9845
 4932SOL     OW21141   1.665   2.916   0.669 -0.0410  0.4576  0.0408
 4932SOL    HW121142   1.740   2.884   0.719  0.7709  0.8093 -0.9345
 4932SOL    HW221143   1.673   2.874   0.583 -1.1695  0.2093  0.0391
 4933SOL     OW21144   0.300   6.641   1.118  0.1753  0.1243 -0.2660
 4933SOL    HW121145   0.383   6.671   1.081 -0.3338  1.7655 -0.1868
 4933SOL    HW221146   0.256   6.722   1.145 -0.7769 -0.8150  1.1329
 4934SOL     OW21147   6.067   4.701   1.427 -0.4781  0.1542 -0.4053
 4934SOL    HW121148   6.058   4.771   1.364 -0.7244 -0.1447 -0.7049
 4934SOL    HW221149   6.100   4.627   1.376  0.0855  0.1385 -0.0350
 4935SOL     OW21150   1.044   6.235   8.171 -0.0226 -0.0417 -0.4368
 4935SOL    HW121151   0.999   6.286   8.238 -0.3356  0.2643 -0.8748
 4935SOL    HW221152   0.974   6.200   8.116  0.2469  0.1570 -0.9211
 4936SOL     OW21153   1.104   2.912   8.889  0.4520 -0.6754 -0.6667
 4936SOL    HW121154   1.036   2.853   8.921  1.7445 -1.9979 -0.2780
 4936SOL    HW221155   1.082   2.926   8.797  1.1199 -3.3242 -1.3216
 4937SOL     OW21156   7.817   3.587   3.109 -0.3251 -0.0052 -0.2487
 4937SOL    HW121157   7.766   3.512   3.141  0.4807 -2.1259 -3.5364
 4937SOL    HW221158   7.753   3.641   3.063 -0.6011  0.5172  0.7132
 4938SOL     OW21159   1.241   0.258   4.555 -0.3465 -0.2969  0.2288
 4938SOL    HW121160   1.239   0.315   4.631  0.0213  3.1537 -2.1139
 4938SOL    HW221161   1.283   0.177   4.586 -3.0737 -0.4481  4.3354
 4939SOL     OW21162   1.015   1.166   3.413 -0.0754  0.1347  0.1561
 4939SOL    HW121163   0.965   1.247   3.418  2.4594  1.8917 -0.7958
 4939SOL    HW221164   1.061   1.161   3.496  0.9816  0.5640 -0.3854
 4940SOL     OW21165   8.115   3.866   7.768  0.0924 -0.1584  0.2411
 4940SOL    HW121166   8.169   3.879   7.690  0.2391  1.1228  0.5376
 4940SOL    HW221167   8.050   3.801   7.741 -1.7193  2.3411 -1.9564
 4941SOL     OW21168   7.130   0.346   2.465  0.0602  0.1052  0.2314
 4941SOL    HW121169   7.037   0.355   2.485 -0.1722 -0.8291 -0.3891
 4941SOL    HW221170   7.166   0.296   2.538 -0.4070 -1.5972 -0.6507
 4942SOL     OW21171   1.816   4.978   2.365  0.5132 -0.1447 -0.3398
 4942SOL    HW121172   1.815   4.933   2.450  1.2192 -0.3058 -0.4071
 4942SOL    HW221173   1.777   4.915   2.304  1.5002 -0.6870 -0.4344
 4943SOL     OW21174   6.829   2.119   2.131 -0.3300  0.1844  0.2318
 4943SOL    HW121175   6.751   2.067   2.150 -0.6875  0.5985 -0.0889
 4943SOL    HW221176   6.889   2.099   2.203 -0.7490 -0.1015  0.5065
 4944SOL     OW21177   1.528   7.994   6.668 -0.0287 -0.4866 -0.2150
 4944SOL    HW121178   1.445   7.963   6.634  0.4830 -1.0186 -1.0119
 4944SOL    HW221179   1.523   7.980   6.763 -1.4577  0.9671 -0.0339
 4945SOL     OW21180   8.784   8.731   3.232 -0.0970  0.0446 -0.3634
 4945SOL    HW121181   8.787   8.759   3.323  0.0013  1.9322 -0.9075
 4945SOL    HW221182   8.875   8.707   3.211  0.2618  1.4585 -0.4892
 4946SOL     OW21183   5.064   2.829   2.766  0.0152 -0.4142  0.2226
 4946SOL    HW121184   5.023   2.746   2.791  0.6159 -0.7755  0.0230
 4946SOL    HW221185   5.043   2.839   2.673 -0.1432 -0.2895  0.2714
 4947SOL     OW21186   8.795   3.887   8.346  0.0381 -0.1868  0.4405
 4947SOL    HW121187   8.803   3.900   8.440  0.8404 -0.0610  0.3684
 4947SOL    HW221188   8.723   3.944   8.319  0.6620  0.7978  0.7927
 4948SOL     OW21189   1.430   5.333   4.016  0.3676  0.3802  0.3407
 4948SOL    HW121190   1.490   5.258   4.021 -1.1517 -0.8245  1.2007
 4948SOL    HW221191   1.426   5.366   4.106  0.2270  0.8666  0.1594
 4949SOL     OW21192   3.343   1.245   3.832 -0.2868  0.1627  0.5847
 4949SOL    HW121193   3.306   1.240   3.920  1.2499  0.6664  1.2883
 4949SOL    HW221194   3.300   1.320   3.792 -0.8521  0.0518  0.9738
 4950SOL     OW21195   5.331   3.679   1.674  0.1542  0.0011 -0.1797
 4950SOL    HW121196   5.268   3.697   1.604  0.1562 -1.3601 -0.5677
 4950SOL    HW221197   5.283   3.698   1.754 -0.2818  0.3617 -0.5183
 4951SOL     OW21198   3.240   0.146   5.025  0.4212  0.0146 -0.4343
 4951SOL    HW121199   3.241   0.087   5.100  0.2578 -0.4750 -0.8048
 4951SOL    HW221200   3.294   0.102   4.959 -0.4638 -0.1814 -1.0486
 4952SOL     OW21201   1.648   2.984   8.074  0.4739  0.2427  0.0307
 4952SOL    HW121202   1.738   2.980   8.043  0.9324  0.5209  1.2496
 4952SOL    HW221203   1.610   3.058   8.027  0.1994 -1.1355 -2.0734
 4953SOL     OW21204   6.306   1.193   9.171 -0.4394  0.3388  0.4571
 4953SOL    HW121205   6.401   1.198   9.158 -0.1153 -4.0936 -0.6067
 4953SOL    HW221206   6.295   1.138   9.249 -2.0248 -0.9166 -0.5756
 4954SOL     OW21207   8.505   6.803   7.375  0.2738 -0.1392  0.0360
 4954SOL    HW121208   8.510   6.892   7.411  1.8536 -0.4880  0.7210
 4954SOL    HW221209   8.583   6.795   7.320  1.6034 -1.9621  2.0349
 4955SOL     OW21210   0.765   5.765   3.726  0.0998  0.0132  0.5874
 4955SOL    HW121211   0.795   5.698   3.665 -0.0617 -1.4931  2.0636
 4955SOL    HW221212   0.671   5.748   3.735 -0.0439  0.7845  0.5856
 4956SOL     OW21213   0.895   6.126   0.280 -0.0203  0.0395  0.6699
 4956SOL    HW121214   0.873   6.209   0.323  3.0966  1.3653  0.0211
 4956SOL    HW221215   0.835   6.122   0.205  0.4916  2.3609  0.0457
 4957SOL     OW21216   0.387   2.777   0.222 -0.1330 -0.9580 -0.1861
 4957SOL    HW121217   0.309   2.726   0.200 -0.3927 -0.4451 -0.4820
 4957SOL    HW221218   0.378   2.857   0.171  1.2243 -1.4288 -1.2433
 4958SOL     OW21219   6.665   5.479   6.532 -0.0095  0.4553 -0.1092
 4958SOL    HW121220   6.738   5.459   6.591 -0.9114 -0.8463  0.6195
 4958SOL    HW221221   6.600   5.411   6.550 -1.1936  1.2684 -1.1166
 4959SOL     OW21222   8.650   5.822   7.743  0.3401 -0.8669 -0.6330
 4959SOL    HW121223   8.576   5.874   7.712  0.5134  0.5153  1.0842
 4959SOL    HW221224   8.635   5.813   7.837  3.4939  1.5637  0.2616
 4960SOL     OW21225   1.522   3.736   8.978  0.5385  0.3351  0.3430
 4960SOL    HW121226   1.490   3.809   8.924 -0.5164 -1.9146 -2.2933
 4960SOL    HW221227   1.448   3.712   9.033 -0.1239 -0.5678 -0.9079
 4961SOL     OW21228   4.354   1.088   2.009  0.1849  0.1794  0.4520
 4961SOL    HW121229   4.351   1.111   2.102 -3.3129  1.3686  0.1941
 4961SOL    HW221230   4.310   1.003   2.003 -0.7893  0.6975 -0.1756
 4962SOL     OW21231   3.888   2.926   8.130  0.1185  0.5315 -0.2816
 4962SOL    HW121232   3.903   3.019   8.116 -0.2894  0.2783 -2.8188
 4962SOL    HW221233   3.803   2.908   8.089 -1.0046 -0.5739  2.2422
 4963SOL     OW21234   6.225   1.409   3.748  0.5196 -0.5576 -0.3262
 4963SOL    HW121235   6.222   1.414   3.652 -0.1894  1.2800 -0.2354
 4963SOL    HW221236   6.307   1.452   3.771 -0.0726  0.4510 -0.0513
 4964SOL     OW21237   5.837   6.218   4.431  0.2981 -0.3779  0.1558
 4964SOL    HW121238   5.895   6.208   4.355 -0.0632  1.9378 -0.5191
 4964SOL    HW221239   5.760   6.165   4.410  0.2278  0.1878 -1.1179
 4965SOL     OW21240   4.010   1.846   4.662  0.7898  0.8672  0.0354
 4965SOL    HW121241   4.088   1.837   4.716  0.2447  0.0131  0.7100
 4965SOL    HW221242   4.026   1.790   4.586  0.3548 -0.2293  0.7462
 4966SOL     OW21243   5.713   0.346   8.903 -0.0233  0.2336 -0.1271
 4966SOL    HW121244   5.797   0.391   8.901  0.3973 -0.4743  0.7474
 4966SOL    HW221245   5.734   0.257   8.933 -1.0233 -0.0951 -0.3519
 4967SOL     OW21246   7.823   5.634   7.900 -0.6047  0.0455 -0.0731
 4967SOL    HW121247   7.847   5.727   7.901 -2.3558  0.5187  0.5187
 4967SOL    HW221248   7.880   5.596   7.833  1.5380  1.1354  1.0410
 4968SOL     OW21249   8.048   8.698   6.034 -0.5408  0.3052 -0.3509
 4968SOL    HW121250   7.973   8.659   5.988  0.0825  0.6713 -1.7201
 4968SOL    HW221251   8.031   8.792   6.033 -0.5175  0.3203  0.1888
 4969SOL     OW21252   0.341   7.279   0.323 -0.0498 -0.3794  0.1514
 4969SOL    HW121253   0.333   7.183   0.319  0.1704 -0.3526 -1.1196
 4969SOL    HW221254   0.252   7.310   0.340 -0.1877 -0.7828  0.1698
 4970SOL     OW21255   3.121   0.842   7.669  0.0003 -0.4792  0.1042
 4970SOL    HW121256   3.194   0.799   7.624 -0.5052 -1.3071  0.0581
 4970SOL    HW221257   3.066   0.770   7.701 -0.8018  0.1299  0.1377
 4971SOL     OW21258   2.476   0.626   4.362 -0.4463  0.4705  0.3064
 4971SOL    HW121259   2.392   0.618   4.406 -0.2897 -0.1321  0.5132
 4971SOL    HW221260   2.513   0.538   4.366 -0.3740  0.4316 -0.9220
 4972SOL     OW21261   0.285   3.189   5.474  0.0434 -0.2082  0.3391
 4972SOL    HW121262   0.368   3.197   5.427  0.6553  0.3143  1.4817
 4972SOL    HW221263   0.235   3.125   5.423  1.6891 -1.5928  0.3856
 4973SOL     OW21264   8.970   2.558   4.544 -0.5128 -0.6092  0.1367
 4973SOL    HW121265   9.053   2.526   4.507 -0.8581 -1.6689  0.2331
 4973SOL    HW221266   8.903   2.523   4.486 -0.8587  1.4033 -0.7459
 4974SOL     OW21267   5.420   0.518   1.351  0.1579  0.1113  0.2881
 4974SOL    HW121268   5.329   0.544   1.339 -0.6891 -2.7583 -0.4198
 4974SOL    HW221269   5.447   0.489   1.263  1.8003  1.0068  0.4730
 4975SOL     OW21270   1.584   0.469   3.821  0.0004 -0.0047  0.6300
 4975SOL    HW121271   1.554   0.423   3.900  0.2676  1.0513  1.3720
 4975SOL    HW221272   1.658   0.417   3.790  1.7062  0.9883  2.7011
 4976SOL     OW21273   4.597   4.306   0.420  0.1883  0.1615 -0.0094
 4976SOL    HW121274   4.692   4.309   0.416  0.1652  1.4083  0.0628
 4976SOL    HW221275   4.575   4.331   0.510 -0.2097 -0.3025  0.0314
 4977SOL     OW21276   1.689   1.578   7.413  1.1417 -0.4339 -0.4112
 4977SOL    HW121277   1.755   1.625   7.362  1.8989 -0.1987  0.7631
 4977SOL    HW221278   1.738   1.519   7.469  0.4374  0.3227  1.0740
 4978SOL     OW21279   5.688   8.518   7.287  0.0510 -0.6849  0.0694
 4978SOL    HW121280   5.621   8.492   7.350  0.3353  1.2003  1.2720
 4978SOL    HW221281   5.771   8.501   7.333  0.2834 -0.1134 -0.1269
 4979SOL     OW21282   5.558   1.312   2.494 -0.1058  0.4718 -1.0121
 4979SOL    HW121283   5.533   1.325   2.402 -0.1858  1.0562 -0.9140
 4979SOL    HW221284   5.488   1.355   2.544  1.9024  3.8155 -0.7636
 4980SOL     OW21285   7.659   1.090   0.123  0.8884 -0.0941 -0.0129
 4980SOL    HW121286   7.599   1.142   0.177  1.8768 -0.2798  1.3232
 4980SOL    HW221287   7.612   1.007   0.109  1.0908 -0.5162  1.6272
 4981SOL     OW21288   7.766   3.647   7.865  0.2570 -0.7589  0.2707
 4981SOL    HW121289   7.720   3.693   7.795 -1.2723 -3.0572 -0.3648
 4981SOL    HW221290   7.859   3.652   7.841  0.4237  3.1577  1.0676
 4982SOL     OW21291   7.598   8.696   0.291  0.5637  0.2480 -0.3991
 4982SOL    HW121292   7.610   8.743   0.373 -0.1912 -0.0799 -0.0964
 4982SOL    HW221293   7.522   8.738   0.250 -0.0343 -0.6068 -0.1898
 4983SOL     OW21294   2.394   2.640   5.470 -0.0380 -0.9340 -0.2995
 4983SOL    HW121295   2.489   2.647   5.461  0.0234  1.0792  1.2252
 4983SOL    HW221296   2.381   2.587   5.549 -0.2681 -2.7667 -1.5045
 4984SOL     OW21297   5.765   5.644   7.355  0.1173 -0.0599  0.0720
 4984SOL    HW121298   5.701   5.657   7.424  0.5614 -1.0143  0.6842
 4984SOL    HW221299   5.716   5.603   7.284  0.1744 -1.5465  0.8440
 4985SOL     OW21300   1.223   2.264   5.532  0.2042 -0.3847 -0.2108
 4985SOL    HW121301   1.298   2.322   5.547 -0.0375 -0.2535  0.4943
 4985SOL    HW221302   1.173   2.267   5.614  0.1198 -1.4833 -0.2152
 4986SOL     OW21303   5.022   5.110   7.424  0.2080 -0.6864  0.5401
 4986SOL    HW121304   4.998   5.202   7.412  0.0004 -0.8653 -0.5258
 4986SOL    HW221305   5.046   5.103   7.516  0.3032  0.4546  0.6157
 4987SOL     OW21306   6.702   6.355   0.779  0.0102 -0.0483 -0.4750
 4987SOL    HW121307   6.774   6.411   0.809 -0.5610 -0.7584  2.6245
 4987SOL    HW221308   6.745   6.275   0.749  0.6061 -0.0480  0.3300
 4988SOL     OW21309   8.018   0.866   9.152 -0.0238 -0.8653  0.0363
 4988SOL    HW121310   7.949   0.865   9.085 -1.6304  1.8451  1.4763
 4988SOL    HW221311   8.095   0.900   9.105 -1.0958  0.9251 -0.5452
 4989SOL     OW21312   3.858   7.558   2.140 -0.3684 -0.2425  0.0019
 4989SOL    HW121313   3.830   7.585   2.227  1.2920  0.2881  0.3967
 4989SOL    HW221314   3.877   7.640   2.094  2.2263 -0.5660  0.3576
 4990SOL     OW21315   7.042   2.132   2.880 -0.2401  0.3621 -0.4826
 4990SOL    HW121316   7.115   2.082   2.842  0.0590  0.4688 -0.0602
 4990SOL    HW221317   6.983   2.064   2.913  0.0438  0.2773 -0.1359
 4991SOL     OW21318   9.051   8.189   7.149  0.1728  0.0490  0.1631
 4991SOL    HW121319   9.063   8.221   7.239  0.3974  0.0988  0.1156
 4991SOL    HW221320   9.088   8.101   7.150  1.7994  0.7009 -0.3227
 4992SOL     OW21321   3.411   1.641   3.639 -0.0424  0.0010 -0.0744
 4992SOL    HW121322   3.468   1.678   3.572  0.8927  0.7223  1.0731
 4992SOL    HW221323   3.364   1.717   3.674 -0.1390 -0.2882  0.4292
 4993SOL     OW21324   0.610   1.100   7.157  0.9516  0.6292 -0.5575
 4993SOL    HW121325   0.589   1.160   7.228  1.5129  2.1222 -1.6160
 4993SOL    HW221326   0.533   1.044   7.149  0.6646  0.7960  0.8449
 4994SOL     OW21327   3.589   8.428   0.426 -0.0258 -0.5537 -0.0492
 4994SOL    HW121328   3.560   8.486   0.496  0.4660  0.1444 -0.4148
 4994SOL    HW221329   3.643   8.362   0.469  0.9406  0.3370  0.1261
 4995SOL     OW21330   2.977   2.833   0.454 -1.1290 -0.6108  0.4288
 4995SOL    HW121331   2.902   2.892   0.447  0.0641  0.8767 -0.3144
 4995SOL    HW221332   2.947   2.751   0.414 -1.3457  0.9796 -3.0374
 4996SOL     OW21333   1.488   4.702   5.258 -0.5665 -0.8637  0.0268
 4996SOL    HW121334   1.497   4.627   5.317 -0.4972 -0.0163  1.1227
 4996SOL    HW221335   1.442   4.768   5.310 -0.8112 -0.2199 -0.9889
 4997SOL     OW21336   8.198   1.824   4.805 -0.2168  0.4803 -0.1186
 4997SOL    HW121337   8.239   1.882   4.740  1.3811 -2.4290 -1.9213
 4997SOL    HW221338   8.114   1.800   4.766  0.0620 -0.0616 -0.3889
 4998SOL     OW21339   2.869   1.245   4.076  0.6141  0.0458 -0.2053
 4998SOL    HW121340   2.891   1.154   4.060  1.7030 -0.0102  1.4353
 4998SOL    HW221341   2.941   1.295   4.037  0.9411  0.1141  0.4811
 4999SOL     OW21342   9.021   2.457   2.056 -0.2245 -0.2143  0.3340
 4999SOL    HW121343   9.080   2.458   2.131  0.5192 -0.1325 -0.2298
 4999SOL    HW221344   9.029   2.369   2.020  0.2586  0.0637 -0.2680
 5000SOL     OW21345   4.867   8.635   4.719  0.3961  0.5235 -0.5785
 5000SOL    HW121346   4.822   8.715   4.747  1.4218  0.4892  1.3193
 5000SOL    HW221347   4.821   8.564   4.764  0.9397  0.2834 -0.3843
 5001SOL     OW21348   8.633   7.725   6.266 -0.3345 -0.1704  0.0440
 5001SOL    HW121349   8.711   7.776   6.242 -1.1549  1.5291  0.7759
 5001SOL    HW221350   8.604   7.765   6.348 -1.2242 -1.6489  0.4716
 5002SOL     OW21351   2.780   4.474   1.159 -0.0837 -0.0866 -0.1724
 5002SOL    HW121352   2.741   4.393   1.190  0.6272 -0.0229  0.9415
 5002SOL    HW221353   2.723   4.543   1.193  0.4727 -0.0376  0.7137
 5003SOL     OW21354   7.059   1.066   8.569  0.4505  0.2436  0.0716
 5003SOL    HW121355   7.150   1.051   8.593  0.1020 -2.5127 -0.0774
 5003SOL    HW221356   7.053   1.040   8.477 -0.2168  1.8185 -0.3719
 5004SOL     OW21357   3.795   2.226   8.156  0.0309  0.2047  0.1482
 5004SOL    HW121358   3.716   2.172   8.158  1.3210 -1.8908 -1.4501
 5004SOL    HW221359   3.791   2.271   8.071  0.3256  0.4791  0.2795
 5005SOL     OW21360   2.232   7.294   6.144 -0.3496  0.8136 -0.2564
 5005SOL    HW121361   2.154   7.245   6.118 -0.6563  1.2616 -0.2071
 5005SOL    HW221362   2.260   7.254   6.226 -0.8990  1.0406  0.0500
 5006SOL     OW21363   1.381   8.842   7.388  0.1008  0.4125  0.1452
 5006SOL    HW121364   1.377   8.799   7.303 -0.0162  0.7367 -0.0151
 5006SOL    HW221365   1.389   8.936   7.367 -0.9961  0.5975  0.4852
 5007SOL     OW21366   8.353   0.552   7.410  0.3516 -0.0509  0.0857
 5007SOL    HW121367   8.303   0.554   7.328  1.5040  2.1961 -0.6524
 5007SOL    HW221368   8.443   0.573   7.385  0.6611  1.1602  1.9360
 5008SOL     OW21369   6.564   2.239   4.521  0.0796  0.0788  0.0226
 5008SOL    HW121370   6.624   2.168   4.501  0.5463 -0.1028  1.8600
 5008SOL    HW221371   6.490   2.197   4.564  0.7415  0.7080  1.9153
 5009SOL     OW21372   7.717   7.149   6.453 -0.1741  0.0752  0.3532
 5009SOL    HW121373   7.683   7.236   6.475 -0.4486  0.1849 -0.4492
 5009SOL    HW221374   7.748   7.158   6.363  0.0202 -0.5961  0.3487
 5010SOL     OW21375   6.008   5.178   8.186  0.3794 -0.2844  0.5684
 5010SOL    HW121376   6.054   5.107   8.231  0.9709  0.0047  0.4353
 5010SOL    HW221377   5.975   5.138   8.106  0.9847 -0.3429  0.3387
 5011SOL     OW21378   7.030   9.224   2.987 -0.2043 -0.2444  0.2344
 5011SOL    HW121379   6.971   9.245   2.913 -1.6240 -2.9813  0.4739
 5011SOL    HW221380   7.057   9.310   3.020 -0.3119  1.0970 -2.8129
 5012SOL     OW21381   0.458   0.840   1.571 -0.3814 -0.0807  0.0844
 5012SOL    HW121382   0.377   0.793   1.550 -1.0646  1.9581 -2.3446
 5012SOL    HW221383   0.526   0.794   1.520 -0.9588  1.1285 -1.8894
 5013SOL     OW21384   4.553   8.492   2.100  0.2742  0.0225 -0.0623
 5013SOL    HW121385   4.598   8.411   2.074  1.1020  1.2505 -2.7569
 5013SOL    HW221386   4.622   8.546   2.139  0.2238  0.3317 -0.4081
 5014SOL     OW21387   8.499   3.817   5.918  0.2708  0.6718  0.4918
 5014SOL    HW121388   8.557   3.868   5.862  0.4921  0.5594  0.6189
 5014SOL    HW221389   8.557   3.776   5.983 -0.0543  1.3121  1.2003
 5015SOL     OW21390   3.605   8.798   7.810 -0.1087  0.6661  0.5160
 5015SOL    HW121391   3.653   8.751   7.878 -2.3066 -1.9650  0.4123
 5015SOL    HW221392   3.652   8.881   7.800  1.8295  0.0365  3.3396
 5016SOL     OW21393   0.395   4.741   5.668  0.1277  0.2423  0.0564
 5016SOL    HW121394   0.410   4.664   5.614  2.1804  0.5508  0.1123
 5016SOL    HW221395   0.351   4.707   5.746  0.8187 -0.8563 -0.0043
 5017SOL     OW21396   0.813   2.503   0.467 -0.0831 -0.0042 -0.0612
 5017SOL    HW121397   0.886   2.508   0.528 -0.3688  0.5781  0.2354
 5017SOL    HW221398   0.791   2.594   0.448 -0.7784 -0.1778 -0.1008
 5018SOL     OW21399   6.642   6.699   7.787 -0.1951 -0.3525 -0.5166
 5018SOL    HW121400   6.713   6.760   7.804 -1.5374  0.9803  0.5068
 5018SOL    HW221401   6.617   6.715   7.696 -0.2054  0.2692 -0.4049
 5019SOL     OW21402   3.558   8.296   4.078 -0.1670  0.3345 -0.3316
 5019SOL    HW121403   3.535   8.231   4.144  2.3034  0.8632  1.1822
 5019SOL    HW221404   3.649   8.275   4.054 -0.7515  0.5551 -3.1646
 5020SOL     OW21405   5.925   0.647   2.504 -0.7525  0.6825  0.0362
 5020SOL    HW121406   5.948   0.637   2.412  1.8232 -1.1941  0.7701
 5020SOL    HW221407   5.962   0.731   2.530 -0.7946  0.8476 -0.4298
 5021SOL     OW21408   6.490   0.782   1.261 -0.3349 -0.4655  0.0199
 5021SOL    HW121409   6.422   0.826   1.311  1.1407  1.5266  0.4145
 5021SOL    HW221410   6.447   0.752   1.182 -1.8726 -0.1932  0.7251
 5022SOL     OW21411   3.204   5.647   8.149 -0.1408 -0.0438 -0.1353
 5022SOL    HW121412   3.194   5.740   8.168  0.5880  0.0157 -0.0001
 5022SOL    HW221413   3.296   5.628   8.172 -0.8255 -1.2585  1.9226
 5023SOL     OW21414   4.804   7.718   7.982 -0.3988  0.2903  0.0594
 5023SOL    HW121415   4.811   7.707   7.888  0.4043  0.7446  0.0568
 5023SOL    HW221416   4.712   7.740   7.997 -0.6952 -0.4897 -0.5304
 5024SOL     OW21417   8.411   2.261   0.495 -0.8546  0.0154 -0.6340
 5024SOL    HW121418   8.488   2.207   0.511  0.4568  2.2084  1.1366
 5024SOL    HW221419   8.355   2.249   0.572 -0.1040  1.7638  0.2470
 5025SOL     OW21420   0.325   8.636   4.923 -0.3358  0.3840  0.2120
 5025SOL    HW121421   0.339   8.726   4.894 -3.1445  1.5878  2.0975
 5025SOL    HW221422   0.367   8.582   4.856  1.3416  3.0502 -1.0689
 5026SOL     OW21423   8.894   0.864   0.304 -0.2692  0.0190  0.0623
 5026SOL    HW121424   8.986   0.887   0.317 -0.3261  0.0873  0.3601
 5026SOL    HW221425   8.890   0.831   0.214 -0.1259  0.8738 -0.2708
 5027SOL     OW21426   3.711   6.952   9.148  0.1578 -0.2447  0.2504
 5027SOL    HW121427   3.756   7.032   9.122 -1.5539  0.9169  0.7124
 5027SOL    HW221428   3.624   6.981   9.177 -0.2854 -2.1908  1.0534
 5028SOL     OW21429   6.758   5.684   7.993  0.1791 -0.3522 -0.0241
 5028SOL    HW121430   6.850   5.685   7.968  0.9353  3.1429  2.1376
 5028SOL    HW221431   6.758   5.663   8.087 -0.8676  1.8190  0.5506
 5029SOL     OW21432   0.086   2.669   9.196 -0.5338 -0.1780 -0.4585
 5029SOL    HW121433   0.033   2.590   9.189 -3.4724  1.3079  2.3513
 5029SOL    HW221434   0.140   2.655   9.273  0.0214  0.0065 -0.8070
 5030SOL     OW21435   7.617   3.873   7.726 -0.9849  0.0033 -0.4245
 5030SOL    HW121436   7.550   3.912   7.782 -0.5757  0.5154 -0.2834
 5030SOL    HW221437   7.660   3.947   7.684 -0.9575 -0.3515 -1.0474
 5031SOL     OW21438   0.780   7.869   8.744  0.2094 -0.6126 -0.3237
 5031SOL    HW121439   0.838   7.884   8.670 -1.6174  1.1666 -1.4810
 5031SOL    HW221440   0.777   7.774   8.753  0.9621 -0.8458 -2.1216
 5032SOL     OW21441   2.497   6.892   8.366 -0.3898  0.0013  0.0402
 5032SOL    HW121442   2.536   6.829   8.426  2.1735  0.0752 -1.4201
 5032SOL    HW221443   2.411   6.912   8.404  0.1744 -1.6895  2.3768
 5033SOL     OW21444   3.715   5.409   3.929  0.0661 -0.4243  0.0190
 5033SOL    HW121445   3.716   5.315   3.914  0.7836 -0.3857 -0.1861
 5033SOL    HW221446   3.803   5.439   3.907 -0.0993  0.2694  0.2495
 5034SOL     OW21447   8.417   8.450   1.707  0.5633 -0.3471 -0.1214
 5034SOL    HW121448   8.356   8.500   1.762 -0.0075 -1.5806  0.4057
 5034SOL    HW221449   8.412   8.492   1.622 -1.7528 -0.9254 -0.3529
 5035SOL     OW21450   9.150   8.773   4.495 -0.0221  0.3959  0.5220
 5035SOL    HW121451   9.222   8.754   4.435 -1.5941 -0.1970 -1.2805
 5035SOL    HW221452   9.179   8.740   4.579  0.8556 -2.1051 -0.6727
 5036SOL     OW21453   5.403   8.083   4.743 -0.3978 -0.4828 -0.2484
 5036SOL    HW121454   5.383   8.125   4.827  0.8736 -0.7290  0.2010
 5036SOL    HW221455   5.396   8.154   4.679  3.0632  0.8845  0.6624
 5037SOL     OW21456   0.996   3.178   5.009  0.1042  0.3967 -0.1880
 5037SOL    HW121457   0.915   3.128   5.011  0.9048 -1.0437 -1.6211
 5037SOL    HW221458   1.056   3.130   5.066  0.3164  0.7915 -0.0710
 5038SOL     OW21459   0.832   0.061   5.429 -0.0543 -0.2625 -0.0102
 5038SOL    HW121460   0.904   0.028   5.482 -0.2101  1.2690  1.2262
 5038SOL    HW221461   0.753   0.026   5.470 -0.0784 -3.3529 -2.3525
 5039SOL     OW21462   0.297   3.701   3.262 -0.5115 -0.1895 -0.0218
 5039SOL    HW121463   0.306   3.766   3.331  0.2430  0.2600 -0.5135
 5039SOL    HW221464   0.335   3.621   3.299  0.4847  0.2166 -0.1139
 5040SOL     OW21465   3.449   5.579   8.839  0.1985 -0.2776  0.4963
 5040SOL    HW121466   3.368   5.543   8.874 -0.7175  0.6806 -0.5715
 5040SOL    HW221467   3.431   5.592   8.746  1.9072 -0.9487  0.0209
 5041SOL     OW21468   0.456   1.615   8.716 -0.3855  0.4054 -0.3784
 5041SOL    HW121469   0.390   1.585   8.780 -0.6770  1.5980 -0.0934
 5041SOL    HW221470   0.540   1.599   8.760 -0.5852  1.2638  0.3486
 5042SOL     OW21471   4.528   3.704   3.017  0.3342  0.4918  0.0504
 5042SOL    HW121472   4.506   3.796   3.036  0.0063  0.2631  0.8210
 5042SOL    HW221473   4.571   3.673   3.096  0.0956 -0.1300 -0.0536
 5043SOL     OW21474   6.522   6.780   7.216  0.2333  0.1257  0.3647
 5043SOL    HW121475   6.480   6.834   7.149  0.3211 -0.8990 -0.5454
 5043SOL    HW221476   6.452   6.724   7.249  0.4240 -0.1424  0.3199
 5044SOL     OW21477   8.504   8.084   6.854 -0.0294 -0.2725  0.7380
 5044SOL    HW121478   8.510   8.169   6.809  0.8390  0.0959  1.5001
 5044SOL    HW221479   8.420   8.087   6.900 -1.8377 -1.3870 -2.1916
 5045SOL     OW21480   4.242   6.684   8.621 -0.3630  0.5321  0.0146
 5045SOL    HW121481   4.167   6.629   8.643  0.7241 -1.4193 -0.8913
 5045SOL    HW221482   4.223   6.718   8.534 -1.1169  1.8263  0.6465
 5046SOL     OW21483   5.168   4.705   2.730  0.1250 -0.6746 -0.4128
 5046SOL    HW121484   5.097   4.706   2.793  0.1517  1.6168 -0.3484
 5046SOL    HW221485   5.246   4.683   2.782 -0.2495 -1.5063 -0.1836
 5047SOL     OW21486   7.394   5.139   6.777  0.0392 -0.1822 -0.5458
 5047SOL    HW121487   7.426   5.230   6.776 -1.1914  0.2665 -0.6870
 5047SOL    HW221488   7.318   5.141   6.834  1.0822 -1.5482  1.0000
 5048SOL     OW21489   0.637   0.984   3.925 -0.0903  0.4156  0.0896
 5048SOL    HW121490   0.619   0.939   4.008  0.1076  1.0357  0.4744
 5048SOL    HW221491   0.732   0.980   3.915 -0.0316  1.0892  0.3272
 5049SOL     OW21492   9.137   8.610   7.899  0.4214  0.2477 -0.6022
 5049SOL    HW121493   9.063   8.586   7.953  0.0005  0.3775 -1.1159
 5049SOL    HW221494   9.140   8.543   7.830  1.6774 -0.6067  0.2463
 5050SOL     OW21495   5.468   6.396   8.012  0.7246 -0.2466 -0.0739
 5050SOL    HW121496   5.399   6.447   8.054 -2.2252 -3.4392 -0.6058
 5050SOL    HW221497   5.527   6.371   8.083 -1.4228 -1.4105  1.4020
 5051SOL     OW21498   7.696   8.125   1.803 -0.2925  0.2871 -0.0660
 5051SOL    HW121499   7.693   8.153   1.711  0.0693  3.0226  0.6633
 5051SOL    HW221500   7.787   8.099   1.816 -0.7167 -1.7857 -0.8591
 5052SOL     OW21501   8.716   4.482   2.993 -0.2198 -0.1197  0.3356
 5052SOL    HW121502   8.783   4.511   2.931  0.8779 -1.0418  1.0550
 5052SOL    HW221503   8.758   4.489   3.079 -1.1078 -0.5698  0.8247
 5053SOL     OW21504   8.467   3.682   0.174  0.1410 -0.0676  0.4057
 5053SOL    HW121505   8.388   3.659   0.125  0.6116  0.0914 -0.4366
 5053SOL    HW221506   8.525   3.606   0.162  0.6624  0.4136 -0.1710
 5054SOL     OW21507   2.479   1.350   1.126 -0.0667 -0.1506  0.0257
 5054SOL    HW121508   2.506   1.442   1.125 -3.0861  0.8492 -0.2593
 5054SOL    HW221509   2.539   1.309   1.188  2.0340  1.7380 -0.6007
 5055SOL     OW21510   5.244   9.193   4.793  0.3040  0.6150 -0.3330
 5055SOL    HW121511   5.237   9.280   4.833  2.4900  0.4390  0.5490
 5055SOL    HW221512   5.307   9.146   4.848  0.8230 -0.7969 -2.0535
 5056SOL     OW21513   2.865   9.028   9.173  0.1092  0.8572  0.3785
 5056SOL    HW121514   2.924   9.001   9.243  0.6665 -1.7505 -0.9698
 5056SOL    HW221515   2.783   8.982   9.191  0.4788 -0.4027 -0.9900
 5057SOL     OW21516   5.898   4.209   9.036 -0.2660 -0.3682  0.0815
 5057SOL    HW121517   5.867   4.120   9.021 -0.7158 -0.3822  1.0236
 5057SOL    HW221518   5.847   4.262   8.974 -0.7089 -0.6401  0.2099
 5058SOL     OW21519   6.001   7.106   2.330  0.2717  0.1685 -0.6596
 5058SOL    HW121520   6.014   7.195   2.296 -0.3213  0.7989  0.6952
 5058SOL    HW221521   5.907   7.090   2.320  0.5066 -0.6661 -1.6929
 5059SOL     OW21522   4.906   7.330   1.493  0.4677 -0.2106  0.1190
 5059SOL    HW121523   4.909   7.234   1.486 -1.8145 -0.4140  0.9846
 5059SOL    HW221524   4.886   7.359   1.404  1.8306 -0.4479 -0.2927
 5060SOL     OW21525   2.621   5.531   7.641 -0.2105  0.0727  0.1279
 5060SOL    HW121526   2.643   5.528   7.734  1.0215 -0.0678 -0.1538
 5060SOL    HW221527   2.552   5.598   7.635  0.1889  0.5868  1.0440
 5061SOL     OW21528   3.541   7.225   7.581  1.3201  1.1104 -0.2667
 5061SOL    HW121529   3.479   7.290   7.546 -1.0684 -1.1519 -0.5088
 5061SOL    HW221530   3.542   7.242   7.675  0.0084  0.9532 -0.2093
 5062SOL     OW21531   7.152   0.062   7.617 -0.1359 -0.3706  0.3647
 5062SOL    HW121532   7.205   0.139   7.600 -0.8240 -0.0670 -0.4905
 5062SOL    HW221533   7.079   0.069   7.556 -0.1704 -1.7408  0.2161
 5063SOL     OW21534   3.197   8.587   8.268 -0.3719 -0.3810  0.3457
 5063SOL    HW121535   3.203   8.677   8.235 -0.6557  0.1632  1.6794
 5063SOL    HW221536   3.120   8.551   8.225  1.1810 -0.9027 -2.1767
 5064SOL     OW21537   2.250   5.144   3.953 -0.2657 -0.2150 -0.2513
 5064SOL    HW121538   2.264   5.179   4.041 -0.5352  0.2216 -0.3800
 5064SOL    HW221539   2.284   5.055   3.957 -1.2725 -0.5752  0.6063
 5065SOL     OW21540   5.351   5.067   7.031  0.4447  0.0195  0.7411
 5065SOL    HW121541   5.314   5.096   7.114  0.9501  1.5334  0.4771
 5065SOL    HW221542   5.441   5.040   7.053  0.4490  0.0414  0.7495
 5066SOL     OW21543   1.962   4.675   2.128 -0.6205 -0.3684 -0.0441
 5066SOL    HW121544   1.935   4.614   2.196 -1.2040  0.0449  0.1038
 5066SOL    HW221545   1.883   4.727   2.109  0.0659  0.9008  0.4405
 5067SOL     OW21546   0.167   7.473   9.050 -0.0375 -0.1364  0.3083
 5067SOL    HW121547   0.093   7.419   9.022 -0.9802  2.4458 -2.7568
 5067SOL    HW221548   0.214   7.493   8.970  3.4899 -0.7642  2.0231
 5068SOL     OW21549   8.579   2.486   0.560 -0.0383 -0.0031 -0.7251
 5068SOL    HW121550   8.596   2.396   0.586 -2.4603 -0.6661 -1.2201
 5068SOL    HW221551   8.586   2.486   0.465 -0.5463  0.2228 -0.7643
 5069SOL     OW21552   0.757   1.027   6.657  0.4610  0.0500  0.2843
 5069SOL    HW121553   0.778   0.935   6.641  0.6780  0.0812  0.3806
 5069SOL    HW221554   0.721   1.058   6.574  0.8764  0.0155  0.0891
 5070SOL     OW21555   1.945   1.070   5.071 -0.0427 -0.2342  0.9515
 5070SOL    HW121556   1.983   1.132   5.133  0.3225  0.8176 -0.2969
 5070SOL    HW221557   1.953   1.112   4.986 -2.6908 -0.6172  0.4383
 5071SOL     OW21558   0.122   4.261   5.565  0.0676  0.3937  0.9625
 5071SOL    HW121559   0.142   4.350   5.596  1.0139  0.7443 -0.5494
 5071SOL    HW221560   0.139   4.264   5.471 -2.2896 -0.7316  0.4154
 5072SOL     OW21561   4.943   8.475   2.881  0.6687  0.7613  0.0758
 5072SOL    HW121562   4.913   8.537   2.815  0.9386  0.1576 -0.6236
 5072SOL    HW221563   4.865   8.456   2.933  0.3607  0.9147 -0.3271
 5073SOL     OW21564   4.086   2.371   4.877  0.4710 -0.0726 -0.2047
 5073SOL    HW121565   3.994   2.376   4.851  0.5080 -3.3856 -1.3798
 5073SOL    HW221566   4.132   2.424   4.811 -0.3978 -0.1466 -0.8857
 5074SOL     OW21567   2.216   8.188   1.435  0.6994  0.0152 -0.1979
 5074SOL    HW121568   2.153   8.170   1.504 -0.9497 -0.1272 -1.6552
 5074SOL    HW221569   2.294   8.220   1.480 -0.1993 -0.3696  1.7109
 5075SOL     OW21570   7.616   1.116   7.172 -0.5079 -0.2898 -0.1165
 5075SOL    HW121571   7.639   1.191   7.226 -1.6701 -0.4551  0.6463
 5075SOL    HW221572   7.682   1.051   7.192 -0.4983 -0.0807  0.5504
 5076SOL     OW21573   3.391   6.826   1.212 -0.1034 -0.3517 -0.0697
 5076SOL    HW121574   3.455   6.806   1.280 -1.4761  0.0274  1.3939
 5076SOL    HW221575   3.324   6.878   1.256 -1.6138 -1.0162 -1.4515
 5077SOL     OW21576   5.033   0.179   5.278  0.2246 -0.6998 -0.8290
 5077SOL    HW121577   4.974   0.249   5.250  0.0957 -0.3315  0.3419
 5077SOL    HW221578   5.115   0.224   5.298  0.1019 -0.8528  0.0542
 5078SOL     OW21579   3.430   4.220   3.604  0.8150 -0.1570 -0.7704
 5078SOL    HW121580   3.489   4.162   3.652  2.0405  1.9543  0.4234
 5078SOL    HW221581   3.369   4.253   3.671  1.5514  1.6157 -0.9204
 5079SOL     OW21582   6.827   2.674   1.740 -0.0917  0.3248 -0.6327
 5079SOL    HW121583   6.914   2.660   1.703  1.2009 -1.2490  2.5960
 5079SOL    HW221584   6.791   2.585   1.749 -2.5993  0.9796 -2.8700
 5080SOL     OW21585   5.604   4.035   7.899  0.1922  0.6009  0.2642
 5080SOL    HW121586   5.699   4.039   7.889  0.2343  1.0358  0.8299
 5080SOL    HW221587   5.580   4.120   7.935 -0.5302  0.8796 -0.8258
 5081SOL     OW21588   4.171   6.296   4.430  0.2893  0.4190 -0.0058
 5081SOL    HW121589   4.123   6.217   4.457 -0.6750  0.7323 -0.7517
 5081SOL    HW221590   4.263   6.269   4.430  0.2228 -0.0229  2.0790
 5082SOL     OW21591   5.871   2.055   6.211 -0.5344  0.2055 -0.2207
 5082SOL    HW121592   5.791   2.107   6.226 -1.2922 -0.8903 -0.3490
 5082SOL    HW221593   5.859   1.977   6.264 -0.3548 -0.7662 -1.5515
 5083SOL     OW21594   8.720   7.889   2.234 -0.3251  0.4274 -0.4775
 5083SOL    HW121595   8.788   7.898   2.168 -0.9871  0.8590 -1.1211
 5083SOL    HW221596   8.761   7.838   2.304  0.2488 -0.4843 -1.4328
 5084SOL     OW21597   6.840   1.827   1.198  0.5919  0.0071  0.1465
 5084SOL    HW121598   6.818   1.813   1.290 -0.0920  1.3434  0.2115
 5084SOL    HW221599   6.805   1.750   1.153 -1.0613  0.3846  0.7319
 5085SOL     OW21600   8.714   5.467   5.740 -0.1910 -0.1543 -0.5829
 5085SOL    HW121601   8.808   5.482   5.743 -0.0431 -1.0346  1.9293
 5085SOL    HW221602   8.702   5.399   5.674  1.0380 -0.5451 -0.4271
 5086SOL     OW21603   3.003   8.988   0.165  0.0483 -0.4158  0.0021
 5086SOL    HW121604   3.065   9.020   0.230  0.0704 -0.1396 -0.1534
 5086SOL    HW221605   3.030   8.897   0.149  0.0742 -0.4682  0.3357
 5087SOL     OW21606   1.161   3.880   3.231 -0.1989 -0.2752  0.0104
 5087SOL    HW121607   1.198   3.907   3.315 -0.1737  0.7167 -0.3023
 5087SOL    HW221608   1.159   3.785   3.235  1.7157 -0.3406  0.3139
 5088SOL     OW21609   3.117   7.699   8.676 -0.2963  0.5154 -0.0331
 5088SOL    HW121610   3.054   7.645   8.628 -1.7597  2.3659 -0.2992
 5088SOL    HW221611   3.184   7.721   8.612 -0.6013  0.4464 -0.3761
 5089SOL     OW21612   8.675   0.470   4.191  0.4763 -0.6668 -0.0693
 5089SOL    HW121613   8.585   0.446   4.212  0.6882 -1.2443  0.1749
 5089SOL    HW221614   8.705   0.403   4.131  1.5062 -1.8115  1.6479
 5090SOL     OW21615   2.249   4.275   2.488  0.5443 -0.2472 -0.1447
 5090SOL    HW121616   2.327   4.240   2.530  1.4806  0.4466 -1.2493
 5090SOL    HW221617   2.282   4.344   2.430 -1.0045  0.8651  0.2288
 5091SOL     OW21618   3.991   2.224   4.314  0.2154 -0.0521  0.0124
 5091SOL    HW121619   3.965   2.213   4.405  0.5937  1.5769  0.3565
 5091SOL    HW221620   3.923   2.281   4.277  1.7048  1.9433  0.1807
 5092SOL     OW21621   0.767   3.723   7.488 -0.3783 -0.5858  0.1210
 5092SOL    HW121622   0.773   3.627   7.489  0.6428 -0.5544  2.0267
 5092SOL    HW221623   0.855   3.752   7.464 -0.8134 -0.1065 -0.9377
 5093SOL     OW21624   3.887   7.992   7.990 -0.1800  0.7294 -0.2434
 5093SOL    HW121625   3.921   8.081   7.995  0.7244  0.6154 -2.7840
 5093SOL    HW221626   3.803   8.000   7.946 -1.4419  0.5545  2.0277
 5094SOL     OW21627   5.868   4.476   3.608  0.0529  0.4006 -0.0905
 5094SOL    HW121628   5.933   4.422   3.564  0.6951  2.8247 -2.3587
 5094SOL    HW221629   5.919   4.534   3.665 -0.5663 -0.6759  1.6598
 5095SOL     OW21630   4.426   0.021   3.228  0.2574  0.1005 -0.3239
 5095SOL    HW121631   4.368  -0.051   3.204 -0.5298  0.4026  0.6247
 5095SOL    HW221632   4.465  -0.006   3.311  0.2680  0.5912 -0.1671
 5096SOL     OW21633   5.830   4.375   0.401  0.0924 -0.0352  0.1041
 5096SOL    HW121634   5.831   4.339   0.312 -1.9326  1.5630 -0.6476
 5096SOL    HW221635   5.857   4.466   0.390 -1.1358  0.4536  0.9512
 5097SOL     OW21636   9.055   1.076   7.443  1.0378 -0.2199 -0.1510
 5097SOL    HW121637   9.147   1.102   7.450  0.9182  0.0180  0.7300
 5097SOL    HW221638   9.057   0.985   7.413  1.6015 -0.6232  1.0647
 5098SOL     OW21639   8.995   3.769   5.606 -0.0755  0.0948 -0.4741
 5098SOL    HW121640   9.008   3.758   5.700  0.5877 -0.4544 -0.6137
 5098SOL    HW221641   8.936   3.697   5.582 -1.7457  1.3246 -0.1921
 5099SOL     OW21642   0.202   4.755   3.803 -0.3644  0.6658  0.7697
 5099SOL    HW121643   0.126   4.769   3.746  0.3112  0.0210 -0.3380
 5099SOL    HW221644   0.273   4.735   3.742 -0.2991 -3.4214  1.8818
 5100SOL     OW21645   6.745   6.140   3.373 -0.2984 -0.6953  0.2158
 5100SOL    HW121646   6.653   6.138   3.345 -0.4757  0.8852  0.5625
 5100SOL    HW221647   6.742   6.186   3.458  0.7713 -0.9468  0.3937
 5101SOL     OW21648   6.803   0.415   6.944  0.1413  0.0651 -0.0253
 5101SOL    HW121649   6.772   0.349   6.882 -0.1339 -0.2408  0.4311
 5101SOL    HW221650   6.751   0.401   7.023  0.2324  0.6901  0.1549
 5102SOL     OW21651   5.106   8.569   8.128 -0.0020  0.3428  0.3439
 5102SOL    HW121652   5.116   8.664   8.117  2.3243  0.3254  1.6163
 5102SOL    HW221653   5.100   8.557   8.223 -2.6134 -0.6679  0.1333
 5103SOL     OW21654   3.530   4.084   1.831 -0.1443  0.3963  0.0832
 5103SOL    HW121655   3.477   4.147   1.880  1.6582  0.2910  2.3148
 5103SOL    HW221656   3.507   4.100   1.739 -4.3005  0.0349  0.8654
 5104SOL     OW21657   6.946   2.419   5.919 -0.2982 -0.2518  0.3079
 5104SOL    HW121658   6.926   2.326   5.923  0.6975 -0.4392  2.5657
 5104SOL    HW221659   6.861   2.462   5.907 -0.7931 -1.4171 -0.5205
 5105SOL     OW21660   8.838   9.102   3.724 -0.6005 -0.5625 -0.1904
 5105SOL    HW121661   8.814   9.179   3.776  2.3486  1.6657 -1.8213
 5105SOL    HW221662   8.925   9.078   3.754 -0.1360 -1.2060 -1.9275
 5106SOL     OW21663   4.865   6.588   4.042 -0.3993  0.3178 -0.1675
 5106SOL    HW121664   4.854   6.542   4.126 -1.8998 -0.3523 -0.7073
 5106SOL    HW221665   4.846   6.522   3.976  0.0262  1.0494 -1.0347
 5107SOL     OW21666   6.850   6.992   8.176  0.5840  0.1920  0.0411
 5107SOL    HW121667   6.771   7.019   8.130 -0.2629  2.2615  2.4779
 5107SOL    HW221668   6.856   6.898   8.160 -3.1861 -0.3598  0.8361
 5108SOL     OW21669   2.001   4.905   0.385  0.1353 -0.0792 -0.4518
 5108SOL    HW121670   2.020   4.816   0.416  0.4081  0.6409  1.5793
 5108SOL    HW221671   2.087   4.946   0.376 -0.0665  0.8354  1.4101
 5109SOL     OW21672   4.252   6.797   7.278 -0.0638  0.1008 -0.1048
 5109SOL    HW121673   4.190   6.826   7.212  0.8484  0.7883 -0.6828
 5109SOL    HW221674   4.279   6.877   7.323 -1.3931 -0.4380  1.7883
 5110SOL     OW21675   6.539   0.241   2.557 -0.5640 -0.4338 -0.3208
 5110SOL    HW121676   6.629   0.268   2.574 -0.4435 -1.0553  0.0737
 5110SOL    HW221677   6.486   0.316   2.584 -0.2691 -0.7685  1.3376
 5111SOL     OW21678   3.011   4.825   8.820  0.3902  0.3494  0.1542
 5111SOL    HW121679   3.076   4.829   8.890 -0.2033  1.5462  0.6817
 5111SOL    HW221680   3.027   4.741   8.777  1.5863  0.1477  0.9273
 5112SOL     OW21681   8.999   1.115   4.804  0.0875  0.0139 -0.5461
 5112SOL    HW121682   8.969   1.159   4.884 -0.3944 -0.7737 -0.2848
 5112SOL    HW221683   8.949   1.157   4.734 -1.5269 -1.1224 -0.1409
 5113SOL     OW21684   1.978   2.932   5.555 -0.2509 -0.3711  0.3480
 5113SOL    HW121685   2.015   3.018   5.537  2.3357 -0.6100  3.6112
 5113SOL    HW221686   1.891   2.950   5.589  0.4186  1.0485  1.4217
 5114SOL     OW21687   7.442   4.792   0.119 -0.3187 -0.3359 -0.8110
 5114SOL    HW121688   7.436   4.885   0.138 -1.9852 -0.3175 -1.2953
 5114SOL    HW221689   7.444   4.749   0.205 -1.1758  0.0654 -0.5901
 5115SOL     OW21690   1.364   5.418   3.488 -0.7167  1.0260  0.4948
 5115SOL    HW121691   1.327   5.384   3.569  0.6242  0.3783  0.8608
 5115SOL    HW221692   1.457   5.430   3.506 -0.5895  1.9478 -0.6060
 5116SOL     OW21693   7.122   4.061   4.548  0.4836 -0.5591  0.1261
 5116SOL    HW121694   7.163   3.978   4.525 -2.1861 -2.4081  1.5459
 5116SOL    HW221695   7.087   4.094   4.465  4.2654  0.9542 -1.0824
 5117SOL     OW21696   3.232   3.081   4.466 -0.5286 -0.2070 -0.8944
 5117SOL    HW121697   3.138   3.096   4.455 -0.3837  0.5364 -1.1738
 5117SOL    HW221698   3.254   3.016   4.399 -0.9523 -0.8311 -0.4341
 5118SOL     OW21699   6.334   7.133   0.854 -0.0771  0.2486 -0.5819
 5118SOL    HW121700   6.355   7.196   0.923  2.8152 -1.4222  0.2642
 5118SOL    HW221701   6.300   7.057   0.901 -0.7836  0.1072 -1.2994
 5119SOL     OW21702   4.414   3.428   0.068 -0.1595 -0.4206  0.5333
 5119SOL    HW121703   4.474   3.482   0.017 -0.4688 -0.4931  0.0926
 5119SOL    HW221704   4.422   3.341   0.029 -0.1432 -0.5529  0.8288
 5120SOL     OW21705   0.109   4.279   3.273  0.0220  0.3323 -0.0575
 5120SOL    HW121706   0.144   4.342   3.209 -1.2303 -1.2043 -2.3887
 5120SOL    HW221707   0.016   4.275   3.253 -0.3525 -0.4117  1.7288
 5121SOL     OW21708   6.613   6.428   9.111 -0.3379 -0.2826  0.9520
 5121SOL    HW121709   6.594   6.513   9.070  0.3623 -0.4130  0.3177
 5121SOL    HW221710   6.688   6.394   9.061 -0.9109 -1.4938  0.8822
 5122SOL     OW21711   8.116   5.390   2.220  0.1344 -0.2322  0.4907
 5122SOL    HW121712   8.048   5.387   2.287 -1.3802  0.5027 -0.9600
 5122SOL    HW221713   8.101   5.313   2.166  0.5496 -0.1372  0.2321
 5123SOL     OW21714   7.952   5.249   8.824 -0.1701 -0.0467 -0.5321
 5123SOL    HW121715   7.921   5.276   8.910  1.3615 -3.2616  1.2337
 5123SOL    HW221716   7.886   5.187   8.793  0.7468 -1.2478 -0.1746
 5124SOL     OW21717   3.414   1.478   0.391  0.2600 -0.4110 -0.3513
 5124SOL    HW121718   3.390   1.503   0.481  0.1521  0.6926 -0.6674
 5124SOL    HW221719   3.340   1.426   0.360  0.5992 -1.3986  0.4173
 5125SOL     OW21720   7.065   7.260   4.068  0.1481 -0.2905 -0.0956
 5125SOL    HW121721   7.130   7.206   4.115  1.2875 -0.4758 -1.8023
 5125SOL    HW221722   6.995   7.199   4.046  0.8129 -0.7909 -0.8594
 5126SOL     OW21723   7.844   5.761   4.777 -0.3654 -0.1318 -0.2659
 5126SOL    HW121724   7.859   5.705   4.853 -1.1685 -0.0325 -0.0219
 5126SOL    HW221725   7.859   5.704   4.702  0.3058 -0.2649 -0.0357
 5127SOL     OW21726   2.539   3.203   6.808  0.2675 -0.1122 -0.2623
 5127SOL    HW121727   2.515   3.114   6.782 -3.4334  0.3945  0.8667
 5127SOL    HW221728   2.516   3.257   6.732 -3.3455  0.4444  1.0110
 5128SOL     OW21729   7.588   8.201   5.560  0.2659  0.7310 -0.1129
 5128SOL    HW121730   7.623   8.171   5.644  1.7967  1.5358 -0.4153
 5128SOL    HW221731   7.592   8.125   5.503  2.2329  0.9492 -0.3226
 5129SOL     OW21732   0.171   1.255   6.796 -0.6511 -0.1835  0.1027
 5129SOL    HW121733   0.185   1.161   6.806  0.0780  0.0121  1.0503
 5129SOL    HW221734   0.258   1.294   6.807 -1.2248  0.7425  1.8853
 5130SOL     OW21735   3.773   5.220   0.756  0.1735 -0.0195  0.5842
 5130SOL    HW121736   3.793   5.309   0.726 -1.1545  0.3114  0.6549
 5130SOL    HW221737   3.703   5.191   0.698 -1.1087 -0.0926  2.1426
 5131SOL     OW21738   1.513   3.064   7.238  0.0321  0.2553 -0.5841
 5131SOL    HW121739   1.517   3.000   7.310 -1.9059  0.0408 -0.6228
 5131SOL    HW221740   1.554   3.019   7.164  0.4952 -0.1728 -0.0791
 5132SOL     OW21741   3.640   1.321   1.779  0.6093 -0.2698  0.0551
 5132SOL    HW121742   3.659   1.290   1.690  1.1497  0.4114 -0.0776
 5132SOL    HW221743   3.550   1.293   1.796  0.4920 -0.3811 -0.7219
 5133SOL     OW21744   5.518   5.955   8.848 -0.5577 -0.2709 -0.1092
 5133SOL    HW121745   5.595   6.002   8.817 -0.5599 -0.3041 -0.1675
 5133SOL    HW221746   5.546   5.863   8.850 -0.8255 -0.3829 -0.8794
 5134SOL     OW21747   4.767   4.993   6.709  0.5841 -0.3544  0.2505
 5134SOL    HW121748   4.755   4.899   6.721 -0.4267 -0.4466 -1.1667
 5134SOL    HW221749   4.752   5.031   6.796  0.3673 -1.4486  0.7072
 5135SOL     OW21750   4.544   5.273   6.795 -0.6137  0.1009 -0.3533
 5135SOL    HW121751   4.613   5.220   6.835 -0.9685  0.2008  0.4171
 5135SOL    HW221752   4.472   5.211   6.781 -0.3618 -0.0123 -1.1943
 5136SOL     OW21753   8.648   7.721   8.855  0.0300 -0.5714  0.8134
 5136SOL    HW121754   8.662   7.662   8.781 -0.1403  2.6443 -2.0703
 5136SOL    HW221755   8.566   7.691   8.894 -0.5999 -1.6501 -1.1755
 5137SOL     OW21756   0.472   0.165   6.830  0.4261  0.0193 -0.0777
 5137SOL    HW121757   0.487   0.135   6.920  0.9538 -0.6804 -0.3953
 5137SOL    HW221758   0.551   0.140   6.782 -0.2573 -0.5094 -0.9607
 5138SOL     OW21759   4.244   8.203   7.255  0.3606  0.1525  0.2893
 5138SOL    HW121760   4.211   8.131   7.201  0.1723  1.0959 -0.8857
 5138SOL    HW221761   4.216   8.180   7.344 -0.5319 -0.7481 -0.1973
 5139SOL     OW21762   1.387   8.257   7.135 -0.1510  0.0907  0.1407
 5139SOL    HW121763   1.441   8.296   7.067 -0.2169 -0.6046 -0.3213
 5139SOL    HW221764   1.427   8.171   7.151 -0.9715 -0.3300 -0.0362
 5140SOL     OW21765   7.342   1.836   4.293 -0.3755  0.2102 -0.0276
 5140SOL    HW121766   7.284   1.899   4.252  1.3158  2.3824  0.7466
 5140SOL    HW221767   7.361   1.873   4.379 -0.2767 -2.0037  0.9911
 5141SOL     OW21768   6.483   4.726   2.739  0.4373  0.4021 -0.0990
 5141SOL    HW121769   6.573   4.748   2.767  0.0939  2.4526 -0.4375
 5141SOL    HW221770   6.456   4.658   2.800  3.0752 -2.1774 -1.5383
 5142SOL     OW21771   3.082   8.752   2.439 -0.1378 -0.0616  0.0348
 5142SOL    HW121772   3.068   8.794   2.524  1.0255 -0.1665  0.2883
 5142SOL    HW221773   3.038   8.668   2.447 -1.5091  0.6104 -0.0816
 5143SOL     OW21774   2.860   3.002   1.364  0.2191 -0.5581  0.4231
 5143SOL    HW121775   2.765   3.014   1.365  0.0890 -1.5128  0.7388
 5143SOL    HW221776   2.883   2.999   1.271 -0.2045 -1.2807  0.3296
 5144SOL     OW21777   7.038   7.283   7.774  0.1487  0.5576  0.0591
 5144SOL    HW121778   6.963   7.264   7.830  0.9524 -0.4428  0.8277
 5144SOL    HW221779   7.097   7.335   7.829  0.7070  0.0194 -0.0218
 5145SOL     OW21780   1.200   3.602   8.668  0.5613  0.0867  0.3187
 5145SOL    HW121781   1.208   3.670   8.734 -0.6406  1.1244 -0.5504
 5145SOL    HW221782   1.149   3.533   8.710  2.4772 -0.6890  1.4736
 5146SOL     OW21783   8.785   0.723   8.558  0.2410 -0.2041  0.5404
 5146SOL    HW121784   8.828   0.796   8.513  0.2887 -0.4463  0.1867
 5146SOL    HW221785   8.847   0.696   8.625  0.6500 -0.5538  0.0316
 5147SOL     OW21786   7.504   0.065   7.954  0.6122 -0.3111 -0.1599
 5147SOL    HW121787   7.471   0.019   8.030  0.0728 -0.7002 -0.6218
 5147SOL    HW221788   7.533   0.150   7.987 -2.5478  0.8117 -0.0161
 5148SOL     OW21789   9.071   2.199   5.676  0.1082  0.7051  0.6601
 5148SOL    HW121790   9.108   2.254   5.745  0.5398  1.9696 -0.5097
 5148SOL    HW221791   8.979   2.224   5.673 -0.3857 -0.8069  2.0714
 5149SOL     OW21792   1.188   8.208   8.952 -0.7514 -0.2643  0.2337
 5149SOL    HW121793   1.164   8.245   9.037 -1.7236 -2.7538  1.1427
 5149SOL    HW221794   1.262   8.150   8.972 -0.5660 -0.3823 -0.7617
 5150SOL     OW21795   2.155   0.923   8.684  0.1674  0.4616 -0.1598
 5150SOL    HW121796   2.204   0.865   8.742  0.2167 -0.0108 -0.6624
 5150SOL    HW221797   2.095   0.865   8.637  0.3997  0.7766 -0.8590
 5151SOL     OW21798   2.821   1.021   5.089  0.3845  0.4349 -0.1322
 5151SOL    HW121799   2.855   1.094   5.038  1.0867 -0.5293 -1.0911
 5151SOL    HW221800   2.888   0.953   5.082 -1.1273 -1.0553 -0.9881
 5152SOL     OW21801   1.413   8.312   1.744 -0.1263 -0.0608  0.8811
 5152SOL    HW121802   1.365   8.278   1.668 -0.0302 -0.7765  1.1305
 5152SOL    HW221803   1.470   8.380   1.708 -0.9860  0.4720  0.5129
 5153SOL     OW21804   1.664   6.049   1.877 -0.0576 -0.4340  0.7829
 5153SOL    HW121805   1.696   5.981   1.936 -0.7227 -1.0589  0.4317
 5153SOL    HW221806   1.579   6.075   1.914  0.3159  0.4043  1.0711
 5154SOL     OW21807   6.409   9.108   7.731  0.8954 -0.0529 -0.0104
 5154SOL    HW121808   6.332   9.070   7.774  0.2568 -0.0891 -1.1441
 5154SOL    HW221809   6.398   9.202   7.741 -0.2192  0.0342 -1.6204
 5155SOL     OW21810   4.209   8.547   4.273  0.3940  0.0714  0.0968
 5155SOL    HW121811   4.156   8.622   4.246  1.6441 -0.1263 -3.3176
 5155SOL    HW221812   4.244   8.573   4.359  0.2502  3.1219 -0.6464
 5156SOL     OW21813   5.881   8.224   6.822  0.0974  0.1101 -0.2604
 5156SOL    HW121814   5.879   8.276   6.903  1.1303  0.3135 -0.3473
 5156SOL    HW221815   5.820   8.269   6.764 -0.2770  0.2565  0.2332
 5157SOL     OW21816   0.440   4.271   5.016 -0.3200  0.6073  0.0620
 5157SOL    HW121817   0.517   4.304   5.062 -2.4231  3.2993  1.9689
 5157SOL    HW221818   0.439   4.317   4.933  0.4072  0.0786 -0.2536
 5158SOL     OW21819   0.993   8.721   4.584  0.1176  0.3030 -0.1372
 5158SOL    HW121820   1.053   8.730   4.658 -0.2870 -0.9649  0.3662
 5158SOL    HW221821   1.029   8.779   4.517  0.5393  1.4228  1.0035
 5159SOL     OW21822   6.606   0.952   7.267  0.1385 -0.0277 -0.8046
 5159SOL    HW121823   6.689   0.906   7.280  0.4668  0.9074  0.6219
 5159SOL    HW221824   6.611   1.028   7.325 -1.7528  0.0147 -0.6296
 5160SOL     OW21825   3.301   4.496   8.029  0.3792  0.2268 -0.0161
 5160SOL    HW121826   3.307   4.502   8.124 -4.4264  0.1976  0.5376
 5160SOL    HW221827   3.266   4.581   8.002  0.3323 -0.2541 -1.5973
 5161SOL     OW21828   5.264   2.335   0.614 -0.2887 -0.1433 -0.3538
 5161SOL    HW121829   5.198   2.290   0.666 -0.8380  0.7981 -0.2069
 5161SOL    HW221830   5.214   2.393   0.556  0.4210  1.4177  0.5384
 5162SOL     OW21831   4.094   7.459   2.173 -0.0827  0.4100  0.8499
 5162SOL    HW121832   4.133   7.491   2.091 -0.8552 -1.2453 -0.2059
 5162SOL    HW221833   4.000   7.473   2.162 -0.5561 -2.6531  0.0457
 5163SOL     OW21834   6.069   4.835   8.955 -0.1067  0.0747 -0.3760
 5163SOL    HW121835   5.992   4.819   9.011  0.1011 -0.7775 -0.3110
 5163SOL    HW221836   6.065   4.765   8.889  0.5566  0.0801 -0.4299
 5164SOL     OW21837   0.983   2.916   3.895 -0.0965 -0.4352  0.2623
 5164SOL    HW121838   1.038   2.839   3.877  0.5351 -0.1112  0.7951
 5164SOL    HW221839   0.899   2.895   3.853  0.5662 -0.7409 -0.9717
 5165SOL     OW21840   3.959   3.051   3.831 -0.2421  0.0723  0.1139
 5165SOL    HW121841   3.984   3.134   3.791 -0.3292 -0.0562 -0.2099
 5165SOL    HW221842   4.023   2.988   3.797 -0.9098 -0.2303 -0.6171
 5166SOL     OW21843   3.102   6.006   7.211 -0.1601  0.0325 -0.7113
 5166SOL    HW121844   3.018   6.010   7.166 -0.7470  0.2429  0.3846
 5166SOL    HW221845   3.089   6.056   7.292  1.0371  0.1274 -0.5585
 5167SOL     OW21846   3.055   1.735   2.059  1.0443  0.2558 -0.4507
 5167SOL    HW121847   2.963   1.757   2.042  0.7224 -1.0103 -0.4669
 5167SOL    HW221848   3.080   1.791   2.132 -0.4365 -0.8949  1.0110
 5168SOL     OW21849   8.887   0.064   5.077  0.3668 -0.2862  0.8427
 5168SOL    HW121850   8.875  -0.031   5.083  0.2645 -0.3896 -0.7337
 5168SOL    HW221851   8.971   0.080   5.120  0.4037 -1.0898  1.0960
 5169SOL     OW21852   4.071   0.676   7.693  0.4111 -0.5944  0.0904
 5169SOL    HW121853   4.098   0.636   7.776 -1.9974  0.6938  1.6251
 5169SOL    HW221854   4.103   0.766   7.698 -0.5838 -0.2319  0.0809
 5170SOL     OW21855   8.170   7.494   7.407  0.7299  0.1769 -0.6135
 5170SOL    HW121856   8.167   7.586   7.431  0.3874  0.1463 -0.5387
 5170SOL    HW221857   8.080   7.471   7.387  0.3205 -0.8233  1.9931
 5171SOL     OW21858   6.862   5.476   4.248 -0.0617  0.0500 -0.5290
 5171SOL    HW121859   6.849   5.494   4.341  0.5540  0.3105 -0.4904
 5171SOL    HW221860   6.779   5.499   4.208 -0.3423 -0.0879 -0.0373
 5172SOL     OW21861   2.988   3.878   0.025  0.0198 -0.1989  0.3936
 5172SOL    HW121862   3.057   3.923  -0.024  0.8874 -0.6428  1.1686
 5172SOL    HW221863   3.004   3.785   0.010  0.0010 -0.3235  1.1168
 5173SOL     OW21864   0.112   5.695   4.399 -0.1476  0.0392  0.1946
 5173SOL    HW121865   0.176   5.752   4.442  0.0648  0.7450 -0.9974
 5173SOL    HW221866   0.157   5.612   4.389  0.1037  0.1301  0.5655
 5174SOL     OW21867   4.264   4.534   5.602 -0.0089  0.2802  0.7944
 5174SOL    HW121868   4.188   4.546   5.659  0.1594 -1.6943  1.4778
 5174SOL    HW221869   4.230   4.549   5.514 -0.9607  0.3587  1.1613
 5175SOL     OW21870   5.090   1.239   7.012  0.1383  0.2895  0.1224
 5175SOL    HW121871   5.000   1.216   6.990  0.0608  0.9240 -0.2484
 5175SOL    HW221872   5.144   1.178   6.962 -0.0495  1.3056 -1.3879
 5176SOL     OW21873   2.182   6.403   0.665  0.6270  0.1649 -0.0131
 5176SOL    HW121874   2.253   6.342   0.681  0.2426 -0.4834 -0.7198
 5176SOL    HW221875   2.128   6.399   0.744  0.0824 -1.1443 -0.4240
 5177SOL     OW21876   5.231   6.574   3.574 -0.6421  0.1201 -0.4141
 5177SOL    HW121877   5.252   6.481   3.566 -0.7607  0.0127  0.4609
 5177SOL    HW221878   5.266   6.613   3.494  0.6534 -0.4479 -0.1416
 5178SOL     OW21879   5.023   3.032   2.933 -0.1487 -0.1088 -0.7060
 5178SOL    HW121880   5.026   2.957   2.873 -0.0220 -1.2705  0.7136
 5178SOL    HW221881   5.101   3.023   2.987 -0.4233  0.7444 -0.1460
 5179SOL     OW21882   4.086   3.521   4.911  0.2920  0.2308 -0.3055
 5179SOL    HW121883   4.042   3.542   4.828 -1.6411  0.6015  0.7430
 5179SOL    HW221884   4.089   3.425   4.912 -1.4869  0.1299  0.0104
 5180SOL     OW21885   8.729   8.311   7.950 -0.2626  0.1980  0.1852
 5180SOL    HW121886   8.764   8.386   7.998 -0.5088  0.3179  0.1824
 5180SOL    HW221887   8.650   8.287   7.998 -1.1517  1.0362 -0.7935
 5181SOL     OW21888   6.323   7.667   2.521 -0.0416 -0.2527 -0.0192
 5181SOL    HW121889   6.357   7.632   2.439 -0.8401 -1.8499  0.2806
 5181SOL    HW221890   6.286   7.751   2.498 -1.1265 -1.1031 -1.5281
 5182SOL     OW21891   6.718   6.433   5.097 -0.1586 -0.6810  0.3390
 5182SOL    HW121892   6.784   6.449   5.030 -1.1754  0.4321 -0.4606
 5182SOL    HW221893   6.767   6.410   5.175  1.0503 -3.5030 -1.1063
 5183SOL     OW21894   4.241   1.753   6.356  0.0812  0.4565 -0.5080
 5183SOL    HW121895   4.170   1.703   6.317 -0.9449  0.8431  0.8044
 5183SOL    HW221896   4.302   1.687   6.389  1.5051  0.0950 -3.5132
 5184SOL     OW21897   2.125   0.837   1.661  0.6385  0.0039  0.3556
 5184SOL    HW121898   2.181   0.852   1.585  0.9303 -2.3835  0.0172
 5184SOL    HW221899   2.040   0.814   1.624  0.1580  0.9634  0.8243
 5185SOL     OW21900   7.349   0.909   4.416 -0.0090 -0.0390  0.4322
 5185SOL    HW121901   7.420   0.865   4.463 -2.0254 -2.4397  1.4885
 5185SOL    HW221902   7.302   0.957   4.485  0.4642  1.4630 -0.2431
 5186SOL     OW21903   7.357   6.892   4.467 -0.1413  0.1119 -0.7154
 5186SOL    HW121904   7.295   6.914   4.537 -0.7500 -0.7129 -0.9706
 5186SOL    HW221905   7.443   6.896   4.509 -0.5312 -0.8717  0.2447
 5187SOL     OW21906   3.124   8.702   3.967 -0.0287  0.0630 -0.6158
 5187SOL    HW121907   3.149   8.611   3.985  0.1017  0.0992 -0.6159
 5187SOL    HW221908   3.206   8.751   3.972 -0.2573  0.3607  0.5086
 5188SOL     OW21909   4.019   8.840   2.951  0.0278  0.3396  0.2939
 5188SOL    HW121910   4.072   8.814   2.875  2.6372  1.5414  1.5583
 5188SOL    HW221911   4.041   8.775   3.018 -1.7775 -0.3493  0.2694
 5189SOL     OW21912   8.728   6.368   6.778 -0.0078 -0.7139  0.2941
 5189SOL    HW121913   8.646   6.352   6.824  0.9797 -0.9211  2.0705
 5189SOL    HW221914   8.732   6.299   6.711 -0.7762 -1.3648  0.9004
 5190SOL     OW21915   7.223   4.629   4.751  0.3679  0.4560 -0.3424
 5190SOL    HW121916   7.197   4.712   4.710  0.2815  0.1361 -0.9359
 5190SOL    HW221917   7.292   4.594   4.695  0.5112  0.1934 -0.0100
 5191SOL     OW21918   4.975   2.116   2.098 -0.3431  0.2214  0.1934
 5191SOL    HW121919   4.998   2.036   2.146 -1.0547 -0.9478 -1.3235
 5191SOL    HW221920   4.950   2.085   2.010 -0.4611  2.1340 -0.4970
 5192SOL     OW21921   8.099   6.215   4.002 -0.4551  0.1238  0.1755
 5192SOL    HW121922   8.080   6.121   4.002  1.3919 -0.2843  0.3423
 5192SOL    HW221923   8.116   6.236   4.093 -0.8971  0.6360  0.1402
 5193SOL     OW21924   8.962   8.652   1.510 -0.3120  0.4332  0.3499
 5193SOL    HW121925   9.044   8.702   1.508 -0.1622  0.1804 -0.7849
 5193SOL    HW221926   8.914   8.683   1.433  0.5140 -2.2993 -1.4020
 5194SOL     OW21927   6.107   3.571   0.635 -0.6461 -0.1870  0.4375
 5194SOL    HW121928   6.077   3.523   0.712 -1.6248  0.9918  0.8111
 5194SOL    HW221929   6.051   3.648   0.631  1.2996  1.3013  0.2457
 5195SOL     OW21930   0.935   8.505   0.573 -0.1390  0.5991  0.3490
 5195SOL    HW121931   0.846   8.485   0.542 -0.1982 -0.4563  1.1602
 5195SOL    HW221932   0.943   8.600   0.561 -0.4198  0.3794 -2.1904
 5196SOL     OW21933   7.292   1.992   2.250 -0.3883  0.0795  0.2681
 5196SOL    HW121934   7.218   1.988   2.190  0.2617 -1.1641 -0.4779
 5196SOL    HW221935   7.340   1.911   2.236  0.4667  0.3188  1.5976
 5197SOL     OW21936   6.501   1.251   6.508  0.1705 -0.5217  0.5224
 5197SOL    HW121937   6.544   1.166   6.514  0.0595 -0.4970  2.1367
 5197SOL    HW221938   6.425   1.243   6.565 -2.3770 -0.7267 -2.6228
 5198SOL     OW21939   4.878   7.443   0.847  0.3663 -0.1249 -0.2459
 5198SOL    HW121940   4.821   7.509   0.807  0.0922  0.8835  1.7041
 5198SOL    HW221941   4.958   7.490   0.868  1.0326 -0.9726 -0.8315
 5199SOL     OW21942   5.309   6.527   2.226  0.0307  0.0198  0.2483
 5199SOL    HW121943   5.343   6.479   2.151  0.7205  0.8800 -0.0123
 5199SOL    HW221944   5.384   6.580   2.256 -0.5577  0.5319  0.8453
 5200SOL     OW21945   3.855   2.070   5.592  0.2783 -0.2038  1.0627
 5200SOL    HW121946   3.926   2.128   5.619 -2.7445  3.5593  1.7935
 5200SOL    HW221947   3.825   2.106   5.508 -0.5089 -2.0071  0.5127
 5201SOL     OW21948   2.390   0.563   0.542 -0.3515  0.2032 -0.1588
 5201SOL    HW121949   2.345   0.645   0.522 -1.8975 -0.3271  0.9169
 5201SOL    HW221950   2.469   0.589   0.587 -1.1909  1.1051  0.8431
 5202SOL     OW21951   3.080   1.551   5.924 -0.3672  0.2041  0.2083
 5202SOL    HW121952   3.092   1.495   6.001  0.9057 -0.2864 -0.3177
 5202SOL    HW221953   3.015   1.506   5.870  0.8816 -0.9744 -0.3688
 5203SOL     OW21954   6.602   6.738   4.968 -0.1888 -0.5137 -0.6390
 5203SOL    HW121955   6.585   6.724   5.061  1.6121  0.0229 -0.2028
 5203SOL    HW221956   6.627   6.830   4.962 -3.0040  0.2654 -2.1133
 5204SOL     OW21957   8.508   5.808   2.099 -0.2954  0.2312  0.0699
 5204SOL    HW121958   8.590   5.759   2.100 -0.8307 -0.6885  0.4423
 5204SOL    HW221959   8.527   5.889   2.147  0.1065 -0.4781  1.1519
 5205SOL     OW21960   0.836   9.064   3.775 -0.7627  0.4979  0.1223
 5205SOL    HW121961   0.840   9.155   3.802  2.4480  0.6274 -0.4180
 5205SOL    HW221962   0.847   9.066   3.680 -0.9348 -0.4372  0.0675
 5206SOL     OW21963   8.675   5.775   5.220 -0.1848 -0.2788  0.0499
 5206SOL    HW121964   8.747   5.838   5.213  0.5348 -1.0476  0.4091
 5206SOL    HW221965   8.634   5.794   5.305 -0.9563  0.7082 -0.5151
 5207SOL     OW21966   2.116   0.335   5.457  0.0110  0.9310 -0.2957
 5207SOL    HW121967   2.084   0.260   5.407  0.1725  0.8318 -0.2502
 5207SOL    HW221968   2.047   0.401   5.447 -0.3091  0.6418 -0.0179
 5208SOL     OW21969   7.819   0.580   7.523 -0.1296  0.1943 -0.3818
 5208SOL    HW121970   7.826   0.649   7.589 -0.4998 -1.0420  1.0200
 5208SOL    HW221971   7.725   0.561   7.518  0.1384 -2.3682  1.7250
 5209SOL     OW21972   9.177   4.004   2.335  0.4747  0.0016 -0.7629
 5209SOL    HW121973   9.220   4.065   2.395 -0.0599  0.2772 -0.6576
 5209SOL    HW221974   9.246   3.942   2.311  0.5507 -0.5013  0.6383
 5210SOL     OW21975   4.638   4.590   0.004 -0.1556 -0.5509 -0.0024
 5210SOL    HW121976   4.545   4.611   0.008  0.0404  0.4842 -0.5101
 5210SOL    HW221977   4.648   4.538  -0.076 -0.3117 -0.7433  0.1036
 5211SOL     OW21978   8.066   1.673   2.553  0.5393 -0.0597 -0.6066
 5211SOL    HW121979   8.084   1.585   2.584 -0.7589 -0.9827 -2.3036
 5211SOL    HW221980   8.018   1.661   2.471 -0.4016  2.2230 -0.4843
 5212SOL     OW21981   7.576   3.192   9.225 -0.1560  0.6824 -0.2155
 5212SOL    HW121982   7.512   3.263   9.234  0.4085  1.3199 -1.0132
 5212SOL    HW221983   7.546   3.124   9.284 -2.3499  0.3694 -1.5992
 5213SOL     OW21984   1.039   5.409   8.874 -0.0078  0.2143 -0.6334
 5213SOL    HW121985   1.134   5.408   8.865 -0.0104 -0.6426 -0.6395
 5213SOL    HW221986   1.018   5.500   8.895  0.7787  0.4793 -0.9551
 5214SOL     OW21987   3.569   7.003   1.680 -0.4497 -0.0705 -0.4275
 5214SOL    HW121988   3.558   6.930   1.620 -0.5345  0.5141 -1.1297
 5214SOL    HW221989   3.484   7.012   1.723 -0.0750 -1.1895  0.6030
 5215SOL     OW21990   5.844   8.347   3.271  0.0077 -0.2514  0.0930
 5215SOL    HW121991   5.754   8.333   3.244  0.0025  0.9391 -0.5847
 5215SOL    HW221992   5.838   8.413   3.341  0.0906 -2.6875  2.5504
 5216SOL     OW21993   2.509   6.774   7.740 -0.0962  0.2235 -0.2379
 5216SOL    HW121994   2.443   6.837   7.772 -0.6205 -0.8799  0.9484
 5216SOL    HW221995   2.465   6.729   7.668  0.4021  1.4148 -1.3182
 5217SOL     OW21996   1.942   2.710   5.854  0.4671  0.1594  0.2572
 5217SOL    HW121997   1.885   2.633   5.846  1.3330 -0.4236 -0.4417
 5217SOL    HW221998   1.891   2.781   5.815  1.1151 -0.8520 -2.7287
 5218SOL     OW21999   0.642   6.923   3.686  0.4841 -0.2640  0.1843
 5218SOL    HW122000   0.581   6.965   3.625 -0.4371 -2.3271 -0.4002
 5218SOL    HW222001   0.726   6.925   3.641  0.1518 -0.2951 -0.4604
 5219SOL     OW22002   8.219   0.587   3.447  0.4761  0.3286  0.0625
 5219SOL    HW122003   8.163   0.582   3.525 -0.6316  0.9201 -0.6632
 5219SOL    HW222004   8.160   0.615   3.378  1.3820 -0.4553 -1.0618
 5220SOL     OW22005   2.913   7.262   8.750  0.3573 -0.2897 -0.0008
 5220SOL    HW122006   2.949   7.173   8.750  0.5276 -0.2270  1.0427
 5220SOL    HW222007   2.874   7.271   8.663  0.6322 -1.2652 -0.2424
 5221SOL     OW22008   8.133   1.786   8.255  0.5050  0.2481 -0.1669
 5221SOL    HW122009   8.098   1.828   8.177 -0.4737  0.2866  0.2799
 5221SOL    HW222010   8.079   1.819   8.327 -0.9013 -2.3936  0.1166
 5222SOL     OW22011   5.210   2.959   6.339 -0.1141 -0.3823  0.0231
 5222SOL    HW122012   5.253   3.041   6.316 -0.5820  0.3507  1.5898
 5222SOL    HW222013   5.196   2.966   6.434 -0.4672 -2.1327  0.1293
 5223SOL     OW22014   1.770   1.641   5.989  0.1585 -0.0267 -0.3354
 5223SOL    HW122015   1.721   1.713   5.949  0.0407  0.6864  1.0342
 5223SOL    HW222016   1.713   1.565   5.981  0.1453  0.0964 -1.5144
 5224SOL     OW22017   8.688   6.165   6.376  0.1976  0.0577 -0.1118
 5224SOL    HW122018   8.631   6.222   6.324  1.7952  2.2037  0.3546
 5224SOL    HW222019   8.776   6.183   6.343  0.7957 -2.4265 -0.1319
 5225SOL     OW22020   3.201   4.344   1.718 -0.0738 -0.0469 -0.0028
 5225SOL    HW122021   3.107   4.337   1.737 -0.0505 -0.9892 -0.1725
 5225SOL    HW222022   3.243   4.298   1.791  0.1841 -0.6691 -0.5287
 5226SOL     OW22023   5.743   3.036   1.291 -0.6532  0.0045 -0.5589
 5226SOL    HW122024   5.716   3.041   1.199  0.6085  1.3361 -0.8819
 5226SOL    HW222025   5.825   2.988   1.290  0.3484  1.6382 -0.3884
 5227SOL     OW22026   7.925   2.922   0.330  0.0532 -0.2250 -0.6009
 5227SOL    HW122027   7.903   2.968   0.411  2.7136  2.9262 -1.4159
 5227SOL    HW222028   7.984   2.851   0.358  1.7107  1.4000  0.2780
 5228SOL     OW22029   7.459   5.017   8.591  0.5134  0.0427  0.4158
 5228SOL    HW122030   7.437   4.987   8.503  2.6479  0.1008 -0.1922
 5228SOL    HW222031   7.497   5.104   8.578  2.5775 -0.6908  1.1343
 5229SOL     OW22032   7.650   1.805   4.817  0.1075 -0.0779  0.1816
 5229SOL    HW122033   7.714   1.735   4.806 -1.3128 -1.5291  0.7858
 5229SOL    HW222034   7.591   1.773   4.885 -1.2063  1.2542 -0.2928
 5230SOL     OW22035   6.205   2.657   1.292 -0.5330  0.7004  0.4162
 5230SOL    HW122036   6.161   2.696   1.367 -0.5041  0.9368  0.3097
 5230SOL    HW222037   6.137   2.607   1.248 -1.0369  2.1639 -0.5218
 5231SOL     OW22038   1.065   2.880   0.808  0.6138 -0.1214 -0.1278
 5231SOL    HW122039   1.089   2.969   0.784  1.7129 -0.2019  0.6313
 5231SOL    HW222040   1.128   2.854   0.874 -1.5116 -0.3704  1.9493
 5232SOL     OW22041   5.882   5.703   1.812  0.2226  0.1860  0.2619
 5232SOL    HW122042   5.921   5.759   1.879  0.8668 -0.0291  0.0770
 5232SOL    HW222043   5.807   5.662   1.856  0.7119 -0.0485  0.8889
 5233SOL     OW22044   2.573   1.108   5.804  0.4033  0.2333 -0.1932
 5233SOL    HW122045   2.566   1.130   5.897  0.2142 -0.0555 -0.1352
 5233SOL    HW222046   2.601   1.016   5.804 -0.0328  0.0976 -0.4176
 5234SOL     OW22047   4.455   1.547   4.046  0.3879 -0.1829 -0.0405
 5234SOL    HW122048   4.489   1.636   4.047 -0.2008  0.1342 -2.3906
 5234SOL    HW222049   4.397   1.543   4.121  1.3614  1.0023  0.8243
 5235SOL     OW22050   3.117   3.231   4.701  0.5568  0.5683 -0.0392
 5235SOL    HW122051   3.123   3.324   4.678  0.0179  0.4542 -0.6779
 5235SOL    HW222052   3.179   3.189   4.642  0.0331  0.4084 -0.4848
 5236SOL     OW22053   0.798   0.719   5.108 -0.0022  0.1781  0.2752
 5236SOL    HW122054   0.868   0.755   5.162 -0.5571  1.6115  0.0860
 5236SOL    HW222055   0.728   0.699   5.170 -0.3047  0.9832  0.2012
 5237SOL     OW22056   4.165   8.477   1.742 -0.4660 -0.3182  0.3281
 5237SOL    HW122057   4.074   8.492   1.719 -1.0696  1.0516  3.1376
 5237SOL    HW222058   4.215   8.539   1.688 -1.6767  2.1198  1.8492
 5238SOL     OW22059   4.418   6.864   5.505 -0.3269  0.1177  0.0410
 5238SOL    HW122060   4.433   6.889   5.596 -0.5926  1.5968 -0.2883
 5238SOL    HW222061   4.323   6.872   5.493 -0.3251 -0.3277 -0.3003
 5239SOL     OW22062   3.348   8.856   2.397 -0.0034  0.0895  0.5800
 5239SOL    HW122063   3.407   8.791   2.435  1.4937  1.2693  0.3947
 5239SOL    HW222064   3.262   8.815   2.399  0.6679 -1.3506  1.7044
 5240SOL     OW22065   4.929   0.378   1.247  0.5960  0.4217  0.2517
 5240SOL    HW122066   4.929   0.419   1.333  1.0725 -1.1349  1.0295
 5240SOL    HW222067   4.922   0.284   1.265  0.3840  0.0811 -1.4217
 5241SOL     OW22068   7.790   4.795   4.177  0.2358  0.0062  0.4280
 5241SOL    HW122069   7.736   4.756   4.108  1.2311 -0.4729 -0.0952
 5241SOL    HW222070   7.781   4.736   4.251  0.0508 -0.0707  0.3455
 5242SOL     OW22071   1.552   2.307   6.044 -0.3495  0.6468  0.4242
 5242SOL    HW122072   1.537   2.303   6.138 -0.6893 -0.6962  0.3361
 5242SOL    HW222073   1.625   2.247   6.028 -0.7648  0.2897 -0.2346
 5243SOL     OW22074   0.978   0.192   0.767 -0.1350  0.3472  0.0433
 5243SOL    HW122075   0.999   0.232   0.683  1.0213  0.4485  0.3587
 5243SOL    HW222076   0.891   0.224   0.789  0.7903  2.8267  0.3593
 5244SOL     OW22077   3.184   8.985   1.983 -0.4350  0.1854  0.0978
 5244SOL    HW122078   3.213   8.895   1.996  0.7225  0.4823 -0.3293
 5244SOL    HW222079   3.246   9.038   2.033 -1.1862  0.7428  0.4599
 5245SOL     OW22080   8.250   2.339   8.424 -0.1073 -0.0415 -0.1904
 5245SOL    HW122081   8.282   2.322   8.513  0.5705  1.0054 -0.2237
 5245SOL    HW222082   8.242   2.252   8.385 -2.1794 -0.6851  1.4643
 5246SOL     OW22083   3.430   3.367   3.245 -0.0086  0.9294 -0.2955
 5246SOL    HW122084   3.388   3.288   3.280 -1.0696  2.1372  1.3289
 5246SOL    HW222085   3.364   3.405   3.187 -0.0043  1.2905 -0.0647
 5247SOL     OW22086   0.028   2.701   0.640 -0.4330  0.3267 -0.3332
 5247SOL    HW122087   0.099   2.657   0.592 -0.1886  1.5557 -1.1701
 5247SOL    HW222088  -0.027   2.630   0.672  0.2098 -0.6016 -1.1971
 5248SOL     OW22089   4.087   0.580   0.998  0.2485  0.5601  0.4840
 5248SOL    HW122090   4.042   0.617   0.922  0.7729 -0.5118 -0.3695
 5248SOL    HW222091   4.016   0.552   1.056 -0.1590  1.0572  0.2362
 5249SOL     OW22092   0.093   4.331   6.740  0.2251  0.5390 -0.0740
 5249SOL    HW122093   0.101   4.425   6.755  0.0397  0.5752 -0.2011
 5249SOL    HW222094   0.129   4.291   6.819 -1.7864  0.7380  1.0135
 5250SOL     OW22095   1.285   3.045   5.540 -0.4445  0.5018 -0.4750
 5250SOL    HW122096   1.193   3.056   5.519 -0.3949  0.0017 -0.9661
 5250SOL    HW222097   1.330   3.108   5.483 -0.5356  1.3333  0.3518
 5251SOL     OW22098   6.230   5.819   7.534  0.6873  0.3312  0.1867
 5251SOL    HW122099   6.264   5.730   7.542  1.8099  0.4360 -2.3610
 5251SOL    HW222100   6.142   5.814   7.572  1.3606 -1.4038  1.6770
 5252SOL     OW22101   3.529   8.476   6.246 -0.0323  0.0921  0.5641
 5252SOL    HW122102   3.494   8.434   6.167  2.0526 -0.4886 -0.1365
 5252SOL    HW222103   3.547   8.404   6.306 -0.3835  0.4096  1.0608
 5253SOL     OW22104   0.936   5.616   2.694  0.1889 -0.6085  0.4144
 5253SOL    HW122105   1.003   5.678   2.666 -1.0661  0.0416 -1.3404
 5253SOL    HW222106   0.946   5.611   2.789  1.9074  0.3878  0.3255
 5254SOL     OW22107   0.824   8.402   0.161  1.0880  0.1638  0.3980
 5254SOL    HW122108   0.852   8.320   0.122  1.9796 -1.1915  3.5759
 5254SOL    HW222109   0.775   8.376   0.239  1.0458  2.6471  1.2928
 5255SOL     OW22110   5.866   3.812   4.822  0.0042 -0.1651  0.0629
 5255SOL    HW122111   5.951   3.810   4.866 -0.4679  0.9957  1.0862
 5255SOL    HW222112   5.802   3.819   4.893 -0.7713  2.0174 -0.7752
 5256SOL     OW22113   7.607   2.598   2.550  0.0055 -0.8301 -0.3461
 5256SOL    HW122114   7.701   2.590   2.532 -0.1996 -1.0336 -1.3963
 5256SOL    HW222115   7.588   2.691   2.536  0.2399 -0.5799  0.8967
 5257SOL     OW22116   0.297   1.972   6.651 -0.3551 -0.1298 -0.1710
 5257SOL    HW122117   0.288   2.048   6.709  1.0484  0.5776 -0.8395
 5257SOL    HW222118   0.294   1.896   6.709 -2.9685  0.3108  0.4061
 5258SOL     OW22119   7.903   3.011   5.950  0.0970  0.2079  0.2687
 5258SOL    HW122120   7.867   3.023   5.862  0.1776 -1.0498  0.0520
 5258SOL    HW222121   7.998   3.021   5.939  0.2743 -1.5407 -0.1170
 5259SOL     OW22122   5.699   3.233   4.398 -0.1181  0.4109  0.1406
 5259SOL    HW122123   5.702   3.202   4.488 -2.2972  2.1180  0.8878
 5259SOL    HW222124   5.639   3.173   4.354 -0.2326  0.4600  0.2283
 5260SOL     OW22125   2.636   4.929   0.710  0.0723  0.1421  0.0067
 5260SOL    HW122126   2.731   4.929   0.726  0.4568  1.8821 -1.8547
 5260SOL    HW222127   2.610   4.837   0.720  1.9760 -0.3965  0.3944
 5261SOL     OW22128   2.057   2.918   3.565  0.1194  0.3926  0.0606
 5261SOL    HW122129   1.987   2.962   3.517 -0.2836 -0.6228 -0.3007
 5261SOL    HW222130   2.053   2.956   3.653 -0.3859  0.8825 -0.1637
 5262SOL     OW22131   1.014   5.515   1.894  0.1246  0.2943  0.1854
 5262SOL    HW122132   1.012   5.575   1.820 -0.1676 -0.7675 -0.6922
 5262SOL    HW222133   0.953   5.445   1.870 -1.9744  1.1480  2.5133
 5263SOL     OW22134   4.426   8.902   8.230  0.3865 -0.0284  0.1879
 5263SOL    HW122135   4.352   8.960   8.247  0.6456  0.4978 -0.4471
 5263SOL    HW222136   4.476   8.946   8.162 -1.6015 -2.7713 -3.4741
 5264SOL     OW22137   8.213   3.268   2.130 -0.6365 -0.0085  0.5208
 5264SOL    HW122138   8.194   3.359   2.108  0.0857 -0.4093 -2.0580
 5264SOL    HW222139   8.136   3.220   2.101 -0.7196 -0.3119  1.2308
 5265SOL     OW22140   7.854   9.085   1.715  0.3057  0.0828 -0.6550
 5265SOL    HW122141   7.845   9.173   1.679 -0.7819 -0.1179 -0.9032
 5265SOL    HW222142   7.948   9.075   1.731  0.5329  0.9911 -1.3653
 5266SOL     OW22143   4.958   0.679   8.051 -0.3795 -0.2658 -0.1241
 5266SOL    HW122144   4.966   0.610   7.985 -1.5975 -0.0305 -0.5516
 5266SOL    HW222145   4.870   0.667   8.087 -0.7252  1.2212 -0.4022
 5267SOL     OW22146   8.288   1.846   6.206 -0.1148 -0.2666  0.0983
 5267SOL    HW122147   8.366   1.865   6.258 -0.3675  1.5902 -0.1282
 5267SOL    HW222148   8.289   1.751   6.196  2.0921 -0.3085  0.1308
 5268SOL     OW22149   8.862   0.085   6.142 -0.0091  0.7449 -0.0947
 5268SOL    HW122150   8.827   0.099   6.054 -0.5585  1.8361  0.2871
 5268SOL    HW222151   8.954   0.112   6.135  0.2660 -0.2590 -0.6009
 5269SOL     OW22152   0.031   5.230   8.008 -0.4082  0.5074 -0.3554
 5269SOL    HW122153   0.097   5.235   7.938  1.1420  2.5645  1.1386
 5269SOL    HW222154  -0.045   5.277   7.973  0.7501  2.4890 -0.3125
 5270SOL     OW22155   0.011   5.993   1.251 -0.1340  0.1012  0.4302
 5270SOL    HW122156  -0.008   6.035   1.335 -0.4977 -0.4592  0.6357
 5270SOL    HW222157   0.105   6.005   1.239 -0.0638  0.1143  0.9632
 5271SOL     OW22158   1.495   0.225   0.217  0.3159  0.7410 -0.4311
 5271SOL    HW122159   1.584   0.216   0.249  0.2868  0.7892 -0.3366
 5271SOL    HW222160   1.474   0.140   0.179  0.8680  1.1081 -1.6277
 5272SOL     OW22161   8.118   6.509   8.921  0.0395 -0.3174  0.9790
 5272SOL    HW122162   8.129   6.556   8.838 -3.3019 -1.0505 -0.0124
 5272SOL    HW222163   8.137   6.418   8.900  0.1870 -0.3564  1.2817
 5273SOL     OW22164   3.822   8.303   8.990  0.8149 -0.3606  0.2042
 5273SOL    HW122165   3.851   8.337   9.075 -0.9133 -0.5814  0.9219
 5273SOL    HW222166   3.752   8.363   8.963 -2.1316 -2.9982  1.3792
 5274SOL     OW22167   1.763   4.714   5.962 -0.2196  0.3872 -0.2062
 5274SOL    HW122168   1.769   4.809   5.953  0.7447  0.2791 -0.9046
 5274SOL    HW222169   1.740   4.700   6.054  2.9123  1.2406  0.8386
 5275SOL     OW22170   4.927   8.899   1.231 -0.2087 -0.0348 -0.4966
 5275SOL    HW122171   4.941   8.844   1.154 -0.2430  0.5028 -0.8875
 5275SOL    HW222172   4.994   8.870   1.293 -1.3676 -1.7942  0.0170
 5276SOL     OW22173   8.868   0.372   8.568 -1.1498  0.0017  0.1325
 5276SOL    HW122174   8.880   0.285   8.605 -1.7117 -0.8543 -1.5807
 5276SOL    HW222175   8.833   0.356   8.481 -0.8234  1.9452 -0.4002
 5277SOL     OW22176   5.547   2.898   4.727 -0.1337  0.1443  0.3271
 5277SOL    HW122177   5.538   2.807   4.753 -1.9210  0.2094  0.0304
 5277SOL    HW222178   5.462   2.922   4.690  0.7798  1.4644 -1.0922
 5278SOL     OW22179   1.588   8.801   0.212  0.0157 -0.2108 -0.2937
 5278SOL    HW122180   1.568   8.772   0.301 -0.3837  0.3836 -0.1922
 5278SOL    HW222181   1.679   8.772   0.198  0.5347  0.8375  0.7816
 5279SOL     OW22182   2.482   4.643   2.511  0.1331  0.0106  0.3621
 5279SOL    HW122183   2.556   4.644   2.573  0.3024  0.8839  0.1519
 5279SOL    HW222184   2.507   4.705   2.443 -1.7381  2.0060  1.4128
 5280SOL     OW22185   0.497   3.684   6.494  0.2702  0.0869  0.2179
 5280SOL    HW122186   0.432   3.651   6.555  0.3451 -0.8771 -0.2113
 5280SOL    HW222187   0.575   3.701   6.547 -0.2605  1.0828  0.7008
 5281SOL     OW22188   1.957   2.328   6.620  0.0780  0.3447 -0.2340
 5281SOL    HW122189   2.026   2.364   6.564  0.5978 -1.1471 -0.6104
 5281SOL    HW222190   1.884   2.310   6.560 -0.5039  1.4787  0.0879
 5282SOL     OW22191   8.842   8.567   0.727  0.2793 -0.3605  0.5851
 5282SOL    HW122192   8.889   8.510   0.788 -0.2933 -0.7392  0.6738
 5282SOL    HW222193   8.877   8.543   0.641 -1.2638 -2.1879  0.3997
 5283SOL     OW22194   3.857   2.204   7.536  0.2839  0.8254  1.0350
 5283SOL    HW122195   3.910   2.252   7.473  0.5162  0.5606  1.0308
 5283SOL    HW222196   3.857   2.260   7.614 -0.9044  1.6891  0.4565
 5284SOL     OW22197   6.479   8.172   0.218  0.7813  0.0945 -0.3899
 5284SOL    HW122198   6.523   8.109   0.161  0.4024  0.6454 -1.3249
 5284SOL    HW222199   6.514   8.257   0.191 -0.3235  0.4844 -0.6961
 5285SOL     OW22200   3.071   5.321   5.036 -0.3042 -0.2932 -0.1759
 5285SOL    HW122201   3.091   5.381   5.107 -1.3567 -2.0232  1.6636
 5285SOL    HW222202   2.977   5.307   5.041 -0.2617 -1.2028 -1.3072
 5286SOL     OW22203   8.617   1.968   1.487 -0.0404  0.1930 -0.2970
 5286SOL    HW122204   8.706   1.950   1.519 -0.1909  1.5974  1.0683
 5286SOL    HW222205   8.561   1.911   1.540 -0.0977  0.8138  0.3283
 5287SOL     OW22206   7.428   6.437   0.858  0.2712  0.0042 -0.4397
 5287SOL    HW122207   7.434   6.495   0.933  1.2120  0.3691 -0.7835
 5287SOL    HW222208   7.338   6.445   0.828 -0.8497 -1.8863  2.0037
 5288SOL     OW22209   2.492   4.912   6.878  0.8939 -0.0929 -0.3526
 5288SOL    HW122210   2.414   4.912   6.933  0.6701 -0.2650 -0.6700
 5288SOL    HW222211   2.537   4.830   6.901  0.7266 -0.2351 -0.5296
 5289SOL     OW22212   7.742   8.961   1.015 -0.3405 -0.5340 -0.1171
 5289SOL    HW122213   7.748   9.039   1.071  0.4249 -0.3774 -0.4091
 5289SOL    HW222214   7.731   8.889   1.077 -0.5032 -0.2601  0.1811
 5290SOL     OW22215   1.311   1.255   6.741  0.3109  0.6538  0.1718
 5290SOL    HW122216   1.386   1.263   6.800  0.4239  1.3655 -0.0579
 5290SOL    HW222217   1.255   1.189   6.783  1.2360 -0.1853  0.1469
 5291SOL     OW22218   2.332   0.598   1.394 -0.3808  0.1413  0.3381
 5291SOL    HW122219   2.411   0.579   1.343 -1.8539  0.6458 -2.2727
 5291SOL    HW222220   2.332   0.532   1.463  1.0552 -1.4035 -1.0533
 5292SOL     OW22221   4.080   3.670   7.154 -0.4171 -0.1564 -0.3689
 5292SOL    HW122222   4.091   3.577   7.173  0.4055  0.1428  0.7574
 5292SOL    HW222223   4.106   3.679   7.063  0.2257 -0.9141 -0.2747
 5293SOL     OW22224   6.103   1.276   1.951  0.0849 -0.1694  0.4354
 5293SOL    HW122225   6.026   1.326   1.978 -0.7668 -1.1592 -0.0766
 5293SOL    HW222226   6.177   1.336   1.963 -0.6141  0.4152  2.0577
 5294SOL     OW22227   4.777   3.310   6.113 -0.1972  0.1749 -0.2143
 5294SOL    HW122228   4.740   3.391   6.148 -0.9110 -0.2094 -0.0479
 5294SOL    HW222229   4.805   3.260   6.190 -2.6082 -1.0740 -0.0457
 5295SOL     OW22230   7.095   3.665   2.767  0.5232 -0.3010  0.2612
 5295SOL    HW122231   7.187   3.667   2.794  0.8548 -1.0669 -0.7502
 5295SOL    HW222232   7.068   3.756   2.765  0.8269 -0.1486  1.9667
 5296SOL     OW22233   4.831   4.273   5.617 -0.4547  0.7635 -0.0048
 5296SOL    HW122234   4.838   4.184   5.652 -1.5090  0.4218 -0.6340
 5296SOL    HW222235   4.794   4.324   5.688  1.5724  1.0768  0.9094
 5297SOL     OW22236   1.637   0.903   0.087  0.4526 -0.2848 -0.3981
 5297SOL    HW122237   1.563   0.963   0.082 -0.6973 -1.7422 -1.6458
 5297SOL    HW222238   1.713   0.957   0.063 -0.4242  0.8511 -0.6795
 5298SOL     OW22239   4.806   4.024   5.715 -0.2133  0.4250 -0.0413
 5298SOL    HW122240   4.720   4.019   5.674 -0.1259  0.2911 -0.2098
 5298SOL    HW222241   4.793   3.985   5.802 -0.0676 -0.6509 -0.4889
 5299SOL     OW22242   2.748   6.003   9.220 -0.2635  0.0225  0.4258
 5299SOL    HW122243   2.726   6.074   9.280 -0.9903  1.3492 -1.3409
 5299SOL    HW222244   2.673   5.944   9.225  0.6205 -1.0386  2.3802
 5300SOL     OW22245   1.068   1.649   0.228 -0.2100  0.4122 -0.0705
 5300SOL    HW122246   1.092   1.732   0.268  0.6566  0.1854 -0.1029
 5300SOL    HW222247   1.146   1.621   0.181 -0.4379 -0.4970  0.0657
 5301SOL     OW22248   1.877   6.708   3.600 -0.4886  0.0361 -0.3015
 5301SOL    HW122249   1.797   6.756   3.576 -0.6788 -1.3227 -2.6441
 5301SOL    HW222250   1.943   6.776   3.613 -1.5889  1.0881 -0.0180
 5302SOL     OW22251   1.039   5.602   7.079 -0.0823  0.0227  0.4925
 5302SOL    HW122252   1.129   5.578   7.058  0.5909 -0.5332  3.6009
 5302SOL    HW222253   1.037   5.698   7.070  0.6898 -0.0001  0.0225
 5303SOL     OW22254   0.091   0.375   8.005 -0.1587  0.1882  0.0874
 5303SOL    HW122255   0.081   0.335   7.919 -0.5551 -0.3603  0.3883
 5303SOL    HW222256   0.119   0.465   7.986 -0.9891  0.3013 -0.6318
 5304SOL     OW22257   2.033   3.655   4.703  0.0234  0.0855 -0.1077
 5304SOL    HW122258   1.956   3.610   4.669 -0.8194  0.6967  0.9134
 5304SOL    HW222259   2.081   3.589   4.752 -0.1381 -0.1704 -0.2962
 5305SOL     OW22260   5.788   2.243   2.918  0.8632 -0.3051 -0.2424
 5305SOL    HW122261   5.740   2.318   2.883  2.6550  0.6184 -0.8239
 5305SOL    HW222262   5.737   2.167   2.888 -0.1930  0.6116 -0.8709
 5306SOL     OW22263   5.667   1.151   1.433 -0.4204 -1.1271 -0.4543
 5306SOL    HW122264   5.762   1.154   1.426 -0.2578 -1.3488  1.2025
 5306SOL    HW222265   5.650   1.081   1.497 -1.5585  0.4439  1.0629
 5307SOL     OW22266   7.495   0.310   8.881 -0.2233  0.2043  0.0611
 5307SOL    HW122267   7.526   0.345   8.797 -0.3681 -1.1135 -0.5782
 5307SOL    HW222268   7.548   0.231   8.895  1.0036  1.3163  2.1042
 5308SOL     OW22269   8.093   4.483   7.265  0.5536 -0.0096 -0.4857
 5308SOL    HW122270   8.022   4.494   7.328  0.1224  0.6666 -1.0653
 5308SOL    HW222271   8.094   4.390   7.245  1.5775 -0.4882  1.5060
 5309SOL     OW22272   0.053   9.113   7.785 -0.3334  0.1758 -0.4600
 5309SOL    HW122273   0.003   9.057   7.726  0.9479 -1.7443  0.1812
 5309SOL    HW222274   0.045   9.071   7.870  1.3032  0.5183 -0.1070
 5310SOL     OW22275   5.468   8.651   5.787  0.3551 -0.1680 -0.5897
 5310SOL    HW122276   5.489   8.574   5.734 -0.5604 -0.9709  0.1709
 5310SOL    HW222277   5.377   8.636   5.815  0.1514  1.2109 -0.4518
 5311SOL     OW22278   8.176   2.718   6.080  0.4315 -0.2731 -0.0912
 5311SOL    HW122279   8.116   2.643   6.081  0.1754 -0.0863  1.7091
 5311SOL    HW222280   8.169   2.753   5.991 -2.4451 -0.0108  0.1307
 5312SOL     OW22281   2.454   2.983   3.921 -0.4086 -0.1502 -0.0178
 5312SOL    HW122282   2.444   3.056   3.982  1.4568 -0.4965  0.7817
 5312SOL    HW222283   2.479   3.024   3.838  3.6868  0.1564  1.1441
 5313SOL     OW22284   2.139   2.128   0.713 -0.0386 -0.1806  0.2139
 5313SOL    HW122285   2.073   2.084   0.659  0.5726  1.6260 -2.1549
 5313SOL    HW222286   2.104   2.216   0.726  1.1874  0.3030  0.2844
 5314SOL     OW22287   3.459   7.013   0.003  0.1527 -0.1449  0.0813
 5314SOL    HW122288   3.456   6.966   0.086 -2.2444 -3.4031 -1.5825
 5314SOL    HW222289   3.383   6.980  -0.045  2.6553 -0.3156 -4.3048
 5315SOL     OW22290   4.466   1.234   4.371  0.1442  0.3375 -0.2600
 5315SOL    HW122291   4.540   1.251   4.312 -0.9809  1.2143 -1.4551
 5315SOL    HW222292   4.503   1.178   4.439  2.4275  2.3586  0.2992
 5316SOL     OW22293   4.370   7.906   0.795  0.2802 -0.1523 -0.2562
 5316SOL    HW122294   4.371   7.832   0.857 -0.9511  0.0386  0.0131
 5316SOL    HW222295   4.281   7.940   0.800  0.7391  1.1442 -0.6425
 5317SOL     OW22296   7.756   5.149   3.541  0.3641 -0.3934  0.1726
 5317SOL    HW122297   7.844   5.187   3.542 -0.3054  1.2896 -0.6552
 5317SOL    HW222298   7.723   5.161   3.630  0.0130  1.4649 -0.1580
 5318SOL     OW22299   6.708   4.129   8.552  0.0617 -0.2778 -1.0696
 5318SOL    HW122300   6.777   4.192   8.570 -1.8936  2.0443 -1.0696
 5318SOL    HW222301   6.721   4.104   8.460  0.9862  0.0092 -1.0213
 5319SOL     OW22302   2.221   6.868   1.684 -0.4514  0.7188  0.2021
 5319SOL    HW122303   2.253   6.779   1.668 -0.2368  0.5067  1.7114
 5319SOL    HW222304   2.253   6.919   1.610 -1.5108 -0.6674 -1.2868
 5320SOL     OW22305   6.203   2.172   3.920  0.7728  0.5039 -0.0985
 5320SOL    HW122306   6.148   2.125   3.858  1.6041  0.9817 -1.2427
 5320SOL    HW222307   6.220   2.256   3.879 -1.0881  2.0977  2.1143
 5321SOL     OW22308   8.333   5.169   2.358  0.0034  0.0821  0.0120
 5321SOL    HW122309   8.337   5.162   2.262 -0.8814 -0.1777 -0.0088
 5321SOL    HW222310   8.425   5.166   2.385  0.3024  0.7560 -0.8659
 5322SOL     OW22311   1.909   5.752   7.566 -0.0753  0.4717  0.1442
 5322SOL    HW122312   1.939   5.842   7.569 -1.3767  0.9828 -0.9154
 5322SOL    HW222313   1.916   5.728   7.473 -0.6082 -0.1981  0.2691
 5323SOL     OW22314   6.451   6.338   8.478 -0.5042  0.6126  0.1292
 5323SOL    HW122315   6.361   6.363   8.458 -0.6857  0.7513  1.0644
 5323SOL    HW222316   6.452   6.328   8.574  0.4606  0.5642  0.1201
 5324SOL     OW22317   2.603   7.371   3.104 -0.0373 -0.4296  0.5334
 5324SOL    HW122318   2.661   7.295   3.112 -0.0468 -0.2179  3.8275
 5324SOL    HW222319   2.515   7.333   3.113 -0.3861 -0.4521 -2.1102
 5325SOL     OW22320   1.754   8.693   1.476 -0.2577  0.6067  0.1861
 5325SOL    HW122321   1.823   8.627   1.475 -0.3893  0.4158  1.5368
 5325SOL    HW222322   1.795   8.772   1.439  0.1129 -0.0074 -0.7576
 5326SOL     OW22323   3.514   5.385   0.563 -0.1272 -0.3276  0.1597
 5326SOL    HW122324   3.535   5.409   0.473 -0.9091  0.6836  0.2282
 5326SOL    HW222325   3.585   5.422   0.615 -0.3633  0.2399  0.0815
 5327SOL     OW22326   4.310   2.974   3.302 -0.2211  0.2189  0.0913
 5327SOL    HW122327   4.385   2.930   3.341  0.2740  1.2916  0.3973
 5327SOL    HW222328   4.248   2.904   3.283  1.0273 -0.7437 -0.5717
 5328SOL     OW22329   3.005   4.712   0.954  0.1077  0.0959 -0.1903
 5328SOL    HW122330   3.008   4.792   0.902 -0.3531  0.4356  0.2929
 5328SOL    HW222331   3.031   4.643   0.894 -1.2778  0.3517 -1.1243
 5329SOL     OW22332   3.265   7.692   0.558  0.0428  0.3667  0.2380
 5329SOL    HW122333   3.272   7.603   0.593  1.0981 -0.2961 -1.4887
 5329SOL    HW222334   3.181   7.724   0.590 -0.0704 -1.0068  1.4299
 5330SOL     OW22335   2.082   2.453   2.124  0.1743 -0.6882  0.1870
 5330SOL    HW122336   2.132   2.530   2.096 -0.2552 -0.6460 -0.4660
 5330SOL    HW222337   2.103   2.444   2.217  0.8904 -0.2855  0.0694
 5331SOL     OW22338   6.374   8.404   2.754 -0.3250  0.4846 -0.3393
 5331SOL    HW122339   6.321   8.330   2.785  0.1482  0.3778  0.2418
 5331SOL    HW222340   6.324   8.440   2.681 -0.5669 -0.4084 -0.6327
 5332SOL     OW22341   2.007   1.064   7.861 -0.3345 -1.0237  0.3656
 5332SOL    HW122342   1.973   1.006   7.929 -2.5925 -0.9926 -0.6291
 5332SOL    HW222343   2.031   1.005   7.789 -1.0458 -0.8773 -0.0074
 5333SOL     OW22344   6.502   4.088   5.857 -0.2931  0.0210 -0.0670
 5333SOL    HW122345   6.417   4.060   5.890 -0.7623  1.1169 -0.3128
 5333SOL    HW222346   6.540   4.140   5.928  0.1470 -0.4014  0.0150
 5334SOL     OW22347   1.147   5.436   5.244  0.0554 -0.0773  0.1063
 5334SOL    HW122348   1.209   5.386   5.296  2.0958 -0.2276 -2.2944
 5334SOL    HW222349   1.192   5.518   5.225 -0.6965  0.0788 -1.1458
 5335SOL     OW22350   2.270   4.375   3.716 -0.2673  0.5847  0.3580
 5335SOL    HW122351   2.222   4.456   3.735 -1.3351 -0.1966  1.1296
 5335SOL    HW222352   2.304   4.347   3.801 -1.7839 -0.9045  0.5275
 5336SOL     OW22353   3.984   3.433   5.815  0.2302  0.5363  0.2611
 5336SOL    HW122354   3.921   3.385   5.761 -0.3163  0.0005  1.3547
 5336SOL    HW222355   3.945   3.435   5.902  1.8143  0.0003  1.0234
 5337SOL     OW22356   4.228   7.098   5.613  0.8605  0.5782 -0.1791
 5337SOL    HW122357   4.180   7.179   5.597 -1.4352 -1.1290 -2.8650
 5337SOL    HW222358   4.198   7.069   5.700 -0.4563  1.2496 -0.3818
 5338SOL     OW22359   9.236   2.277   8.999  0.2570  0.0076 -0.5233
 5338SOL    HW122360   9.169   2.331   8.959  2.0257  2.7291 -0.0661
 5338SOL    HW222361   9.232   2.298   9.093 -0.1715 -2.0664 -0.0252
 5339SOL     OW22362   5.658   0.995   4.580  0.3365 -0.8088  0.4389
 5339SOL    HW122363   5.600   0.921   4.563 -1.4123  0.4422  0.6566
 5339SOL    HW222364   5.670   1.037   4.495  2.4740 -2.0543  0.0409
 5340SOL     OW22365   6.832   4.903   7.170  0.1516  0.1578 -0.6400
 5340SOL    HW122366   6.874   4.987   7.188 -0.0461  0.0183  0.5346
 5340SOL    HW222367   6.759   4.899   7.232 -0.2496 -0.5903 -1.1437
 5341SOL     OW22368   9.211   2.469   2.231  0.0433  0.3603 -0.3286
 5341SOL    HW122369   9.252   2.390   2.197  0.8183  0.5067  0.2218
 5341SOL    HW222370   9.192   2.449   2.323 -0.0709  0.6844 -0.2788
 5342SOL     OW22371   7.030   0.406   0.662  0.2226  0.2200 -0.1257
 5342SOL    HW122372   7.065   0.320   0.638  1.0999  0.6846 -0.5772
 5342SOL    HW222373   7.004   0.445   0.579 -1.2981 -0.0617  0.1940
 5343SOL     OW22374   0.454   7.184   7.872 -0.2978  0.3750 -0.7724
 5343SOL    HW122375   0.548   7.181   7.851 -0.0861  1.5799 -0.1071
 5343SOL    HW222376   0.410   7.167   7.788  0.4712 -2.0795 -0.7589
 5344SOL     OW22377   8.725   5.686   9.088  0.2625 -0.0505 -0.6089
 5344SOL    HW122378   8.653   5.674   9.027 -0.3198 -1.3983  0.3053
 5344SOL    HW222379   8.797   5.635   9.052  0.2635  0.0157 -0.7024
 5345SOL     OW22380   6.119   8.588   0.894 -0.4540 -1.0507  0.3753
 5345SOL    HW122381   6.141   8.514   0.837 -0.1963 -0.3387 -0.4552
 5345SOL    HW222382   6.128   8.665   0.839 -0.7086 -0.3851  1.2419
 5346SOL     OW22383   6.490   2.586   7.958 -0.2608 -0.0618 -0.0076
 5346SOL    HW122384   6.410   2.581   7.905  0.5604 -0.2937 -1.2728
 5346SOL    HW222385   6.537   2.661   7.922  1.5898 -1.8340 -1.5077
 5347SOL     OW22386   5.973   4.615   6.069  0.0927 -0.1290  0.5542
 5347SOL    HW122387   5.990   4.531   6.026  0.3178 -0.8264  1.9211
 5347SOL    HW222388   6.056   4.662   6.063  0.4339 -0.6421  1.0924
 5348SOL     OW22389   5.808   1.809   8.613  0.0293 -0.7779 -0.2731
 5348SOL    HW122390   5.738   1.793   8.676  0.0889  2.5657  0.8400
 5348SOL    HW222391   5.876   1.854   8.663  1.0790 -0.0402 -2.2553
 5349SOL     OW22392   4.325   8.275   7.849  0.6588 -0.1578 -0.7584
 5349SOL    HW122393   4.313   8.301   7.940 -1.2923 -0.5035 -0.8798
 5349SOL    HW222394   4.325   8.357   7.800  0.1734 -0.0610 -0.5968
 5350SOL     OW22395   3.812   7.226   9.095  0.4978  0.6000  0.1340
 5350SOL    HW122396   3.793   7.318   9.112  0.1437  0.5176  0.1923
 5350SOL    HW222397   3.877   7.227   9.024  0.2477  0.8841 -0.0900
 5351SOL     OW22398   4.480   2.855   4.961  0.3294 -0.0240  0.4751
 5351SOL    HW122399   4.441   2.782   5.009 -1.0267  0.6316  0.4317
 5351SOL    HW222400   4.449   2.933   5.008 -0.6077  0.6183 -1.1233
 5352SOL     OW22401   4.776   1.394   7.752 -0.0383  0.1752 -0.3332
 5352SOL    HW122402   4.713   1.456   7.715 -2.1483 -2.0945 -0.8288
 5352SOL    HW222403   4.808   1.344   7.677 -0.1658 -0.8469  0.2663
 5353SOL     OW22404   0.869   8.267   6.607 -0.3739  0.4259  0.8746
 5353SOL    HW122405   0.892   8.307   6.692 -1.1745  0.2301  1.1887
 5353SOL    HW222406   0.954   8.247   6.567  0.0172  0.0253  1.8675
 5354SOL     OW22407   4.935   6.896   8.945  0.3485  0.2563  0.2976
 5354SOL    HW122408   4.953   6.989   8.946 -1.0484  0.5476  0.9818
 5354SOL    HW222409   4.915   6.873   9.036 -2.0465 -0.0814 -0.2265
 5355SOL     OW22410   3.937   3.258   6.334 -0.1583  0.2325  0.1626
 5355SOL    HW122411   3.849   3.229   6.308  0.4495 -1.2487 -0.3254
 5355SOL    HW222412   3.972   3.184   6.385  0.4393  1.2113  1.2148
 5356SOL     OW22413   4.355   7.295   0.539 -0.1929  0.4428  0.5209
 5356SOL    HW122414   4.353   7.383   0.576 -1.6260 -0.2215  2.1289
 5356SOL    HW222415   4.263   7.272   0.525  0.2180  0.2837 -2.7216
 5357SOL     OW22416   2.428   6.002   6.413  0.2157  0.0870 -0.0377
 5357SOL    HW122417   2.409   5.917   6.454 -0.6203 -0.2336 -1.0284
 5357SOL    HW222418   2.342   6.040   6.395  0.5396  0.3157 -1.2328
 5358SOL     OW22419   0.153   3.047   0.664 -0.4443  0.3820 -0.5398
 5358SOL    HW122420   0.067   3.031   0.624 -0.6766  0.1693  0.0343
 5358SOL    HW222421   0.216   3.018   0.598 -0.8117  0.3276 -0.8744
 5359SOL     OW22422   2.102   9.084   4.068  0.1302  0.2462 -0.2890
 5359SOL    HW122423   2.180   9.137   4.047 -0.1236  0.4742 -0.6618
 5359SOL    HW222424   2.043   9.098   3.995  0.1853 -0.8218 -0.5517
 5360SOL     OW22425   1.420   1.301   1.307 -0.3390  0.7067 -0.1293
 5360SOL    HW122426   1.493   1.362   1.293  0.6730 -0.3887  0.2026
 5360SOL    HW222427   1.415   1.293   1.402 -0.1552 -0.0651 -0.1774
 5361SOL     OW22428   5.507   9.234   5.942  0.2995  0.0337 -0.0489
 5361SOL    HW122429   5.482   9.308   5.888 -0.2242  0.0121  0.1534
 5361SOL    HW222430   5.574   9.268   6.001 -2.1327  1.2445  2.2227
 5362SOL     OW22431   2.424   6.977   6.669  0.1556 -0.5638 -0.2820
 5362SOL    HW122432   2.340   6.961   6.626  1.1399 -0.1818 -2.4445
 5362SOL    HW222433   2.420   6.924   6.749 -2.4433  0.0763  0.0994
 5363SOL     OW22434   3.999   6.723   6.157  0.3059 -1.1404 -0.7962
 5363SOL    HW122435   3.956   6.666   6.221  0.9835  0.1048  0.8637
 5363SOL    HW222436   4.075   6.759   6.204 -0.2996  1.4009 -1.5644
 5364SOL     OW22437   8.498   8.530   0.003 -0.5160  0.1071  0.3369
 5364SOL    HW122438   8.555   8.516  -0.073  0.5491 -0.9302  1.2881
 5364SOL    HW222439   8.476   8.442   0.034 -0.1484  0.5022  1.7933
 5365SOL     OW22440   7.057   0.100   8.103  0.3874  0.4950 -0.1489
 5365SOL    HW122441   7.070   0.083   8.010  0.2524 -0.2945 -0.0250
 5365SOL    HW222442   6.968   0.134   8.109 -0.2433 -1.0908 -0.1116
 5366SOL     OW22443   2.355   7.014   7.548 -0.1735 -0.1265 -0.1608
 5366SOL    HW122444   2.373   6.931   7.503 -0.6926 -0.1372 -0.3617
 5366SOL    HW222445   2.352   6.992   7.640  2.9996  0.2454  0.1479
 5367SOL     OW22446   4.167   4.677   0.707 -0.0401  0.1670  0.3678
 5367SOL    HW122447   4.118   4.623   0.645 -0.8399  1.4239 -0.1263
 5367SOL    HW222448   4.152   4.634   0.792  0.1964 -0.9592 -0.1381
 5368SOL     OW22449   8.014   2.482   8.408  0.0849 -0.6174 -0.1070
 5368SOL    HW122450   8.093   2.432   8.427  0.1972 -1.4377 -2.4733
 5368SOL    HW222451   8.039   2.573   8.423  1.0454 -0.9701  0.5038
 5369SOL     OW22452   8.174   5.122   7.797  0.3356  0.6157  0.9781
 5369SOL    HW122453   8.135   5.040   7.766 -0.4381  1.5829 -0.7612
 5369SOL    HW222454   8.263   5.099   7.822  0.0576 -0.7882  0.7297
 5370SOL     OW22455   4.210   4.103   0.187  0.0070 -0.4076 -0.1966
 5370SOL    HW122456   4.272   4.030   0.193  0.4404  0.0459  1.0310
 5370SOL    HW222457   4.263   4.177   0.158 -0.4637 -0.5921 -1.6007
 5371SOL     OW22458   1.625   6.837   0.194  0.3023 -1.0148 -0.4402
 5371SOL    HW122459   1.626   6.822   0.288 -0.2446  2.4329  0.2270
 5371SOL    HW222460   1.707   6.883   0.175  0.3545 -1.5612 -1.6493
 5372SOL     OW22461   5.415   6.595   9.029 -0.1491  0.4260  0.0951
 5372SOL    HW122462   5.372   6.669   9.073  2.3200  0.4962  2.6842
 5372SOL    HW222463   5.508   6.613   9.036  0.4984 -2.1088 -0.7421
 5373SOL     OW22464   5.662   0.461   7.905 -0.3489  0.5969  0.0332
 5373SOL    HW122465   5.665   0.375   7.862 -1.0615  0.9351 -0.7210
 5373SOL    HW222466   5.652   0.441   7.998 -0.6238 -0.1401 -0.1476
 5374SOL     OW22467   7.787   2.811   3.986 -0.0153  0.4464  0.1222
 5374SOL    HW122468   7.704   2.832   3.944  0.0084  0.4754  0.0896
 5374SOL    HW222469   7.763   2.758   4.062 -0.3009  2.8877  1.8446
 5375SOL     OW22470   6.023   2.526   4.722 -0.3723 -0.0911 -0.0641
 5375SOL    HW122471   6.023   2.514   4.817  2.0382 -0.0073  0.0101
 5375SOL    HW222472   6.000   2.618   4.709 -0.2798  0.0088  0.4733
 5376SOL     OW22473   6.452   5.977   4.756 -0.1720 -0.1967  0.0740
 5376SOL    HW122474   6.442   5.892   4.797 -0.5869 -0.7113 -1.0433
 5376SOL    HW222475   6.398   6.036   4.808 -1.2083 -0.9576 -0.1069
 5377SOL     OW22476   4.967   8.616   6.949 -0.1846 -0.0080 -0.1360
 5377SOL    HW122477   4.941   8.530   6.916 -0.7390 -0.3033  1.0373
 5377SOL    HW222478   5.049   8.636   6.903 -0.2311 -1.0007 -0.6659
 5378SOL     OW22479   1.789   5.660   7.019  0.0121 -0.0916 -0.4110
 5378SOL    HW122480   1.874   5.670   6.977 -0.2385  1.4991 -0.5840
 5378SOL    HW222481   1.726   5.681   6.951 -0.4373  1.1317  0.3561
 5379SOL     OW22482   7.729   0.681   0.477 -0.1129 -0.4304  0.1317
 5379SOL    HW122483   7.664   0.643   0.418  1.0943 -1.7446 -0.3963
 5379SOL    HW222484   7.726   0.626   0.555  0.6421 -0.7351 -0.0533
 5380SOL     OW22485   7.135   1.030   4.616 -0.4400 -0.8226  0.1482
 5380SOL    HW122486   7.169   1.093   4.679  0.4500 -0.8343 -0.3084
 5380SOL    HW222487   7.084   0.969   4.668  0.2202 -0.7872  0.8504
 5381SOL     OW22488   7.319   3.283   6.991 -0.6352  0.1483 -0.0474
 5381SOL    HW122489   7.318   3.335   6.911 -0.4661 -1.5030 -1.1830
 5381SOL    HW222490   7.394   3.315   7.041  0.3471  0.0277 -1.4026
 5382SOL     OW22491   3.540   4.389   7.290  0.0033  0.5393 -0.1491
 5382SOL    HW122492   3.489   4.358   7.365 -0.1404 -1.6091 -1.0819
 5382SOL    HW222493   3.621   4.338   7.294 -0.3046 -0.1215 -1.8369
 5383SOL     OW22494   8.169   4.860   4.780  0.0001 -0.5204 -0.3786
 5383SOL    HW122495   8.075   4.853   4.797 -0.2562  0.0599 -1.4480
 5383SOL    HW222496   8.175   4.887   4.689  1.2076 -0.3848 -0.2779
 5384SOL     OW22497   3.457   4.050   7.082  0.2218 -0.6929  0.5026
 5384SOL    HW122498   3.547   4.077   7.068  0.0273 -0.2743  0.0310
 5384SOL    HW222499   3.404   4.123   7.049 -0.2874 -0.8369  0.9821
 5385SOL     OW22500   2.478   7.911   6.706 -0.0966  0.0291 -0.6616
 5385SOL    HW122501   2.455   7.857   6.630  0.1509 -0.4224 -0.4169
 5385SOL    HW222502   2.573   7.925   6.697  0.3589 -1.8204  0.6998
 5386SOL     OW22503   8.178   4.536   4.143 -0.1063  0.3665  0.5591
 5386SOL    HW122504   8.208   4.470   4.080  0.5853 -0.1814  1.4518
 5386SOL    HW222505   8.205   4.503   4.228 -0.9413  1.1558  1.1492
 5387SOL     OW22506   2.754   2.452   3.002 -0.4995 -0.0855  0.4902
 5387SOL    HW122507   2.744   2.467   2.908 -0.0737  0.1400  0.4788
 5387SOL    HW222508   2.751   2.357   3.012 -0.9843 -0.0940  0.3021
 5388SOL     OW22509   5.467   0.793   6.152 -0.1008  0.0416  0.1139
 5388SOL    HW122510   5.451   0.766   6.061  1.1670 -1.2054  0.2195
 5388SOL    HW222511   5.383   0.782   6.196 -0.2008 -1.5716 -0.4122
 5389SOL     OW22512   3.990   7.351   4.991  0.4306  0.3985 -0.0135
 5389SOL    HW122513   3.946   7.424   5.035  3.8542  1.0184  2.7741
 5389SOL    HW222514   3.963   7.274   5.040 -0.2351  0.2521 -0.5837
 5390SOL     OW22515   8.488   7.454   4.943  0.5003  0.4870  0.6621
 5390SOL    HW122516   8.498   7.548   4.962 -1.9417  0.8987  0.2720
 5390SOL    HW222517   8.576   7.425   4.919  1.1149  2.9834 -0.4450
 5391SOL     OW22518   1.804   3.978   8.423  0.1681  0.5250  0.2887
 5391SOL    HW122519   1.841   4.034   8.492 -2.2854  1.3093  1.0532
 5391SOL    HW222520   1.724   3.942   8.461  1.2678 -3.0542 -0.4360
 5392SOL     OW22521   1.793   1.581   0.709 -0.3385 -0.1155 -0.2125
 5392SOL    HW122522   1.821   1.534   0.788  1.9112  1.7032  0.1858
 5392SOL    HW222523   1.727   1.642   0.739 -0.4805 -0.3669 -0.0092
 5393SOL     OW22524   7.473   7.562   2.358 -0.6138 -0.1998  0.2251
 5393SOL    HW122525   7.553   7.536   2.404 -0.3007  0.6248  0.1596
 5393SOL    HW222526   7.419   7.603   2.426 -0.3710  0.5441 -0.0210
 5394SOL     OW22527   1.816   8.571   1.820  0.3655  0.5336 -0.3107
 5394SOL    HW122528   1.900   8.594   1.779  2.2619  0.1947  3.0670
 5394SOL    HW222529   1.799   8.641   1.882 -1.0237 -0.2174  0.2001
 5395SOL     OW22530   1.756   2.171   3.031  0.4831 -0.3942 -0.0394
 5395SOL    HW122531   1.693   2.198   2.966 -0.1956  3.7973  2.0103
 5395SOL    HW222532   1.841   2.200   2.996 -0.1496  4.6147  1.7653
 5396SOL     OW22533   2.403   7.845   2.859  0.1000  0.7584 -0.6879
 5396SOL    HW122534   2.357   7.771   2.818  0.2894  1.2713 -1.8786
 5396SOL    HW222535   2.464   7.875   2.791 -1.5912  3.4910 -1.1510
 5397SOL     OW22536   8.259   5.400   6.105  0.0198  1.0400 -0.1332
 5397SOL    HW122537   8.165   5.416   6.097 -0.0229  0.5915 -0.6726
 5397SOL    HW222538   8.296   5.482   6.137 -0.8209  0.5473  2.2618
 5398SOL     OW22539   1.168   3.432   7.062  0.1164  0.2372  0.2113
 5398SOL    HW122540   1.218   3.461   7.139 -0.7464 -0.4087  1.0408
 5398SOL    HW222541   1.217   3.468   6.987  2.2809 -1.0440  0.9137
 5399SOL     OW22542   2.282   7.311   4.355  0.0672  0.6066 -1.0037
 5399SOL    HW122543   2.364   7.262   4.348  0.8570  1.8918 -0.8892
 5399SOL    HW222544   2.235   7.267   4.426  1.1413  0.5255 -0.3106
 5400SOL     OW22545   4.964   7.636   6.722 -0.3543 -0.0629 -0.6595
 5400SOL    HW122546   4.946   7.704   6.787  0.0890 -1.5356  1.0641
 5400SOL    HW222547   4.912   7.663   6.646 -0.1316  2.2322 -0.0843
 5401SOL     OW22548   4.349   7.674   0.950  0.6759 -0.1518 -0.5500
 5401SOL    HW122549   4.315   7.595   0.992  1.8676 -0.9805 -1.0890
 5401SOL    HW222550   4.413   7.709   1.012  1.0377 -0.3013 -0.8354
 5402SOL     OW22551   8.385   3.618   5.720  0.2138  0.7088 -0.3869
 5402SOL    HW122552   8.375   3.694   5.776  0.4238  0.6361 -0.2467
 5402SOL    HW222553   8.476   3.591   5.733  1.1860  2.3984 -2.9387
 5403SOL     OW22554   1.346   6.174   5.868  0.3017 -0.6063  0.4305
 5403SOL    HW122555   1.357   6.087   5.829 -0.7501 -1.2948  1.6087
 5403SOL    HW222556   1.434   6.197   5.900  0.4053 -1.6725  0.9712
 5404SOL     OW22557   4.595   6.073   8.162 -0.2157  0.1470  0.4006
 5404SOL    HW122558   4.665   6.116   8.212 -0.1003  1.5876 -0.9225
 5404SOL    HW222559   4.522   6.134   8.167 -0.3462  0.1158 -0.7989
 5405SOL     OW22560   3.465   3.245   9.135  0.2250  0.6999  0.2322
 5405SOL    HW122561   3.412   3.325   9.126  0.4227  0.7023 -1.0681
 5405SOL    HW222562   3.420   3.194   9.202 -0.1001  1.7473  0.8365
 5406SOL     OW22563   8.989   0.353   7.793 -0.0167 -0.1272  0.2521
 5406SOL    HW122564   9.031   0.306   7.865  0.2701 -0.0117  0.1597
 5406SOL    HW222565   8.896   0.331   7.802  0.1376 -0.8774  0.0913
 5407SOL     OW22566   8.116   3.097   6.745 -0.0105  0.4656 -0.2593
 5407SOL    HW122567   8.181   3.050   6.692  0.7588 -0.9146  1.7648
 5407SOL    HW222568   8.074   3.156   6.684  1.4960 -0.3213 -2.1857
 5408SOL     OW22569   4.574   3.309   2.942  0.0088  0.7167  0.6235
 5408SOL    HW122570   4.547   3.346   3.026 -1.6357 -0.2152  0.5383
 5408SOL    HW222571   4.625   3.231   2.965 -0.4969  0.4243  0.7648
 5409SOL     OW22572   2.830   0.397   5.664  0.1919  0.4049  0.0390
 5409SOL    HW122573   2.772   0.444   5.604  0.0712 -0.0724 -0.2222
 5409SOL    HW222574   2.805   0.305   5.654  1.2134  0.1568 -0.3230
 5410SOL     OW22575   7.827   0.183   7.164 -0.4872 -0.2964  0.2294
 5410SOL    HW122576   7.888   0.140   7.105 -1.4255 -1.3822  0.0126
 5410SOL    HW222577   7.879   0.250   7.209 -0.0452  1.6789 -2.9193
 5411SOL     OW22578   4.471   1.216   6.582 -0.1684 -0.2011 -0.2110
 5411SOL    HW122579   4.449   1.214   6.675  0.9570 -0.6065  0.0661
 5411SOL    HW222580   4.496   1.307   6.565  0.8826 -0.3886  0.2183
 5412SOL     OW22581   0.286   3.729   8.106 -0.4638 -0.6492 -0.0505
 5412SOL    HW122582   0.318   3.757   8.192  0.2218 -0.6716 -0.2914
 5412SOL    HW222583   0.297   3.806   8.050 -0.6087 -0.7336 -0.1971
 5413SOL     OW22584   0.964   2.914   4.406 -0.0579 -0.7335  0.2455
 5413SOL    HW122585   1.048   2.952   4.383 -0.1859  0.8855  2.2057
 5413SOL    HW222586   0.983   2.821   4.421  1.7162 -0.1441  2.0713
 5414SOL     OW22587   7.193   5.912   8.351 -0.5673  0.4735  0.2338
 5414SOL    HW122588   7.099   5.893   8.344 -0.8735  1.2935  1.6908
 5414SOL    HW222589   7.204   5.995   8.305 -1.0003  1.4884  1.8550
 5415SOL     OW22590   3.995   2.232   6.805  0.5632 -0.1405  0.1017
 5415SOL    HW122591   4.082   2.220   6.843 -0.0048  0.7883  1.7762
 5415SOL    HW222592   3.971   2.322   6.827 -1.0879 -0.5960  0.2631
 5416SOL     OW22593   5.911   9.110   5.835 -0.6561  0.1434 -0.0548
 5416SOL    HW122594   5.900   9.017   5.852 -0.0130  0.2446  1.0468
 5416SOL    HW222595   6.005   9.122   5.825 -0.7561  0.6374 -0.4868
 5417SOL     OW22596   2.184   8.286   7.070  1.0807 -0.5396 -0.4636
 5417SOL    HW122597   2.146   8.204   7.103 -0.7937  0.0770 -0.9848
 5417SOL    HW222598   2.119   8.319   7.009  2.0187  1.1395 -0.5945
 5418SOL     OW22599   2.037   2.238   1.953  0.0063 -0.1913  0.3434
 5418SOL    HW122600   2.045   2.309   2.017 -0.3688 -0.1988  0.3994
 5418SOL    HW222601   2.083   2.270   1.875 -2.0727  1.0830 -0.4501
 5419SOL     OW22602   1.945   9.191   3.881 -0.1502  0.2250  0.2309
 5419SOL    HW122603   1.887   9.181   3.806  0.2643  0.1641 -0.0902
 5419SOL    HW222604   1.896   9.244   3.944 -1.3612 -1.5808  0.8522
 5420SOL     OW22605   3.664   0.835   4.084  1.0767 -0.1116  0.3747
 5420SOL    HW122606   3.606   0.829   4.159  1.0645 -1.3416  0.2876
 5420SOL    HW222607   3.644   0.758   4.031  0.6523  1.0346 -1.2214
 5421SOL     OW22608   7.291   1.854   0.669  0.1156 -0.0546 -0.2204
 5421SOL    HW122609   7.334   1.937   0.649  0.7224  0.4148  2.7090
 5421SOL    HW222610   7.198   1.871   0.655  0.1211  1.4970  1.3441
 5422SOL     OW22611   3.268   7.867   3.300 -0.8534 -0.4469 -0.6308
 5422SOL    HW122612   3.284   7.953   3.260  1.7178 -0.1576  0.8128
 5422SOL    HW222613   3.228   7.886   3.385 -2.4246 -0.8548 -1.2374
 5423SOL     OW22614   5.892   1.993   5.009 -0.3938  0.4034  0.3507
 5423SOL    HW122615   5.908   2.023   5.099  2.8588 -1.9655  0.7448
 5423SOL    HW222616   5.904   2.072   4.956  0.6285  1.2899  1.7903
 5424SOL     OW22617   2.090   4.121   6.242 -0.3994  0.2027  0.5228
 5424SOL    HW122618   2.084   4.032   6.277  3.6887 -0.4414  0.1419
 5424SOL    HW222619   2.150   4.113   6.168  1.8922  3.5073  1.7857
 5425SOL     OW22620   5.204   4.525   4.346 -0.3455  0.5025  0.3747
 5425SOL    HW122621   5.255   4.451   4.378 -1.4120 -0.4452 -0.0185
 5425SOL    HW222622   5.267   4.580   4.300  0.1926 -1.1373 -0.9956
 5426SOL     OW22623   3.685   1.985   6.310  0.0932 -0.3139  0.3420
 5426SOL    HW122624   3.750   2.053   6.290  0.4964 -0.9300 -0.4607
 5426SOL    HW222625   3.720   1.941   6.387  0.4925 -0.4569  0.0837
 5427SOL     OW22626   8.483   4.255   0.047  0.2685  0.2518 -0.8850
 5427SOL    HW122627   8.411   4.193   0.035  0.0887  0.3311 -0.2683
 5427SOL    HW222628   8.562   4.202   0.045  0.1382  0.0508 -0.7171
 5428SOL     OW22629   8.601   5.829   8.002 -0.0203 -0.2061  0.0931
 5428SOL    HW122630   8.665   5.876   8.055 -0.3394 -1.0645  1.2651
 5428SOL    HW222631   8.519   5.836   8.051  0.2096 -3.1752  1.1016
 5429SOL     OW22632   4.361   0.742   5.561  0.0648 -0.4157  0.3768
 5429SOL    HW122633   4.287   0.788   5.600 -0.0853  0.1246 -0.5179
 5429SOL    HW222634   4.329   0.711   5.477  0.9408  0.0986 -0.1593
 5430SOL     OW22635   1.408   2.984   4.576 -0.7291  0.2868  0.4239
 5430SOL    HW122636   1.456   2.967   4.495 -2.4380 -1.8805 -0.2271
 5430SOL    HW222637   1.340   3.046   4.552 -0.3676  0.7415  0.5562
 5431SOL     OW22638   1.077   7.441   1.802 -0.2199  0.2507 -0.0518
 5431SOL    HW122639   1.074   7.388   1.723  1.5296  0.6124 -0.4116
 5431SOL    HW222640   1.146   7.400   1.855 -1.9063 -0.4953  1.7027
 5432SOL     OW22641   6.333   3.597   9.028  0.4236 -0.6577  0.2070
 5432SOL    HW122642   6.376   3.682   9.026  1.2542 -1.0173  1.4872
 5432SOL    HW222643   6.283   3.594   8.946 -0.5049  1.4958  0.6241
 5433SOL     OW22644   2.396   1.595   4.804  0.1857  0.3058  0.5216
 5433SOL    HW122645   2.399   1.660   4.734 -1.9788 -1.4544 -1.3490
 5433SOL    HW222646   2.485   1.560   4.808  0.0402 -0.7999 -2.7201
 5434SOL     OW22647   4.077   8.050   1.304 -0.0098 -0.7925  0.3685
 5434SOL    HW122648   4.052   8.129   1.256  0.7717 -0.8755 -0.1850
 5434SOL    HW222649   4.155   8.076   1.354 -0.0832 -1.0589  0.6272
 5435SOL     OW22650   3.218   5.836   2.810 -0.1242 -0.8141  0.2153
 5435SOL    HW122651   3.136   5.817   2.854 -0.8398  0.8407 -0.3392
 5435SOL    HW222652   3.279   5.769   2.843 -1.5524 -1.7977  0.9555
 5436SOL     OW22653   8.313   2.469   1.156  0.1885 -0.2625 -0.0965
 5436SOL    HW122654   8.372   2.449   1.083 -0.3089 -1.9868 -0.0739
 5436SOL    HW222655   8.225   2.460   1.119 -0.0633  0.4082  0.3350
 5437SOL     OW22656   4.502   0.454   9.216 -0.4158  0.1831 -0.0534
 5437SOL    HW122657   4.474   0.416   9.300  1.4108  2.4000  1.6973
 5437SOL    HW222658   4.558   0.386   9.177  0.9709  0.0968  1.9178
 5438SOL     OW22659   7.963   7.865   0.202 -0.6433 -0.3122  0.0019
 5438SOL    HW122660   8.034   7.810   0.169 -1.0015 -0.7584 -0.0402
 5438SOL    HW222661   7.961   7.940   0.144 -0.1299 -0.2390  0.0726
 5439SOL     OW22662   1.627   8.740   4.971  0.3993  0.1881 -0.0254
 5439SOL    HW122663   1.640   8.805   5.040 -0.6483  0.9054 -0.4628
 5439SOL    HW222664   1.651   8.786   4.890  0.9166 -0.4029 -0.2115
 5440SOL     OW22665   6.175   0.402   5.858  0.5355 -0.2621  0.2602
 5440SOL    HW122666   6.114   0.349   5.806  1.4731 -1.1181  0.0048
 5440SOL    HW222667   6.208   0.468   5.797 -0.8069  0.7998  0.6375
 5441SOL     OW22668   2.713   2.117   7.242  0.4059 -0.4551  0.0878
 5441SOL    HW122669   2.681   2.153   7.160  1.1253 -1.5826 -0.7081
 5441SOL    HW222670   2.720   2.193   7.300  1.5248  0.6343 -1.4062
 5442SOL     OW22671   6.240   7.121   3.913  0.3131  0.4791  0.2702
 5442SOL    HW122672   6.261   7.213   3.926  2.2596  0.2656 -0.8649
 5442SOL    HW222673   6.154   7.121   3.871  0.7836  1.8554 -0.7547
 5443SOL     OW22674   0.201   4.783   8.855  0.1560  0.2647  0.2977
 5443SOL    HW122675   0.183   4.853   8.916  0.0357 -1.0050  1.7846
 5443SOL    HW222676   0.196   4.824   8.769 -0.5479  1.9175  1.0862
 5444SOL     OW22677   3.190   7.124   4.415 -0.0082 -0.5938  0.4313
 5444SOL    HW122678   3.213   7.203   4.365 -2.0195  2.6623  4.0657
 5444SOL    HW222679   3.264   7.110   4.473 -0.3924 -0.1585  1.0450
 5445SOL     OW22680   6.782   8.126   1.619 -0.6371 -0.3597  0.2157
 5445SOL    HW122681   6.810   8.203   1.668 -3.3734  0.2041  1.0219
 5445SOL    HW222682   6.801   8.052   1.677 -3.2705  0.2453  2.0007
 5446SOL     OW22683   2.461   0.475   6.723 -0.2881  0.6462  0.5231
 5446SOL    HW122684   2.438   0.438   6.638  0.7056  1.1088  0.0453
 5446SOL    HW222685   2.505   0.557   6.703  1.6816 -0.1275  1.3599
 5447SOL     OW22686   0.895   6.447   1.369  0.5263 -0.1262  0.4649
 5447SOL    HW122687   0.849   6.526   1.397  0.7536  0.2416 -0.1616
 5447SOL    HW222688   0.922   6.405   1.450  1.1407  0.8862  0.8123
 5448SOL     OW22689   5.498   2.420   7.281  0.1392 -0.3265 -0.9820
 5448SOL    HW122690   5.435   2.377   7.339  2.0223 -0.0428  1.4447
 5448SOL    HW222691   5.485   2.514   7.299  2.3589 -0.3002  0.9756
 5449SOL     OW22692   5.808   3.610   1.648  0.3958 -0.0299 -0.0202
 5449SOL    HW122693   5.843   3.577   1.565  0.9667 -0.1763  0.2726
 5449SOL    HW222694   5.808   3.705   1.638  0.3164 -0.0527 -0.2444
 5450SOL     OW22695   2.792   5.975   0.694 -0.2406  0.0431  0.3324
 5450SOL    HW122696   2.820   6.059   0.732  1.7526 -1.6887  3.0603
 5450SOL    HW222697   2.846   5.966   0.615 -0.1912  1.1368  0.2235
 5451SOL     OW22698   0.241   0.084   1.674  0.3068 -0.3694 -0.2238
 5451SOL    HW122699   0.329   0.048   1.685  0.1944 -0.5021  0.2252
 5451SOL    HW222700   0.226   0.081   1.579  0.9287 -0.0006 -0.3405
 5452SOL     OW22701   4.788   8.444   1.312  0.3338  0.2724 -0.7219
 5452SOL    HW122702   4.833   8.503   1.373  0.3015 -0.5028  0.0772
 5452SOL    HW222703   4.754   8.502   1.243  1.4951  1.0119 -0.6975
 5453SOL     OW22704   5.568   7.191   3.065 -0.3384  0.0631  0.1013
 5453SOL    HW122705   5.630   7.149   3.005 -1.3192  0.9888 -1.6349
 5453SOL    HW222706   5.598   7.282   3.070 -1.2208  0.3938 -0.3432
 5454SOL     OW22707   7.383   8.444   1.669 -0.1111  0.3525 -0.0646
 5454SOL    HW122708   7.344   8.491   1.743 -2.5342  0.2928 -1.1953
 5454SOL    HW222709   7.447   8.505   1.633  0.8506  0.5255  1.8105
 5455SOL     OW22710   7.212   8.426   4.518 -0.0158 -0.5307  0.2606
 5455SOL    HW122711   7.254   8.355   4.469 -2.2279 -1.9648  0.3006
 5455SOL    HW222712   7.134   8.386   4.556 -1.4442  1.9642  0.1737
 5456SOL     OW22713   0.421   0.886   5.786 -0.2728  0.5463  0.6323
 5456SOL    HW122714   0.383   0.880   5.874 -0.2551 -0.4149  0.5823
 5456SOL    HW222715   0.460   0.800   5.770 -0.2981  0.6992 -0.3280
 5457SOL     OW22716   8.271   4.424   6.855 -0.7501  0.7235 -0.2840
 5457SOL    HW122717   8.215   4.354   6.887  1.0036 -0.9812 -0.7786
 5457SOL    HW222718   8.359   4.386   6.851  0.3889  3.0969 -0.1065
 5458SOL     OW22719   2.118   7.555   6.183 -0.0418 -0.4722 -0.2060
 5458SOL    HW122720   2.072   7.491   6.129  1.0740 -1.0450 -0.5091
 5458SOL    HW222721   2.166   7.609   6.120 -0.8668  0.6064  0.0513
 5459SOL     OW22722   3.745   4.109   6.849  0.0265 -0.1651 -0.5694
 5459SOL    HW122723   3.750   4.096   6.755  0.4587  1.1574 -0.7563
 5459SOL    HW222724   3.687   4.185   6.860 -1.7139 -1.5281  0.3698
 5460SOL     OW22725   1.680   5.779   5.079 -0.4897  0.2574 -0.0046
 5460SOL    HW122726   1.602   5.829   5.100  0.4152  1.8642 -0.3401
 5460SOL    HW222727   1.657   5.729   5.000 -0.8314  1.6272 -0.8037
 5461SOL     OW22728   6.777   7.962   6.185 -0.1898 -0.4136  0.3970
 5461SOL    HW122729   6.762   8.047   6.227  0.0104 -0.2302  0.0944
 5461SOL    HW222730   6.811   7.983   6.098  1.3274 -0.8188  0.8674
 5462SOL     OW22731   6.269   5.156   0.009 -0.0121  0.0274 -0.5486
 5462SOL    HW122732   6.187   5.205   0.001  0.9744  1.4525 -3.5315
 5462SOL    HW222733   6.306   5.156  -0.079  3.2360 -0.5456  0.6566
 5463SOL     OW22734   7.244   2.547   4.236 -0.0272 -0.6082 -0.3243
 5463SOL    HW122735   7.210   2.572   4.322  1.2634 -1.1723  0.3747
 5463SOL    HW222736   7.301   2.619   4.210  0.4767 -0.9435 -0.1733
 5464SOL     OW22737   4.781   5.396   3.380  0.3445 -0.5275 -0.2329
 5464SOL    HW122738   4.727   5.439   3.314 -0.1257  0.0544  0.5190
 5464SOL    HW222739   4.825   5.467   3.427 -2.9947 -0.4422  3.2839
 5465SOL     OW22740   1.893   3.014   2.233  0.7076  1.1917 -0.1515
 5465SOL    HW122741   1.810   3.058   2.213  0.2916  0.6035  0.2135
 5465SOL    HW222742   1.922   3.053   2.315  0.8770  1.5076 -0.3588
 5466SOL     OW22743   6.506   5.219   8.377 -0.3211 -0.7946 -0.7142
 5466SOL    HW122744   6.469   5.283   8.437  0.0289 -1.6636  0.4484
 5466SOL    HW222745   6.467   5.241   8.292 -1.3680 -0.0043 -0.0471
 5467SOL     OW22746   0.577   6.778   9.027  0.4937 -0.5120  0.6304
 5467SOL    HW122747   0.578   6.850   9.091  1.1229  0.5753 -0.5611
 5467SOL    HW222748   0.515   6.807   8.960 -0.5837 -1.8860  0.9817
 5468SOL     OW22749   8.510   4.141   1.093 -0.5990  0.6741  0.7535
 5468SOL    HW122750   8.470   4.069   1.142 -0.3617 -0.4806 -0.6753
 5468SOL    HW222751   8.600   4.145   1.126 -0.3044 -0.3947  0.1232
 5469SOL     OW22752   0.427   3.227   3.943  0.2558 -0.7530 -0.9869
 5469SOL    HW122753   0.380   3.217   4.025 -0.8621 -0.0438 -1.5121
 5469SOL    HW222754   0.457   3.139   3.921 -1.4050 -1.3693 -0.9388
 5470SOL     OW22755   5.052   1.427   9.104  0.1171  0.7730 -0.4293
 5470SOL    HW122756   5.146   1.438   9.120  0.1794  0.8262 -0.8217
 5470SOL    HW222757   5.047   1.390   9.016 -0.2837  2.0243 -0.9603
 5471SOL     OW22758   6.541   2.362   3.241  0.0459  0.5192 -0.4008
 5471SOL    HW122759   6.494   2.282   3.263 -1.4299  1.1300 -1.1838
 5471SOL    HW222760   6.538   2.414   3.321  0.3810  0.1003 -0.1108
 5472SOL     OW22761   4.640   0.187   4.893 -0.3564 -0.1374  0.6213
 5472SOL    HW122762   4.611   0.118   4.833 -0.8655  0.8700 -0.3357
 5472SOL    HW222763   4.733   0.170   4.907 -0.6443 -1.4887  1.0777
 5473SOL     OW22764   6.062   5.922   3.769  0.4059 -0.7214 -0.2079
 5473SOL    HW122765   6.001   5.848   3.773 -0.0006 -0.3527  0.6619
 5473SOL    HW222766   6.070   5.941   3.676 -1.8479  0.0394 -0.3217
 5474SOL     OW22767   0.999   8.015   4.152  0.0814 -0.3009  0.4825
 5474SOL    HW122768   1.053   8.072   4.098  0.8639 -2.0316 -0.6701
 5474SOL    HW222769   0.921   7.999   4.100  0.0261 -0.5521  0.6405
 5475SOL     OW22770   8.346   2.831   3.618 -0.0752  0.2437 -0.1873
 5475SOL    HW122771   8.281   2.768   3.649  0.2558  0.0484  0.1027
 5475SOL    HW222772   8.370   2.800   3.530 -0.4964  0.4140 -0.3673
 5476SOL     OW22773   0.869   6.299   7.784 -0.1339  0.0649 -0.1722
 5476SOL    HW122774   0.806   6.253   7.728 -0.1636 -0.5090  0.3191
 5476SOL    HW222775   0.825   6.381   7.806 -0.7247 -0.3300  0.1652
 5477SOL     OW22776   7.366   4.937   8.330 -0.0620 -0.2251  0.6951
 5477SOL    HW122777   7.302   4.972   8.269 -1.5810  0.5093  2.6013
 5477SOL    HW222778   7.448   4.935   8.281 -1.2547  0.0010 -1.4279
 5478SOL     OW22779   3.303   6.390   0.150 -0.1077  0.6935 -0.0230
 5478SOL    HW122780   3.353   6.441   0.086  0.1929  0.0861 -0.2844
 5478SOL    HW222781   3.212   6.401   0.124  0.0849 -0.8282 -1.5762
 5479SOL     OW22782   8.894   0.566   8.337 -0.0788 -0.1077 -0.6659
 5479SOL    HW122783   8.861   0.540   8.423 -0.7952  1.8591 -0.2919
 5479SOL    HW222784   8.889   0.487   8.284  0.8701 -1.5200  1.2255
 5480SOL     OW22785   7.619   7.926   0.293 -0.3043 -0.3952  0.0508
 5480SOL    HW122786   7.610   8.017   0.265  1.2014 -0.2464 -0.0476
 5480SOL    HW222787   7.712   7.907   0.282 -0.3109 -1.4672  1.5375
 5481SOL     OW22788   7.359   8.466   5.725  0.3715  0.4536 -0.0083
 5481SOL    HW122789   7.411   8.429   5.796 -0.4388 -2.1935 -0.6735
 5481SOL    HW222790   7.419   8.468   5.650  0.0814 -0.8673 -0.3048
 5482SOL     OW22791   0.391   4.941   0.400 -0.6974  0.1678  0.0365
 5482SOL    HW122792   0.384   4.923   0.494  0.6368 -0.0012  0.1267
 5482SOL    HW222793   0.421   4.858   0.362 -0.5867  0.4228 -0.4387
 5483SOL     OW22794   6.645   3.560   6.930  0.3548 -0.2153 -0.2669
 5483SOL    HW122795   6.576   3.606   6.883 -1.0859 -1.4768  0.5473
 5483SOL    HW222796   6.656   3.478   6.882  0.8548 -0.2910 -0.0263
 5484SOL     OW22797   6.793   1.134   7.564 -0.4807  1.2960  0.1074
 5484SOL    HW122798   6.855   1.137   7.491 -0.9351  1.1303 -0.2892
 5484SOL    HW222799   6.833   1.075   7.627  0.8660  2.9409  0.8900
 5485SOL     OW22800   7.954   0.357   7.338 -0.1401  0.1157  0.2989
 5485SOL    HW122801   7.904   0.438   7.332 -1.0118 -0.4882 -1.0448
 5485SOL    HW222802   7.933   0.322   7.425 -0.9008  0.5977  0.3154
 5486SOL     OW22803   6.898   0.840   5.060 -0.2743  0.3329 -0.0144
 5486SOL    HW122804   6.842   0.909   5.024  0.4236  1.6922  1.4003
 5486SOL    HW222805   6.879   0.840   5.153  0.5411 -0.6683  0.1679
 5487SOL     OW22806   3.125   7.906   1.533  0.1411 -0.0928 -0.1388
 5487SOL    HW122807   3.040   7.939   1.503 -1.2659 -1.3827  2.0776
 5487SOL    HW222808   3.148   7.839   1.469  0.6429  1.7397 -1.9791
 5488SOL     OW22809   4.180   3.754   3.830  0.2967  0.3416 -0.4960
 5488SOL    HW122810   4.176   3.738   3.736  0.2473 -0.3314 -0.3802
 5488SOL    HW222811   4.126   3.685   3.869  1.2501 -0.0716  0.1088
 5489SOL     OW22812   1.452   1.693   3.500  0.3414 -0.6170 -0.3519
 5489SOL    HW122813   1.427   1.705   3.408 -0.0730 -1.7333 -0.4002
 5489SOL    HW222814   1.474   1.600   3.506 -1.1347 -0.9136  1.0246
 5490SOL     OW22815   2.614   8.946   8.272 -0.1456  0.6026  0.1409
 5490SOL    HW122816   2.590   8.943   8.365  0.1647  0.0095  0.2081
 5490SOL    HW222817   2.659   8.863   8.256 -2.2777 -0.4112 -1.1140
 5491SOL     OW22818   3.697   7.333   6.547  0.2233 -0.1650  0.6622
 5491SOL    HW122819   3.674   7.246   6.579 -1.4433  0.0814  0.2376
 5491SOL    HW222820   3.632   7.391   6.587  0.5897  0.7134  0.0254
 5492SOL     OW22821   7.411   7.240   5.348  0.3564  0.0098  0.5131
 5492SOL    HW122822   7.423   7.154   5.306  0.6770  0.1302  0.3544
 5492SOL    HW222823   7.316   7.251   5.353  0.2839  0.5522 -1.3420
 5493SOL     OW22824   7.323   6.244   5.739  0.1066  0.2304  0.5184
 5493SOL    HW122825   7.251   6.274   5.683  1.1419  0.1028 -0.9243
 5493SOL    HW222826   7.279   6.202   5.813 -1.3611 -1.4427 -1.1854
 5494SOL     OW22827   3.340   2.417   1.606  0.2141  0.1698 -0.1026
 5494SOL    HW122828   3.268   2.448   1.551 -0.0841 -1.0733 -0.4357
 5494SOL    HW222829   3.319   2.450   1.694 -0.6471  0.0126 -0.2399
 5495SOL     OW22830   4.505   8.543   3.694  0.2302 -0.1529 -0.0818
 5495SOL    HW122831   4.441   8.474   3.708  1.3164 -1.8390 -2.7145
 5495SOL    HW222832   4.455   8.624   3.702 -1.7629 -1.3300  0.0087
 5496SOL     OW22833   8.590   1.172   8.858 -0.4028 -0.5131 -0.1179
 5496SOL    HW122834   8.522   1.139   8.799 -1.4577  1.0848  0.1483
 5496SOL    HW222835   8.629   1.246   8.812  2.3320 -2.3169 -0.9513
 5497SOL     OW22836   8.126   5.343   6.378  0.1280  0.3034 -0.2997
 5497SOL    HW122837   8.203   5.390   6.409  0.1172 -0.3230  0.7368
 5497SOL    HW222838   8.160   5.258   6.348 -0.0681  0.3158 -0.5727
 5498SOL     OW22839   1.222   3.621   6.065  0.3729 -0.1744  0.1437
 5498SOL    HW122840   1.135   3.654   6.044  0.6517  0.0946 -0.6029
 5498SOL    HW222841   1.227   3.626   6.161 -0.5943 -0.6194  0.2239
 5499SOL     OW22842   9.172   8.073   8.640 -0.9335  0.4698 -0.0597
 5499SOL    HW122843   9.132   7.989   8.661 -0.7223  0.6773  1.3188
 5499SOL    HW222844   9.098   8.131   8.622 -1.1858  0.4083  0.7127
 5500SOL     OW22845   3.210   4.562   4.898  0.1528 -0.2855  0.4300
 5500SOL    HW122846   3.194   4.469   4.884 -0.6807 -0.3388  1.5629
 5500SOL    HW222847   3.125   4.597   4.924 -0.7477  1.7279 -4.1595
 5501SOL     OW22848   1.000   4.090   5.242 -0.6623  0.0559  0.0646
 5501SOL    HW122849   1.096   4.093   5.242 -0.5666 -1.6518  1.1403
 5501SOL    HW222850   0.976   4.077   5.151  0.1427  0.1289 -0.1628
 5502SOL     OW22851   0.814   1.331   0.509  0.9370  0.2461  0.0088
 5502SOL    HW122852   0.877   1.268   0.543  2.2256  1.4888  0.0164
 5502SOL    HW222853   0.866   1.410   0.493 -0.8467  1.7413  1.2391
 5503SOL     OW22854   8.056   2.720   8.484 -0.2426 -0.1269 -0.0306
 5503SOL    HW122855   8.136   2.731   8.535 -0.6505 -1.0446  0.8333
 5503SOL    HW222856   7.998   2.789   8.516 -0.2406 -0.2410  0.2183
 5504SOL     OW22857   1.758   8.379   5.699 -0.0419 -0.1071  0.2167
 5504SOL    HW122858   1.732   8.295   5.736  1.3813 -0.4676  0.4773
 5504SOL    HW222859   1.801   8.426   5.771 -0.7463  0.8200  0.0549
 5505SOL     OW22860   7.547   8.711   8.669  0.3458  0.3429  0.3643
 5505SOL    HW122861   7.548   8.736   8.762  0.3137  2.2668 -0.1083
 5505SOL    HW222862   7.469   8.753   8.634 -0.3891 -1.4867 -0.2784
 5506SOL     OW22863   3.910   0.754   9.036 -0.0784 -0.3176 -0.2650
 5506SOL    HW122864   3.859   0.678   9.008 -2.3401  0.7582  0.6819
 5506SOL    HW222865   4.001   0.732   9.013 -1.0776 -1.6338 -3.6369
 5507SOL     OW22866   4.184   8.634   8.268  0.3216 -0.5208  0.1065
 5507SOL    HW122867   4.135   8.715   8.252 -0.6709 -1.1433 -0.1689
 5507SOL    HW222868   4.208   8.638   8.360  1.2588  0.5862 -0.1652
 5508SOL     OW22869   7.492   3.277   5.038 -0.0898 -0.2047  0.1316
 5508SOL    HW122870   7.477   3.369   5.016  0.8820  0.1971  1.0574
 5508SOL    HW222871   7.405   3.236   5.031 -0.9537  1.2298  1.6727
 5509SOL     OW22872   7.456   3.211   5.640  0.5660  0.8396  0.2425
 5509SOL    HW122873   7.522   3.234   5.705 -0.6314  0.3862  1.6798
 5509SOL    HW222874   7.475   3.268   5.565  0.7857  2.8340  1.7397
 5510SOL     OW22875   1.733   7.709   8.228  0.2761  0.2580 -0.0430
 5510SOL    HW122876   1.642   7.710   8.256  0.5730  0.7258  0.9320
 5510SOL    HW222877   1.737   7.773   8.157 -1.1402 -3.0334 -3.4739
 5511SOL     OW22878   8.618   6.121   0.743  0.7630 -0.1798 -0.0751
 5511SOL    HW122879   8.694   6.121   0.802  0.4673  0.3955  0.3225
 5511SOL    HW222880   8.577   6.206   0.758  0.2024 -0.3699 -0.5041
 5512SOL     OW22881   2.405   8.049   1.290  0.3816 -0.1575  0.0768
 5512SOL    HW122882   2.472   8.093   1.237 -0.5189  1.7806  0.4607
 5512SOL    HW222883   2.342   8.118   1.311 -1.5748 -1.8393  0.0322
 5513SOL     OW22884   4.021   7.857   3.791  0.3834 -0.2351 -0.6726
 5513SOL    HW122885   4.078   7.890   3.861  1.4221 -1.1959 -1.0261
 5513SOL    HW222886   3.946   7.916   3.791  0.3152 -0.2646  1.3048
 5514SOL     OW22887   2.672   8.769   7.583  0.0775  0.1824  0.0630
 5514SOL    HW122888   2.728   8.692   7.574 -1.3002 -0.8200 -0.2675
 5514SOL    HW222889   2.647   8.791   7.493  0.0788  0.7249  0.1909
 5515SOL     OW22890   6.983   2.820   3.288 -0.4590  0.3161 -0.4110
 5515SOL    HW122891   6.978   2.799   3.382 -0.6741  0.8577 -0.3035
 5515SOL    HW222892   6.910   2.773   3.249 -0.7525  0.6102 -0.2138
 5516SOL     OW22893   3.029   1.816   1.065  0.3118  0.2189 -0.5136
 5516SOL    HW122894   3.025   1.907   1.095 -0.0897 -0.0473  0.2886
 5516SOL    HW222895   2.944   1.779   1.091  0.7746 -0.5872 -0.1267
 5517SOL     OW22896   8.413   4.782   4.358 -0.8576  0.0889 -0.3071
 5517SOL    HW122897   8.417   4.779   4.262 -3.1110 -0.1910 -0.4472
 5517SOL    HW222898   8.328   4.820   4.377  0.0580  1.3480  1.6315
 5518SOL     OW22899   8.791   4.667   6.219  0.0252  0.3167 -0.8056
 5518SOL    HW122900   8.789   4.718   6.300 -0.4963 -1.9033  0.6515
 5518SOL    HW222901   8.700   4.648   6.200  0.2448 -2.8184  0.6061
 5519SOL     OW22902   3.779   1.744   7.643 -0.2865 -0.3298  0.1701
 5519SOL    HW122903   3.777   1.678   7.573 -1.1741  0.4890 -0.6023
 5519SOL    HW222904   3.787   1.692   7.724  0.3501 -1.3114 -0.4978
 5520SOL     OW22905   9.217   6.734   6.572 -0.1675 -0.0762  0.3011
 5520SOL    HW122906   9.158   6.688   6.513 -0.0733 -0.1699  0.2813
 5520SOL    HW222907   9.164   6.750   6.651  0.3771 -1.9748  1.1045
 5521SOL     OW22908   8.498   5.956   8.586  0.2919  0.2093  0.1698
 5521SOL    HW122909   8.498   6.028   8.649  0.9087  0.2908  0.0907
 5521SOL    HW222910   8.412   5.959   8.545  0.0466  0.4335  0.6951
 5522SOL     OW22911   3.180   2.101   8.045  0.2201 -0.5757  0.8037
 5522SOL    HW122912   3.159   2.008   8.058 -1.1224 -0.5646 -0.9257
 5522SOL    HW222913   3.195   2.109   7.950  1.2172  0.8236  1.0433
 5523SOL     OW22914   6.456   1.742   9.082  0.0049 -0.3465  0.5029
 5523SOL    HW122915   6.529   1.693   9.043 -0.2915 -2.0290  1.9234
 5523SOL    HW222916   6.491   1.830   9.095  1.2475 -0.6909 -0.2916
 5524SOL     OW22917   8.066   9.227   7.379 -0.0750  0.1973  0.2854
 5524SOL    HW122918   8.051   9.227   7.473 -0.9818 -0.1556  0.1489
 5524SOL    HW222919   7.980   9.209   7.340  0.2599  0.4547 -0.6127
 5525SOL     OW22920   8.199   6.974   7.603  0.2334  0.2144 -0.0670
 5525SOL    HW122921   8.215   6.880   7.600 -0.2066  0.1428 -0.2799
 5525SOL    HW222922   8.139   6.990   7.530 -1.1327  0.3754  1.0495
 5526SOL     OW22923   3.077   7.108   0.242  0.3981 -0.3009 -0.2998
 5526SOL    HW122924   3.168   7.103   0.271  0.7836 -0.3057 -1.4949
 5526SOL    HW222925   3.039   7.024   0.269  0.5212 -0.0107  0.8649
 5527SOL     OW22926   1.710   2.979   1.441 -0.7186 -0.2582 -0.1994
 5527SOL    HW122927   1.670   2.894   1.422 -0.1178 -0.3419 -1.1718
 5527SOL    HW222928   1.638   3.042   1.432 -1.5076 -0.7538  1.9083
 5528SOL     OW22929   7.958   8.923   0.546  0.1315 -0.3507 -0.0537
 5528SOL    HW122930   7.891   8.859   0.522  0.0870 -1.0214  1.7202
 5528SOL    HW222931   7.967   8.915   0.641  1.6935  0.7532 -0.0569
 5529SOL     OW22932   8.618   0.402   2.244 -0.5477 -0.2049  0.1153
 5529SOL    HW122933   8.678   0.336   2.278  0.3194  0.6912  0.3389
 5529SOL    HW222934   8.616   0.387   2.150  2.1660  1.4368 -0.2980
 5530SOL     OW22935   1.005   5.517   0.302 -0.7822 -0.4103 -0.1829
 5530SOL    HW122936   0.953   5.516   0.221 -1.1444 -0.7621  0.0534
 5530SOL    HW222937   1.095   5.533   0.272 -0.9768 -0.0977 -0.6165
 5531SOL     OW22938   3.535   2.138   4.929  0.0983  0.2278  0.8422
 5531SOL    HW122939   3.472   2.206   4.954  0.0562  0.1374  0.9835
 5531SOL    HW222940   3.481   2.060   4.914 -0.0937  0.6831 -1.1771
 5532SOL     OW22941   8.633   6.338   8.388 -0.5797  0.1389  0.1694
 5532SOL    HW122942   8.591   6.334   8.302 -1.5491  1.1849  0.5598
 5532SOL    HW222943   8.680   6.422   8.388 -0.5877  0.1481  0.6577
 5533SOL     OW22944   4.319   2.460   1.046  0.6191 -0.1260  0.1683
 5533SOL    HW122945   4.270   2.383   1.017  1.1375 -0.4961  0.2531
 5533SOL    HW222946   4.385   2.425   1.106  2.2371  0.0850 -1.3874
 5534SOL     OW22947   7.238   5.339   0.322 -0.2837  0.5254  0.0306
 5534SOL    HW122948   7.144   5.340   0.344 -0.5559  0.4031 -1.0694
 5534SOL    HW222949   7.249   5.259   0.270  0.3116  0.8612 -0.3616
 5535SOL     OW22950   4.265   2.120   3.118 -0.0257 -0.4569 -0.1067
 5535SOL    HW122951   4.346   2.168   3.099 -1.3667  1.9154 -0.2525
 5535SOL    HW222952   4.234   2.090   3.033  0.6528 -1.3485 -0.0540
 5536SOL     OW22953   8.456   8.730   8.679  0.0934 -0.5720  0.1565
 5536SOL    HW122954   8.446   8.792   8.752  0.0815 -0.0874 -0.2483
 5536SOL    HW222955   8.439   8.783   8.601  3.0274 -0.3148 -0.4154
 5537SOL     OW22956   3.892   6.938   7.446 -0.3450 -0.0447 -0.6740
 5537SOL    HW122957   3.911   7.014   7.392  0.5053  2.4464  2.8004
 5537SOL    HW222958   3.803   6.953   7.479 -0.0700 -0.3893  0.2696
 5538SOL     OW22959   1.998   2.093   5.900  0.4851 -0.1619 -0.2823
 5538SOL    HW122960   2.001   2.054   5.813  1.0276 -0.0298 -0.3266
 5538SOL    HW222961   2.086   2.079   5.936 -0.3173 -2.0215  1.0586
 5539SOL     OW22962   5.853   3.820   8.359 -0.3111 -0.0410 -0.0526
 5539SOL    HW122963   5.889   3.746   8.408  1.7040 -0.7020 -2.3363
 5539SOL    HW222964   5.854   3.892   8.421  1.4972 -0.9886  1.1161
 5540SOL     OW22965   6.840   4.414   1.009 -0.6876  0.0389 -0.9368
 5540SOL    HW122966   6.892   4.337   0.983 -0.9342 -0.3088 -0.4110
 5540SOL    HW222967   6.842   4.470   0.932  0.4973  0.0481 -0.9274
 5541SOL     OW22968   2.072   8.418   0.195  0.2384  0.6988 -0.5632
 5541SOL    HW122969   2.137   8.405   0.125 -0.0250  0.2798 -0.7367
 5541SOL    HW222970   2.122   8.411   0.276  1.1095  4.0366 -0.6710
 5542SOL     OW22971   7.222   2.844   5.990  0.4631  0.3563  0.1431
 5542SOL    HW122972   7.174   2.856   5.908  1.2781 -0.4391 -0.4671
 5542SOL    HW222973   7.170   2.781   6.039 -0.3464  1.2845  0.5266
 5543SOL     OW22974   1.415   5.554   2.182  0.2786  0.4231 -0.3509
 5543SOL    HW122975   1.441   5.617   2.114  0.9161  0.2722 -0.2506
 5543SOL    HW222976   1.329   5.524   2.154 -0.1976  1.6046 -0.2147
 5544SOL     OW22977   4.125   5.970   7.803 -0.3712  0.4924 -0.1498
 5544SOL    HW122978   4.049   5.951   7.859 -0.8232  0.8684 -0.6177
 5544SOL    HW222979   4.181   6.026   7.856 -0.5092  0.3556  0.1407
 5545SOL     OW22980   1.562   3.166   2.812  0.5102 -0.4611 -0.4629
 5545SOL    HW122981   1.470   3.160   2.840  0.3355 -1.1122 -1.1327
 5545SOL    HW222982   1.600   3.232   2.870  0.1442 -1.6461  1.1941
 5546SOL     OW22983   3.187   6.165   9.181 -0.8111 -0.2301  0.3374
 5546SOL    HW122984   3.205   6.259   9.184 -0.4656 -0.2776 -0.0669
 5546SOL    HW222985   3.262   6.125   9.225  1.6898 -0.6080 -3.7382
 5547SOL     OW22986   7.209   5.177   4.525  0.1652  0.4174 -0.4929
 5547SOL    HW122987   7.201   5.271   4.544  1.1121  0.6664 -1.2443
 5547SOL    HW222988   7.219   5.173   4.429  1.9661 -0.2989 -0.3098
 5548SOL     OW22989   4.042   1.474   2.129  0.5364  0.9849  0.3066
 5548SOL    HW122990   4.094   1.462   2.049 -0.6049 -0.1437 -0.2948
 5548SOL    HW222991   4.100   1.444   2.199  1.1298  0.8788 -0.2144
 5549SOL     OW22992   3.166   5.190   8.765  0.1014 -0.1797  0.0448
 5549SOL    HW122993   3.090   5.152   8.808  1.2615 -3.4961 -0.5200
 5549SOL    HW222994   3.222   5.219   8.837 -0.5097 -0.2265  0.5465
 5550SOL     OW22995   4.176   1.869   1.901 -0.3821  0.4348 -0.1299
 5550SOL    HW122996   4.233   1.868   1.977 -0.5756 -0.4301  0.0160
 5550SOL    HW222997   4.128   1.952   1.908  0.8252  1.1716 -0.2557
 5551SOL     OW22998   6.550   1.282   3.062  0.0450  0.4143  0.8881
 5551SOL    HW122999   6.564   1.343   3.134  1.7946 -1.1636  1.9764
 5551SOL    HW223000   6.538   1.197   3.104  0.0083 -0.3818 -0.6565
 5552SOL     OW23001   0.520   3.760   7.091 -0.2035  0.2690 -0.5068
 5552SOL    HW123002   0.510   3.724   7.003  1.9390  0.8886 -1.0566
 5552SOL    HW223003   0.512   3.855   7.080 -0.9586  0.3024  0.1697
 5553SOL     OW23004   3.666   1.108   4.040  0.3134 -0.7086 -0.1174
 5553SOL    HW123005   3.636   1.019   4.021  1.7501 -1.1439 -0.4821
 5553SOL    HW223006   3.734   1.096   4.106  1.0435  0.0281 -0.7174
 5554SOL     OW23007   6.255   0.170   8.567  0.1824  0.0528 -0.2966
 5554SOL    HW123008   6.339   0.196   8.605  0.4170  0.7472 -1.2568
 5554SOL    HW223009   6.268   0.078   8.541  0.7993  0.2754 -0.8166
 5555SOL     OW23010   0.358   3.606   0.516 -0.0851 -0.4968  0.7661
 5555SOL    HW123011   0.393   3.547   0.583  0.0255  1.4320  2.5347
 5555SOL    HW223012   0.342   3.550   0.440  1.7649 -2.4315  1.6887
 5556SOL     OW23013   2.538   6.387   0.432  0.3742  0.0297 -0.8171
 5556SOL    HW123014   2.462   6.368   0.377 -2.7995 -1.5440  3.5122
 5556SOL    HW223015   2.568   6.301   0.461  1.3245  0.8030  0.5954
 5557SOL     OW23016   1.324   5.059   5.452 -0.0967 -0.0946 -0.1467
 5557SOL    HW123017   1.305   5.057   5.546 -0.2378 -0.0736 -0.1752
 5557SOL    HW223018   1.257   5.004   5.413 -0.0087 -0.1424 -0.2310
 5558SOL     OW23019   1.166   0.069   8.180  0.3474 -0.1474  0.0690
 5558SOL    HW123020   1.193  -0.011   8.134 -0.5763 -1.5998  1.9180
 5558SOL    HW223021   1.071   0.059   8.192  0.0959  1.5610 -0.2414
 5559SOL     OW23022   2.479   2.606   2.695  0.4660  0.1514 -0.1441
 5559SOL    HW123023   2.522   2.649   2.769 -0.9213  3.3786 -1.0034
 5559SOL    HW223024   2.393   2.583   2.728  0.9342 -1.3696  0.0786
 5560SOL     OW23025   6.045   6.718   6.287  0.8759  0.6592 -0.3193
 5560SOL    HW123026   6.001   6.698   6.369 -0.3110 -0.5222 -1.1921
 5560SOL    HW223027   5.980   6.767   6.236  0.8502 -0.3112 -1.2754
 5561SOL     OW23028   0.039   0.937   5.976 -0.2727  0.2351 -0.2503
 5561SOL    HW123029   0.098   0.866   5.950  1.1264  1.4210 -0.4677
 5561SOL    HW223030  -0.048   0.907   5.949  0.2684 -1.3657 -0.3549
 5562SOL     OW23031   5.563   8.567   3.711  0.3930  0.5475 -0.0502
 5562SOL    HW123032   5.624   8.553   3.639 -0.0792 -1.5883 -0.0907
 5562SOL    HW223033   5.492   8.619   3.673  1.1020  1.1415 -0.5827
 5563SOL     OW23034   1.369   1.864   5.170 -0.3206  0.2203  0.1903
 5563SOL    HW123035   1.344   1.942   5.219 -0.0894  0.3581  0.0921
 5563SOL    HW223036   1.299   1.801   5.187  0.3492 -0.1691  1.6930
 5564SOL     OW23037   3.011   5.030   5.266  0.1374 -0.3398  0.4942
 5564SOL    HW123038   3.056   5.112   5.289  0.4130 -0.7998  1.6637
 5564SOL    HW223039   3.065   4.992   5.198  0.0675  0.3981  0.0137
 5565SOL     OW23040   0.344   1.397   7.339 -0.3022  0.2277 -0.4947
 5565SOL    HW123041   0.334   1.484   7.378  0.0714  0.7674 -1.5550
 5565SOL    HW223042   0.281   1.395   7.267 -1.2760 -0.9007  0.3552
 5566SOL     OW23043   0.478   4.756   5.204 -0.2466 -0.0026 -0.1825
 5566SOL    HW123044   0.426   4.810   5.263 -0.0835 -0.8495  0.7584
 5566SOL    HW223045   0.414   4.712   5.149 -0.3613  2.2360 -2.0420
 5567SOL     OW23046   2.782   0.081   8.076 -0.0278  0.1492 -0.2631
 5567SOL    HW123047   2.735   0.043   8.002  0.2237  0.4264 -0.5728
 5567SOL    HW223048   2.817   0.006   8.124  0.0872 -0.0268 -0.6147
 5568SOL     OW23049   8.655   0.223   0.220  0.4374  0.2947  0.0962
 5568SOL    HW123050   8.634   0.269   0.139 -1.0416 -0.4446  0.0173
 5568SOL    HW223051   8.668   0.292   0.284  0.7121  0.8708 -0.5721
 5569SOL     OW23052   0.740   2.041   4.271  0.3619  0.8461 -0.7573
 5569SOL    HW123053   0.702   1.955   4.254  1.8868 -0.2265  0.9020
 5569SOL    HW223054   0.665   2.099   4.280 -0.8078 -0.7042  0.0701
 5570SOL     OW23055   1.002   5.063   5.854  0.1637 -0.5816  0.1586
 5570SOL    HW123056   1.032   5.032   5.939 -2.4190  0.0167  1.3937
 5570SOL    HW223057   0.997   5.158   5.864 -1.4629 -0.6119 -0.1861
 5571SOL     OW23058   7.421   8.634   0.638 -0.1434  0.3995  0.4548
 5571SOL    HW123059   7.356   8.635   0.709 -1.2468  0.7261 -0.5329
 5571SOL    HW223060   7.458   8.722   0.638  0.4758  0.1500  1.1583
 5572SOL     OW23061   4.626   4.523   0.773 -0.3008 -0.1391 -0.6933
 5572SOL    HW123062   4.648   4.455   0.836  2.4193 -0.2013 -1.6070
 5572SOL    HW223063   4.562   4.482   0.715  1.0087 -1.8422 -1.0117
 5573SOL     OW23064   8.850   1.286   6.725 -0.3490 -0.1974  0.1008
 5573SOL    HW123065   8.891   1.299   6.639 -0.1091 -0.0533  0.2345
 5573SOL    HW223066   8.756   1.281   6.706 -0.3821  0.8226 -0.0689
 5574SOL     OW23067   8.369   0.198   0.135  0.5309  0.1115 -0.1679
 5574SOL    HW123068   8.351   0.168   0.046  0.2860  0.0340 -0.0944
 5574SOL    HW223069   8.462   0.180   0.149  0.8998  1.3515 -0.8800
 5575SOL     OW23070   0.125   8.359   7.114  0.0445  0.2749  0.0026
 5575SOL    HW123071   0.060   8.384   7.048 -2.3598 -2.2375  1.1824
 5575SOL    HW223072   0.083   8.381   7.197  0.8956 -0.9704  0.7948
 5576SOL     OW23073   7.325   8.196   8.986 -0.0099 -0.0859  0.5477
 5576SOL    HW123074   7.386   8.251   9.035  1.9803 -2.0118  0.4224
 5576SOL    HW223075   7.260   8.168   9.051 -0.3834  1.4438  0.8591
 5577SOL     OW23076   1.192   1.050   2.412 -0.0365  0.0832 -0.3127
 5577SOL    HW123077   1.264   1.065   2.352  0.3775 -1.7936 -0.3417
 5577SOL    HW223078   1.208   1.111   2.485  0.2334  1.3526 -1.3950
 5578SOL     OW23079   6.700   5.636   7.122 -0.5359 -0.2298 -0.2825
 5578SOL    HW123080   6.614   5.627   7.163  0.0434 -0.7922  0.8593
 5578SOL    HW223081   6.740   5.710   7.167 -0.2740 -0.2110 -0.5456
 5579SOL     OW23082   5.871   6.448   0.587 -0.4960 -0.2923  0.4730
 5579SOL    HW123083   5.818   6.511   0.539  0.1114 -0.2644 -0.1764
 5579SOL    HW223084   5.864   6.367   0.537 -0.0816 -0.3396  0.4881
 5580SOL     OW23085   5.637   1.365   3.203  0.1317  0.5004  0.1502
 5580SOL    HW123086   5.565   1.370   3.266 -3.1436  0.5169 -3.2379
 5580SOL    HW223087   5.707   1.320   3.250 -3.0463 -2.1280  2.9229
 5581SOL     OW23088   4.463   1.779   0.512  0.3092 -0.5638  0.8555
 5581SOL    HW123089   4.407   1.840   0.561 -0.4658  0.0581 -0.7299
 5581SOL    HW223090   4.447   1.694   0.553 -0.3430 -0.0655  1.6626
 5582SOL     OW23091   7.244   4.512   0.510  0.0176  0.0487  0.4153
 5582SOL    HW123092   7.201   4.520   0.595 -1.8893  0.8086 -0.5498
 5582SOL    HW223093   7.336   4.496   0.530  0.2456  3.2050  2.6686
 5583SOL     OW23094   3.606   4.226   5.624 -0.0853  1.2489 -0.3685
 5583SOL    HW123095   3.540   4.198   5.687 -1.3481  0.6397 -1.8965
 5583SOL    HW223096   3.689   4.221   5.672 -1.1978  2.9780  1.9165
 5584SOL     OW23097   7.884   0.239   0.928 -0.4611 -0.3731 -0.3422
 5584SOL    HW123098   7.908   0.193   0.848 -1.4639 -1.0939 -0.2574
 5584SOL    HW223099   7.941   0.201   0.995  0.0324 -0.1231 -0.6159
 5585SOL     OW23100   6.283   6.466   8.112 -0.6090  0.1974  0.1151
 5585SOL    HW123101   6.378   6.476   8.114 -0.4751 -0.8943  0.0658
 5585SOL    HW223102   6.251   6.544   8.068  0.4189 -0.2844 -1.5836
 5586SOL     OW23103   6.371   7.725   0.831  0.3812 -0.1535  0.3693
 5586SOL    HW123104   6.384   7.724   0.736  1.6314 -1.3478  0.5227
 5586SOL    HW223105   6.383   7.817   0.856  0.5109  0.0953 -0.5569
 5587SOL     OW23106   0.052   8.518   1.942  0.0995  0.0855  0.1248
 5587SOL    HW123107  -0.018   8.531   1.877 -1.0547  1.2792  1.5158
 5587SOL    HW223108   0.071   8.425   1.939  0.7287  0.2276 -2.5227
 5588SOL     OW23109   3.270   0.247   7.966  0.4313  0.0626  0.7512
 5588SOL    HW123110   3.330   0.260   8.039  1.1159 -1.6477  0.5425
 5588SOL    HW223111   3.192   0.208   8.004  1.4039 -2.3573  0.4469
 5589SOL     OW23112   3.379   2.872   8.394  0.0024  0.0720  0.4923
 5589SOL    HW123113   3.405   2.944   8.451  1.4286 -1.2545  1.5888
 5589SOL    HW223114   3.427   2.796   8.427 -0.8852 -1.2398 -1.0779
 5590SOL     OW23115   3.055   8.443   7.042  0.1299  0.2451  0.0926
 5590SOL    HW123116   3.096   8.358   7.027  1.8868  0.8400  1.2392
 5590SOL    HW223117   3.014   8.436   7.128  1.1485  0.8298  0.6522
 5591SOL     OW23118   5.016   4.660   5.588 -0.1912 -0.0020  0.1376
 5591SOL    HW123119   4.922   4.654   5.601 -0.1891  0.0180  0.1632
 5591SOL    HW223120   5.055   4.619   5.665 -0.1942 -2.0935 -0.9155
 5592SOL     OW23121   4.926   4.682   5.912  0.3391 -0.2433 -1.2972
 5592SOL    HW123122   4.836   4.713   5.900  0.6584  0.2992 -2.4658
 5592SOL    HW223123   4.943   4.691   6.005 -0.2407  1.3326 -1.3156
 5593SOL     OW23124   0.256   1.588   2.256 -0.0605 -0.2215 -0.2261
 5593SOL    HW123125   0.161   1.578   2.252  0.0453 -0.8492 -3.2120
 5593SOL    HW223126   0.289   1.542   2.179  2.4952  2.0544 -0.6550
 5594SOL     OW23127   4.141   2.209   8.172 -0.2858  0.8137  0.3693
 5594SOL    HW123128   4.087   2.149   8.223 -2.1634  1.9243 -0.1944
 5594SOL    HW223129   4.078   2.270   8.132  1.2488  1.1019 -1.7960
 5595SOL     OW23130   0.463   2.102   3.277  0.4263  0.3976 -0.0399
 5595SOL    HW123131   0.419   2.047   3.212 -0.3866  1.5899 -0.5246
 5595SOL    HW223132   0.396   2.122   3.342  0.6596  0.9585  0.0345
 5596SOL     OW23133   0.862   8.380   5.958  0.0661 -0.2435 -1.0153
 5596SOL    HW123134   0.897   8.462   5.993 -1.7993 -0.6360  2.1809
 5596SOL    HW223135   0.828   8.404   5.872  1.1203  1.9027 -0.9150
 5597SOL     OW23136   8.321   0.964   6.340  0.1980  0.4149  0.0877
 5597SOL    HW123137   8.359   1.026   6.402 -0.8144  0.6208  0.5331
 5597SOL    HW223138   8.226   0.975   6.351  0.0040 -0.2816 -0.7640
 5598SOL     OW23139   8.562   3.946   3.518  0.1334  0.5611 -0.1755
 5598SOL    HW123140   8.654   3.922   3.508 -0.4457 -2.5236  0.9175
 5598SOL    HW223141   8.524   3.932   3.431  0.0360 -1.7506  0.1875
 5599SOL     OW23142   6.237   2.680   6.554 -0.4087  0.4259  0.3984
 5599SOL    HW123143   6.287   2.598   6.552  0.2386  0.7547  1.8396
 5599SOL    HW223144   6.147   2.654   6.533 -0.4627 -0.8825  2.0434
 5600SOL     OW23145   7.651   0.209   4.823 -0.2976  0.6478 -0.3705
 5600SOL    HW123146   7.618   0.233   4.910  0.6893  0.5676  0.0418
 5600SOL    HW223147   7.692   0.289   4.790 -0.2601  0.5477 -0.5670
 5601SOL     OW23148   2.021   3.525   5.086 -0.0654 -0.4076 -0.2327
 5601SOL    HW123149   2.024   3.584   5.011  0.9123 -1.8598 -1.3928
 5601SOL    HW223150   2.042   3.581   5.161  0.6876  0.7439 -1.2588
 5602SOL     OW23151   5.650   0.080   0.055 -0.3688 -0.0855  0.3332
 5602SOL    HW123152   5.681   0.150   0.112  0.9315 -0.2290 -0.1530
 5602SOL    HW223153   5.730   0.048   0.012 -1.0780 -1.1896 -0.1944
 5603SOL     OW23154   5.959   8.937   8.459 -0.0462  0.4684 -0.2526
 5603SOL    HW123155   5.935   8.851   8.494  0.7468  1.5522  3.3320
 5603SOL    HW223156   5.877   8.985   8.455 -0.4107 -0.1997 -1.7723
 5604SOL     OW23157   5.988   4.028   7.528 -0.1297 -0.3027 -0.4300
 5604SOL    HW123158   5.906   4.059   7.566  0.2189 -0.3765  0.3937
 5604SOL    HW223159   6.000   4.081   7.450 -0.8200 -0.1012 -0.4069
 5605SOL     OW23160   4.740   5.718   4.666 -0.3452 -0.0676 -0.2085
 5605SOL    HW123161   4.699   5.784   4.610 -2.0955 -1.4239 -0.6016
 5605SOL    HW223162   4.771   5.768   4.742  1.7530  1.7557 -2.1105
 5606SOL     OW23163   0.689   0.361   3.609 -0.2771 -0.1750 -0.4537
 5606SOL    HW123164   0.643   0.414   3.674  0.5858  0.1604 -0.0946
 5606SOL    HW223165   0.631   0.360   3.533 -0.6828  0.5849 -0.1640
 5607SOL     OW23166   5.909   8.962   4.405  0.1157 -0.2364  0.1507
 5607SOL    HW123167   5.979   8.918   4.357  0.3799  0.2768  0.0584
 5607SOL    HW223168   5.947   9.046   4.432 -0.3024 -0.1650  0.5299
 5608SOL     OW23169   8.648   1.986   3.189 -0.1215  0.2592  0.2256
 5608SOL    HW123170   8.596   1.971   3.268  1.7672  0.0837  1.5020
 5608SOL    HW223171   8.667   2.080   3.189 -0.1108  0.2581 -0.0096
 5609SOL     OW23172   0.899   4.114   4.602 -0.0869  0.1550  0.3303
 5609SOL    HW123173   0.965   4.183   4.595  0.1490 -0.0124  0.8445
 5609SOL    HW223174   0.879   4.091   4.511  0.7954 -0.0093  0.1653
 5610SOL     OW23175   8.967   5.233   0.081  0.1862 -0.0661  0.3037
 5610SOL    HW123176   8.933   5.205  -0.004 -0.2686  0.7238  0.2196
 5610SOL    HW223177   8.908   5.303   0.109  0.6338  0.0279  1.0351
 5611SOL     OW23178   2.678   2.099   1.603  0.4781  0.0668  0.2827
 5611SOL    HW123179   2.766   2.062   1.594  1.2967  1.5201  1.6576
 5611SOL    HW223180   2.632   2.037   1.660  0.5639 -0.7415 -0.5053
 5612SOL     OW23181   8.710   6.760   8.180  0.1159 -0.2095  0.0173
 5612SOL    HW123182   8.742   6.700   8.112 -2.2857 -2.6042  0.8411
 5612SOL    HW223183   8.621   6.783   8.152  0.5762  2.2240  0.2967
 5613SOL     OW23184   5.577   3.243   7.071 -0.0690  0.7444 -0.5068
 5613SOL    HW123185   5.668   3.269   7.085  0.4621 -1.4782  0.6245
 5613SOL    HW223186   5.582   3.175   7.003 -0.6891 -0.3664  0.5262
 5614SOL     OW23187   8.196   0.278   4.286  0.3251  0.0876 -0.5219
 5614SOL    HW123188   8.211   0.189   4.254  0.6481  0.6524 -2.0644
 5614SOL    HW223189   8.162   0.325   4.209 -1.6317  0.8512  0.7431
 5615SOL     OW23190   6.908   2.690   8.116 -0.6749  0.5403  0.1780
 5615SOL    HW123191   6.934   2.694   8.208  0.8145  1.0657 -0.2361
 5615SOL    HW223192   6.952   2.764   8.075 -2.5552  1.2390 -0.6898
 5616SOL     OW23193   2.323   4.623   0.970 -0.6321  0.2443  0.1389
 5616SOL    HW123194   2.322   4.626   0.874  1.1539  1.1980  0.1154
 5616SOL    HW223195   2.296   4.711   0.997 -1.3766 -0.0955  0.5386
 5617SOL     OW23196   4.341   2.086   4.426  0.0534  0.3802 -0.4221
 5617SOL    HW123197   4.385   2.160   4.385  1.1970  0.7768  1.3855
 5617SOL    HW223198   4.298   2.123   4.504  0.0859 -0.7284  0.1501
 5618SOL     OW23199   5.281   6.131   5.092  0.1410 -0.4687  0.0446
 5618SOL    HW123200   5.350   6.159   5.031  0.4384  1.7069  1.2848
 5618SOL    HW223201   5.321   6.061   5.143  1.1408  0.1546  0.1391
 5619SOL     OW23202   4.213   0.597   3.506  0.3070  0.5080  0.1758
 5619SOL    HW123203   4.257   0.566   3.427  0.7986  2.1561 -0.2406
 5619SOL    HW223204   4.126   0.556   3.503  0.7494 -0.4005 -0.5726
 5620SOL     OW23205   5.893   0.845   0.254  0.2844 -0.6460 -0.8435
 5620SOL    HW123206   5.950   0.899   0.310 -0.5644 -0.1375 -0.4568
 5620SOL    HW223207   5.847   0.908   0.199 -0.8211 -0.9511 -0.2970
 5621SOL     OW23208   8.295   4.352   4.647 -0.0002  0.5230  0.2524
 5621SOL    HW123209   8.281   4.262   4.620  1.8189  0.1394  0.4213
 5621SOL    HW223210   8.208   4.387   4.664 -0.8541 -0.6563 -1.5110
 5622SOL     OW23211   1.063   8.442   7.247  0.1217 -0.3419  0.2652
 5622SOL    HW123212   0.973   8.424   7.273 -0.2371  0.7120 -0.2218
 5622SOL    HW223213   1.081   8.379   7.177 -0.0468 -0.9046  0.7170
 5623SOL     OW23214   0.562   3.136   0.299  0.1024  0.3212 -0.4448
 5623SOL    HW123215   0.523   3.164   0.216  1.2497  3.6473 -0.0244
 5623SOL    HW223216   0.508   3.177   0.366  0.8479  0.1017  0.3078
 5624SOL     OW23217   5.074   3.342   6.254 -0.0891  0.1979 -0.3279
 5624SOL    HW123218   5.162   3.308   6.238  0.6558  1.4361  0.8778
 5624SOL    HW223219   5.018   3.265   6.258  1.0629 -0.6591 -0.3912
 5625SOL     OW23220   5.145   3.314   8.091  0.2398  0.3769 -0.3518
 5625SOL    HW123221   5.139   3.403   8.057 -1.0833 -0.1401 -1.5804
 5625SOL    HW223222   5.196   3.266   8.025  0.6067  0.1278  0.1059
 5626SOL     OW23223   2.997   2.755   4.904  0.1447 -0.1489  0.0683
 5626SOL    HW123224   2.902   2.763   4.906  0.0638 -0.7839 -0.8597
 5626SOL    HW223225   3.026   2.798   4.985 -0.8786  0.6147  0.0479
 5627SOL     OW23226   2.651   1.977   2.221  0.1625 -0.9176 -0.3623
 5627SOL    HW123227   2.582   1.953   2.282 -0.6928 -0.8306 -1.2666
 5627SOL    HW223228   2.680   1.894   2.184  1.6476 -1.1125  1.1302
 5628SOL     OW23229   8.154   1.410   3.239 -0.2473 -0.2454  0.1917
 5628SOL    HW123230   8.097   1.455   3.177  0.5237  0.3772 -0.0852
 5628SOL    HW223231   8.097   1.346   3.282 -0.7748 -0.7549 -1.2078
 5629SOL     OW23232   7.202   3.763   6.541 -0.3600 -0.1053 -0.1752
 5629SOL    HW123233   7.220   3.826   6.471 -1.1113  0.0979 -0.1967
 5629SOL    HW223234   7.256   3.687   6.519 -0.4784  0.0135 -0.9021
 5630SOL     OW23235   7.734   2.089   8.513 -0.2620 -0.0497 -0.3661
 5630SOL    HW123236   7.796   2.016   8.514  0.5747  0.6598 -0.2280
 5630SOL    HW223237   7.782   2.162   8.551 -1.5217  0.2380  0.7410
 5631SOL     OW23238   7.143   1.533   1.931  0.3098 -0.3328 -0.7426
 5631SOL    HW123239   7.072   1.502   1.874  0.3176  0.6876 -1.3217
 5631SOL    HW223240   7.147   1.467   2.001 -2.4888  0.5041  0.3741
 5632SOL     OW23241   0.811   4.063   5.063  0.3455 -0.1057  0.0925
 5632SOL    HW123242   0.796   4.120   4.988 -0.7572  0.1745  0.5087
 5632SOL    HW223243   0.726   4.056   5.105  1.1100  0.4436  1.8194
 5633SOL     OW23244   1.674   8.131   4.720  0.7151 -0.0822 -0.0223
 5633SOL    HW123245   1.696   8.055   4.667  2.1661 -0.9381  1.7027
 5633SOL    HW223246   1.632   8.096   4.798  1.1641  0.8747  0.6805
 5634SOL     OW23247   8.496   2.285   2.947 -0.5340  0.2828  0.2484
 5634SOL    HW123248   8.487   2.218   2.879  0.1722  0.1108  0.3142
 5634SOL    HW223249   8.455   2.247   3.024 -0.9290  0.2910  0.0445
 5635SOL     OW23250   7.961   8.697   6.995 -0.2510 -0.5982  0.2195
 5635SOL    HW123251   7.948   8.789   7.019  0.6795 -0.2765 -0.4695
 5635SOL    HW223252   7.903   8.684   6.920 -0.3679 -0.5705  0.3038
 5636SOL     OW23253   7.708   8.410   0.135  0.0186 -0.0042  0.4325
 5636SOL    HW123254   7.688   8.443   0.047 -0.8806 -0.8483  0.3119
 5636SOL    HW223255   7.804   8.401   0.135  0.0680  0.4165 -0.3095
 5637SOL     OW23256   1.669   1.906   4.080 -0.2977  0.4975 -0.4303
 5637SOL    HW123257   1.682   2.000   4.091  0.1974  0.3889 -0.0543
 5637SOL    HW223258   1.589   1.887   4.130  0.3604  0.4928  0.6526
 5638SOL     OW23259   1.255   7.669   8.032 -0.6882  0.1864  0.0613
 5638SOL    HW123260   1.204   7.680   7.952 -0.9750  1.1857  0.3667
 5638SOL    HW223261   1.191   7.643   8.098 -0.6127  0.3402  0.1940
 5639SOL     OW23262   4.391   6.501   0.097  0.1183  0.1331  0.0331
 5639SOL    HW123263   4.388   6.527   0.005 -1.4285  1.1568  0.3354
 5639SOL    HW223264   4.425   6.578   0.142 -1.1197  0.4132  0.5354
 5640SOL     OW23265   2.508   4.879   1.325  0.0031 -0.3437 -0.7343
 5640SOL    HW123266   2.463   4.960   1.301  0.2834  0.0247 -0.0561
 5640SOL    HW223267   2.473   4.857   1.412  1.3044  0.0993 -0.0676
 5641SOL     OW23268   1.833   5.338   1.727 -0.1922 -0.3199 -0.0228
 5641SOL    HW123269   1.756   5.388   1.704 -0.8857 -0.4339  1.8915
 5641SOL    HW223270   1.820   5.314   1.819  2.1901 -0.1954  0.4090
 5642SOL     OW23271   3.191   4.491   0.856  0.7029 -0.0116 -0.5941
 5642SOL    HW123272   3.161   4.442   0.932 -1.0050  2.2745  0.3362
 5642SOL    HW223273   3.272   4.447   0.830  0.4734 -1.8900  1.4960
 5643SOL     OW23274   7.953   8.124   7.808 -1.1509  0.1403  0.1188
 5643SOL    HW123275   7.998   8.203   7.840 -0.3573  0.0742 -0.7913
 5643SOL    HW223276   7.950   8.136   7.713 -2.2718 -0.2893  0.0912
 5644SOL     OW23277   8.176   6.265   1.555 -0.1191 -0.1680  0.4460
 5644SOL    HW123278   8.117   6.314   1.498  2.5132  0.8620 -1.6313
 5644SOL    HW223279   8.138   6.272   1.642 -3.1891  0.0719 -0.8057
 5645SOL     OW23280   7.205   3.523   5.516 -0.1638  0.1066 -0.0341
 5645SOL    HW123281   7.282   3.561   5.558 -0.3255  1.6920 -1.0509
 5645SOL    HW223282   7.236   3.496   5.430 -0.1575 -1.7648  0.5245
 5646SOL     OW23283   4.817   7.817   7.248 -0.1981  0.4993  0.1397
 5646SOL    HW123284   4.835   7.875   7.173 -0.5603  0.2398 -0.1519
 5646SOL    HW223285   4.871   7.852   7.318 -0.9659  1.6732  0.1909
 5647SOL     OW23286   0.506   3.932   3.372 -0.6418  0.3417  0.7489
 5647SOL    HW123287   0.448   3.921   3.447  0.3608  0.1602  1.5234
 5647SOL    HW223288   0.594   3.934   3.410 -0.2029  1.8560 -0.2629
 5648SOL     OW23289   6.308   8.078   5.829  0.0914  0.1670 -0.1452
 5648SOL    HW123290   6.307   8.171   5.805  2.7751 -0.3064 -2.6774
 5648SOL    HW223291   6.388   8.068   5.881  0.6317 -0.9403 -1.1572
 5649SOL     OW23292   2.073   2.918   3.204  0.1118  0.2777  0.3936
 5649SOL    HW123293   2.108   2.994   3.159 -1.6752  0.7288 -0.3188
 5649SOL    HW223294   1.986   2.944   3.233  0.2054 -0.8599  1.8921
 5650SOL     OW23295   3.711   1.248   4.269 -0.3243 -0.8083  0.2624
 5650SOL    HW123296   3.789   1.288   4.231 -0.9432 -0.3665 -0.5814
 5650SOL    HW223297   3.651   1.237   4.195 -1.5500  0.0136  1.0947
 5651SOL     OW23298   2.120   3.486   1.163 -0.8990 -0.0261  0.4325
 5651SOL    HW123299   2.039   3.499   1.113  0.4968  0.4704 -1.8235
 5651SOL    HW223300   2.171   3.565   1.147 -0.1803 -0.0582  2.3335
 5652SOL     OW23301   1.913   2.845   1.276 -0.1024  0.0342  0.1684
 5652SOL    HW123302   1.967   2.894   1.214  0.4425 -0.0457  0.5731
 5652SOL    HW223303   1.849   2.908   1.308 -0.4818  0.0362 -0.5853
 5653SOL     OW23304   8.236   2.372   1.886 -0.2855  0.5103 -0.8162
 5653SOL    HW123305   8.186   2.348   1.808 -1.4433  0.2109 -0.0135
 5653SOL    HW223306   8.294   2.443   1.857 -1.4860  1.1713 -1.7023
 5654SOL     OW23307   5.298   7.220   2.288  0.1915  0.2608 -0.4295
 5654SOL    HW123308   5.237   7.205   2.216 -0.1935 -1.4667  0.2108
 5654SOL    HW223309   5.246   7.264   2.355 -0.6170 -1.8246  0.3914
 5655SOL     OW23310   2.640   5.612   8.525 -0.4190  0.2773  0.7065
 5655SOL    HW123311   2.605   5.589   8.611 -1.0960  0.5514  0.5089
 5655SOL    HW223312   2.708   5.677   8.544 -1.2871  1.1397  0.9690
 5656SOL     OW23313   0.419   3.529   1.197 -0.3260 -0.3785  0.4747
 5656SOL    HW123314   0.384   3.464   1.258 -0.4222  0.3871  1.2571
 5656SOL    HW223315   0.513   3.531   1.217 -0.4893  0.4672  1.1751
 5657SOL     OW23316   1.865   4.261   9.198 -0.0744  0.5175 -0.6205
 5657SOL    HW123317   1.772   4.236   9.196  0.1539 -0.3360 -1.9743
 5657SOL    HW223318   1.865   4.355   9.185 -0.7393  0.4504 -1.1766
 5658SOL     OW23319   1.961   7.671   9.196  0.5422  0.8029  0.1472
 5658SOL    HW123320   1.940   7.764   9.187  1.6939  1.3186  2.2278
 5658SOL    HW223321   2.056   7.667   9.192  0.7305  0.1651  3.0838
 5659SOL     OW23322   8.163   2.778   0.399  0.5944 -0.1510  0.5293
 5659SOL    HW123323   8.189   2.728   0.321 -0.4061  0.0189  0.0753
 5659SOL    HW223324   8.227   2.753   0.466  0.7860 -1.1670 -0.0156
 5660SOL     OW23325   2.941   4.557   6.610 -0.9962  0.7650 -0.7322
 5660SOL    HW123326   2.957   4.565   6.704  3.2590  0.7015 -1.2693
 5660SOL    HW223327   2.980   4.473   6.586  1.2480  2.3227 -3.0087
 5661SOL     OW23328   6.088   0.539   2.931 -0.3825  0.0079  0.3339
 5661SOL    HW123329   6.157   0.472   2.927  0.9322  1.3365 -0.1825
 5661SOL    HW223330   6.132   0.616   2.965 -1.6371  0.8978 -0.0043
 5662SOL     OW23331   3.134   0.614   4.833  0.3695  0.2839 -0.7803
 5662SOL    HW123332   3.190   0.546   4.870 -0.3353 -1.0724 -2.1319
 5662SOL    HW223333   3.045   0.582   4.846  0.0772  0.1249 -2.8844
 5663SOL     OW23334   2.867   2.317   7.751 -0.2341 -0.4321 -0.4054
 5663SOL    HW123335   2.793   2.260   7.771  1.1929 -1.7035  1.6264
 5663SOL    HW223336   2.941   2.278   7.798  0.8869  2.9812  0.9956
 5664SOL     OW23337   7.075   8.520   8.200  0.3596 -0.1879 -0.1337
 5664SOL    HW123338   7.069   8.582   8.127 -0.1277  0.0633  0.1126
 5664SOL    HW223339   7.140   8.558   8.259  1.7748 -1.0754 -1.0744
 5665SOL     OW23340   7.090   6.702   0.559 -0.0952  0.4886  0.1282
 5665SOL    HW123341   7.074   6.706   0.465  3.1921  3.6026 -0.5143
 5665SOL    HW223342   7.053   6.784   0.593  0.4023  0.2886  1.2062
 5666SOL     OW23343   4.674   2.288   1.860 -0.2816 -0.0304  0.3305
 5666SOL    HW123344   4.636   2.203   1.881  0.4149 -0.3641  0.2762
 5666SOL    HW223345   4.696   2.283   1.767  0.0129  0.1091  0.3906
 5667SOL     OW23346   1.957   1.964   1.748 -0.1671  0.3189 -0.7247
 5667SOL    HW123347   2.010   2.036   1.714  2.5846 -0.6797  1.0972
 5667SOL    HW223348   1.922   1.997   1.831  0.1442 -0.0568 -0.4436
 5668SOL     OW23349   0.570   1.817   5.545 -0.4348 -0.3179 -0.3916
 5668SOL    HW123350   0.489   1.829   5.594  0.9942  0.1958  2.0536
 5668SOL    HW223351   0.603   1.732   5.574  0.7627  0.2860  0.1310
 5669SOL     OW23352   6.609   5.523   3.681  0.1073 -0.1946 -0.0493
 5669SOL    HW123353   6.516   5.544   3.678  0.4910  2.2767  2.0344
 5669SOL    HW223354   6.624   5.496   3.772  1.4983 -0.1530 -0.2446
 5670SOL     OW23355   2.158   2.660   6.064  0.1084  0.0951  0.4653
 5670SOL    HW123356   2.065   2.652   6.044  0.4394 -0.3776 -1.0326
 5670SOL    HW223357   2.193   2.572   6.048  1.0496  0.6074 -0.4267
 5671SOL     OW23358   1.742   8.354   6.334  0.0364 -0.4022 -0.2566
 5671SOL    HW123359   1.661   8.399   6.310 -0.8279 -2.1666 -0.8187
 5671SOL    HW223360   1.722   8.311   6.417  1.1615  0.9550  0.7753
 5672SOL     OW23361   7.247   7.765   0.128 -0.1763 -0.2151  0.4939
 5672SOL    HW123362   7.204   7.688   0.092  2.7306 -1.9793  0.5022
 5672SOL    HW223363   7.338   7.758   0.099  0.1375  3.4635  0.1815
 5673SOL     OW23364   6.127   0.125   4.534  0.0539  0.3668  0.3933
 5673SOL    HW123365   6.181   0.172   4.598  0.4724 -1.8948  1.8102
 5673SOL    HW223366   6.042   0.169   4.539  1.0553  2.5345 -0.2176
 5674SOL     OW23367   3.440   4.268   8.609  0.2661 -0.5308 -0.1355
 5674SOL    HW123368   3.389   4.201   8.653  0.5414 -0.1443  0.7932
 5674SOL    HW223369   3.389   4.348   8.620  0.4286 -0.3937 -0.3563
 5675SOL     OW23370   3.462   4.328   4.912  0.5935  0.1593  0.2832
 5675SOL    HW123371   3.504   4.376   4.840  0.7858 -0.5592 -0.0965
 5675SOL    HW223372   3.378   4.372   4.925 -0.4348 -1.0072 -1.8749
 5676SOL     OW23373   4.272   5.468   8.248  0.0980 -0.2411 -0.7694
 5676SOL    HW123374   4.191   5.519   8.256  1.2766  1.8757 -1.3645
 5676SOL    HW223375   4.307   5.464   8.338  1.1398  2.1484 -0.9851
 5677SOL     OW23376   2.236   5.129   7.384 -0.0242 -0.3462 -0.1973
 5677SOL    HW123377   2.177   5.090   7.320  2.5800 -0.9213 -2.4210
 5677SOL    HW223378   2.178   5.158   7.455 -2.7776 -2.0709 -1.5580
 5678SOL     OW23379   4.787   2.612   6.366  0.2935 -0.0878  0.2365
 5678SOL    HW123380   4.771   2.608   6.460 -0.3152 -0.0894  0.1408
 5678SOL    HW223381   4.714   2.665   6.332 -0.1086 -0.9994 -0.3646
 5679SOL     OW23382   7.964   2.866   6.635  0.2352 -0.1308  0.0235
 5679SOL    HW123383   7.909   2.852   6.711  0.6256  0.9727  0.5292
 5679SOL    HW223384   8.051   2.886   6.671  0.7471 -0.9283 -0.7366
 5680SOL     OW23385   4.644   0.704   0.944  0.0834  0.1491  0.3359
 5680SOL    HW123386   4.680   0.630   0.992 -3.8783 -1.0466  1.8918
 5680SOL    HW223387   4.613   0.763   1.013  0.6282  1.9387 -0.8894
 5681SOL     OW23388   5.661   3.426   0.166  0.0751  0.3796  0.4243
 5681SOL    HW123389   5.595   3.406   0.233 -2.2807  0.8307 -1.6090
 5681SOL    HW223390   5.655   3.352   0.105 -0.5727  1.7290 -1.2227
 5682SOL     OW23391   2.668   0.380   7.729 -0.3637 -0.1613 -0.1071
 5682SOL    HW123392   2.709   0.428   7.801  0.4436  1.0911 -1.3292
 5682SOL    HW223393   2.681   0.437   7.653 -1.8205 -1.1107 -1.1053
 5683SOL     OW23394   3.618   2.987   3.940  0.2357 -0.1811  0.1053
 5683SOL    HW123395   3.578   3.073   3.954  0.3944  0.1714 -1.4566
 5683SOL    HW223396   3.697   2.989   3.995 -0.1563  0.3631  0.6713
 5684SOL     OW23397   3.121   8.931   3.499 -0.4401 -0.1552 -0.2029
 5684SOL    HW123398   3.151   9.022   3.497  0.7796 -0.3430  3.2256
 5684SOL    HW223399   3.025   8.938   3.491 -0.2963  1.2929 -1.1265
 5685SOL     OW23400   4.394   1.580   2.119 -0.4301  0.3547  0.1449
 5685SOL    HW123401   4.326   1.523   2.155  0.8278 -0.2712  1.6385
 5685SOL    HW223402   4.469   1.522   2.104  0.4173  1.3675  0.3587
 5686SOL     OW23403   2.282   4.919   0.300 -0.0896  0.4239 -0.2878
 5686SOL    HW123404   2.338   4.901   0.376 -1.1261 -1.0560  0.1716
 5686SOL    HW223405   2.334   4.890   0.225 -0.0012 -0.4127  0.0838
 5687SOL     OW23406   2.161   2.399   1.652  0.2737 -0.6061  0.9227
 5687SOL    HW123407   2.232   2.419   1.714  0.1608  1.6117  0.4335
 5687SOL    HW223408   2.101   2.473   1.660  0.0463 -0.4419 -1.5120
 5688SOL     OW23409   4.664   1.353   0.237  0.0159  0.4158 -0.1995
 5688SOL    HW123410   4.752   1.339   0.202  0.4346 -0.8423  1.2463
 5688SOL    HW223411   4.606   1.314   0.172  0.6078  0.1927 -0.6009
 5689SOL     OW23412   5.591   0.857   7.953 -0.2778  0.1914 -0.6446
 5689SOL    HW123413   5.650   0.801   8.002 -1.5255 -0.3740  0.2670
 5689SOL    HW223414   5.551   0.914   8.019  1.0917  2.3450 -1.5579
 5690SOL     OW23415   6.601   5.628   9.097 -0.4453  0.6500 -0.2342
 5690SOL    HW123416   6.512   5.658   9.116 -0.6829 -0.1927  0.0845
 5690SOL    HW223417   6.597   5.597   9.007 -1.0235 -1.1777  0.3649
 5691SOL     OW23418   7.747   0.398   1.723 -0.6149 -0.2654 -0.6907
 5691SOL    HW123419   7.654   0.399   1.747 -0.5255  0.6337 -0.3596
 5691SOL    HW223420   7.770   0.305   1.724 -0.9523 -0.3817  1.3983
 5692SOL     OW23421   2.241   7.110   3.104  0.8779 -0.3356  0.1583
 5692SOL    HW123422   2.270   7.197   3.077 -0.2681  0.2735  0.8349
 5692SOL    HW223423   2.220   7.119   3.197 -1.0743 -0.8251 -0.1918
 5693SOL     OW23424   6.396   1.163   2.387 -0.4738 -0.3573 -0.0341
 5693SOL    HW123425   6.437   1.193   2.306  2.3629 -0.8758  1.0673
 5693SOL    HW223426   6.375   1.071   2.371 -1.1855 -0.1057 -0.5927
 5694SOL     OW23427   3.081   2.385   5.850 -0.0420  0.9612  0.6044
 5694SOL    HW123428   3.103   2.380   5.757 -0.1232 -1.1983  0.6438
 5694SOL    HW223429   3.115   2.470   5.878  0.3904  1.4683 -1.2769
 5695SOL     OW23430   6.812   3.701   1.087 -0.1148  0.5681  0.6897
 5695SOL    HW123431   6.813   3.608   1.066 -0.6423  0.4674  1.0817
 5695SOL    HW223432   6.902   3.731   1.072  0.1072 -0.0534  0.7793
 5696SOL     OW23433   6.030   0.614   6.774  0.0334 -0.5232  0.0842
 5696SOL    HW123434   5.942   0.651   6.773  1.4705  3.6776  2.4558
 5696SOL    HW223435   6.021   0.531   6.821 -2.4989  0.3721  1.3589
 5697SOL     OW23436   6.372   9.168   2.715  0.1017 -0.0549 -0.0733
 5697SOL    HW123437   6.345   9.096   2.772  0.2434 -0.6306 -0.7198
 5697SOL    HW223438   6.365   9.132   2.627 -0.3432  0.9039 -0.4367
 5698SOL     OW23439   3.999   0.011   7.141  0.6828 -0.0251  0.4689
 5698SOL    HW123440   3.992   0.041   7.050  1.3646 -2.0119 -0.2885
 5698SOL    HW223441   4.086   0.039   7.168  1.7044 -1.9973 -0.5587
 5699SOL     OW23442   1.354   3.197   2.991  0.2364  0.4057  0.4627
 5699SOL    HW123443   1.394   3.282   3.011  0.5443  0.5037 -0.5175
 5699SOL    HW223444   1.370   3.145   3.070  0.8593  0.9719  0.7280
 5700SOL     OW23445   1.002   9.224   2.662 -0.0523  0.3090 -0.6238
 5700SOL    HW123446   0.965   9.150   2.614  1.1947 -0.3416 -0.6164
 5700SOL    HW223447   0.952   9.300   2.631 -0.8681 -0.4284 -1.1603
 5701SOL     OW23448   1.967   5.119   5.898  0.1504  0.0075 -0.1779
 5701SOL    HW123449   1.964   5.098   5.805  2.2033 -2.0142  0.1369
 5701SOL    HW223450   2.050   5.165   5.910  0.6744 -1.1653  0.8796
 5702SOL     OW23451   8.264   1.367   6.031 -0.4792 -0.2007 -0.1307
 5702SOL    HW123452   8.327   1.316   6.082  2.0141 -0.4280 -3.1148
 5702SOL    HW223453   8.209   1.301   5.989  0.6127 -0.3268 -1.4200
 5703SOL     OW23454   6.853   1.620   7.050  0.0683  0.1249  0.6291
 5703SOL    HW123455   6.805   1.681   7.106 -1.6850 -1.1975  0.6731
 5703SOL    HW223456   6.942   1.621   7.083 -0.3620  1.2108  1.8419
 5704SOL     OW23457   1.433   5.815   6.651 -0.8011 -0.2388 -0.4949
 5704SOL    HW123458   1.497   5.850   6.589 -2.2345 -1.4090 -2.7599
 5704SOL    HW223459   1.374   5.888   6.669 -1.1767 -0.2218 -1.6770
 5705SOL     OW23460   7.428   4.319   1.669  0.7199 -0.0876 -0.3134
 5705SOL    HW123461   7.402   4.370   1.592  1.3360 -0.1925 -0.6006
 5705SOL    HW223462   7.354   4.327   1.729  0.7123  0.9659 -0.4392
 5706SOL     OW23463   4.771   9.173   6.204 -0.1613 -0.0598  0.5759
 5706SOL    HW123464   4.773   9.268   6.194  0.3736 -0.1099  0.1738
 5706SOL    HW223465   4.834   9.140   6.139 -0.8896 -0.7307  0.1876
 5707SOL     OW23466   0.575   0.804   7.041 -0.0013 -0.1210  0.2226
 5707SOL    HW123467   0.587   0.803   7.136  1.5523  1.6608  0.1022
 5707SOL    HW223468   0.659   0.773   7.007  1.3283  3.8381 -0.5673
 5708SOL     OW23469   7.558   5.070   2.132  0.3486 -0.3605  0.1074
 5708SOL    HW123470   7.596   5.112   2.055 -1.6876 -0.2745 -0.9107
 5708SOL    HW223471   7.599   5.115   2.206  2.1971 -0.3095 -0.9024
 5709SOL     OW23472   1.156   4.244   1.726  0.1935  0.0546  0.3071
 5709SOL    HW123473   1.248   4.248   1.752  1.2032  3.7407 -2.8315
 5709SOL    HW223474   1.110   4.295   1.792  0.8224  0.3494  0.5227
 5710SOL     OW23475   3.493   5.372   4.140  0.2779  0.1037  0.4386
 5710SOL    HW123476   3.428   5.303   4.152 -0.7480  1.2937  2.1180
 5710SOL    HW223477   3.570   5.342   4.188 -0.0027 -0.0604  0.7815
 5711SOL     OW23478   8.371   0.932   2.282  0.1071  0.1181  0.1244
 5711SOL    HW123479   8.345   0.845   2.252  3.4020 -0.8957 -0.2268
 5711SOL    HW223480   8.382   0.923   2.376  0.9286 -0.0303  0.0244
 5712SOL     OW23481   1.933   7.277   8.841  0.3843  0.2708  0.6194
 5712SOL    HW123482   1.976   7.212   8.898 -0.0813  0.3746  1.0907
 5712SOL    HW223483   1.867   7.318   8.896  1.2878  1.8087  0.6045
 5713SOL     OW23484   8.505   2.097   2.722  0.4632 -0.5057  0.1891
 5713SOL    HW123485   8.563   2.041   2.774 -1.5495 -3.6894 -0.6719
 5713SOL    HW223486   8.563   2.135   2.655  2.0177 -1.2864  1.0275
 5714SOL     OW23487   6.513   2.036   5.211  0.0842 -0.1338 -0.4359
 5714SOL    HW123488   6.579   2.103   5.222 -0.7792  0.6670  0.0167
 5714SOL    HW223489   6.430   2.084   5.204 -0.9417 -1.1869  2.6655
 5715SOL     OW23490   6.040   8.387   1.636 -0.1202  0.5643  0.6619
 5715SOL    HW123491   6.105   8.445   1.674  1.3424 -0.4246 -0.2011
 5715SOL    HW223492   6.060   8.387   1.542 -1.5046  0.3843  0.3419
 5716SOL     OW23493   4.446   8.933   2.662  0.3052  0.1454  0.1765
 5716SOL    HW123494   4.511   8.890   2.719  0.8764  0.2685 -0.3709
 5716SOL    HW223495   4.492   9.010   2.629  0.4280 -0.5782 -1.4342
 5717SOL     OW23496   2.089   3.051   0.437 -0.4108  0.1777 -0.4908
 5717SOL    HW123497   2.014   3.068   0.494  0.0305 -0.5392  0.3519
 5717SOL    HW223498   2.158   3.023   0.498  0.7216  1.3902 -1.1805
 5718SOL     OW23499   7.328   8.471   8.564 -0.2119 -0.4036 -0.2107
 5718SOL    HW123500   7.362   8.491   8.652 -1.3987  2.2546 -0.2854
 5718SOL    HW223501   7.398   8.418   8.524  1.7785  0.9636  1.2364
 5719SOL     OW23502   5.954   7.221   0.829 -0.0280  0.3767 -0.2585
 5719SOL    HW123503   5.953   7.316   0.836  1.8805  0.5419 -1.3196
 5719SOL    HW223504   5.986   7.191   0.914 -0.8002  0.6502  0.1392
 5720SOL     OW23505   6.101   0.332   2.050  0.2466 -0.6336  0.9120
 5720SOL    HW123506   6.047   0.400   2.008 -0.0466 -0.7059  1.1652
 5720SOL    HW223507   6.054   0.312   2.131  1.1064 -0.0847  1.5640
 5721SOL     OW23508   4.988   1.909   1.220  0.4118 -0.4003 -0.5080
 5721SOL    HW123509   5.018   1.920   1.310 -0.3077 -0.9321 -0.1911
 5721SOL    HW223510   4.898   1.941   1.222  0.4729 -0.1922 -1.0987
 5722SOL     OW23511   2.718   2.084   0.763 -0.0834 -0.5379  0.2322
 5722SOL    HW123512   2.810   2.066   0.747 -0.0441  1.2723 -2.0167
 5722SOL    HW223513   2.681   2.099   0.676 -1.8417  1.6025  1.2586
 5723SOL     OW23514   1.040   7.621   5.498 -0.2187  0.8279 -0.3155
 5723SOL    HW123515   1.109   7.580   5.551 -0.2463  1.6009  0.3388
 5723SOL    HW223516   0.970   7.557   5.496 -0.1371  0.7066  0.4326
 5724SOL     OW23517   1.947   2.480   8.501 -0.0093  0.0001 -0.0184
 5724SOL    HW123518   2.041   2.496   8.502  0.0422 -0.3132  0.6154
 5724SOL    HW223519   1.931   2.437   8.417  0.5771 -0.8509  0.2938
 5725SOL     OW23520   1.006   2.800   6.273 -0.3902  0.4261  0.6831
 5725SOL    HW123521   0.971   2.802   6.184 -0.0095 -0.3192  0.5126
 5725SOL    HW223522   1.002   2.708   6.299  0.6303  0.4542  0.9828
 5726SOL     OW23523   7.508   3.678   0.805 -0.4697  0.1075  0.0771
 5726SOL    HW123524   7.476   3.692   0.894 -1.8444  1.3736 -0.5901
 5726SOL    HW223525   7.603   3.664   0.816 -0.9408 -2.4566  1.9636
 5727SOL     OW23526   4.211   9.091   2.135  0.2261  0.1107 -0.4259
 5727SOL    HW123527   4.156   9.034   2.188 -0.9803 -0.5459 -2.2672
 5727SOL    HW223528   4.151   9.160   2.105  1.4985  2.0604  1.2127
 5728SOL     OW23529   8.224   3.872   0.636  0.0211  0.1207 -0.0798
 5728SOL    HW123530   8.147   3.819   0.655 -0.1288  0.2567 -0.2968
 5728SOL    HW223531   8.253   3.904   0.721  0.6224 -0.9949  0.1589
 5729SOL     OW23532   7.299   0.216   2.662 -0.3452  0.1482  0.0036
 5729SOL    HW123533   7.393   0.212   2.646 -0.1080 -0.4821  1.4320
 5729SOL    HW223534   7.270   0.124   2.659 -0.5488  0.1461  1.5106
 5730SOL     OW23535   3.359   5.956   0.015  0.2265  0.2524  0.3808
 5730SOL    HW123536   3.412   5.912   0.081 -0.0430  1.2786  1.3104
 5730SOL    HW223537   3.406   5.943  -0.067  0.9328 -0.4334  0.8822
 5731SOL     OW23538   7.810   4.408   3.865  0.4475 -0.5383  0.5116
 5731SOL    HW123539   7.857   4.396   3.948 -1.6994  1.5116  2.1687
 5731SOL    HW223540   7.728   4.361   3.877 -0.4936  0.9490  0.1749
 5732SOL     OW23541   6.135   8.006   0.581 -0.0469  0.3347 -0.2604
 5732SOL    HW123542   6.113   8.048   0.498  1.5181  0.9606 -0.3965
 5732SOL    HW223543   6.067   8.035   0.641 -1.3461 -0.3192 -1.3580
 5733SOL     OW23544   5.306   7.139   6.919  0.0875  0.1455 -0.6143
 5733SOL    HW123545   5.348   7.080   6.982 -0.0189  0.2798 -0.4178
 5733SOL    HW223546   5.379   7.176   6.869  0.1470 -0.2585 -0.8315
 5734SOL     OW23547   1.838   2.335   4.103 -0.1538  0.2590 -0.0792
 5734SOL    HW123548   1.876   2.275   4.038  0.0564 -1.8946  1.9000
 5734SOL    HW223549   1.903   2.404   4.113  1.8244 -1.6038  0.8163
 5735SOL     OW23550   5.940   4.010   6.010 -0.0335  0.1084 -0.2403
 5735SOL    HW123551   5.940   3.927   6.058  0.1697  0.4057  0.2810
 5735SOL    HW223552   6.032   4.035   6.006  0.0662 -0.4063 -1.6636
 5736SOL     OW23553   0.319   6.224   2.632 -0.8123 -0.4538 -0.4039
 5736SOL    HW123554   0.395   6.243   2.578 -1.2226  0.2667 -0.7474
 5736SOL    HW223555   0.354   6.215   2.721 -0.2075 -1.1143 -0.7009
 5737SOL     OW23556   7.488   4.710   7.283  0.0191 -0.1280 -0.1365
 5737SOL    HW123557   7.558   4.651   7.256  0.6539  0.4145  0.2854
 5737SOL    HW223558   7.489   4.707   7.379 -0.5417 -0.1291 -0.1292
 5738SOL     OW23559   2.697   6.403   5.607  0.5244  0.1353  0.3007
 5738SOL    HW123560   2.639   6.371   5.538  1.0411 -1.3705  0.5215
 5738SOL    HW223561   2.742   6.325   5.638 -0.3310  0.5964  2.9678
 5739SOL     OW23562   8.629   7.922   0.961 -0.0336 -0.5151 -0.2688
 5739SOL    HW123563   8.718   7.890   0.941  0.5693  0.8735  0.0792
 5739SOL    HW223564   8.573   7.877   0.898  0.8803 -1.5726 -0.3701
 5740SOL     OW23565   7.241   2.989   7.690  0.4240 -0.1163  0.6782
 5740SOL    HW123566   7.202   3.023   7.610  0.4122 -0.2871  0.6106
 5740SOL    HW223567   7.320   3.042   7.703 -0.4344  1.0189  1.4549
 5741SOL     OW23568   6.395   4.701   0.441 -0.0177  0.1197  0.1107
 5741SOL    HW123569   6.399   4.606   0.438 -2.9976 -0.1097  0.5060
 5741SOL    HW223570   6.403   4.729   0.349 -0.8187 -0.6677 -0.2151
 5742SOL     OW23571   0.609   6.949   7.320  0.2080 -0.3804  0.4668
 5742SOL    HW123572   0.516   6.960   7.301  0.4330  0.2871 -0.2731
 5742SOL    HW223573   0.625   6.855   7.305 -0.2008 -0.3727 -0.0250
 5743SOL     OW23574   7.471   2.717   3.622  0.2035 -0.3919  0.1735
 5743SOL    HW123575   7.380   2.712   3.593  0.5885  2.2157 -1.8912
 5743SOL    HW223576   7.506   2.794   3.577  3.4743 -1.3580  0.8146
 5744SOL     OW23577   0.311   2.168   9.208 -0.0618 -0.2657  0.2485
 5744SOL    HW123578   0.308   2.208   9.121 -1.0153  0.6971  0.7015
 5744SOL    HW223579   0.394   2.198   9.245 -1.4782  2.8033  1.2210
 5745SOL     OW23580   3.905   2.659   6.184  0.2918 -0.0506 -0.4038
 5745SOL    HW123581   3.874   2.720   6.250  0.7613  0.6266 -0.7920
 5745SOL    HW223582   3.969   2.604   6.229  1.1672  0.8990 -0.4641
 5746SOL     OW23583   2.681   6.006   2.342 -0.4464 -0.1332 -0.1636
 5746SOL    HW123584   2.712   6.081   2.393 -1.2937  0.4825 -0.5231
 5746SOL    HW223585   2.639   5.950   2.408  2.5662 -1.6890  0.5698
 5747SOL     OW23586   8.828   4.575   5.198  0.1316 -0.6567 -0.2302
 5747SOL    HW123587   8.912   4.557   5.157  0.2912 -3.3704  1.0786
 5747SOL    HW223588   8.763   4.545   5.135  0.0117  1.9704 -1.4922
 5748SOL     OW23589   4.775   3.152   3.042  0.0600  0.0157 -0.2995
 5748SOL    HW123590   4.807   3.202   3.117 -0.2604 -1.3317  0.7843
 5748SOL    HW223591   4.853   3.109   3.007  0.2960  1.0559 -1.0858
 5749SOL     OW23592   5.406   5.211   1.037 -0.4333  0.2899 -0.3257
 5749SOL    HW123593   5.351   5.289   1.044 -0.7736 -0.0056  0.3359
 5749SOL    HW223594   5.481   5.229   1.093 -0.8436 -0.1312  0.3691
 5750SOL     OW23595   8.198   2.377   4.083 -0.2468 -0.0046  0.2565
 5750SOL    HW123596   8.263   2.327   4.132 -1.3242 -1.2113  0.5220
 5750SOL    HW223597   8.134   2.404   4.149 -1.2927 -0.9681 -0.3144
 5751SOL     OW23598   2.260   8.432   2.983  0.4463  0.4804  0.1716
 5751SOL    HW123599   2.341   8.465   3.022  0.0407  0.4884  1.0191
 5751SOL    HW223600   2.212   8.393   3.056  0.2754 -0.7222 -0.5531
 5752SOL     OW23601   5.403   5.628   6.106 -0.3136 -0.3273  0.1058
 5752SOL    HW123602   5.335   5.670   6.054 -1.0125 -1.0272  0.4397
 5752SOL    HW223603   5.434   5.556   6.051  0.4988  0.2646 -0.2379
 5753SOL     OW23604   5.559   3.292   8.915 -0.3782  0.3463  0.2158
 5753SOL    HW123605   5.651   3.270   8.904 -0.8205 -1.6231 -0.1056
 5753SOL    HW223606   5.557   3.359   8.983  1.2963  0.6551 -0.0096
 5754SOL     OW23607   1.244   1.042   4.786 -0.0977  0.0157 -0.0739
 5754SOL    HW123608   1.314   1.107   4.795 -0.8878  0.8737 -0.0473
 5754SOL    HW223609   1.290   0.962   4.760  0.6700  1.2091 -2.7617
 5755SOL     OW23610   5.742   3.142   0.408 -0.2088  0.2166  0.6302
 5755SOL    HW123611   5.790   3.221   0.383  1.1690 -0.0546  2.2676
 5755SOL    HW223612   5.691   3.167   0.484 -2.5236  0.3950 -0.8694
 5756SOL     OW23613   2.575   1.616   4.252  0.0820 -0.3349  0.1035
 5756SOL    HW123614   2.626   1.666   4.188 -0.3020  0.7709  0.6301
 5756SOL    HW223615   2.621   1.532   4.259  1.9615  0.6853  0.7033
 5757SOL     OW23616   4.225   8.113   7.514 -0.1556 -0.5324  0.0611
 5757SOL    HW123617   4.169   8.130   7.589  0.3723 -0.8745  0.5388
 5757SOL    HW223618   4.238   8.018   7.514  0.9185 -0.3985  0.3263
 5758SOL     OW23619   6.771   3.167   8.774  0.6877 -0.1978  0.6841
 5758SOL    HW123620   6.850   3.165   8.721  0.2527 -0.8564  0.0454
 5758SOL    HW223621   6.750   3.261   8.782  0.2459 -0.1076 -1.0894
 5759SOL     OW23622   8.374   5.293   8.203  0.3160  0.1812 -0.2307
 5759SOL    HW123623   8.300   5.233   8.200 -1.3529  2.1787 -0.4665
 5759SOL    HW223624   8.351   5.357   8.270  2.3485  0.2419  0.4777
 5760SOL     OW23625   8.332   7.304   2.691  0.6105 -0.3867  0.3064
 5760SOL    HW123626   8.352   7.215   2.664  0.6386 -0.3502  0.2043
 5760SOL    HW223627   8.263   7.295   2.756  3.2229 -0.7996  3.2659
 5761SOL     OW23628   8.120   0.520   3.709 -0.0151 -0.1555 -0.2202
 5761SOL    HW123629   8.100   0.565   3.792  0.1635 -0.8529  0.2123
 5761SOL    HW223630   8.035   0.490   3.677 -0.0093 -0.4610  0.0501
 5762SOL     OW23631   4.281   7.245   1.992 -0.1026  0.2540 -0.9574
 5762SOL    HW123632   4.278   7.272   2.084  1.8753 -0.4045 -0.6472
 5762SOL    HW223633   4.363   7.283   1.959  0.4979 -1.6160 -1.7315
 5763SOL     OW23634   6.007   6.380   2.560  0.1341 -0.1650 -0.2433
 5763SOL    HW123635   6.069   6.345   2.496 -0.0202 -1.6077  0.3639
 5763SOL    HW223636   6.039   6.469   2.577  0.9568 -0.2313 -1.3008
 5764SOL     OW23637   8.330   7.415   0.776 -0.3121  0.5048  0.1338
 5764SOL    HW123638   8.396   7.392   0.711 -2.6048 -1.2575 -1.7193
 5764SOL    HW223639   8.290   7.495   0.742 -1.2534 -0.2044 -0.4628
 5765SOL     OW23640   3.943   2.118   4.665 -0.5465 -0.0191  0.3963
 5765SOL    HW123641   4.023   2.170   4.679 -0.7261 -0.2306  2.6242
 5765SOL    HW223642   3.973   2.027   4.671 -0.7727 -0.1188  0.0111
 5766SOL     OW23643   3.135   3.470   6.597 -0.3329 -0.1193 -0.4800
 5766SOL    HW123644   3.077   3.471   6.673  0.7571  1.9150  0.3890
 5766SOL    HW223645   3.167   3.380   6.593  0.1013 -0.1240  1.8907
 5767SOL     OW23646   7.376   7.069   8.990 -0.5621 -0.4384 -0.0441
 5767SOL    HW123647   7.387   7.089   8.897 -0.3732  0.7261  0.2184
 5767SOL    HW223648   7.420   6.984   9.001  0.2499 -0.1416 -0.8290
 5768SOL     OW23649   1.963   5.253   0.903  0.8272 -0.4330  0.3232
 5768SOL    HW123650   1.929   5.337   0.932  0.9509 -0.9481  2.0355
 5768SOL    HW223651   1.986   5.267   0.811 -4.1437 -0.0825 -1.1465
 5769SOL     OW23652   7.512   2.297   5.988  0.2544 -0.2851  0.0824
 5769SOL    HW123653   7.514   2.223   6.048 -0.9677  0.9112  1.6820
 5769SOL    HW223654   7.419   2.320   5.980  0.4432  0.0446 -1.7262
 5770SOL     OW23655   3.206   7.778   4.943 -0.1027 -0.0197 -0.1131
 5770SOL    HW123656   3.129   7.761   4.889 -0.6737  0.1575  0.6489
 5770SOL    HW223657   3.172   7.799   5.029  0.8182 -0.3869  0.3526
 5771SOL     OW23658   2.622   6.188   4.285 -0.6907 -0.5966  0.4071
 5771SOL    HW123659   2.606   6.260   4.224  0.2280 -0.0224  0.8223
 5771SOL    HW223660   2.613   6.228   4.372 -1.3777 -1.2675  0.6576
 5772SOL     OW23661   8.130   9.042   2.023 -0.2502  1.1305  0.1357
 5772SOL    HW123662   8.201   8.984   1.997 -1.2133 -0.2435  0.4500
 5772SOL    HW223663   8.116   9.098   1.946  2.7644  3.2156  0.8989
 5773SOL     OW23664   8.305   3.077   6.547  0.2445 -0.7367 -0.0786
 5773SOL    HW123665   8.362   3.029   6.488  1.6569 -0.7076  1.2091
 5773SOL    HW223666   8.298   3.165   6.510  0.3989 -0.9674 -0.6494
 5774SOL     OW23667   5.635   5.229   1.176  0.2310 -0.0324 -0.4751
 5774SOL    HW123668   5.711   5.279   1.207  0.7815 -1.3028  0.3592
 5774SOL    HW223669   5.605   5.181   1.254 -0.0525 -1.2368 -1.2923
 5775SOL     OW23670   3.877   0.744   0.533  0.0125  0.0159 -0.4625
 5775SOL    HW123671   3.816   0.753   0.459  0.6963 -0.1536 -1.0558
 5775SOL    HW223672   3.899   0.834   0.556  1.4194  0.0742 -1.8490
 5776SOL     OW23673   5.469   3.415   2.751 -0.0239 -0.3738  0.2546
 5776SOL    HW123674   5.426   3.402   2.835 -1.3588  2.5928  0.1421
 5776SOL    HW223675   5.408   3.379   2.686 -0.2718 -0.1392  0.3624
 5777SOL     OW23676   8.211   5.490   1.448  0.0962  0.1525 -0.2075
 5777SOL    HW123677   8.144   5.558   1.450 -0.1756 -0.1327  0.4714
 5777SOL    HW223678   8.272   5.515   1.517  0.4007  0.1041 -0.4533
 5778SOL     OW23679   6.797   6.070   2.574  0.4787 -0.7776 -0.0456
 5778SOL    HW123680   6.824   6.094   2.485  1.1365  0.2762  0.4186
 5778SOL    HW223681   6.713   6.026   2.562  0.2266 -0.0470 -1.1443
 5779SOL     OW23682   0.500   3.007   6.270  0.1352  0.2825 -0.2323
 5779SOL    HW123683   0.535   3.041   6.352  0.8768  2.0101 -1.2248
 5779SOL    HW223684   0.533   3.066   6.203 -1.9303 -0.0155 -1.6050
 5780SOL     OW23685   1.246   4.227   8.197  0.5252  0.6787  0.3958
 5780SOL    HW123686   1.255   4.197   8.288  0.2108 -0.6656 -0.0015
 5780SOL    HW223687   1.160   4.195   8.170  1.3235 -0.4139 -0.9190
 5781SOL     OW23688   9.178   3.553   5.108  0.2970 -0.0568  0.0529
 5781SOL    HW123689   9.101   3.560   5.164  1.2519 -0.2669  1.4478
 5781SOL    HW223690   9.211   3.464   5.124  1.2803  0.3048  0.1073
 5782SOL     OW23691   1.121   1.918   6.258  0.0325  0.3522 -0.0918
 5782SOL    HW123692   1.077   1.882   6.181  1.5723 -1.4392 -0.1877
 5782SOL    HW223693   1.209   1.882   6.255  0.4910  1.1788  1.8892
 5783SOL     OW23694   1.716   2.322   1.089 -0.1434 -0.5914  0.1469
 5783SOL    HW123695   1.780   2.295   1.155  0.5192  3.2541  1.3788
 5783SOL    HW223696   1.768   2.338   1.010  0.1147  0.5047  0.5222
 5784SOL     OW23697   6.278   8.272   5.634  0.0742 -0.4102 -0.1251
 5784SOL    HW123698   6.267   8.343   5.697  0.9152 -1.1985  0.9406
 5784SOL    HW223699   6.189   8.239   5.620 -0.2517  0.4453 -0.1802
 5785SOL     OW23700   3.093   3.779   4.899 -0.0527  0.5458 -0.2302
 5785SOL    HW123701   3.187   3.789   4.915 -0.1183  1.8073 -0.5337
 5785SOL    HW223702   3.086   3.760   4.805 -0.0188 -1.2437  0.0948
 5786SOL     OW23703   0.348   5.231   6.109 -0.3994  0.2417  0.6510
 5786SOL    HW123704   0.337   5.168   6.180 -0.0090  1.7194  2.0881
 5786SOL    HW223705   0.389   5.307   6.150 -1.3780  1.6809 -0.8797
 5787SOL     OW23706   6.436   1.801   8.108  0.1823 -0.0287 -0.0426
 5787SOL    HW123707   6.492   1.746   8.054 -0.3130  0.5308 -1.1571
 5787SOL    HW223708   6.367   1.831   8.048 -0.7408  0.1069  1.0434
 5788SOL     OW23709   0.891   2.558   4.736 -0.3593  0.4068 -0.6246
 5788SOL    HW123710   0.932   2.477   4.768 -0.0592  1.0227  0.6211
 5788SOL    HW223711   0.805   2.559   4.778 -0.9091  0.0877 -1.7032
 5789SOL     OW23712   1.639   5.845   2.491 -0.0376  0.2537 -0.7295
 5789SOL    HW123713   1.701   5.772   2.491 -0.8015 -0.4333  0.6317
 5789SOL    HW223714   1.691   5.920   2.519  0.0584 -0.4823  1.2016
 5790SOL     OW23715   7.179   2.868   4.099 -1.1656  0.4959  0.4578
 5790SOL    HW123716   7.255   2.827   4.141 -0.8458 -0.1130 -0.6905
 5790SOL    HW223717   7.142   2.924   4.167  1.2774  2.1006  0.5800
 5791SOL     OW23718   8.300   2.552   7.437 -0.0909  0.1941  0.1278
 5791SOL    HW123719   8.279   2.644   7.451  0.9479  0.5128 -0.3329
 5791SOL    HW223720   8.228   2.504   7.479 -0.2927  1.1970  0.9588
 5792SOL     OW23721   7.382   8.095   6.937 -0.2217  0.1047  0.0853
 5792SOL    HW123722   7.433   8.026   6.895 -0.4227 -1.2131  1.8810
 5792SOL    HW223723   7.441   8.171   6.937  0.6073 -0.5152 -0.5466
 5793SOL     OW23724   9.036   7.628   6.453 -0.2593 -0.2412 -0.2086
 5793SOL    HW123725   9.053   7.592   6.541  0.8365 -1.7686 -0.9880
 5793SOL    HW223726   9.106   7.692   6.439 -1.5532  1.4553  0.7388
 5794SOL     OW23727   2.809   6.567   2.648  0.0373 -1.5161  0.1968
 5794SOL    HW123728   2.782   6.645   2.600  2.0658 -0.1823  1.0876
 5794SOL    HW223729   2.740   6.553   2.713  1.3267  1.9234  2.5867
 5795SOL     OW23730   2.845   7.872   0.746 -0.4130  0.0443  0.3162
 5795SOL    HW123731   2.869   7.954   0.703  0.7669 -0.5870 -0.2913
 5795SOL    HW223732   2.854   7.805   0.678  1.3448 -0.9519  1.4316
 5796SOL     OW23733   4.656   0.305   6.994 -0.4153  0.4527  0.4219
 5796SOL    HW123734   4.634   0.212   7.002 -1.0568  0.1626 -3.0624
 5796SOL    HW223735   4.593   0.350   7.050 -0.3962 -1.1596  1.8133
 5797SOL     OW23736   0.120   0.450   0.193  0.4369 -0.0760 -0.7469
 5797SOL    HW123737   0.041   0.471   0.243  0.9331 -0.6031  0.3037
 5797SOL    HW223738   0.183   0.421   0.259  1.1011 -0.8815 -1.6906
 5798SOL     OW23739   5.588   3.396   2.267 -0.3577  0.1798  0.7156
 5798SOL    HW123740   5.625   3.484   2.265  1.6041 -0.5146 -2.8930
 5798SOL    HW223741   5.645   3.348   2.327 -0.1125  0.8888  1.0609
 5799SOL     OW23742   2.801   8.628   4.642 -0.8982  0.3054  0.4212
 5799SOL    HW123743   2.769   8.579   4.566  0.5988 -0.6726  0.3784
 5799SOL    HW223744   2.860   8.693   4.606 -1.3334  0.8380  0.6504
 5800SOL     OW23745   2.292   1.500   7.731 -0.1724  0.0956  0.6983
 5800SOL    HW123746   2.229   1.450   7.784  0.8188  1.1190  2.9742
 5800SOL    HW223747   2.374   1.453   7.741 -0.1400 -0.1975 -0.7413
 5801SOL     OW23748   1.925   8.489   9.128  0.6121 -0.2627  0.3092
 5801SOL    HW123749   1.849   8.533   9.166  0.4874  0.0854 -0.3435
 5801SOL    HW223750   1.999   8.547   9.147  0.2321  1.0448 -1.8828
 5802SOL     OW23751   0.494   6.321   0.214 -0.0472 -0.0889 -0.3592
 5802SOL    HW123752   0.446   6.263   0.155 -0.0460 -0.0798 -0.3691
 5802SOL    HW223753   0.439   6.325   0.293 -0.1203  0.0157 -0.4160
 5803SOL     OW23754   7.580   4.661   4.032  0.1986  0.3338  0.1724
 5803SOL    HW123755   7.550   4.740   3.987 -1.1577  0.3808  1.1174
 5803SOL    HW223756   7.556   4.589   3.972 -0.6225  0.4762  0.3190
 5804SOL     OW23757   5.506   7.902   4.403  0.2599 -0.2886  0.2998
 5804SOL    HW123758   5.558   7.965   4.353 -1.6304  1.5026  0.4491
 5804SOL    HW223759   5.434   7.879   4.346  0.9637 -2.5139  0.2035
 5805SOL     OW23760   3.003   6.766   6.003  0.0602  0.6702  0.0328
 5805SOL    HW123761   2.938   6.818   5.955 -0.3915  0.2674  0.1974
 5805SOL    HW223762   3.064   6.735   5.937 -0.1271  0.7494 -0.1770
 5806SOL     OW23763   0.928   3.045   1.768 -0.6401 -0.6221 -0.1973
 5806SOL    HW123764   0.990   2.991   1.818 -0.1967 -1.1314 -1.2693
 5806SOL    HW223765   0.848   2.993   1.764 -1.1039 -0.0481  1.0183
 5807SOL     OW23766   2.428   1.354   4.035 -0.5433 -0.2677  0.7695
 5807SOL    HW123767   2.484   1.370   3.959 -1.3008 -0.2348  0.2089
 5807SOL    HW223768   2.359   1.420   4.028 -0.5315 -0.1568  1.5802
 5808SOL     OW23769   5.602   4.156   4.084 -0.3084  0.0603  0.3931
 5808SOL    HW123770   5.612   4.168   3.989  1.6350  3.2575  0.8433
 5808SOL    HW223771   5.661   4.084   4.105  1.1502  0.8903 -0.6051
 5809SOL     OW23772   5.004   2.557   5.275  0.3515  0.2252  0.2778
 5809SOL    HW123773   5.049   2.641   5.287 -0.7245  0.7150  1.0110
 5809SOL    HW223774   4.999   2.519   5.362  0.7691 -0.5885 -0.0398
 5810SOL     OW23775   8.296   0.569   6.438  0.4351  0.0213 -0.2415
 5810SOL    HW123776   8.276   0.511   6.365  1.1672 -0.8243  0.2215
 5810SOL    HW223777   8.237   0.541   6.508  1.0126 -0.3861  0.0866
 5811SOL     OW23778   0.692   7.729   6.860 -0.1779 -0.3997  0.1294
 5811SOL    HW123779   0.663   7.814   6.825  0.2373 -0.6492 -0.8521
 5811SOL    HW223780   0.637   7.665   6.814  0.9682 -0.7906 -0.7563
 5812SOL     OW23781   2.180   0.433   6.021  0.3912 -0.0503  0.5222
 5812SOL    HW123782   2.146   0.439   5.931  3.1711 -1.2946 -0.7408
 5812SOL    HW223783   2.222   0.517   6.036  0.6912 -0.1622  0.3106
 5813SOL     OW23784   3.503   9.234   6.277 -0.0678  0.0717  0.4503
 5813SOL    HW123785   3.588   9.239   6.233 -0.8677 -0.3674 -1.2119
 5813SOL    HW223786   3.473   9.325   6.282 -0.0064  0.1130  0.0329
 5814SOL     OW23787   3.235   4.830   5.463  0.6922 -0.1597  0.6371
 5814SOL    HW123788   3.263   4.836   5.554 -0.8115 -3.1061  1.4379
 5814SOL    HW223789   3.155   4.882   5.459  1.1133  0.5042  0.8223
 5815SOL     OW23790   1.541   2.775   1.439  0.6383  0.5873  0.3735
 5815SOL    HW123791   1.514   2.711   1.505  0.9216  1.1949  1.0991
 5815SOL    HW223792   1.460   2.798   1.393  0.5365 -0.2809  0.1159
 5816SOL     OW23793   8.454   3.644   1.089  0.0493  0.5829  0.4797
 5816SOL    HW123794   8.410   3.581   1.031 -2.4444  2.8283 -0.2958
 5816SOL    HW223795   8.442   3.608   1.177  1.9700 -1.7915 -0.1167
 5817SOL     OW23796   1.238   0.808   1.461 -0.0977  0.1145 -0.3207
 5817SOL    HW123797   1.174   0.769   1.522 -0.9691  0.7292 -0.8146
 5817SOL    HW223798   1.246   0.744   1.391  0.4886 -0.3473  0.1565
 5818SOL     OW23799   4.318   2.618   7.066 -0.0867  0.2064  0.5197
 5818SOL    HW123800   4.413   2.625   7.057 -0.1126 -0.9737 -1.1568
 5818SOL    HW223801   4.287   2.598   6.978 -1.8253 -0.1254  1.1626
 5819SOL     OW23802   4.289   1.718   0.308  0.8953 -0.4044 -0.1774
 5819SOL    HW123803   4.361   1.754   0.361  0.5677 -1.1175  0.7648
 5819SOL    HW223804   4.236   1.669   0.369 -2.0184  2.3495 -0.2298
 5820SOL     OW23805   5.029   0.785   0.479  0.3206  0.2613  0.5682
 5820SOL    HW123806   4.947   0.822   0.445  0.0574  0.0160  0.9238
 5820SOL    HW223807   5.025   0.692   0.454  0.5589  0.2830  0.4554
 5821SOL     OW23808   4.608   4.019   8.800  0.0991 -0.0181  0.0570
 5821SOL    HW123809   4.606   3.955   8.729  1.9479  0.0120 -0.0667
 5821SOL    HW223810   4.553   4.092   8.769  1.5447  0.3676 -1.7448
 5822SOL     OW23811   0.393   8.773   6.296 -0.0791 -0.0162 -0.0236
 5822SOL    HW123812   0.341   8.754   6.374  1.3204  0.0311  0.9493
 5822SOL    HW223813   0.369   8.705   6.234  0.8060 -1.7496  1.4385
 5823SOL     OW23814   4.862   0.831   4.039 -0.3767  0.3964  0.3024
 5823SOL    HW123815   4.921   0.859   3.968  0.2693  1.0674  1.0821
 5823SOL    HW223816   4.822   0.913   4.070 -1.8427 -0.0639 -0.3006
 5824SOL     OW23817   5.747   4.723   1.178 -0.1337  0.4883 -0.1271
 5824SOL    HW123818   5.763   4.641   1.225  1.1110  1.4479  1.2473
 5824SOL    HW223819   5.654   4.741   1.192 -0.0741  0.0844  0.8985
 5825SOL     OW23820   3.318   2.408   6.208  0.6151  0.2834  0.8391
 5825SOL    HW123821   3.337   2.355   6.286  0.0203 -0.3547  0.5625
 5825SOL    HW223822   3.305   2.343   6.138  0.4811  0.8258  0.3535
 5826SOL     OW23823   3.627   6.311   1.190  0.4490  0.1436 -0.3769
 5826SOL    HW123824   3.665   6.387   1.146 -0.0778  0.5383 -0.1654
 5826SOL    HW223825   3.580   6.348   1.265  2.4945 -0.6035  1.4066
 5827SOL     OW23826   1.398   7.038   5.903 -0.0018 -0.0724 -0.0902
 5827SOL    HW123827   1.432   7.051   5.992  0.2311  1.5792 -0.3894
 5827SOL    HW223828   1.457   6.973   5.864 -2.0169 -3.4337  1.9436
 5828SOL     OW23829   6.606   8.478   7.843  0.0744 -0.4087 -0.6486
 5828SOL    HW123830   6.643   8.566   7.854  1.0283 -0.8286 -0.3891
 5828SOL    HW223831   6.583   8.451   7.932 -0.4968 -0.3131 -0.7627
 5829SOL     OW23832   7.626   4.010   3.073 -0.1365 -0.8509  0.0579
 5829SOL    HW123833   7.683   4.079   3.107 -3.2893  1.2023  1.6700
 5829SOL    HW223834   7.616   3.948   3.146 -1.0228 -0.4261  0.3160
 5830SOL     OW23835   0.304   1.452   5.714 -0.1941 -0.2161 -0.0305
 5830SOL    HW123836   0.222   1.502   5.716  0.0652  0.2555 -0.7933
 5830SOL    HW223837   0.357   1.491   5.783 -0.1329  0.3301 -0.3815
 5831SOL     OW23838   7.636   6.209   6.454  0.9052  0.0743 -0.7692
 5831SOL    HW123839   7.676   6.149   6.392 -0.0230 -0.2380 -1.0873
 5831SOL    HW223840   7.661   6.175   6.540  0.4211 -0.7645 -0.9456
 5832SOL     OW23841   1.390   3.922   8.822  0.1624  0.1154  0.0808
 5832SOL    HW123842   1.298   3.931   8.845 -0.2523  1.4737 -1.8911
 5832SOL    HW223843   1.422   4.012   8.817  1.3820 -0.3089 -0.1221
 5833SOL     OW23844   3.379   5.897   7.219  0.3720  0.2663  0.2435
 5833SOL    HW123845   3.285   5.914   7.214  0.3217  0.1135  0.7107
 5833SOL    HW223846   3.393   5.824   7.159  0.1943  0.2897  0.1715
 5834SOL     OW23847   0.346   5.981   6.899 -0.0547  0.0354 -0.0707
 5834SOL    HW123848   0.370   5.936   6.818 -2.0754 -0.8984 -0.2152
 5834SOL    HW223849   0.408   5.948   6.964  0.5663 -0.4401 -0.8941
 5835SOL     OW23850   5.528   5.499   2.693 -0.2822  0.3239  0.4774
 5835SOL    HW123851   5.600   5.439   2.674 -0.3951  0.4926 -0.5348
 5835SOL    HW223852   5.478   5.504   2.612 -0.6465  1.2903  0.7394
 5836SOL     OW23853   0.888   3.526   2.881 -0.0945 -0.1470 -0.3080
 5836SOL    HW123854   0.821   3.545   2.947  0.0678 -0.8784  0.0795
 5836SOL    HW223855   0.954   3.477   2.929  1.0482  1.1189 -0.5287
 5837SOL     OW23856   4.947   8.624   1.466 -0.3244 -0.2901  0.1689
 5837SOL    HW123857   4.918   8.653   1.552 -0.9359  0.5186 -0.2988
 5837SOL    HW223858   5.027   8.674   1.448 -0.9145  0.5143 -0.2774
 5838SOL     OW23859   4.824   6.257   2.473  0.3856  0.1486  0.2375
 5838SOL    HW123860   4.850   6.220   2.558 -0.2851 -0.1464  0.3272
 5838SOL    HW223861   4.762   6.193   2.438  0.0631  0.6486 -0.1153
 5839SOL     OW23862   2.102   5.901   3.846 -0.4926 -0.0086  0.1198
 5839SOL    HW123863   2.110   5.866   3.757 -2.1525 -1.3775  0.4480
 5839SOL    HW223864   2.017   5.946   3.845  0.2885  1.5277  0.5450
 5840SOL     OW23865   5.190   0.980   2.465 -0.0260 -0.1000 -0.6782
 5840SOL    HW123866   5.107   0.967   2.510 -0.4789  1.5701 -0.9889
 5840SOL    HW223867   5.200   0.902   2.411 -1.7744  0.0169 -1.2273
 5841SOL     OW23868   5.821   1.913   5.889  0.0871  0.9796 -0.6270
 5841SOL    HW123869   5.727   1.932   5.887 -0.4224 -1.2371  0.1385
 5841SOL    HW223870   5.828   1.830   5.935  2.6715  2.2705  1.5694
 5842SOL     OW23871   1.455   8.493   6.704 -0.1034  0.3695  0.1140
 5842SOL    HW123872   1.473   8.583   6.731  0.0589 -0.4029  2.8233
 5842SOL    HW223873   1.505   8.439   6.765 -0.3957 -1.5888 -1.2901
 5843SOL     OW23874   7.757   3.345   8.240 -0.0826  0.6127  0.3806
 5843SOL    HW123875   7.702   3.377   8.169 -1.1124  0.7541  1.2147
 5843SOL    HW223876   7.698   3.340   8.316  0.4567 -1.5008  0.7324
 5844SOL     OW23877   0.387   8.513   2.253 -0.4106  0.2011  0.6910
 5844SOL    HW123878   0.397   8.569   2.330 -1.0394 -1.1266  1.7852
 5844SOL    HW223879   0.297   8.528   2.224 -0.7805 -0.6356  1.3478
 5845SOL     OW23880   3.626   7.311   5.023 -0.1545  0.0447 -0.0194
 5845SOL    HW123881   3.550   7.273   4.979  0.9019 -0.0773 -1.8990
 5845SOL    HW223882   3.681   7.235   5.044  0.5146  0.2515 -0.9078
 5846SOL     OW23883   6.165   4.501   1.292  0.3202  0.2022  0.2661
 5846SOL    HW123884   6.216   4.471   1.217 -1.8903  1.1295 -1.7366
 5846SOL    HW223885   6.124   4.422   1.326  1.2646 -0.2124  0.4839
 5847SOL     OW23886   1.077   8.047   8.703  0.0083 -0.2880 -0.0361
 5847SOL    HW123887   1.038   7.988   8.639  2.9721 -1.0029 -1.3567
 5847SOL    HW223888   1.003   8.095   8.739 -2.1710 -2.4051 -1.3636
 5848SOL     OW23889   7.726   8.348   4.030 -0.3544 -0.8152  0.2158
 5848SOL    HW123890   7.679   8.268   4.054  0.5085 -1.3692  0.1093
 5848SOL    HW223891   7.818   8.322   4.029 -0.1483 -0.1232 -0.9746
 5849SOL     OW23892   4.568   2.077   7.380 -0.3722 -0.2875  0.1168
 5849SOL    HW123893   4.570   2.136   7.305  0.7248 -0.2028  0.1945
 5849SOL    HW223894   4.478   2.081   7.412 -0.3666  1.1790 -0.0097
 5850SOL     OW23895   8.164   4.902   1.581 -0.0940  0.0153  0.1652
 5850SOL    HW123896   8.166   4.980   1.525  1.4887  0.3825  0.6833
 5850SOL    HW223897   8.108   4.840   1.535  0.1467  0.7768 -1.1933
 5851SOL     OW23898   1.869   0.555   3.660 -0.2200 -0.6277 -0.1302
 5851SOL    HW123899   1.833   0.613   3.728 -0.9212  1.2576 -2.0165
 5851SOL    HW223900   1.826   0.471   3.676 -0.8840 -0.0588  1.3155
 5852SOL     OW23901   6.387   5.785   0.910  0.5298  0.1915  0.5316
 5852SOL    HW123902   6.390   5.823   0.998 -2.2864 -0.2939  0.9331
 5852SOL    HW223903   6.412   5.693   0.923  0.4941  0.2123  0.7607
 5853SOL     OW23904   5.463   2.927   3.312 -0.5514 -0.1396 -0.4040
 5853SOL    HW123905   5.500   2.844   3.281 -2.5474 -1.0440 -0.4869
 5853SOL    HW223906   5.506   2.993   3.257  0.8022 -1.1255 -0.5965
 5854SOL     OW23907   4.005   8.794   8.657 -0.1699  0.3499  0.4221
 5854SOL    HW123908   4.075   8.739   8.693  0.1841  0.2394 -0.4243
 5854SOL    HW223909   3.970   8.840   8.733  0.0223 -0.4886  1.0370
 5855SOL     OW23910   4.627   1.128   0.940 -0.1165  0.5372  0.5420
 5855SOL    HW123911   4.674   1.200   0.896 -0.4555  1.6733  1.9812
 5855SOL    HW223912   4.571   1.092   0.872 -0.7378  2.3534  0.0305
 5856SOL     OW23913   6.762   8.849   3.523 -0.4739 -0.0292 -0.1712
 5856SOL    HW123914   6.824   8.808   3.583 -0.2180 -0.3183 -0.6183
 5856SOL    HW223915   6.812   8.860   3.441 -1.3572 -1.4364 -0.9452
 5857SOL     OW23916   2.479   5.523   5.832 -0.0629 -0.5369 -0.2927
 5857SOL    HW123917   2.503   5.615   5.843 -0.0648 -0.6181  0.4345
 5857SOL    HW223918   2.556   5.475   5.862  0.0191 -0.7721 -0.8768
 5858SOL     OW23919   8.866   2.575   8.673 -0.2693 -0.4039  0.4135
 5858SOL    HW123920   8.903   2.634   8.608 -1.5613  1.2326  1.0875
 5858SOL    HW223921   8.826   2.505   8.622  0.4686 -0.2093 -0.4516
 5859SOL     OW23922   6.398   3.706   7.093 -0.3997  0.1324 -0.6589
 5859SOL    HW123923   6.310   3.707   7.129 -0.0047  0.6835  0.3480
 5859SOL    HW223924   6.386   3.706   6.999 -1.4973  2.0847 -0.5684
 5860SOL     OW23925   2.833   4.135   5.264  0.1535 -0.5752  0.1117
 5860SOL    HW123926   2.853   4.063   5.205 -2.0819 -0.5465 -0.7657
 5860SOL    HW223927   2.737   4.138   5.268  0.1849  1.7349  0.8733
 5861SOL     OW23928   7.038   6.580   8.443  0.4989  0.0304  0.4605
 5861SOL    HW123929   7.046   6.572   8.538  1.3229 -0.3619  0.3688
 5861SOL    HW223930   6.945   6.565   8.425  0.5678 -1.2714  1.0878
 5862SOL     OW23931   4.916   4.314   0.459 -0.5766  0.1256  0.2622
 5862SOL    HW123932   4.958   4.259   0.525 -1.2483 -0.5410  0.1425
 5862SOL    HW223933   4.981   4.322   0.389 -0.9332 -1.6056 -0.3159
 5863SOL     OW23934   6.068   1.055   7.757 -0.5710 -0.6401  0.1636
 5863SOL    HW123935   6.146   1.110   7.755 -1.5911  0.8411 -0.5399
 5863SOL    HW223936   6.090   0.984   7.818  1.8820 -1.1505 -1.2115
 5864SOL     OW23937   5.004   3.430   9.203 -0.2354 -0.5015 -0.0740
 5864SOL    HW123938   5.046   3.516   9.206 -1.0757 -0.0631 -0.6342
 5864SOL    HW223939   5.002   3.401   9.295 -0.2004  0.1898  0.1471
 5865SOL     OW23940   6.150   5.546   1.779  0.0418 -0.2939 -0.2378
 5865SOL    HW123941   6.219   5.603   1.814  0.7688 -0.3162 -1.5932
 5865SOL    HW223942   6.070   5.598   1.787  0.2447 -0.1427  1.0528
 5866SOL     OW23943   3.145   1.798   6.023  0.4603 -0.1863  0.1643
 5866SOL    HW123944   3.238   1.795   6.045  0.3690  2.1459  1.1434
 5866SOL    HW223945   3.125   1.709   5.992  3.2890 -0.3772 -1.3963
 5867SOL     OW23946   8.261   2.443   2.797  0.2477  0.1017 -0.0968
 5867SOL    HW123947   8.200   2.517   2.796  1.8414  1.5415  1.1869
 5867SOL    HW223948   8.287   2.435   2.889 -0.6488 -2.8020 -0.0003
 5868SOL     OW23949   6.184   6.274   4.816  0.0338 -0.6929  0.3442
 5868SOL    HW123950   6.107   6.250   4.867 -1.7091  1.0131 -1.3051
 5868SOL    HW223951   6.161   6.251   4.725  1.0939  0.6224 -0.2933
 5869SOL     OW23952   8.016   0.548   5.194 -0.0506  0.3343 -0.2085
 5869SOL    HW123953   7.981   0.571   5.107  0.7185  1.1670 -0.3052
 5869SOL    HW223954   7.987   0.458   5.207  0.2123  0.0316 -1.5370
 5870SOL     OW23955   8.022   7.400   1.052  0.0922 -0.0264 -0.2329
 5870SOL    HW123956   8.117   7.388   1.061  0.4445 -1.2848 -3.7901
 5870SOL    HW223957   7.984   7.321   1.090  0.3988  0.5250  1.2900
 5871SOL     OW23958   4.041   1.853   3.437 -0.2425  0.5401  0.3271
 5871SOL    HW123959   4.080   1.767   3.418  0.2973  1.0665 -1.1030
 5871SOL    HW223960   4.116   1.911   3.448 -0.6078  0.9366  0.7638
 5872SOL     OW23961   3.998   1.794   5.031  0.1444 -0.1373  0.2230
 5872SOL    HW123962   4.082   1.809   4.988  1.0695 -1.2708  1.5374
 5872SOL    HW223963   4.020   1.787   5.124 -1.5791  0.7314  0.7426
 5873SOL     OW23964   3.489   3.144   8.254 -0.2565  0.4240 -0.0962
 5873SOL    HW123965   3.534   3.136   8.170 -0.0435  2.5485 -0.2485
 5873SOL    HW223966   3.559   3.140   8.320 -0.2518  0.1988 -0.1160
 5874SOL     OW23967   2.746   1.966   0.107 -0.1337 -0.0239 -0.2692
 5874SOL    HW123968   2.691   1.888   0.100 -0.5189 -0.0829  2.5367
 5874SOL    HW223969   2.820   1.939   0.162  0.0319  1.4138  0.2596
 5875SOL     OW23970   8.290   6.086   5.275  0.1034  0.0706  0.0658
 5875SOL    HW123971   8.240   6.055   5.199  0.3256  0.2368 -0.1514
 5875SOL    HW223972   8.357   6.143   5.237  1.3787 -1.2774  0.1948
 5876SOL     OW23973   8.456   5.198   6.443 -0.3110  0.1793  0.1225
 5876SOL    HW123974   8.415   5.263   6.501 -0.1182 -0.5993  1.1666
 5876SOL    HW223975   8.396   5.189   6.370  0.6437  3.1057 -1.1775
 5877SOL     OW23976   6.362   3.287   1.048 -0.0745  0.4955  0.5064
 5877SOL    HW123977   6.317   3.238   0.979  2.7994  0.6760 -1.6953
 5877SOL    HW223978   6.338   3.241   1.129 -2.8913 -0.2767 -0.6169
 5878SOL     OW23979   6.334   5.200   3.550 -0.4932  0.2925  0.1410
 5878SOL    HW123980   6.418   5.154   3.558 -0.3832  0.7340  1.8840
 5878SOL    HW223981   6.348   5.261   3.477 -0.1159 -1.2637 -1.1515
 5879SOL     OW23982   2.237   8.834   3.811 -0.7428  0.1044  0.1157
 5879SOL    HW123983   2.327   8.801   3.805 -1.4695 -2.3205  1.2118
 5879SOL    HW223984   2.246   8.929   3.805  1.8808 -0.0725  0.0616
 5880SOL     OW23985   5.996   6.054   2.649 -0.0359  0.0479 -0.2302
 5880SOL    HW123986   6.079   6.016   2.620 -0.8909 -0.6717 -1.8745
 5880SOL    HW223987   6.004   6.147   2.630  0.2205 -0.0980 -0.8791
 5881SOL     OW23988   1.482   5.494   6.885  0.1008 -0.7155  0.0406
 5881SOL    HW123989   1.499   5.464   6.974  0.8505 -1.3058 -0.2863
 5881SOL    HW223990   1.390   5.521   6.885  0.4666  0.6350  1.3619
 5882SOL     OW23991   7.850   4.569   8.138  0.6666  0.1661  0.2790
 5882SOL    HW123992   7.790   4.644   8.147  1.7993  1.1193  0.1244
 5882SOL    HW223993   7.814   4.503   8.197  0.8751  1.6619  2.1964
 5883SOL     OW23994   4.481   1.926   1.044  0.2142  0.4345  0.5132
 5883SOL    HW123995   4.415   1.873   0.999  0.8518  0.5662 -0.6175
 5883SOL    HW223996   4.517   1.982   0.976  2.2903 -0.4266  0.8278
 5884SOL     OW23997   2.163   0.209   0.623 -0.0245 -0.7305 -0.0350
 5884SOL    HW123998   2.250   0.221   0.585  0.5991 -0.7726  1.3031
 5884SOL    HW223999   2.109   0.276   0.583  1.3034  1.1052  1.1013
 5885SOL     OW24000   8.847   9.044   8.534 -0.2360 -0.0725  0.3286
 5885SOL    HW124001   8.758   9.054   8.569 -0.2517  0.3240  0.1756
 5885SOL    HW224002   8.900   9.021   8.610 -0.4369 -0.1465  0.4483
 5886SOL     OW24003   1.517   4.190   4.023 -1.0121 -0.0904 -0.5191
 5886SOL    HW124004   1.478   4.157   3.943 -0.1943 -1.7240 -0.2901
 5886SOL    HW224005   1.556   4.274   3.998 -0.3498 -0.7980 -1.9717
 5887SOL     OW24006   1.405   3.250   9.113 -0.2814  0.2200  0.0001
 5887SOL    HW124007   1.326   3.259   9.060 -1.2946 -1.4058  1.1472
 5887SOL    HW224008   1.466   3.313   9.075 -1.9902  1.2875 -1.1441
 5888SOL     OW24009   4.608   4.171   6.298  0.1941  0.3447  0.2314
 5888SOL    HW124010   4.655   4.150   6.218  1.2608  0.3313  0.8424
 5888SOL    HW224011   4.665   4.141   6.368 -0.2238  1.3513  1.0254
 5889SOL     OW24012   9.120   7.209   2.275 -0.3161  0.2618  0.6314
 5889SOL    HW124013   9.089   7.198   2.365 -0.4581  2.4188  0.9152
 5889SOL    HW224014   9.195   7.269   2.283 -0.4607  0.6494 -0.7083
 5890SOL     OW24015   6.201   8.175   2.795  0.4702  0.1848 -0.0632
 5890SOL    HW124016   6.217   8.086   2.765 -1.1450 -0.7268  1.5462
 5890SOL    HW224017   6.126   8.205   2.743 -1.0682 -0.6709  1.5314
 5891SOL     OW24018   3.197   7.061   3.534  0.1184  0.4843  0.4301
 5891SOL    HW124019   3.283   7.076   3.573  0.9950 -0.5533 -0.9879
 5891SOL    HW224020   3.188   6.966   3.534  0.1774  0.4250 -1.8210
 5892SOL     OW24021   7.054   2.242   5.628  0.1373  0.5376  0.6047
 5892SOL    HW124022   6.962   2.257   5.649 -0.5434 -1.0054 -1.0386
 5892SOL    HW224023   7.056   2.228   5.533  1.7728 -1.1903  0.8153
 5893SOL     OW24024   1.878   7.888   0.169 -0.2543  0.2292  0.3443
 5893SOL    HW124025   1.956   7.944   0.171  0.2197 -0.3470 -0.7715
 5893SOL    HW224026   1.842   7.900   0.081 -1.0035 -0.0877  0.5981
 5894SOL     OW24027   3.449   5.882   8.017 -0.5062 -0.7001 -0.1209
 5894SOL    HW124028   3.448   5.948   7.949 -1.1429  1.1465  1.5897
 5894SOL    HW224029   3.381   5.819   7.991 -3.1080  1.7249  0.3744
 5895SOL     OW24030   4.321   7.461   7.537 -0.5516  0.2632  0.0635
 5895SOL    HW124031   4.241   7.463   7.484 -2.4278 -1.0354  2.6347
 5895SOL    HW224032   4.329   7.370   7.565  1.6131  0.4587  0.2477
 5896SOL     OW24033   1.592   5.989   6.454 -0.1217 -0.0066 -0.4877
 5896SOL    HW124034   1.584   6.073   6.410  1.1567 -0.0042 -0.7543
 5896SOL    HW224035   1.590   5.924   6.384 -1.9661 -0.2771 -0.2185
 5897SOL     OW24036   7.165   1.269   1.524 -0.1090 -0.2861 -0.3123
 5897SOL    HW124037   7.247   1.260   1.476 -0.6964 -0.6750 -1.2702
 5897SOL    HW224038   7.164   1.361   1.552  0.4699 -0.1841 -0.6120
 5898SOL     OW24039   4.177   6.280   8.293  0.2420  0.3231 -0.3580
 5898SOL    HW124040   4.152   6.373   8.289 -1.5179 -0.0012  1.5170
 5898SOL    HW224041   4.094   6.233   8.297  1.1069 -1.3704 -1.2961
 5899SOL     OW24042   3.174   8.806   6.624  0.0578  0.1310  0.2474
 5899SOL    HW124043   3.078   8.807   6.623  0.0255 -0.7814  1.1905
 5899SOL    HW224044   3.199   8.889   6.584 -1.1205  0.1576 -0.4827
 5900SOL     OW24045   6.158   3.573   6.091 -0.6041 -0.5733 -0.4076
 5900SOL    HW124046   6.092   3.517   6.051  0.9911 -1.9447 -1.1868
 5900SOL    HW224047   6.237   3.558   6.041 -0.2159  2.9559 -1.1510
 5901SOL     OW24048   1.161   1.201   5.344  0.2354  0.2012  0.6192
 5901SOL    HW124049   1.191   1.174   5.431 -1.2204 -1.7363  0.5809
 5901SOL    HW224050   1.066   1.211   5.353 -0.0591 -0.8934 -0.9312
 5902SOL     OW24051   2.471   0.214   1.657  0.1208  0.3530 -0.6102
 5902SOL    HW124052   2.534   0.142   1.653 -0.2558  0.0665 -2.4460
 5902SOL    HW224053   2.393   0.180   1.614 -1.0325  0.9838  0.9089
 5903SOL     OW24054   4.974   1.521   6.766  0.3642 -0.4235  0.0127
 5903SOL    HW124055   5.025   1.514   6.847  1.4215  1.4125 -0.4431
 5903SOL    HW224056   4.896   1.572   6.791 -1.4611 -3.3011  0.7304
 5904SOL     OW24057   2.026   6.512   1.729  0.5121  0.4149 -0.6913
 5904SOL    HW124058   2.065   6.425   1.728 -1.7050 -0.6419 -1.9865
 5904SOL    HW224059   2.080   6.563   1.668  0.2829 -0.8049 -1.9456
 5905SOL     OW24060   6.018   6.420   6.905 -0.5355  0.3764  0.2453
 5905SOL    HW124061   6.028   6.487   6.972  0.3091 -0.0142  0.5207
 5905SOL    HW224062   6.105   6.382   6.895 -0.7212  0.1854 -0.8244
 5906SOL     OW24063   0.757   4.461   8.756 -0.2612  0.4758  0.4467
 5906SOL    HW124064   0.819   4.391   8.737  0.6200  1.2378  0.4673
 5906SOL    HW224065   0.713   4.433   8.836  0.6845  0.3283  0.9256
 5907SOL     OW24066   6.113   2.468   6.848 -0.1951  0.9246 -0.3597
 5907SOL    HW124067   6.110   2.376   6.875  3.5482  0.3720 -1.2036
 5907SOL    HW224068   6.116   2.464   6.752  1.1249  1.7667 -0.3886
 5908SOL     OW24069   2.103   6.192   3.802 -0.1947  0.4318  0.0241
 5908SOL    HW124070   2.187   6.167   3.762 -0.4108 -1.2022  0.5017
 5908SOL    HW224071   2.055   6.234   3.731  0.5790  0.2997 -0.5986
 5909SOL     OW24072   7.828   7.645   6.692 -0.8087  0.0484 -0.5530
 5909SOL    HW124073   7.899   7.674   6.748 -0.9083 -0.4956 -0.1367
 5909SOL    HW224074   7.849   7.680   6.605  0.0039 -0.1797 -0.4510
 5910SOL     OW24075   8.908   6.456   0.599  0.2768  0.4275 -0.4284
 5910SOL    HW124076   8.933   6.511   0.673  0.1733  0.4315 -0.3954
 5910SOL    HW224077   8.912   6.366   0.633 -1.1313  0.4981  0.0075
 5911SOL     OW24078   8.421   0.903   2.577 -0.0007 -0.1429  0.0998
 5911SOL    HW124079   8.401   0.947   2.660 -0.3686  0.0629 -0.0948
 5911SOL    HW224080   8.448   0.814   2.603 -0.3427 -0.1561  0.4268
 5912SOL     OW24081   0.244   6.585   0.079 -0.3578 -0.0133  0.1243
 5912SOL    HW124082   0.195   6.610   0.157 -1.3685  1.3482 -0.8930
 5912SOL    HW224083   0.322   6.639   0.081 -0.1113 -0.3761  0.4613
 5913SOL     OW24084   3.345   1.723   5.417 -0.0235  0.0587  0.0776
 5913SOL    HW124085   3.425   1.761   5.453 -0.1155  0.1457  0.1867
 5913SOL    HW224086   3.339   1.637   5.458 -0.8611  0.6816  1.3285
 5914SOL     OW24087   3.419   1.381   1.170 -0.1554 -0.5363  0.0736
 5914SOL    HW124088   3.439   1.474   1.175 -0.9327 -0.3083 -0.8348
 5914SOL    HW224089   3.491   1.338   1.215 -0.0562  0.5331  0.9637
 5915SOL     OW24090   7.214   8.158   8.609  0.2715  0.4202  0.0850
 5915SOL    HW124091   7.304   8.172   8.638  0.5554 -2.6901  1.0548
 5915SOL    HW224092   7.165   8.144   8.690 -0.2478 -1.8133 -0.5394
 5916SOL     OW24093   5.377   5.879   8.588  0.2126  0.2283 -0.5853
 5916SOL    HW124094   5.356   5.789   8.612  2.2879 -0.5318 -1.4838
 5916SOL    HW224095   5.428   5.912   8.662 -0.2991  0.5994 -0.3879
 5917SOL     OW24096   0.825   1.853   4.626 -0.6798  0.0620 -0.0740
 5917SOL    HW124097   0.779   1.804   4.695 -1.8228 -0.6242 -1.2734
 5917SOL    HW224098   0.791   1.816   4.545  2.4344 -0.8851 -1.0804
 5918SOL     OW24099   8.306   0.588   1.378  0.2625  0.3437 -0.5836
 5918SOL    HW124100   8.305   0.678   1.346 -2.0202  0.8899  0.8375
 5918SOL    HW224101   8.272   0.594   1.467 -2.0701 -2.1529 -1.1970
 5919SOL     OW24102   7.610   6.826   3.334  0.2554 -0.2714  0.0562
 5919SOL    HW124103   7.570   6.893   3.278 -0.9740 -0.7057  0.3718
 5919SOL    HW224104   7.679   6.872   3.382 -2.1713  1.4622  2.1517
 5920SOL     OW24105   0.525   3.499   5.793  0.7560 -0.1256  0.2033
 5920SOL    HW124106   0.545   3.424   5.737 -0.0760  0.1236 -0.4357
 5920SOL    HW224107   0.606   3.550   5.794 -0.0537  1.5588 -3.4236
 5921SOL     OW24108   0.883   0.477   1.121  0.2468  0.1433  0.1109
 5921SOL    HW124109   0.798   0.514   1.102  0.0867 -0.1021  0.3341
 5921SOL    HW224110   0.932   0.484   1.040 -0.3416 -0.6842 -0.3310
 5922SOL     OW24111   5.239   5.629   6.734 -0.0933 -0.8566 -0.0837
 5922SOL    HW124112   5.198   5.714   6.719  0.0815 -0.7394  0.1018
 5922SOL    HW224113   5.211   5.576   6.660  1.8543  0.1061 -1.5875
 5923SOL     OW24114   9.027   2.734   2.541  0.4428  0.6603  0.1684
 5923SOL    HW124115   9.101   2.722   2.482  1.0933  1.6437  0.7610
 5923SOL    HW224116   9.062   2.782   2.616 -0.5849  0.3236  0.9090
 5924SOL     OW24117   0.174   0.372   1.238 -0.0166 -0.1051 -0.2496
 5924SOL    HW124118   0.123   0.441   1.281  0.3938 -1.3375  2.3809
 5924SOL    HW224119   0.108   0.320   1.191 -0.7681  0.1327  0.5085
 5925SOL     OW24120   3.026   3.852   6.249 -0.0012 -0.2656 -0.1690
 5925SOL    HW124121   2.998   3.866   6.159  1.4823 -0.4115 -0.6740
 5925SOL    HW224122   2.978   3.775   6.278 -2.1579  1.0298 -0.0621
 5926SOL     OW24123   1.987   2.614   3.165  0.3135  0.0126  0.2289
 5926SOL    HW124124   2.003   2.708   3.159 -0.8451  0.3386  1.6039
 5926SOL    HW224125   2.061   2.579   3.214  0.0149  0.4753  1.0344
 5927SOL     OW24126   7.886   1.291   1.629 -0.1469 -0.1111  0.0283
 5927SOL    HW124127   7.915   1.232   1.559 -0.6202  0.2172 -0.4425
 5927SOL    HW224128   7.801   1.257   1.656  0.5125 -0.9047  1.2236
 5928SOL     OW24129   6.052   0.035   2.115 -0.0076 -0.2162 -0.4010
 5928SOL    HW124130   6.034   0.126   2.136  2.5126  0.4882 -0.9282
 5928SOL    HW224131   6.102   0.039   2.033 -0.5635 -2.1352 -0.8846
 5929SOL     OW24132   8.870   5.333   5.308 -0.0308  0.0838 -0.6362
 5929SOL    HW124133   8.936   5.267   5.287 -0.2797 -0.2892 -0.2734
 5929SOL    HW224134   8.787   5.287   5.302 -0.1432  0.0655  0.6683
 5930SOL     OW24135   1.161   8.385   3.155  0.4988  0.0576  0.3919
 5930SOL    HW124136   1.151   8.473   3.193 -0.2017  0.2291 -0.1624
 5930SOL    HW224137   1.240   8.390   3.102 -0.2864  0.7840 -0.7549
 5931SOL     OW24138   6.695   5.597   6.856  0.5181  0.0884  0.0545
 5931SOL    HW124139   6.757   5.653   6.809  0.1210  0.7774  0.3493
 5931SOL    HW224140   6.693   5.632   6.945 -0.6744  0.3945 -0.0771
 5932SOL     OW24141   1.555   4.468   3.338  0.0881 -0.1328  0.2431
 5932SOL    HW124142   1.554   4.419   3.420 -0.3546  0.3598  0.5358
 5932SOL    HW224143   1.637   4.518   3.341 -0.7830  1.3286  1.2691
 5933SOL     OW24144   2.358   0.106   6.816  0.7267  0.1865 -0.0513
 5933SOL    HW124145   2.307   0.186   6.813 -1.5788 -1.2090 -3.4533
 5933SOL    HW224146   2.433   0.127   6.873 -1.1241  3.8111  1.3147
 5934SOL     OW24147   8.130   9.025   4.689  0.1117  0.5766  0.1997
 5934SOL    HW124148   8.119   8.942   4.736 -0.8355 -0.0237 -1.0239
 5934SOL    HW224149   8.060   9.024   4.623  0.1986  2.2771  0.0539
 5935SOL     OW24150   7.564   5.186   8.129  0.3310  0.8535  0.4903
 5935SOL    HW124151   7.475   5.203   8.160 -0.1005  0.3240 -0.3909
 5935SOL    HW224152   7.571   5.239   8.049  0.2997 -0.1524 -0.2012
 5936SOL     OW24153   5.951   2.543   9.045 -0.1053 -0.0821  0.2084
 5936SOL    HW124154   5.874   2.589   9.012  0.8132  1.7957  0.5658
 5936SOL    HW224155   5.946   2.456   9.005 -2.5383 -0.1218  0.4639
 5937SOL     OW24156   0.091   6.191   9.088  0.0412 -0.0057  0.0824
 5937SOL    HW124157   0.096   6.155   9.000  0.2371 -1.4816  0.6746
 5937SOL    HW224158   0.173   6.239   9.098  1.2380 -1.9947  0.3446
 5938SOL     OW24159   7.303   1.377   7.968 -0.0277 -0.2183 -0.1201
 5938SOL    HW124160   7.325   1.390   8.060  0.9184 -2.2959 -0.0057
 5938SOL    HW224161   7.214   1.411   7.960  0.3637  1.2197  1.2288
 5939SOL     OW24162   2.617   7.639   6.542 -0.3885 -0.7737  0.7606
 5939SOL    HW124163   2.600   7.590   6.461 -1.0388 -1.1093  1.0958
 5939SOL    HW224164   2.532   7.677   6.566 -0.1552 -0.5024  1.1734
 5940SOL     OW24165   0.481   7.180   2.339 -0.4993 -0.4721 -0.4487
 5940SOL    HW124166   0.546   7.231   2.290 -2.3268  0.2595 -2.2967
 5940SOL    HW224167   0.526   7.153   2.419  2.0020  0.0867 -1.5684
 5941SOL     OW24168   3.312   8.683   3.732 -0.1439  0.0299  0.4460
 5941SOL    HW124169   3.227   8.727   3.726 -0.2816 -0.0336  1.7000
 5941SOL    HW224170   3.371   8.737   3.680 -1.0255 -0.1455 -0.7860
 5942SOL     OW24171   7.278   3.672   8.843 -0.0531 -0.4619  0.0914
 5942SOL    HW124172   7.365   3.688   8.805  0.4195  0.7034  1.5625
 5942SOL    HW224173   7.217   3.695   8.773  0.7910  1.1763 -0.1754
 5943SOL     OW24174   3.135   5.072   8.508  0.5306  0.2252  0.5234
 5943SOL    HW124175   3.121   5.105   8.597 -0.5310  1.1728  0.0361
 5943SOL    HW224176   3.048   5.042   8.480  1.0507 -0.9973  0.1522
 5944SOL     OW24177   1.389   8.296   1.011  0.2707 -0.4401  0.1682
 5944SOL    HW124178   1.367   8.357   1.081 -0.6543 -0.4917 -0.0587
 5944SOL    HW224179   1.407   8.353   0.935 -1.7615 -0.4342 -0.3701
 5945SOL     OW24180   0.375   2.209   1.702 -0.1029 -0.3157 -0.2143
 5945SOL    HW124181   0.391   2.253   1.618  0.1205  2.1126  1.0017
 5945SOL    HW224182   0.353   2.119   1.678 -0.4444  0.3833 -2.8951
 5946SOL     OW24183   6.640   8.151   5.041 -0.3205  0.5871  0.1705
 5946SOL    HW124184   6.674   8.168   4.953  1.0813  0.3081  0.6296
 5946SOL    HW224185   6.610   8.060   5.039  0.1051  0.4436  0.0794
 5947SOL     OW24186   1.454   3.907   6.513 -0.4257  0.0600 -0.2774
 5947SOL    HW124187   1.543   3.934   6.535  0.0440 -0.9654 -0.8311
 5947SOL    HW224188   1.415   3.881   6.596 -0.1318  0.2744 -0.0706
 5948SOL     OW24189   6.060   1.293   5.026 -0.4855  0.0322 -0.5514
 5948SOL    HW124190   6.113   1.312   4.949 -1.3975 -0.5566 -1.3546
 5948SOL    HW224191   6.044   1.199   5.021 -1.4311  0.1690 -0.2250
 5949SOL     OW24192   4.622   3.120   2.652  0.3907  0.4537  0.3328
 5949SOL    HW124193   4.565   3.124   2.575  1.1949 -0.0507 -0.3006
 5949SOL    HW224194   4.567   3.152   2.723 -0.4331  0.7436 -0.4091
 5950SOL     OW24195   2.100   3.130   6.148  0.1438  0.0489  0.5920
 5950SOL    HW124196   2.048   3.207   6.122 -0.0360 -0.6430 -1.1967
 5950SOL    HW224197   2.184   3.142   6.104  0.0878 -0.8015  0.2427
 5951SOL     OW24198   6.226   6.947   7.369 -0.5613 -0.8257 -0.0663
 5951SOL    HW124199   6.320   6.962   7.364  0.0631 -4.2613 -1.0517
 5951SOL    HW224200   6.214   6.895   7.448 -1.6841 -0.3059  0.1267
 5952SOL     OW24201   8.170   0.288   8.344 -0.5569 -0.7603  0.5249
 5952SOL    HW124202   8.099   0.342   8.308  0.7176  1.2490  0.8802
 5952SOL    HW224203   8.228   0.272   8.269 -0.1732 -0.3450  0.7270
 5953SOL     OW24204   7.923   2.333   1.538 -0.4126  0.0314  0.1461
 5953SOL    HW124205   7.982   2.269   1.498 -0.7310  0.2735 -0.7512
 5953SOL    HW224206   7.968   2.417   1.528  0.2355 -0.0877  1.7807
 5954SOL     OW24207   6.459   1.330   8.252 -0.0575 -0.0851  0.2514
 5954SOL    HW124208   6.453   1.425   8.256 -0.9925  0.1409 -3.0616
 5954SOL    HW224209   6.373   1.302   8.221 -0.3395 -2.2356  2.6454
 5955SOL     OW24210   3.563   0.445   5.207  0.3795  0.1814 -0.3675
 5955SOL    HW124211   3.615   0.510   5.255 -1.0749  0.9133  0.3009
 5955SOL    HW224212   3.480   0.489   5.191 -2.0677 -2.5503  3.1997
 5956SOL     OW24213   3.229   1.805   6.357 -0.1220 -0.0505  0.3927
 5956SOL    HW124214   3.256   1.897   6.348 -0.0580 -0.1656 -0.7137
 5956SOL    HW224215   3.214   1.776   6.268 -0.3428 -1.0679  0.7532
 5957SOL     OW24216   5.469   3.656   7.685 -0.2445  0.2817 -0.3437
 5957SOL    HW124217   5.504   3.694   7.766 -1.7383 -1.1086  1.0179
 5957SOL    HW224218   5.506   3.568   7.682  1.2410  0.8860 -2.1971
 5958SOL     OW24219   1.450   4.195   8.738 -0.5217  0.0112 -0.3502
 5958SOL    HW124220   1.377   4.217   8.796 -1.1660 -0.6609 -0.8847
 5958SOL    HW224221   1.523   4.248   8.770 -0.6635 -0.8147  1.5010
 5959SOL     OW24222   0.326   5.219   5.376 -0.0667  0.4604  0.0036
 5959SOL    HW124223   0.237   5.232   5.345 -0.3085 -0.2527  0.3820
 5959SOL    HW224224   0.327   5.256   5.465 -0.0033  0.3954  0.0302
 5960SOL     OW24225   7.436   4.232   3.009  0.6769  0.1769 -0.7901
 5960SOL    HW124226   7.477   4.147   3.026  1.7382  0.8364  0.1810
 5960SOL    HW224227   7.470   4.288   3.079 -1.1231  1.0445 -0.5622
 5961SOL     OW24228   3.046   8.306   2.959  0.0735 -0.0180 -0.0652
 5961SOL    HW124229   2.965   8.291   2.911 -0.0804  0.2168  0.1189
 5961SOL    HW224230   3.035   8.392   3.000  0.2486 -0.1637  0.2956
 5962SOL     OW24231   1.095   0.570   1.291  0.4608 -0.0882 -0.2762
 5962SOL    HW124232   1.037   0.504   1.254 -1.4037  2.1316 -1.5518
 5962SOL    HW224233   1.157   0.589   1.221 -0.6751  1.3746 -0.9158
 5963SOL     OW24234   8.838   6.618   1.246  0.0713  0.0032 -0.0228
 5963SOL    HW124235   8.916   6.572   1.278  0.2605 -0.4539 -1.0810
 5963SOL    HW224236   8.765   6.559   1.268  0.2452 -0.5159 -0.7901
 5964SOL     OW24237   4.526   7.585   8.253 -0.1932 -0.4620 -0.0432
 5964SOL    HW124238   4.498   7.668   8.214 -1.0266 -1.9988 -2.9550
 5964SOL    HW224239   4.479   7.581   8.337  1.6916  2.9931  1.3997
 5965SOL     OW24240   0.213   6.934   0.058  0.7668  0.5319  0.4201
 5965SOL    HW124241   0.287   6.877   0.078  0.3429  0.0139  0.5512
 5965SOL    HW224242   0.241   6.987  -0.016  0.8923 -0.3965 -0.2069
 5966SOL     OW24243   5.874   7.309   4.084  0.3814 -0.2247  0.3939
 5966SOL    HW124244   5.865   7.401   4.057  1.3868  0.1083  1.1293
 5966SOL    HW224245   5.907   7.265   4.005  0.4022  0.1515  0.1861
 5967SOL     OW24246   2.035   0.010   2.991  0.0841  0.2860 -0.5794
 5967SOL    HW124247   1.969  -0.056   2.969  1.0724 -1.0698  0.3468
 5967SOL    HW224248   2.066  -0.016   3.078 -0.6508  2.9344  0.5532
 5968SOL     OW24249   0.899   6.411   2.879  0.1803  0.3966 -0.4121
 5968SOL    HW124250   0.948   6.485   2.845  0.7825  0.5448  0.7130
 5968SOL    HW224251   0.966   6.348   2.905 -0.1642  0.7247  1.4430
 5969SOL     OW24252   7.318   4.388   8.676  0.0444  0.2083  0.3994
 5969SOL    HW124253   7.276   4.327   8.615  0.1663 -0.4634  0.9649
 5969SOL    HW224254   7.375   4.442   8.621 -2.2233  1.7968 -0.5368
 5970SOL     OW24255   8.904   7.716   1.666  0.3416  0.2823 -0.3486
 5970SOL    HW124256   8.892   7.629   1.628 -0.4280  0.1017  0.3002
 5970SOL    HW224257   8.994   7.740   1.642  0.9229 -1.1164  0.3461
 5971SOL     OW24258   3.824   4.348   7.811  1.1267 -0.2439 -0.3020
 5971SOL    HW124259   3.813   4.317   7.901  0.8477  1.3375  0.2521
 5971SOL    HW224260   3.769   4.289   7.759 -0.6838  0.2790  0.9040
 5972SOL     OW24261   4.959   4.943   8.399  0.0285  0.2347  0.0003
 5972SOL    HW124262   4.886   4.977   8.452 -0.5759  0.5017 -0.9839
 5972SOL    HW224263   5.015   5.019   8.386  1.3362 -0.2973  2.0606
 5973SOL     OW24264   1.690   0.334   0.016 -0.2917 -0.0698 -0.4474
 5973SOL    HW124265   1.716   0.247   0.046  0.5870  0.0342 -0.8662
 5973SOL    HW224266   1.634   0.317  -0.060 -1.7077 -0.3044  0.6206
 5974SOL     OW24267   0.153   3.801   7.773  0.1668  0.5158  0.2754
 5974SOL    HW124268   0.238   3.758   7.758  0.1643  1.0438 -1.4741
 5974SOL    HW224269   0.168   3.858   7.849  0.9361 -0.5018  0.9207
 5975SOL     OW24270   1.618   4.387   7.531 -0.5436 -0.1342  0.7359
 5975SOL    HW124271   1.654   4.475   7.544 -1.6071  0.3893  0.2434
 5975SOL    HW224272   1.538   4.386   7.584 -0.6136 -0.7619  0.6230
 5976SOL     OW24273   8.556   7.503   1.403  0.6212  0.3129 -0.0840
 5976SOL    HW124274   8.531   7.415   1.431  0.5501  0.8618  1.6658
 5976SOL    HW224275   8.649   7.496   1.382  0.4965 -0.2839 -0.4749
 5977SOL     OW24276   6.201   1.414   5.252  0.1902 -0.3834  0.0870
 5977SOL    HW124277   6.181   1.352   5.182 -1.2122 -1.1306  1.1007
 5977SOL    HW224278   6.289   1.391   5.280  0.1147 -1.1730 -0.3030
 5978SOL     OW24279   4.392   7.154   4.154  0.8995  0.4086 -0.1893
 5978SOL    HW124280   4.467   7.109   4.116  0.4411 -0.1629 -0.4301
 5978SOL    HW224281   4.359   7.094   4.221  0.6342  0.6432 -0.1054
 5979SOL     OW24282   5.432   0.652   3.467  0.1579  0.2928 -0.2254
 5979SOL    HW124283   5.506   0.684   3.417  1.7598 -1.1321  1.0799
 5979SOL    HW224284   5.423   0.714   3.539 -0.6710  1.0780 -0.9836
 5980SOL     OW24285   7.718   5.218   2.340 -0.4300  0.0060  0.4406
 5980SOL    HW124286   7.777   5.290   2.360  2.3350 -1.2675 -2.1948
 5980SOL    HW224287   7.766   5.140   2.368  0.2083 -1.2214 -3.4590
 5981SOL     OW24288   8.290   2.777   0.788 -0.4233 -0.1082 -0.2930
 5981SOL    HW124289   8.317   2.737   0.705 -1.0297  0.0771 -0.5798
 5981SOL    HW224290   8.223   2.840   0.764 -1.4496 -0.8781  0.4578
 5982SOL     OW24291   7.563   2.834   3.855 -0.0636 -0.0173  0.2976
 5982SOL    HW124292   7.487   2.803   3.905 -0.0439 -0.9099 -0.1966
 5982SOL    HW224293   7.558   2.786   3.772  1.6339 -0.9233  0.6688
 5983SOL     OW24294   1.580   0.769   1.265 -0.0882  0.3287  0.1188
 5983SOL    HW124295   1.639   0.735   1.332 -1.4295 -2.6526 -0.0311
 5983SOL    HW224296   1.548   0.852   1.300  1.6190  0.3614  1.7152
 5984SOL     OW24297   0.281   7.614   2.675 -0.3127 -0.1385 -0.0558
 5984SOL    HW124298   0.212   7.568   2.723 -0.8758 -1.3498 -1.9011
 5984SOL    HW224299   0.335   7.544   2.638  2.0635  0.7919  1.4685
 5985SOL     OW24300   7.162   1.781   5.164  0.0519  0.4083  0.5647
 5985SOL    HW124301   7.115   1.772   5.081 -0.4070 -1.1726  0.9582
 5985SOL    HW224302   7.254   1.770   5.139  0.0006  0.9377  0.1305
 5986SOL     OW24303   1.939   8.599   7.316  0.0845  0.3455 -0.1985
 5986SOL    HW124304   1.873   8.664   7.294 -0.6547 -0.3359 -0.0466
 5986SOL    HW224305   1.926   8.529   7.252 -1.1009 -0.9813  1.3983
 5987SOL     OW24306   6.878   4.520   7.871  0.3669  0.3072  0.3576
 5987SOL    HW124307   6.883   4.449   7.934  0.5293 -1.2903 -1.3547
 5987SOL    HW224308   6.788   4.518   7.839 -0.0522  1.8783  1.3517
 5988SOL     OW24309   6.730   7.711   0.710  0.4809  0.4480  0.2905
 5988SOL    HW124310   6.636   7.722   0.696  0.3869 -0.4777  0.1302
 5988SOL    HW224311   6.762   7.669   0.630  0.3373 -2.7588  1.7593
 5989SOL     OW24312   7.518   5.586   4.549 -0.1492  0.3098  0.2898
 5989SOL    HW124313   7.573   5.587   4.470  0.5062 -0.1441  0.7277
 5989SOL    HW224314   7.554   5.655   4.604  0.9780 -0.9553  1.2148
 5990SOL     OW24315   2.063   0.789   8.420 -0.2968 -0.5336 -0.0857
 5990SOL    HW124316   2.091   0.703   8.388 -0.0537 -1.1710  1.7128
 5990SOL    HW224317   2.016   0.770   8.502 -0.2282  1.0469  0.3530
 5991SOL     OW24318   0.260   5.018   3.286  0.1945 -0.1055  0.4467
 5991SOL    HW124319   0.355   5.013   3.283  0.2894  1.0789  0.7463
 5991SOL    HW224320   0.238   5.083   3.219 -0.1323  1.9276  2.3954
 5992SOL     OW24321   4.423   8.195   7.040 -0.2223  0.2633  0.2040
 5992SOL    HW124322   4.370   8.214   7.117 -0.5829  0.3800 -0.0691
 5992SOL    HW224323   4.444   8.102   7.047 -2.0160 -0.2415 -0.6260
 5993SOL     OW24324   3.328   1.862   5.059  0.7170  0.1568 -0.0446
 5993SOL    HW124325   3.295   1.907   5.136 -0.0574 -0.3761 -0.0613
 5993SOL    HW224326   3.338   1.771   5.086 -0.8354 -0.3125 -0.9262
 5994SOL     OW24327   8.235   2.196   1.641 -0.1958  0.0497 -0.3509
 5994SOL    HW124328   8.320   2.233   1.616 -0.4882 -0.1569 -1.7303
 5994SOL    HW224329   8.194   2.173   1.558 -1.1058 -0.9792  0.3664
 5995SOL     OW24330   8.392   1.795   1.575  0.2251  0.1992  0.4971
 5995SOL    HW124331   8.421   1.707   1.597 -3.4226 -0.7772  2.1919
 5995SOL    HW224332   8.319   1.782   1.515 -0.4178  2.0627  0.8051
 5996SOL     OW24333   5.898   8.087   5.410 -0.4213 -0.5554 -0.1987
 5996SOL    HW124334   5.968   8.095   5.475 -0.1465 -1.2079 -0.4070
 5996SOL    HW224335   5.822   8.127   5.452  0.5271  1.9355 -0.7157
 5997SOL     OW24336   4.743   9.227   2.545  0.2950 -0.2988 -0.6775
 5997SOL    HW124337   4.776   9.175   2.618  0.6423 -2.3629 -2.2087
 5997SOL    HW224338   4.794   9.308   2.548 -0.4270  0.1678  1.9289
 5998SOL     OW24339   9.140   2.717   5.244  0.0271  0.8311 -0.5948
 5998SOL    HW124340   9.150   2.648   5.178 -1.3326  1.5251 -1.5862
 5998SOL    HW224341   9.168   2.676   5.326 -0.2976 -0.7490 -1.2325
 5999SOL     OW24342   6.778   7.908   5.868  0.1095  0.0124 -0.0917
 5999SOL    HW124343   6.869   7.893   5.893  1.2281  2.7014 -2.0390
 5999SOL    HW224344   6.769   7.864   5.783  0.2964  1.5048 -0.9132
 6000SOL     OW24345   0.215   7.346   8.040  0.7060  0.0576  0.1264
 6000SOL    HW124346   0.285   7.405   8.066  0.6011 -0.6632  2.2255
 6000SOL    HW224347   0.249   7.259   8.058 -0.3419 -0.3522  0.1839
 6001SOL     OW24348   1.497   6.657   6.838 -0.2579  0.1952  0.4519
 6001SOL    HW124349   1.542   6.601   6.776  0.3521  0.1401  0.9315
 6001SOL    HW224350   1.523   6.746   6.815  1.3862  0.0791  1.6908
 6002SOL     OW24351   1.851   9.046   2.964 -0.4722  0.2177  0.5694
 6002SOL    HW124352   1.803   8.974   3.006  1.7959 -1.3604  0.6870
 6002SOL    HW224353   1.914   9.002   2.907  0.6243  2.1611  0.1970
 6003SOL     OW24354   4.192   5.899   8.441 -0.0550 -0.3769 -0.3833
 6003SOL    HW124355   4.238   5.815   8.438 -0.8985 -0.8360 -2.1507
 6003SOL    HW224356   4.253   5.962   8.402 -1.1905 -1.2154 -3.8812
 6004SOL     OW24357   0.175   8.392   0.050  0.6995 -0.1821 -0.0787
 6004SOL    HW124358   0.156   8.299   0.038 -0.3738 -0.0313  0.3417
 6004SOL    HW224359   0.219   8.419  -0.031  0.5469 -0.9269 -0.4134
 6005SOL     OW24360   0.140   8.361   0.436  0.1100  0.2898  0.5625
 6005SOL    HW124361   0.101   8.403   0.359  0.0001  1.7419  1.3678
 6005SOL    HW224362   0.073   8.302   0.468  0.1153 -0.2501 -0.3812
 6006SOL     OW24363   5.945   8.065   3.761 -0.1718  0.3787  0.5460
 6006SOL    HW124364   5.879   8.109   3.708  1.3221  0.2339 -1.5678
 6006SOL    HW224365   5.929   7.971   3.745  0.6200  0.3488 -0.0924
 6007SOL     OW24366   8.978   1.127   8.620 -0.5278 -0.8075  0.2366
 6007SOL    HW124367   8.964   1.186   8.545  0.7570 -2.1189 -1.0903
 6007SOL    HW224368   9.033   1.178   8.680 -1.1967  0.0969  0.1041
 6008SOL     OW24369   2.920   2.575   5.292  0.1783 -0.3401 -0.0512
 6008SOL    HW124370   2.900   2.651   5.347 -0.7571 -0.4701 -0.2023
 6008SOL    HW224371   2.980   2.522   5.345  0.8339  0.4888  0.0557
 6009SOL     OW24372   4.088   3.449   0.980  0.4659  0.1877 -0.0654
 6009SOL    HW124373   4.028   3.503   0.928 -1.1975 -1.7680 -0.2897
 6009SOL    HW224374   4.042   3.435   1.062  0.1449 -2.1226 -0.5831
 6010SOL     OW24375   1.886   1.400   0.308  0.7930 -0.4147  0.4385
 6010SOL    HW124376   1.832   1.438   0.239  1.4109  0.3371  0.3571
 6010SOL    HW224377   1.928   1.324   0.267 -1.4206 -2.0386  0.9525
 6011SOL     OW24378   7.515   4.996   2.859 -0.1720 -0.1000 -0.7729
 6011SOL    HW124379   7.554   5.065   2.913 -0.1891 -0.9303  0.3264
 6011SOL    HW224380   7.590   4.946   2.826 -0.2216 -0.6188 -0.1157
 6012SOL     OW24381   1.159   7.684   4.847  0.0226  0.1503  0.1276
 6012SOL    HW124382   1.140   7.777   4.838  0.1930  0.2071  0.3429
 6012SOL    HW224383   1.240   7.671   4.798  0.1342  0.1660  0.3052
 6013SOL     OW24384   1.043   2.328   6.519 -0.7437  0.2196  0.1368
 6013SOL    HW124385   0.986   2.267   6.566 -0.8439 -0.1227 -0.4208
 6013SOL    HW224386   1.053   2.289   6.432 -1.0876  1.1767 -0.3367
 6014SOL     OW24387   2.633   8.837   6.337  0.5222  0.2606 -0.8913
 6014SOL    HW124388   2.687   8.841   6.258  0.7939  2.3914 -0.6546
 6014SOL    HW224389   2.696   8.839   6.409  0.2130  2.6124 -0.6139
 6015SOL     OW24390   0.965   0.936   0.950 -0.0440  0.1619  0.3222
 6015SOL    HW124391   0.898   0.901   1.009  0.9234 -1.1059  0.7360
 6015SOL    HW224392   1.044   0.887   0.973  0.4497 -0.1461 -1.7975
 6016SOL     OW24393   8.630   7.714   7.026  0.8358 -0.0082  0.1633
 6016SOL    HW124394   8.624   7.678   7.115 -0.0037 -0.5944 -0.1201
 6016SOL    HW224395   8.686   7.653   6.979  0.7354 -0.0613  0.1125
 6017SOL     OW24396   8.450   8.736   5.039 -0.0079 -0.4740  0.1090
 6017SOL    HW124397   8.473   8.698   5.123  1.9352  0.9816  0.3014
 6017SOL    HW224398   8.531   8.777   5.008 -0.6086 -1.0926 -2.5635
 6018SOL     OW24399   9.187   5.344   1.263 -0.3130 -0.2990  0.3711
 6018SOL    HW124400   9.143   5.296   1.333  0.6968 -0.1005  1.1731
 6018SOL    HW224401   9.260   5.287   1.237 -2.4870 -1.9491 -2.8886
 6019SOL     OW24402   6.230   3.145   8.426  0.3229 -0.1804 -0.4038
 6019SOL    HW124403   6.241   3.165   8.333  1.4678  1.1008 -0.0216
 6019SOL    HW224404   6.317   3.158   8.464  0.5527 -3.3470  0.4115
 6020SOL     OW24405   1.952   1.448   1.965  0.0090 -0.3919  1.0386
 6020SOL    HW124406   2.029   1.497   1.994 -0.1214 -1.0199  2.5347
 6020SOL    HW224407   1.907   1.508   1.905  1.4994  0.0831  0.3283
 6021SOL     OW24408   9.215   5.895   7.288 -0.2522 -0.6890  0.0641
 6021SOL    HW124409   9.171   5.854   7.213  1.4215 -0.6626 -1.0003
 6021SOL    HW224410   9.304   5.912   7.256  1.0081 -2.0439  2.5253
 6022SOL     OW24411   3.184   6.571   1.889  0.2966  0.4501  0.2085
 6022SOL    HW124412   3.144   6.516   1.956  1.2294  0.1544  0.5451
 6022SOL    HW224413   3.121   6.642   1.875  0.3135  0.8096  1.7698
 6023SOL     OW24414   1.669   5.188   7.025 -0.0247  0.2619 -0.3177
 6023SOL    HW124415   1.736   5.235   7.075 -1.8861  1.1716  1.5018
 6023SOL    HW224416   1.715   5.153   6.949  2.1831  2.0790  0.0791
 6024SOL     OW24417   5.532   0.009   3.404 -0.0958  0.1396 -0.3534
 6024SOL    HW124418   5.520   0.055   3.487 -0.3626 -2.7220  1.3215
 6024SOL    HW224419   5.443  -0.004   3.371 -0.0681  0.1503 -0.4321
 6025SOL     OW24420   5.332   3.691   0.414 -0.5076 -0.2086 -0.4050
 6025SOL    HW124421   5.240   3.700   0.436 -0.5610  1.3037 -1.0836
 6025SOL    HW224422   5.362   3.781   0.399  0.9101 -0.7178 -0.8266
 6026SOL     OW24423   7.917   3.359   5.501 -0.4219  0.7179  0.3412
 6026SOL    HW124424   7.930   3.453   5.512 -1.0318  0.8809 -0.2546
 6026SOL    HW224425   7.944   3.321   5.585  2.8194  1.0862 -0.4281
 6027SOL     OW24426   0.395   2.410   1.899 -0.1080 -0.3675  0.1284
 6027SOL    HW124427   0.364   2.490   1.857 -0.9738  0.8424  2.8298
 6027SOL    HW224428   0.403   2.347   1.828 -1.1866  1.5708 -1.8384
 6028SOL     OW24429   0.498   7.924   8.662  0.3758  0.0882  0.1608
 6028SOL    HW124430   0.590   7.929   8.687 -0.2210  0.5044  2.5307
 6028SOL    HW224431   0.490   7.979   8.585  2.0476  0.3005  0.1226
 6029SOL     OW24432   4.645   0.991   6.655  0.1901 -0.3382  0.1907
 6029SOL    HW124433   4.621   1.070   6.607  0.2494 -0.2877  0.2432
 6029SOL    HW224434   4.737   0.977   6.631  0.0483 -0.6527 -0.1820
 6030SOL     OW24435   9.114   7.895   7.460  0.2387  0.1606  0.2906
 6030SOL    HW124436   9.114   7.850   7.376 -0.3170  2.0783 -0.8034
 6030SOL    HW224437   9.189   7.858   7.507  0.0595 -1.5538 -0.6768
 6031SOL     OW24438   2.905   4.362   8.023 -0.7479  0.0511 -0.1010
 6031SOL    HW124439   2.976   4.378   7.962 -1.0021 -0.0643 -0.4292
 6031SOL    HW224440   2.929   4.413   8.101  1.1871 -2.3373  0.9753
 6032SOL     OW24441   1.945   8.442   3.907  0.1141  0.3840 -0.5192
 6032SOL    HW124442   1.943   8.458   3.813  1.5082  0.7818 -0.5131
 6032SOL    HW224443   1.861   8.473   3.939 -0.1837  0.6928 -1.5651
 6033SOL     OW24444   4.557   3.917   9.143 -0.0396  0.2933  0.1849
 6033SOL    HW124445   4.590   3.892   9.229  0.0233  0.8215  0.3191
 6033SOL    HW224446   4.634   3.917   9.087 -0.2573 -1.1389 -0.1325
 6034SOL     OW24447   1.251   8.935   1.916  0.0770  0.3490 -0.4596
 6034SOL    HW124448   1.303   8.908   1.991  0.7493 -0.0370 -1.0569
 6034SOL    HW224449   1.160   8.915   1.941  0.2218  0.7770  0.4738
 6035SOL     OW24450   3.007   0.676   6.485  0.9456  0.3857 -0.8489
 6035SOL    HW124451   3.102   0.664   6.480  0.9011 -1.3954  1.0527
 6035SOL    HW224452   2.972   0.587   6.481 -0.5991  0.9668 -0.8581
 6036SOL     OW24453   5.983   9.134   0.402 -0.2845 -0.1993 -0.4391
 6036SOL    HW124454   5.960   9.085   0.323  2.3507 -1.0023 -0.8102
 6036SOL    HW224455   6.027   9.212   0.370 -1.2320  0.6303  0.2359
 6037SOL     OW24456   7.128   1.609   7.144 -0.1827  0.5931  0.3491
 6037SOL    HW124457   7.130   1.637   7.236  1.1668 -0.7702  0.7673
 6037SOL    HW224458   7.220   1.607   7.117 -0.4816 -0.1183 -0.6830
 6038SOL     OW24459   2.414   3.341   9.052 -0.9982 -0.2573  0.4540
 6038SOL    HW124460   2.334   3.335   9.104 -1.6655 -0.2796 -0.5548
 6038SOL    HW224461   2.461   3.260   9.072 -2.9598 -2.0674 -1.7112
 6039SOL     OW24462   4.081   8.325   2.846 -0.2461  0.2297  0.1678
 6039SOL    HW124463   4.019   8.255   2.869  1.5893 -0.9627  1.8515
 6039SOL    HW224464   4.166   8.293   2.877  1.0772  2.2195 -1.1628
 6040SOL     OW24465   1.467   8.772   6.741  0.3194 -0.4608 -0.1634
 6040SOL    HW124466   1.446   8.833   6.811  0.2648 -0.6916  0.0222
 6040SOL    HW224467   1.427   8.810   6.663 -2.6262 -1.8947  0.4954
 6041SOL     OW24468   0.377   7.159   3.687  0.6043  0.8924 -0.4721
 6041SOL    HW124469   0.424   7.125   3.611 -0.3841  1.0691 -1.1838
 6041SOL    HW224470   0.286   7.129   3.675  0.3019  1.4428  0.3211
 6042SOL     OW24471   1.916   8.438   3.331  0.8316  0.1773 -0.0223
 6042SOL    HW124472   1.843   8.417   3.272  0.0452  1.2822  0.5250
 6042SOL    HW224473   1.964   8.508   3.286 -1.6644  3.4478  1.9420
 6043SOL     OW24474   6.508   7.782   5.355 -0.3927 -0.6065  0.0622
 6043SOL    HW124475   6.564   7.789   5.433 -0.4924  2.8931 -0.0306
 6043SOL    HW224476   6.568   7.797   5.282 -0.9481  0.0941 -0.2522
 6044SOL     OW24477   5.908   6.404   1.941 -0.5091 -0.2166  0.0563
 6044SOL    HW124478   5.993   6.366   1.962 -0.2444  0.7549  0.8715
 6044SOL    HW224479   5.846   6.352   1.991 -0.7534 -2.5675 -2.4853
 6045SOL     OW24480   8.965   7.927   4.734  0.7020  0.9666 -0.8185
 6045SOL    HW124481   8.956   7.923   4.829 -1.0753  1.8870 -0.8930
 6045SOL    HW224482   8.943   8.018   4.712  0.8339  0.6994 -2.1226
 6046SOL     OW24483   3.390   8.282   7.469 -0.2668  0.2872 -0.3381
 6046SOL    HW124484   3.461   8.346   7.463 -1.8297  2.0172 -2.0177
 6046SOL    HW224485   3.354   8.295   7.557 -0.4317  1.6382 -0.5791
 6047SOL     OW24486   7.371   0.144   9.236  0.3583 -0.0645 -0.0746
 6047SOL    HW124487   7.349   0.231   9.205 -0.0089 -0.1037  0.0677
 6047SOL    HW224488   7.395   0.095   9.157 -0.2861 -0.0844 -0.2609
 6048SOL     OW24489   8.996   0.482   3.307 -0.0447  0.3188 -0.1659
 6048SOL    HW124490   8.969   0.551   3.247  1.0896 -0.3472 -1.5093
 6048SOL    HW224491   9.091   0.476   3.296  0.2738  0.5438  2.1373
 6049SOL     OW24492   2.691   4.829   5.632 -0.0753  0.3899 -0.3292
 6049SOL    HW124493   2.691   4.739   5.597 -0.4342 -0.1311  0.9432
 6049SOL    HW224494   2.783   4.855   5.633 -0.0466  0.3969 -1.5566
 6050SOL     OW24495   3.561   0.629   5.848 -0.3313  0.1759 -0.0778
 6050SOL    HW124496   3.566   0.681   5.928 -1.4957  0.2918 -0.0690
 6050SOL    HW224497   3.650   0.629   5.814  0.2295 -0.0574  1.3313
 6051SOL     OW24498   0.720   6.461   8.769  0.1864 -0.5916  0.1086
 6051SOL    HW124499   0.629   6.456   8.740 -0.4076 -1.1874  1.9429
 6051SOL    HW224500   0.764   6.514   8.702 -1.7934  0.8777 -0.1094
 6052SOL     OW24501   1.832   0.296   3.791  0.1783  0.4378  0.4176
 6052SOL    HW124502   1.827   0.204   3.819 -0.3508  0.6970  1.1959
 6052SOL    HW224503   1.914   0.328   3.827 -0.3896  0.7046  1.4925
 6053SOL     OW24504   4.774   8.616   3.755  0.5375  0.7463 -0.4331
 6053SOL    HW124505   4.710   8.554   3.719  1.4490  0.2737 -1.2818
 6053SOL    HW224506   4.746   8.629   3.846  0.5167 -1.2053 -0.1172
 6054SOL     OW24507   7.563   3.511   2.294  0.0798 -0.3583  0.5953
 6054SOL    HW124508   7.506   3.517   2.371 -0.1954  0.6779  0.3263
 6054SOL    HW224509   7.648   3.484   2.330  0.0950  0.6273  1.3473
 6055SOL     OW24510   5.202   0.262   4.643 -0.2418  0.4699  0.0176
 6055SOL    HW124511   5.224   0.355   4.635 -0.6120  0.5059 -0.6337
 6055SOL    HW224512   5.131   0.249   4.580  0.3745 -0.4370 -0.5199
 6056SOL     OW24513   5.493   4.554   7.969  0.2572 -0.4818 -0.3211
 6056SOL    HW124514   5.524   4.506   7.893  1.8355 -3.9425  2.2251
 6056SOL    HW224515   5.559   4.622   7.984  1.5605 -1.6880 -0.4188
 6057SOL     OW24516   1.397   2.655   0.668 -0.5751  0.5880  0.4838
 6057SOL    HW124517   1.433   2.619   0.587 -0.3033 -0.3834  1.0180
 6057SOL    HW224518   1.406   2.750   0.658 -1.0780  0.5131 -0.8587
 6058SOL     OW24519   4.724   0.249   0.854  0.1473  0.6759 -0.0084
 6058SOL    HW124520   4.759   0.313   0.917  0.5285 -0.9695  1.5252
 6058SOL    HW224521   4.649   0.293   0.814  0.7907  2.3179  0.4943
 6059SOL     OW24522   3.117   2.498   1.415  0.0310  0.2763 -0.0460
 6059SOL    HW124523   3.113   2.551   1.494  1.2923 -0.4997  0.5782
 6059SOL    HW224524   3.034   2.450   1.413  0.0972  0.1094  0.9667
 6060SOL     OW24525   0.623   0.512   4.938 -0.9378 -0.0753  0.0379
 6060SOL    HW124526   0.597   0.542   5.026 -1.1531 -0.7445  0.2059
 6060SOL    HW224527   0.559   0.553   4.880 -0.9610  0.1524  0.2219
 6061SOL     OW24528   3.417   5.129   0.345 -1.0536 -0.4559 -0.4332
 6061SOL    HW124529   3.459   5.051   0.380  0.2445 -0.1282 -1.2074
 6061SOL    HW224530   3.323   5.109   0.348 -1.0519 -0.5931  2.8393
 6062SOL     OW24531   7.921   8.638   7.995 -0.7437  0.4468  0.7049
 6062SOL    HW124532   7.984   8.607   8.060  2.7421  0.9846 -2.1251
 6062SOL    HW224533   7.903   8.728   8.020  0.6082  0.6718  0.9445
 6063SOL     OW24534   7.737   5.810   9.131 -0.3986  0.9041 -0.2651
 6063SOL    HW124535   7.821   5.765   9.143  1.2071  4.0029  1.4750
 6063SOL    HW224536   7.676   5.763   9.189  0.8701  0.2301  0.5668
 6064SOL     OW24537   7.949   0.452   1.372  0.1558 -0.3435 -0.8010
 6064SOL    HW124538   8.000   0.436   1.292  1.6654 -1.9576  0.4119
 6064SOL    HW224539   7.932   0.546   1.371  0.8982 -0.1925 -2.5876
 6065SOL     OW24540   5.206   7.304   0.404  0.1600 -0.5346 -0.6505
 6065SOL    HW124541   5.274   7.345   0.351 -0.3355  0.8732 -0.2518
 6065SOL    HW224542   5.160   7.246   0.343  1.1851 -0.8779 -1.1166
 6066SOL     OW24543   5.359   8.412   7.877 -0.0112 -0.0246 -0.2703
 6066SOL    HW124544   5.444   8.408   7.832  0.2698  0.8630  0.1629
 6066SOL    HW224545   5.300   8.361   7.821  1.0557 -1.6510  0.0286
 6067SOL     OW24546   3.652   0.200   8.789 -0.4875  0.7139 -0.0868
 6067SOL    HW124547   3.608   0.130   8.838  0.5727  0.0572 -0.0263
 6067SOL    HW224548   3.660   0.272   8.852 -1.5131  0.8674 -0.1218
 6068SOL     OW24549   1.351   2.204   4.019  0.0263  0.2073  0.5532
 6068SOL    HW124550   1.288   2.138   4.046 -1.1811  0.9643 -0.3292
 6068SOL    HW224551   1.341   2.210   3.924  1.7421  0.0507  0.3276
 6069SOL     OW24552   5.322   1.947   0.641  0.3125 -0.2325 -0.0958
 6069SOL    HW124553   5.382   1.979   0.573 -0.8369  2.7711  0.1526
 6069SOL    HW224554   5.380   1.920   0.713  1.4303  0.6917 -0.6103
 6070SOL     OW24555   8.640   6.815   3.627 -0.1760  0.3989 -0.1315
 6070SOL    HW124556   8.652   6.910   3.625  1.5476  0.2276  0.4103
 6070SOL    HW224557   8.582   6.797   3.554  0.3864  1.7610 -0.9618
 6071SOL     OW24558   5.189   3.982   3.283 -0.6043 -0.3307  0.2467
 6071SOL    HW124559   5.258   3.999   3.219 -2.0991  1.5691 -0.9499
 6071SOL    HW224560   5.236   3.979   3.367  0.9356  1.0547 -0.4987
 6072SOL     OW24561   1.960   6.673   7.031 -0.2069  0.2017 -0.0706
 6072SOL    HW124562   1.904   6.709   7.100 -0.6707 -0.7594  0.0689
 6072SOL    HW224563   2.003   6.598   7.072  0.8913  0.6937 -0.2985
 6073SOL     OW24564   8.001   2.579   6.670 -0.2220 -0.1787  0.3026
 6073SOL    HW124565   7.934   2.636   6.709  0.1421 -1.4504  3.0566
 6073SOL    HW224566   8.046   2.635   6.607 -1.8805  1.6344  0.6214
 6074SOL     OW24567   5.412   4.719   3.906  0.4189 -0.3605 -0.0815
 6074SOL    HW124568   5.497   4.681   3.926  0.5765 -0.2847 -0.6006
 6074SOL    HW224569   5.417   4.744   3.814 -0.0702 -0.1071 -0.0465
 6075SOL     OW24570   2.384   0.500   8.980  0.2382 -0.0590 -0.3493
 6075SOL    HW124571   2.463   0.551   9.002  0.8645 -1.0773 -0.1997
 6075SOL    HW224572   2.367   0.447   9.058  0.6275 -1.3664 -1.1274
 6076SOL     OW24573   0.810   0.746   4.084  0.5022  0.3729  0.0292
 6076SOL    HW124574   0.774   0.688   4.151  0.9693 -0.1949 -0.1991
 6076SOL    HW224575   0.741   0.810   4.068 -0.4853 -0.7713 -0.4955
 6077SOL     OW24576   7.237   0.632   2.176  0.4592 -0.1565 -0.3392
 6077SOL    HW124577   7.285   0.711   2.201  1.5863  0.1605 -3.0827
 6077SOL    HW224578   7.145   0.659   2.176  0.7876  1.0252 -0.7601
 6078SOL     OW24579   3.958   0.865   4.083  0.1762 -0.0432 -0.2029
 6078SOL    HW124580   4.006   0.858   4.001  0.5859 -3.8896  0.1830
 6078SOL    HW224581   3.870   0.834   4.063  0.1459 -0.5735  0.6884
 6079SOL     OW24582   1.076   5.360   7.811 -0.8777  0.4074 -0.5399
 6079SOL    HW124583   1.035   5.445   7.793  0.4358  1.1315 -0.2181
 6079SOL    HW224584   1.052   5.342   7.902  0.1158  1.1937 -0.1087
 6080SOL     OW24585   2.901   2.403   2.308 -0.1552 -0.4779 -0.2462
 6080SOL    HW124586   2.918   2.487   2.351  1.0330 -0.5915 -0.4732
 6080SOL    HW224587   2.811   2.410   2.276  0.4093  1.2913 -1.5639
 6081SOL     OW24588   3.258   4.759   0.621  0.4254 -0.1467 -0.2009
 6081SOL    HW124589   3.235   4.827   0.558  1.0543 -0.9084 -1.2917
 6081SOL    HW224590   3.279   4.683   0.567 -0.1067 -1.1608  0.9818
 6082SOL     OW24591   4.538   8.174   4.237 -0.2533  0.7137  0.4965
 6082SOL    HW124592   4.551   8.265   4.210  0.2375  0.6140  0.3924
 6082SOL    HW224593   4.443   8.163   4.238 -0.3071  0.9302 -0.5117
 6083SOL     OW24594   6.349   4.381   5.887 -0.1975 -0.1949  0.2028
 6083SOL    HW124595   6.437   4.392   5.924 -0.2210 -1.9882  0.9189
 6083SOL    HW224596   6.323   4.293   5.915 -1.1153 -0.8012 -2.2859
 6084SOL     OW24597   1.649   4.429   6.912 -0.5825 -0.3966 -0.0998
 6084SOL    HW124598   1.645   4.334   6.920  0.6213 -0.4414  0.0714
 6084SOL    HW224599   1.666   4.445   6.819  1.0392 -0.4356  0.1596
 6085SOL     OW24600   0.670   7.729   4.817  0.2951  0.2847 -0.1852
 6085SOL    HW124601   0.758   7.721   4.783  0.7599 -1.7719  1.3119
 6085SOL    HW224602   0.622   7.656   4.779 -0.2294  0.2663  0.4832
 6086SOL     OW24603   5.293   3.495   8.555  0.5696 -0.6258 -0.3155
 6086SOL    HW124604   5.379   3.535   8.540 -0.2857  2.0661  1.2943
 6086SOL    HW224605   5.312   3.418   8.609  1.9658  0.2321  0.5009
 6087SOL     OW24606   1.501   7.687   1.135 -0.3095  0.2376 -0.4040
 6087SOL    HW124607   1.468   7.769   1.099  0.9464  0.7517 -0.4428
 6087SOL    HW224608   1.586   7.674   1.092 -0.3101 -0.8872 -0.1139
 6088SOL     OW24609   6.064   3.853   5.001  0.0738 -0.4677  0.0144
 6088SOL    HW124610   6.112   3.777   5.033  0.0487 -0.5436 -0.1273
 6088SOL    HW224611   6.086   3.923   5.062  0.2693 -0.5328  0.0203
 6089SOL     OW24612   0.615   0.553   1.086 -0.8733 -0.0591  0.2495
 6089SOL    HW124613   0.642   0.591   1.002 -0.1745 -0.3503  0.3347
 6089SOL    HW224614   0.566   0.475   1.063 -2.8339  1.1701  0.0507
 6090SOL     OW24615   7.976   7.826   7.229 -0.2975 -0.2342  0.4603
 6090SOL    HW124616   7.934   7.895   7.281  0.8376  1.1459 -0.4014
 6090SOL    HW224617   7.903   7.782   7.184 -0.9208  1.6977 -0.5208
 6091SOL     OW24618   3.734   4.737   5.174  0.1738 -0.5618  0.4814
 6091SOL    HW124619   3.712   4.818   5.129  0.0869 -0.9328 -0.1572
 6091SOL    HW224620   3.660   4.679   5.157  0.0277 -0.6392  1.3029
 6092SOL     OW24621   6.907   0.734   7.560 -0.1337  0.2568 -0.0085
 6092SOL    HW124622   6.991   0.776   7.580 -0.8638  0.7862  2.2502
 6092SOL    HW224623   6.908   0.652   7.610 -0.5286 -0.2693 -0.8391
 6093SOL     OW24624   1.747   6.466   1.093 -0.1059  0.0138  0.7523
 6093SOL    HW124625   1.702   6.537   1.047 -0.1669  0.5690  1.6661
 6093SOL    HW224626   1.822   6.445   1.037 -0.0625  0.8245  0.5047
 6094SOL     OW24627   1.127   5.984   5.570 -0.5885 -0.0441 -0.1516
 6094SOL    HW124628   1.043   5.996   5.614 -0.5923  0.8156 -0.3847
 6094SOL    HW224629   1.130   6.053   5.504  0.7495  0.5720  0.5330
 6095SOL     OW24630   0.649   2.734   2.673 -0.1788 -0.1137  0.2408
 6095SOL    HW124631   0.685   2.813   2.632 -0.1020 -0.6889 -0.8214
 6095SOL    HW224632   0.624   2.678   2.600  0.0521 -1.2135  0.9854
 6096SOL     OW24633   0.878   7.415   0.431 -1.1073 -0.2949 -0.0651
 6096SOL    HW124634   0.902   7.435   0.521 -2.3322  0.3463  0.1439
 6096SOL    HW224635   0.896   7.496   0.383  0.1183 -0.8291 -0.5255
 6097SOL     OW24636   3.290   0.438   2.864  0.2587 -0.7159  0.1885
 6097SOL    HW124637   3.352   0.505   2.894 -0.3076  0.8370 -1.8697
 6097SOL    HW224638   3.337   0.393   2.794 -0.5313 -0.2773 -0.6286
 6098SOL     OW24639   5.935   1.213   0.945 -0.6903 -0.0159  0.4472
 6098SOL    HW124640   6.009   1.153   0.933 -1.5804 -1.0234 -0.1982
 6098SOL    HW224641   5.970   1.299   0.923 -0.0718 -0.6714 -1.2743
 6099SOL     OW24642   9.038   3.618   6.422 -0.2691  0.1892  0.2962
 6099SOL    HW124643   8.943   3.626   6.419 -0.3291  0.4342  1.7929
 6099SOL    HW224644   9.054   3.524   6.429 -0.3652  0.1036 -0.5914
 6100SOL     OW24645   4.637   3.653   3.870  1.0763  0.3741  0.0512
 6100SOL    HW124646   4.576   3.606   3.813  2.2480  0.9836 -1.8223
 6100SOL    HW224647   4.591   3.734   3.893  0.9795  0.6313 -0.9830
 6101SOL     OW24648   6.399   0.217   0.774  0.6108  0.1044  0.4933
 6101SOL    HW124649   6.338   0.284   0.804  0.0196  0.3092 -1.0671
 6101SOL    HW224650   6.360   0.134   0.802  1.0821  0.3509  1.9682
 6102SOL     OW24651   0.686   8.411   4.940  0.0420 -0.0310  0.2778
 6102SOL    HW124652   0.750   8.450   4.881 -0.7205  0.5727 -0.1649
 6102SOL    HW224653   0.703   8.451   5.025  0.7591 -0.4668  0.3500
 6103SOL     OW24654   2.642   1.327   4.236  0.2486  0.1163  0.0824
 6103SOL    HW124655   2.589   1.286   4.169  0.6487 -0.7036  0.2503
 6103SOL    HW224656   2.730   1.293   4.221  0.5546  0.7611  0.3578
 6104SOL     OW24657   1.487   2.492   7.007  0.3486  0.3550 -0.4623
 6104SOL    HW124658   1.461   2.470   6.918  2.0721  0.7836 -1.1068
 6104SOL    HW224659   1.407   2.529   7.047 -0.2596  0.8383 -2.0406
 6105SOL     OW24660   7.706   5.178   6.287 -0.1109  0.3220 -0.1266
 6105SOL    HW124661   7.723   5.225   6.205 -1.5486 -0.1052 -0.6984
 6105SOL    HW224662   7.793   5.170   6.327  0.3091  2.8682 -0.2976
 6106SOL     OW24663   4.803   1.228   4.753 -0.2856  0.1160  0.2538
 6106SOL    HW124664   4.869   1.188   4.696 -0.7572 -0.0908 -0.1564
 6106SOL    HW224665   4.853   1.280   4.815  0.1993  1.7241 -1.3999
 6107SOL     OW24666   5.798   6.968   3.140  0.0370 -0.3662 -0.4799
 6107SOL    HW124667   5.786   7.057   3.173 -1.8168  0.0159 -2.0222
 6107SOL    HW224668   5.867   6.931   3.196  1.4326  2.2628 -0.2869
 6108SOL     OW24669   9.129   5.323   2.090 -0.1184  0.2848  0.1679
 6108SOL    HW124670   9.052   5.368   2.123 -0.5264 -1.3898  1.6364
 6108SOL    HW224671   9.146   5.253   2.153  1.0385 -1.0403 -1.4832
 6109SOL     OW24672   2.143   5.816   1.420 -0.7451 -0.1419 -0.2079
 6109SOL    HW124673   2.070   5.827   1.480 -0.6960  1.3345 -0.3969
 6109SOL    HW224674   2.110   5.757   1.352 -0.7154 -2.0767  1.3484
 6110SOL     OW24675   4.069   2.569   3.941  0.0074 -0.0892  0.2390
 6110SOL    HW124676   4.124   2.499   3.977 -0.0671 -0.6834 -0.7533
 6110SOL    HW224677   3.984   2.527   3.928 -0.6464  0.7631  1.5614
 6111SOL     OW24678   5.759   0.644   1.645 -0.2139 -0.4759  0.3333
 6111SOL    HW124679   5.723   0.679   1.726  0.2370 -0.2992  0.4594
 6111SOL    HW224680   5.853   0.639   1.660  0.1535  1.5642 -0.9217
 6112SOL     OW24681   5.558   7.998   6.153 -0.1499 -0.2876 -0.4872
 6112SOL    HW124682   5.570   7.956   6.067  0.1504 -1.0555 -0.0756
 6112SOL    HW224683   5.633   7.969   6.205 -0.4642 -0.0258  0.1199
 6113SOL     OW24684   8.200   0.567   8.469 -0.7718  0.3292 -0.3720
 6113SOL    HW124685   8.213   0.485   8.422  0.6368 -0.5259  1.3679
 6113SOL    HW224686   8.278   0.619   8.451 -0.4564  0.2027  0.5825
 6114SOL     OW24687   2.134   2.682   4.367 -0.0877 -0.0080  0.0669
 6114SOL    HW124688   2.229   2.696   4.373 -0.0958  1.4775 -2.3795
 6114SOL    HW224689   2.096   2.751   4.421  0.1978  0.2683 -0.0845
 6115SOL     OW24690   9.086   5.635   0.937  0.0524  0.0834 -0.6275
 6115SOL    HW124691   9.128   5.587   0.866 -0.0776  0.0985 -0.7135
 6115SOL    HW224692   9.158   5.659   0.995  0.0347 -0.8947 -0.1742
 6116SOL     OW24693   2.601   9.041   0.529  0.6275 -0.3994 -0.5474
 6116SOL    HW124694   2.599   9.060   0.435 -0.3361  1.6535 -0.1648
 6116SOL    HW224695   2.690   9.064   0.557  0.5792  0.0846 -0.7776
 6117SOL     OW24696   2.363   1.663   8.436 -0.5164 -0.1523  0.1928
 6117SOL    HW124697   2.320   1.743   8.466  1.1738  1.3168 -1.1218
 6117SOL    HW224698   2.350   1.663   8.341  0.0541 -1.1204  0.1019
 6118SOL     OW24699   5.142   8.434   5.964  0.5080 -0.2440  0.1158
 6118SOL    HW124700   5.111   8.524   5.954 -0.0041 -0.6996 -3.5150
 6118SOL    HW224701   5.216   8.427   5.904 -0.3661 -2.6112 -0.8187
 6119SOL     OW24702   8.834   3.658   3.928 -0.3382  0.1316 -0.1644
 6119SOL    HW124703   8.919   3.627   3.957 -1.1493  0.1400  2.4193
 6119SOL    HW224704   8.797   3.585   3.879  0.4289 -0.5300  0.2276
 6120SOL     OW24705   6.745   7.473   7.865 -0.1273 -0.0529  0.1524
 6120SOL    HW124706   6.823   7.523   7.842 -0.3943  0.7568  0.9510
 6120SOL    HW224707   6.672   7.532   7.848 -0.5200 -0.5224  0.1706
 6121SOL     OW24708   7.395   6.064   2.003  0.2285 -0.1824 -0.2683
 6121SOL    HW124709   7.369   6.127   2.070 -1.7273 -0.2523 -0.9134
 6121SOL    HW224710   7.475   6.025   2.038 -1.0509 -0.7126  2.3758
 6122SOL     OW24711   8.737   7.673   4.796  0.2808 -0.0111 -0.6050
 6122SOL    HW124712   8.775   7.661   4.709 -0.6476 -1.7029 -0.8238
 6122SOL    HW224713   8.809   7.706   4.850  0.8511  1.1412 -2.0065
 6123SOL     OW24714   7.053   2.283   2.010 -0.1172 -0.6721  0.0664
 6123SOL    HW124715   6.972   2.244   2.045 -1.1219  0.4009 -0.9651
 6123SOL    HW224716   7.090   2.214   1.955 -1.4450 -0.5212 -1.0839
 6124SOL     OW24717   5.103   7.415   7.772 -0.0149 -0.2845  0.3639
 6124SOL    HW124718   5.113   7.488   7.832  0.0036 -2.0372  2.6282
 6124SOL    HW224719   5.010   7.414   7.750  0.0864  0.7338 -0.1695
 6125SOL     OW24720   8.566   7.427   3.344  0.0223  0.6046 -0.1848
 6125SOL    HW124721   8.498   7.475   3.296 -0.9452 -1.5749 -1.1652
 6125SOL    HW224722   8.645   7.437   3.291 -1.0397 -1.8122 -2.4454
 6126SOL     OW24723   2.738   3.154   5.988  0.4854  0.7447  0.6370
 6126SOL    HW124724   2.694   3.092   5.929 -0.7473  2.3694 -0.2266
 6126SOL    HW224725   2.670   3.183   6.048  1.1030  1.1095  1.1811
 6127SOL     OW24726   3.218   4.253   4.084 -0.0367  0.0566 -0.4315
 6127SOL    HW124727   3.181   4.175   4.124  1.4916 -0.4015  0.1590
 6127SOL    HW224728   3.208   4.322   4.150  0.7424 -0.2264 -0.0128
 6128SOL     OW24729   7.589   6.208   1.716  0.1248  0.3442  0.5023
 6128SOL    HW124730   7.629   6.164   1.791 -0.1341 -1.4125 -0.3181
 6128SOL    HW224731   7.656   6.204   1.648 -0.8272 -1.2648 -0.4107
 6129SOL     OW24732   1.008   4.472   8.115 -0.4232 -0.2270  0.1033
 6129SOL    HW124733   1.017   4.433   8.203 -3.0644 -1.6330 -0.1274
 6129SOL    HW224734   0.937   4.536   8.125  1.5731  2.2109 -0.3287
 6130SOL     OW24735   2.125   1.843   4.622  0.7218 -0.0347 -0.3536
 6130SOL    HW124736   2.065   1.787   4.574  1.0138  0.5780 -1.4656
 6130SOL    HW224737   2.208   1.838   4.573  1.7429 -1.2144  1.3944
 6131SOL     OW24738   2.853   1.898   7.507  0.0115  0.3073 -0.0149
 6131SOL    HW124739   2.919   1.962   7.479  1.1007 -0.8478 -0.1967
 6131SOL    HW224740   2.821   1.859   7.426  0.9959 -0.9293  0.1504
 6132SOL     OW24741   5.160   5.831   1.021  0.8127  0.6436  0.2449
 6132SOL    HW124742   5.076   5.805   1.060  1.0056 -1.2602 -0.5352
 6132SOL    HW224743   5.137   5.906   0.965 -0.2401  0.6280  0.6237
 6133SOL     OW24744   6.928   6.521   3.426 -0.0255 -0.3553 -0.0650
 6133SOL    HW124745   6.836   6.511   3.402  0.4647 -1.0780 -1.8749
 6133SOL    HW224746   6.934   6.487   3.515 -1.3931 -0.9331 -0.1673
 6134SOL     OW24747   0.609   3.088   6.488  0.5474 -0.4441  0.5634
 6134SOL    HW124748   0.568   3.168   6.520 -2.4579 -2.3346  1.9025
 6134SOL    HW224749   0.660   3.057   6.562 -1.1253 -1.4719  1.3414
 6135SOL     OW24750   0.703   5.951   2.949 -0.0383  0.3775 -0.4954
 6135SOL    HW124751   0.698   6.016   3.019  0.9875  0.2581 -0.2940
 6135SOL    HW224752   0.653   5.989   2.877  0.8999  1.5866 -0.5319
 6136SOL     OW24753   0.106   2.635   2.717 -0.4579  0.0951  0.2785
 6136SOL    HW124754   0.060   2.611   2.797  0.6795  4.6371  2.5899
 6136SOL    HW224755   0.199   2.623   2.738 -0.0582  2.7091  0.3534
 6137SOL     OW24756   0.649   8.681   8.317  0.2816 -0.3531 -0.3991
 6137SOL    HW124757   0.658   8.601   8.265 -0.7562  0.8437 -2.5476
 6137SOL    HW224758   0.692   8.748   8.264 -1.4919  1.0731 -0.0977
 6138SOL     OW24759   1.367   4.922   4.467 -0.3066 -0.1195  0.1805
 6138SOL    HW124760   1.428   4.943   4.396  0.9905  0.2019  1.3528
 6138SOL    HW224761   1.389   4.984   4.537 -0.8297 -1.1128  1.2664
 6139SOL     OW24762   0.430   6.738   8.534 -0.2149  0.2880  0.1325
 6139SOL    HW124763   0.483   6.813   8.563 -0.6731  0.1951  1.2436
 6139SOL    HW224764   0.344   6.753   8.571 -0.6897 -0.1179 -0.7673
 6140SOL     OW24765   1.109   0.248   0.052 -0.0655  0.2359  0.1632
 6140SOL    HW124766   1.059   0.296   0.119 -0.7149 -0.8295  0.4740
 6140SOL    HW224767   1.136   0.167   0.096  0.3182 -0.0468 -0.5813
 6141SOL     OW24768   9.174   8.284   1.013  0.3690  0.4049  0.0599
 6141SOL    HW124769   9.083   8.268   0.986 -0.2258  0.1973  2.0628
 6141SOL    HW224770   9.225   8.273   0.932 -0.8754 -3.6790 -0.3977
 6142SOL     OW24771   0.411   0.310   1.151 -0.5357 -0.0874  0.2622
 6142SOL    HW124772   0.327   0.343   1.183 -0.8983 -1.1832  0.4893
 6142SOL    HW224773   0.476   0.350   1.209 -0.9152  0.6170  0.2047
 6143SOL     OW24774   0.258   4.394   2.838 -0.1673  0.2095  0.5754
 6143SOL    HW124775   0.262   4.306   2.802 -1.3186  0.0287  0.8232
 6143SOL    HW224776   0.305   4.388   2.921  1.2057  0.2590 -0.1842
 6144SOL     OW24777   0.544   1.538   6.227 -0.1756  0.2959 -0.4022
 6144SOL    HW124778   0.623   1.592   6.230  0.7800 -0.9061 -2.0805
 6144SOL    HW224779   0.576   1.448   6.228 -1.6406 -0.2633  0.5564
 6145SOL     OW24780   8.460   4.207   3.524  0.0380 -0.6322  0.1879
 6145SOL    HW124781   8.472   4.182   3.615 -1.6151 -1.9105  0.1085
 6145SOL    HW224782   8.379   4.163   3.497  0.6436 -0.5651 -1.9864
 6146SOL     OW24783   7.371   0.420   2.335  0.0007  0.6318  0.1159
 6146SOL    HW124784   7.307   0.408   2.406 -0.1736 -0.4876 -0.2031
 6146SOL    HW224785   7.321   0.459   2.264 -0.1267  0.5818  0.1770
 6147SOL     OW24786   2.042   8.169   2.480 -0.2112  0.4196 -0.0260
 6147SOL    HW124787   1.998   8.178   2.395  0.0037  3.8888  0.0710
 6147SOL    HW224788   2.135   8.181   2.461 -0.3434  3.6661  0.8176
 6148SOL     OW24789   5.608   2.696   0.224  0.4516  0.3137  0.2967
 6148SOL    HW124790   5.537   2.641   0.256 -0.7617  0.2633 -2.2341
 6148SOL    HW224791   5.597   2.780   0.269 -0.7542  0.0658  0.4802
 6149SOL     OW24792   8.435   4.838   3.704  0.6254  0.1009  0.0335
 6149SOL    HW124793   8.365   4.873   3.649 -1.2208 -0.0029  2.1939
 6149SOL    HW224794   8.440   4.745   3.681  0.0435  0.1118 -0.1448
 6150SOL     OW24795   0.071   1.835   5.024 -0.0391  0.1599 -0.2101
 6150SOL    HW124796   0.028   1.909   5.067 -0.2904  0.1970 -0.5192
 6150SOL    HW224797   0.018   1.759   5.050 -1.2162  0.3815 -1.7735
 6151SOL     OW24798   3.845   4.880   1.496 -0.0832  0.2244 -0.2450
 6151SOL    HW124799   3.922   4.867   1.441  0.0646 -2.0151  0.3857
 6151SOL    HW224800   3.792   4.802   1.483 -1.8414  1.3282  0.0100
 6152SOL     OW24801   3.505   2.722   9.177  0.1762  0.0763  0.1398
 6152SOL    HW124802   3.532   2.812   9.158 -1.3934  0.5742  0.1581
 6152SOL    HW224803   3.574   2.688   9.234  1.0428  1.0932 -0.2784
 6153SOL     OW24804   3.298   0.669   2.407 -0.2393 -0.4831 -0.2007
 6153SOL    HW124805   3.317   0.711   2.491 -2.0299 -0.7584  0.3805
 6153SOL    HW224806   3.344   0.585   2.412  0.9306  0.1340 -0.1557
 6154SOL     OW24807   8.214   3.355   2.456 -0.5849  0.2441 -0.6064
 6154SOL    HW124808   8.183   3.323   2.371 -1.3852  1.8891 -0.9784
 6154SOL    HW224809   8.197   3.282   2.516 -2.3865 -0.0487 -1.3875
 6155SOL     OW24810   4.734   6.194   7.615 -0.1378  0.0999 -0.3408
 6155SOL    HW124811   4.685   6.235   7.544 -0.7839  0.2602  0.1915
 6155SOL    HW224812   4.667   6.167   7.678  0.4912  0.8242  0.6667
 6156SOL     OW24813   1.178   4.583   1.196  0.0294 -0.0725 -0.0979
 6156SOL    HW124814   1.237   4.651   1.228 -1.2724  0.3311  1.5534
 6156SOL    HW224815   1.220   4.501   1.222 -0.4762  0.2285  1.8002
 6157SOL     OW24816   3.338   0.619   6.254  0.2609 -0.4230  0.0453
 6157SOL    HW124817   3.335   0.633   6.348  0.3780  0.1581 -0.0313
 6157SOL    HW224818   3.340   0.708   6.217 -0.0019 -0.6437 -0.5081
 6158SOL     OW24819   4.686   2.919   6.396 -0.4237 -0.0959  0.3085
 6158SOL    HW124820   4.598   2.938   6.363 -0.1344 -0.9270 -1.0015
 6158SOL    HW224821   4.670   2.876   6.480 -1.2016  1.2376  0.8853
 6159SOL     OW24822   6.115   1.744   0.165  0.2288  0.4495  0.0958
 6159SOL    HW124823   6.136   1.802   0.091  0.7195  0.2631  0.0794
 6159SOL    HW224824   6.077   1.802   0.231 -0.3752  0.5896 -0.3673
 6160SOL     OW24825   7.218   5.879   3.031 -0.3905  0.5356  0.3814
 6160SOL    HW124826   7.202   5.906   2.941 -1.0365 -0.3659  0.2143
 6160SOL    HW224827   7.252   5.790   3.024  0.1736  0.6918  0.9998
 6161SOL     OW24828   7.117   7.499   0.196 -0.2604 -0.0726  0.2146
 6161SOL    HW124829   7.209   7.473   0.189  0.1325  0.8579  1.5399
 6161SOL    HW224830   7.092   7.525   0.108  1.5065  2.0520  0.2616
 6162SOL     OW24831   7.752   4.206   7.685 -0.1189 -0.2041  0.1457
 6162SOL    HW124832   7.829   4.161   7.721  0.8747 -1.9842 -3.6087
 6162SOL    HW224833   7.680   4.183   7.743  1.3395 -2.5727  1.1537
 6163SOL     OW24834   5.733   6.377   2.699  0.0542  0.5343 -0.5191
 6163SOL    HW124835   5.719   6.334   2.783 -0.7434 -0.2472 -1.0302
 6163SOL    HW224836   5.818   6.346   2.669  0.2355  0.6332 -0.1128
 6164SOL     OW24837   2.069   7.995   1.288 -0.4007 -0.0274  0.2472
 6164SOL    HW124838   2.142   8.055   1.302 -0.3030 -0.2480  0.7046
 6164SOL    HW224839   2.050   7.960   1.375 -1.1262  0.1153  0.1588
 6165SOL     OW24840   2.727   3.424   5.889  0.3564 -0.1262  0.0256
 6165SOL    HW124841   2.810   3.470   5.899  0.7155 -0.8186  0.3201
 6165SOL    HW224842   2.746   3.334   5.916  0.0039 -0.7723 -1.7079
 6166SOL     OW24843   8.181   6.249   8.859  0.0610  1.0409 -0.4398
 6166SOL    HW124844   8.273   6.230   8.842 -0.0384 -0.2159  0.3010
 6166SOL    HW224845   8.137   6.230   8.776  0.1724 -0.7567 -0.1440
 6167SOL     OW24846   0.373   0.991   9.112 -0.2133 -0.0169  0.2260
 6167SOL    HW124847   0.398   1.077   9.147  1.3451  0.3982 -1.6671
 6167SOL    HW224848   0.282   0.980   9.138 -0.8680  2.7929 -0.4996
 6168SOL     OW24849   3.355   3.742   0.824  0.0881 -0.2585 -0.2009
 6168SOL    HW124850   3.376   3.826   0.867 -0.1043 -0.6585  0.7054
 6168SOL    HW224851   3.319   3.688   0.894  1.1091 -1.4403 -0.5489
 6169SOL     OW24852   2.529   3.594   5.995 -0.3832 -0.9016  0.0422
 6169SOL    HW124853   2.610   3.549   5.972 -1.1514 -1.5887 -1.4887
 6169SOL    HW224854   2.501   3.636   5.913 -1.4699 -0.5251  0.5875
 6170SOL     OW24855   6.476   0.013   1.055  0.3205 -0.1718  0.3033
 6170SOL    HW124856   6.556  -0.034   1.031  0.1257 -0.0495 -0.6135
 6170SOL    HW224857   6.499   0.105   1.047 -0.0707 -0.1406 -0.5243
 6171SOL     OW24858   0.419   2.800   6.447 -0.3104  0.0362  0.0234
 6171SOL    HW124859   0.485   2.825   6.382 -2.2316 -0.7432 -2.3806
 6171SOL    HW224860   0.425   2.867   6.515  3.1816 -0.2311  0.1474
 6172SOL     OW24861   1.982   6.456   3.576  0.2905  0.6703 -0.0340
 6172SOL    HW124862   2.051   6.520   3.591 -0.8467  1.8366  0.4250
 6172SOL    HW224863   1.911   6.507   3.535 -0.5725 -0.3217  0.1928
 6173SOL     OW24864   5.182   0.120   0.373  0.3006  0.5636 -0.7187
 6173SOL    HW124865   5.123   0.056   0.333  1.1251 -0.0810 -0.9512
 6173SOL    HW224866   5.163   0.117   0.466  2.5573 -2.5458 -0.1874
 6174SOL     OW24867   8.702   7.981   4.068 -0.2193  0.4032  0.3440
 6174SOL    HW124868   8.649   8.060   4.077  0.0113  0.5945  0.0882
 6174SOL    HW224869   8.772   8.007   4.006  0.7380  0.4576  1.4158
 6175SOL     OW24870   1.821   0.188   7.931 -0.7312  0.7345  0.5945
 6175SOL    HW124871   1.907   0.168   7.895 -1.0825  0.0023  0.1216
 6175SOL    HW224872   1.776   0.234   7.860 -1.3845 -0.6071  0.0971
 6176SOL     OW24873   6.164   1.716   5.316 -0.1838  0.6856  0.1013
 6176SOL    HW124874   6.156   1.620   5.319  1.8489  0.4743  2.3544
 6176SOL    HW224875   6.258   1.732   5.309 -0.3896  2.5064  0.8803
 6177SOL     OW24876   5.669   2.682   2.456  0.1833  0.8768 -0.1276
 6177SOL    HW124877   5.727   2.722   2.391  1.2098 -0.7675 -0.2814
 6177SOL    HW224878   5.635   2.604   2.414 -0.0437  0.3926  0.9134
 6178SOL     OW24879   4.189   4.787   8.342 -0.1281 -0.0932 -0.2562
 6178SOL    HW124880   4.112   4.749   8.383 -0.0191 -1.1594 -0.9935
 6178SOL    HW224881   4.252   4.714   8.337  0.5591  0.5064 -0.5530
 6179SOL     OW24882   8.817   5.532   6.593  0.0247 -0.4328  0.7611
 6179SOL    HW124883   8.892   5.572   6.548  0.2064 -0.5094  0.9980
 6179SOL    HW224884   8.750   5.600   6.593  0.8428  0.4333  2.5212
 6180SOL     OW24885   6.985   9.058   8.235 -0.1661 -0.1510 -0.1718
 6180SOL    HW124886   6.974   9.152   8.247  0.3475  0.0900 -1.4618
 6180SOL    HW224887   6.999   9.024   8.324  2.6625  1.4066  0.0964
 6181SOL     OW24888   2.129   8.269   3.197 -0.1802 -0.5925 -0.5387
 6181SOL    HW124889   2.192   8.228   3.256 -0.6750 -0.7147 -0.0910
 6181SOL    HW224890   2.054   8.291   3.252 -0.3226  0.0309 -0.9612
 6182SOL     OW24891   0.062   3.212   2.958  0.4850 -0.3385  0.2348
 6182SOL    HW124892   0.087   3.228   2.867 -0.6201  2.5137  0.3237
 6182SOL    HW224893  -0.008   3.147   2.953 -0.3511  0.6191 -1.0987
 6183SOL     OW24894   6.719   2.176   4.173  0.1866  0.3469 -0.2039
 6183SOL    HW124895   6.714   2.272   4.183  0.6714  0.2207  1.8224
 6183SOL    HW224896   6.629   2.146   4.182  0.2383  0.5132  1.1633
 6184SOL     OW24897   3.968   3.889   8.542 -0.0505  0.4936 -0.6289
 6184SOL    HW124898   4.002   3.803   8.567 -0.0095  0.6411 -0.1629
 6184SOL    HW224899   4.032   3.951   8.578 -1.2585  0.8185  1.0354
 6185SOL     OW24900   4.562   6.681   6.343 -0.0331  0.1909 -1.0089
 6185SOL    HW124901   4.520   6.595   6.353  0.4019  0.2127  1.6168
 6185SOL    HW224902   4.656   6.662   6.347  0.0681  0.7579 -0.5442
 6186SOL     OW24903   4.302   2.395   2.032 -0.3511 -0.1293 -0.2371
 6186SOL    HW124904   4.293   2.301   2.048 -0.0666 -0.2450 -0.7599
 6186SOL    HW224905   4.357   2.402   1.954  0.2467  0.4890  0.2222
 6187SOL     OW24906   4.196   0.498   4.147 -0.1565  0.0663 -0.4600
 6187SOL    HW124907   4.144   0.528   4.072  1.3787 -0.8460 -1.9646
 6187SOL    HW224908   4.141   0.433   4.190 -0.9144  0.3064 -1.0432
 6188SOL     OW24909   8.844   3.053   6.217 -0.0256 -0.4747  1.0117
 6188SOL    HW124910   8.836   3.076   6.310  0.2951 -0.6504  1.0835
 6188SOL    HW224911   8.865   2.960   6.217 -1.6743 -0.8685  0.7037
 6189SOL     OW24912   6.762   4.194   7.847 -0.1912 -0.0755  0.0068
 6189SOL    HW124913   6.767   4.144   7.766 -1.5275  1.1446 -0.8756
 6189SOL    HW224914   6.711   4.272   7.825 -1.4695 -0.1792  2.2632
 6190SOL     OW24915   6.452   0.135   6.994  0.1962 -0.3539  0.6428
 6190SOL    HW124916   6.505   0.192   7.049  0.2768  0.3338 -0.1147
 6190SOL    HW224917   6.364   0.142   7.030 -0.2252  1.8971 -0.6135
 6191SOL     OW24918   5.343   2.855   7.778 -0.7070 -0.3570  0.2731
 6191SOL    HW124919   5.253   2.822   7.771 -0.2403 -1.5993 -0.1786
 6191SOL    HW224920   5.375   2.818   7.860 -0.6798  0.2804  0.5514
 6192SOL     OW24921   3.241   1.460   5.416 -0.0124  0.0500 -0.1858
 6192SOL    HW124922   3.150   1.480   5.441 -0.0832 -0.1983 -0.2490
 6192SOL    HW224923   3.234   1.401   5.342  0.1977  1.1477 -1.1155
 6193SOL     OW24924   5.749   4.342   7.320  0.0837  0.1373 -0.3641
 6193SOL    HW124925   5.719   4.385   7.240 -0.3437  0.6860  0.0867
 6193SOL    HW224926   5.681   4.278   7.339  0.2743 -0.1194 -0.5306
 6194SOL     OW24927   1.455   4.737   4.990  0.3292  0.1871 -0.3389
 6194SOL    HW124928   1.450   4.643   4.971 -0.4638  0.1952 -0.2106
 6194SOL    HW224929   1.457   4.742   5.085  1.0272  0.2792 -0.3545
 6195SOL     OW24930   0.613   5.376   7.800  0.3866 -0.1494  0.3927
 6195SOL    HW124931   0.637   5.373   7.707 -1.1098  0.2073 -0.0223
 6195SOL    HW224932   0.648   5.294   7.836 -0.5848 -1.1711 -0.9017
 6196SOL     OW24933   1.758   0.958   8.650  0.1073  0.9303  0.0265
 6196SOL    HW124934   1.837   0.905   8.655  0.6679  1.6731 -0.8403
 6196SOL    HW224935   1.690   0.897   8.621  0.6774  0.6117 -0.6654
 6197SOL     OW24936   8.007   2.239   8.613  0.5602 -0.0203 -0.4059
 6197SOL    HW124937   7.929   2.218   8.663  0.0153  0.0784 -1.2005
 6197SOL    HW224938   8.080   2.222   8.673  0.0220 -1.7296 -0.2069
 6198SOL     OW24939   5.255   4.454   6.828  0.3098 -0.3521 -0.0397
 6198SOL    HW124940   5.315   4.480   6.898  1.3708  1.0084 -1.3944
 6198SOL    HW224941   5.233   4.363   6.848  1.0473 -0.1785  1.7268
 6199SOL     OW24942   7.883   3.728   4.506 -0.3804  0.0855 -0.3676
 6199SOL    HW124943   7.911   3.817   4.528 -0.4033 -0.4369  2.0087
 6199SOL    HW224944   7.932   3.672   4.566 -1.2375 -1.4175 -1.0259
 6200SOL     OW24945   1.847   2.419   4.936 -0.5277 -0.0521 -0.1098
 6200SOL    HW124946   1.864   2.414   5.030  0.0312  0.1169 -0.1935
 6200SOL    HW224947   1.762   2.378   4.924 -0.3755 -0.5289  0.4097
 6201SOL     OW24948   9.062   5.116   6.146 -0.7906 -0.0918  0.6979
 6201SOL    HW124949   9.076   5.045   6.083  1.7798 -0.7413  1.8583
 6201SOL    HW224950   9.047   5.071   6.229 -3.0575  0.7620  0.8073
 6202SOL     OW24951   2.631   7.163   7.726  1.1499 -0.1145 -0.1327
 6202SOL    HW124952   2.634   7.129   7.637  1.6009  0.4548 -0.3473
 6202SOL    HW224953   2.621   7.258   7.715  2.1846  0.0721  0.3958
 6203SOL     OW24954   6.152   2.715   7.575  0.0447  0.7179 -0.0619
 6203SOL    HW124955   6.135   2.804   7.606 -1.6137  0.5763 -0.4488
 6203SOL    HW224956   6.074   2.693   7.523 -0.0378 -1.3099  0.8197
 6204SOL     OW24957   3.530   2.076   5.268  0.3681 -0.2678 -0.5040
 6204SOL    HW124958   3.593   2.046   5.202  0.4968  0.5587 -0.7709
 6204SOL    HW224959   3.520   2.001   5.327 -1.1532 -1.7282 -2.4684
 6205SOL     OW24960   2.686   6.893   6.654 -0.2157 -0.6679  0.5426
 6205SOL    HW124961   2.675   6.798   6.654  0.1432 -0.7500 -1.5231
 6205SOL    HW224962   2.598   6.927   6.638 -0.2090 -0.6785  0.4836
 6206SOL     OW24963   7.654   1.924   1.672  0.5300 -0.3063  0.2879
 6206SOL    HW124964   7.569   1.918   1.714 -0.2701 -0.0001 -1.2328
 6206SOL    HW224965   7.652   1.857   1.604  1.3166  0.0428 -0.0880
 6207SOL     OW24966   4.417   0.819   2.353 -0.0456  0.5630  0.5146
 6207SOL    HW124967   4.393   0.753   2.288  0.3219  1.5046 -0.6240
 6207SOL    HW224968   4.427   0.900   2.302  1.0576  1.1549  1.6191
 6208SOL     OW24969   7.736   2.716   3.297  0.1024 -0.2716 -0.6991
 6208SOL    HW124970   7.743   2.734   3.391 -1.0264 -0.9472 -0.4691
 6208SOL    HW224971   7.671   2.646   3.291 -0.3662  0.2591 -2.0536
 6209SOL     OW24972   3.376   1.498   4.207 -0.3203  0.4054 -0.1590
 6209SOL    HW124973   3.456   1.488   4.258  0.4312  0.4577 -1.2750
 6209SOL    HW224974   3.405   1.540   4.126 -1.6478  1.3647 -0.1684
 6210SOL     OW24975   4.099   7.730   5.488  0.0009 -0.0801 -0.1571
 6210SOL    HW124976   4.073   7.760   5.575 -0.7851 -1.3034  0.0531
 6210SOL    HW224977   4.181   7.681   5.503  1.3815  1.9877 -0.5239
 6211SOL     OW24978   3.452   5.391   8.586  0.3728  0.2214  0.4721
 6211SOL    HW124979   3.410   5.358   8.507 -1.5411 -0.9188  1.8704
 6211SOL    HW224980   3.451   5.486   8.577 -1.5547  0.1839 -0.0695
 6212SOL     OW24981   4.948   0.756   4.636 -0.0516  0.0251 -0.3141
 6212SOL    HW124982   5.018   0.797   4.687 -0.7696 -1.0268  1.6264
 6212SOL    HW224983   4.911   0.828   4.584  2.1040  0.6994 -1.0256
 6213SOL     OW24984   4.758   6.947   6.187  0.2177 -0.1168 -0.4734
 6213SOL    HW124985   4.794   6.915   6.270 -0.1388 -0.9118 -0.6178
 6213SOL    HW224986   4.820   7.014   6.158 -0.2951  1.0828  1.0467
 6214SOL     OW24987   7.931   7.301   5.696  0.2528 -0.1223  0.1630
 6214SOL    HW124988   7.901   7.389   5.677 -0.2974 -0.0283  1.3558
 6214SOL    HW224989   7.928   7.255   5.612 -2.9967 -0.0417  0.1382
 6215SOL     OW24990   2.033   8.021   5.552  0.0617 -0.2481 -0.2686
 6215SOL    HW124991   2.002   8.001   5.640 -2.5363 -0.2118 -1.1012
 6215SOL    HW224992   2.045   8.116   5.552 -2.8958  0.2089 -0.7374
 6216SOL     OW24993   2.782   6.120   3.448  0.2179 -0.2256  0.2936
 6216SOL    HW124994   2.769   6.089   3.538  1.0764  0.3952  0.6540
 6216SOL    HW224995   2.821   6.046   3.402  0.2421 -0.3840  0.5666
 6217SOL     OW24996   0.832   2.045   9.070 -0.5763 -0.1503 -0.2715
 6217SOL    HW124997   0.872   2.128   9.044  1.3683 -0.6927  0.7623
 6217SOL    HW224998   0.826   2.050   9.166  0.8162 -1.6802 -0.0611
 6218SOL     OW24999   6.810   7.689   5.706  0.0568  0.2398  0.0462
 6218SOL    HW125000   6.783   7.624   5.771 -1.2051 -0.4985 -1.1588
 6218SOL    HW225001   6.883   7.649   5.660 -1.1041 -0.6578 -1.1035
 6219SOL     OW25002   1.557   1.084   6.815  0.0244  0.1124 -0.5071
 6219SOL    HW125003   1.490   1.016   6.817  1.9590 -1.8926 -0.4596
 6219SOL    HW225004   1.610   1.064   6.738  3.2135 -1.1524  1.7872
 6220SOL     OW25005   5.985   8.236   6.072 -0.3111  0.4292 -0.3587
 6220SOL    HW125006   5.943   8.150   6.065  0.6830  0.0335 -2.5702
 6220SOL    HW225007   5.950   8.285   5.997  1.9119  0.5897 -1.3855
 6221SOL     OW25008   3.721   2.252   4.563  0.4052 -0.6798 -0.4491
 6221SOL    HW125009   3.800   2.221   4.607 -0.5278 -0.0316  1.8848
 6221SOL    HW225010   3.659   2.180   4.572 -0.6614  0.4137  1.8918
 6222SOL     OW25011   2.947   0.883   0.914 -0.9384 -0.0654 -0.4813
 6222SOL    HW125012   2.906   0.815   0.860 -0.7175 -1.0349  0.5209
 6222SOL    HW225013   3.040   0.860   0.915 -1.0613 -0.6108  1.0190
 6223SOL     OW25014   3.819   1.326   5.345 -0.0872 -0.5266  0.1006
 6223SOL    HW125015   3.764   1.300   5.419  0.3853 -0.5629  0.4494
 6223SOL    HW225016   3.901   1.355   5.386  0.8784 -2.2874 -0.4719
 6224SOL     OW25017   4.483   5.765   0.115 -0.3913  0.6037  0.1200
 6224SOL    HW125018   4.412   5.777   0.052  0.2567  2.7011 -0.2836
 6224SOL    HW225019   4.541   5.839   0.100  0.6169  0.2847  2.1296
 6225SOL     OW25020   2.850   0.962   5.976 -0.5296  0.5152  0.2176
 6225SOL    HW125021   2.932   0.972   5.928  0.0643 -1.3293  0.7798
 6225SOL    HW225022   2.833   1.050   6.012  0.5397  1.2093 -0.8909
 6226SOL     OW25023   2.515   2.479   3.247 -0.8843 -0.1530  0.3890
 6226SOL    HW125024   2.476   2.501   3.162 -1.6961 -0.1617  0.7423
 6226SOL    HW225025   2.525   2.564   3.291 -0.0290 -0.1035  0.1105
 6227SOL     OW25026   6.277   7.312   8.887 -0.2700 -0.7123 -0.5699
 6227SOL    HW125027   6.245   7.373   8.821 -0.7138 -0.3597 -0.0375
 6227SOL    HW225028   6.345   7.262   8.843  1.1849  1.1971 -0.5915
 6228SOL     OW25029   6.038   8.696   6.442 -0.4251  0.7657  0.5608
 6228SOL    HW125030   6.043   8.640   6.364 -2.2519 -0.9149  1.5564
 6228SOL    HW225031   6.101   8.656   6.503 -1.4107  0.0169  1.1127
 6229SOL     OW25032   8.520   1.222   8.322  0.9070 -0.6482 -0.1457
 6229SOL    HW125033   8.570   1.144   8.344  1.2966 -0.6531 -1.0005
 6229SOL    HW225034   8.432   1.189   8.303  0.8833 -0.7874  0.1999
 6230SOL     OW25035   7.135   4.785   6.899 -0.3989  0.2172 -0.0691
 6230SOL    HW125036   7.194   4.836   6.956 -0.1858 -0.9424  0.7776
 6230SOL    HW225037   7.074   4.742   6.959 -0.7937 -0.2535 -0.7934
 6231SOL     OW25038   1.937   7.988   6.738 -0.1419 -0.7531 -0.3371
 6231SOL    HW125039   1.993   8.065   6.730 -0.0446 -0.8788 -0.9102
 6231SOL    HW225040   1.997   7.918   6.762  0.4341 -1.4511 -3.3845
 6232SOL     OW25041   5.922   1.091   1.728 -0.4915  0.3075 -0.0292
 6232SOL    HW125042   5.958   1.165   1.679 -1.8166  0.2273 -1.2072
 6232SOL    HW225043   5.912   1.022   1.663  0.7532 -0.9692  1.0568
 6233SOL     OW25044   5.648   3.413   5.180  0.4179 -0.5263 -0.0165
 6233SOL    HW125045   5.672   3.370   5.262 -0.0420 -1.9782 -0.6000
 6233SOL    HW225046   5.630   3.340   5.120  0.7032  0.5002 -1.3905
 6234SOL     OW25047   8.642   6.659   5.955 -0.4043  0.4015  0.3158
 6234SOL    HW125048   8.682   6.573   5.960 -1.8079 -0.6183 -2.9322
 6234SOL    HW225049   8.559   6.650   6.001 -0.5144  0.0211  0.0489
 6235SOL     OW25050   2.897   3.605   1.479  0.0361  0.0451  0.5154
 6235SOL    HW125051   2.964   3.669   1.503 -0.3251 -0.3335  2.7029
 6235SOL    HW225052   2.846   3.649   1.411  1.1208  1.2013  0.3971
 6236SOL     OW25053   5.601   0.006   7.010 -0.4635  0.1910  0.5092
 6236SOL    HW125054   5.567   0.093   7.032 -2.8364 -0.4075 -0.4454
 6236SOL    HW225055   5.558  -0.016   6.927 -0.6576 -2.2526  1.1740
 6237SOL     OW25056   2.793   1.233   6.217  0.7891  0.1355 -0.5226
 6237SOL    HW125057   2.865   1.204   6.273 -0.4463 -0.8507  0.6388
 6237SOL    HW225058   2.721   1.249   6.278  0.0587  1.2114 -1.6393
 6238SOL     OW25059   8.277   6.453   7.454  0.5191 -0.6923  0.3688
 6238SOL    HW125060   8.240   6.529   7.498 -0.5639 -0.0473 -1.5358
 6238SOL    HW225061   8.250   6.379   7.508 -0.7056  0.0656  0.8536
 6239SOL     OW25062   3.294   3.923   4.144  0.3974 -0.3631  0.3328
 6239SOL    HW125063   3.308   4.000   4.200 -2.1209  0.0678  0.4723
 6239SOL    HW225064   3.326   3.950   4.058  1.1193  0.2118  0.7673
 6240SOL     OW25065   6.871   2.284   7.855  0.0181  0.1748  0.4629
 6240SOL    HW125066   6.816   2.260   7.780 -1.7872  1.8767  1.1721
 6240SOL    HW225067   6.936   2.213   7.860 -1.0705 -1.0545 -1.4223
 6241SOL     OW25068   0.530   8.176   7.320  0.5917  0.3775 -0.1972
 6241SOL    HW125069   0.445   8.166   7.363  0.3239 -1.9359 -1.1204
 6241SOL    HW225070   0.511   8.225   7.240 -0.2755 -1.6480 -1.3097
 6242SOL     OW25071   1.152   3.425   4.014 -0.0406 -0.0324  0.3148
 6242SOL    HW125072   1.073   3.372   4.003  1.0401 -1.4170 -1.4481
 6242SOL    HW225073   1.131   3.508   3.972 -0.4129 -0.5722 -0.6047
 6243SOL     OW25074   7.833   5.742   7.491  0.6951 -0.4741  0.2242
 6243SOL    HW125075   7.874   5.663   7.525  0.6599  0.1458  1.7599
 6243SOL    HW225076   7.747   5.713   7.460  0.8787 -1.1163  0.2953
 6244SOL     OW25077   4.557   5.035   6.415 -0.0576  0.5703 -0.0907
 6244SOL    HW125078   4.608   5.109   6.380  0.4251  0.8103  1.0910
 6244SOL    HW225079   4.579   5.032   6.508 -1.5778  0.1551  0.2848
 6245SOL     OW25080   1.580   6.548   1.283  0.8179 -0.5361 -0.0309
 6245SOL    HW125081   1.641   6.506   1.223  1.2074  0.6101 -0.4597
 6245SOL    HW225082   1.635   6.602   1.340  0.3751 -0.9869  0.8328
 6246SOL     OW25083   0.348   8.685   0.956 -0.2948  0.6040  0.0631
 6246SOL    HW125084   0.276   8.622   0.958 -1.2180  1.6100 -0.2784
 6246SOL    HW225085   0.426   8.632   0.941 -1.0476 -0.4589 -0.2070
 6247SOL     OW25086   1.730   6.395   9.207 -0.2932  0.3181  0.3731
 6247SOL    HW125087   1.665   6.458   9.239 -0.9569 -0.7093  1.1251
 6247SOL    HW225088   1.781   6.444   9.142 -1.2586  1.4001  0.3959
 6248SOL     OW25089   8.607   5.022   7.531  0.4903  0.0204 -0.3512
 6248SOL    HW125090   8.675   5.055   7.471  1.2046  0.4078  0.6352
 6248SOL    HW225091   8.600   4.929   7.510  2.0905 -0.2700  0.1912
 6249SOL     OW25092   4.478   0.755   6.568  0.1207  0.0527  0.0072
 6249SOL    HW125093   4.481   0.817   6.641  0.0080  3.1699 -2.3963
 6249SOL    HW225094   4.566   0.761   6.529  0.6412 -2.6256  0.6098
 6250SOL     OW25095   7.152   7.574   9.182  0.4822  0.3382  0.4329
 6250SOL    HW125096   7.060   7.550   9.173  0.5456  0.3180 -0.2947
 6250SOL    HW225097   7.199   7.502   9.138  0.9173 -0.2229  1.7731
 6251SOL     OW25098   2.089   4.265   5.140 -0.1367  0.3986  0.2003
 6251SOL    HW125099   2.050   4.300   5.060  0.9863  0.6937 -0.2437
 6251SOL    HW225100   2.111   4.174   5.118  0.7158  0.6548 -0.0395
 6252SOL     OW25101   4.835   8.405   0.893  0.3241  0.0806  0.1805
 6252SOL    HW125102   4.859   8.445   0.809  2.6888  1.8188  1.5618
 6252SOL    HW225103   4.781   8.471   0.937 -0.0614 -0.3921  0.4217
 6253SOL     OW25104   2.660   9.219   6.432 -0.4595 -0.1986  0.0430
 6253SOL    HW125105   2.590   9.174   6.385  0.9651 -2.6512  0.1148
 6253SOL    HW225106   2.637   9.312   6.425 -1.0638 -0.4765 -4.2537
 6254SOL     OW25107   7.050   5.648   8.176 -0.2067 -0.5305  0.5550
 6254SOL    HW125108   7.079   5.589   8.245 -0.7315 -0.6421  0.6855
 6254SOL    HW225109   6.957   5.662   8.194  0.4883  2.8066  2.3803
 6255SOL     OW25110   1.857   1.585   7.043 -0.2036 -0.4042  0.5838
 6255SOL    HW125111   1.906   1.655   7.001 -1.3751  0.5840  0.7964
 6255SOL    HW225112   1.901   1.572   7.127  0.0232  0.0848  0.5447
 6256SOL     OW25113   7.536   1.106   7.884  0.2534  0.0645 -0.1742
 6256SOL    HW125114   7.553   1.151   7.967 -0.6366 -0.2095  0.1623
 6256SOL    HW225115   7.520   1.177   7.822  1.4831  0.2930 -0.2560
 6257SOL     OW25116   3.410   3.072   1.505 -0.7288 -0.2207 -0.1542
 6257SOL    HW125117   3.402   2.992   1.454  1.1027 -0.4446 -0.1685
 6257SOL    HW225118   3.448   3.044   1.588 -0.5638  0.5615  0.0417
 6258SOL     OW25119   0.786   5.369   3.414  0.0942 -0.3089  0.0360
 6258SOL    HW125120   0.760   5.303   3.479  0.9755 -3.4349 -2.4787
 6258SOL    HW225121   0.874   5.396   3.440 -0.8701  1.2180  1.9709
 6259SOL     OW25122   8.271   2.823   7.478  0.4962 -0.1205  0.1940
 6259SOL    HW125123   8.269   2.875   7.397  0.6218  1.2217  1.0303
 6259SOL    HW225124   8.332   2.869   7.535 -0.2982 -0.5302  1.4097
 6260SOL     OW25125   5.737   7.603   2.811  0.2158  0.2379  0.3459
 6260SOL    HW125126   5.761   7.687   2.850  0.5695  0.4349 -0.3008
 6260SOL    HW225127   5.791   7.539   2.857  2.1974  0.6941 -1.2525
 6261SOL     OW25128   5.975   3.864   1.835 -0.5331 -0.0237 -0.0942
 6261SOL    HW125129   6.061   3.887   1.799 -0.4674 -1.1517 -0.6952
 6261SOL    HW225130   5.915   3.872   1.760 -1.1969  1.9325  0.5866
 6262SOL     OW25131   5.461   0.371   1.077  0.8412  0.3156  1.0953
 6262SOL    HW125132   5.488   0.366   0.986  0.7967 -2.0351  1.1365
 6262SOL    HW225133   5.365   0.364   1.075  0.8188  0.5244  1.3142
 6263SOL     OW25134   6.674   0.467   8.947  0.0065 -0.5248  0.3985
 6263SOL    HW125135   6.633   0.385   8.975  2.3343 -1.6202  0.8272
 6263SOL    HW225136   6.726   0.444   8.871  2.1409  0.1010  1.5847
 6264SOL     OW25137   5.270   4.939   1.949 -0.4110  0.4786  0.2963
 6264SOL    HW125138   5.327   4.974   2.017 -0.9804  0.2439  0.9157
 6264SOL    HW225139   5.252   4.849   1.978  1.4086 -0.5504 -1.4924
 6265SOL     OW25140   2.009   9.119   8.855  0.5029 -0.6733  0.0677
 6265SOL    HW125141   2.061   9.199   8.863 -0.5997  0.0136  0.6304
 6265SOL    HW225142   1.944   9.139   8.788  0.7536 -1.4102 -0.4010
 6266SOL     OW25143   1.621   5.117   1.873 -0.5555  0.5242  0.1155
 6266SOL    HW125144   1.688   5.177   1.907 -0.1467  0.4861 -0.6018
 6266SOL    HW225145   1.558   5.109   1.944 -0.5119  1.6463  0.2988
 6267SOL     OW25146   7.416   3.402   7.897 -0.0257  0.0420  0.3897
 6267SOL    HW125147   7.393   3.402   7.805  1.1270 -0.2611  0.0784
 6267SOL    HW225148   7.499   3.354   7.901  0.6581  1.2391  1.3849
 6268SOL     OW25149   5.720   2.476   3.323  0.5554  0.3450 -0.3806
 6268SOL    HW125150   5.745   2.414   3.391  1.1983  0.4466 -0.5188
 6268SOL    HW225151   5.792   2.538   3.319  0.2439  0.6902 -0.7377
 6269SOL     OW25152   1.929   0.291   1.416  0.1265  0.3657 -0.1577
 6269SOL    HW125153   1.988   0.269   1.344  0.2974 -2.3819  0.7301
 6269SOL    HW225154   1.853   0.331   1.374  0.4487 -0.6935 -1.8082
 6270SOL     OW25155   1.926   3.113   5.859 -0.0277 -0.0294  0.2387
 6270SOL    HW125156   2.003   3.063   5.834 -0.4837 -0.5554 -0.1321
 6270SOL    HW225157   1.954   3.163   5.936  1.1472  1.0052 -0.8157
 6271SOL     OW25158   0.410   0.908   5.068  0.7634 -0.8741  0.2460
 6271SOL    HW125159   0.445   0.939   4.984 -5.4453 -0.9603 -2.9786
 6271SOL    HW225160   0.394   0.815   5.054  0.6611 -1.1656  2.0721
 6272SOL     OW25161   4.769   2.669   3.084 -0.2925 -0.3555 -0.2252
 6272SOL    HW125162   4.781   2.625   3.169 -0.3438 -0.6821 -0.3857
 6272SOL    HW225163   4.728   2.753   3.106 -1.0713 -0.7899 -0.0006
 6273SOL     OW25164   4.096   5.368   3.151  0.6271  0.5652  0.2597
 6273SOL    HW125165   4.055   5.282   3.144  0.7076  0.6136 -0.9734
 6273SOL    HW225166   4.189   5.351   3.136  1.1299  0.4475  3.0622
 6274SOL     OW25167   2.328   1.849   6.105  0.6214  0.3487 -0.2686
 6274SOL    HW125168   2.405   1.887   6.148 -0.5765  0.7660  1.6198
 6274SOL    HW225169   2.272   1.822   6.177 -0.3333 -1.3997 -1.6054
 6275SOL     OW25170   2.075   7.694   2.923  0.0506  0.1930 -0.6110
 6275SOL    HW125171   2.017   7.768   2.938 -1.4684 -1.2272  1.0536
 6275SOL    HW225172   2.118   7.680   3.007  1.9282  0.4517 -1.4903
 6276SOL     OW25173   3.649   4.312   3.427  0.4220 -0.1421 -0.1718
 6276SOL    HW125174   3.670   4.320   3.520  0.5888  2.0557 -0.3424
 6276SOL    HW225175   3.557   4.336   3.420 -0.1354 -2.1859 -0.3764
 6277SOL     OW25176   7.754   7.391   7.920 -0.4819  0.6019 -0.4010
 6277SOL    HW125177   7.837   7.379   7.967 -0.4014  0.5120 -0.5637
 6277SOL    HW225178   7.781   7.430   7.836 -0.6380  0.9090 -0.3093
 6278SOL     OW25179   9.026   8.309   8.805 -0.2032 -0.6024  0.0420
 6278SOL    HW125180   8.949   8.324   8.860 -0.5993 -0.3098 -0.5820
 6278SOL    HW225181   9.042   8.393   8.762  0.0990 -0.8318 -0.2994
 6279SOL     OW25182   9.230   0.264   2.313  0.4505  0.7038 -0.0460
 6279SOL    HW125183   9.272   0.307   2.387  0.5519  0.7846 -0.1487
 6279SOL    HW225184   9.193   0.336   2.261  1.2228  0.7260 -0.5866
 6280SOL     OW25185   9.221   8.904   3.175 -0.1916  0.1246  0.3901
 6280SOL    HW125186   9.156   8.939   3.237 -0.7346  0.7083 -0.4945
 6280SOL    HW225187   9.295   8.964   3.182 -0.2511  0.1894  0.4680
 6281SOL     OW25188   3.943   8.772   5.387  0.2888  0.0893 -0.2190
 6281SOL    HW125189   4.022   8.737   5.427 -0.3139  0.5689  1.4819
 6281SOL    HW225190   3.880   8.700   5.391  0.0271  0.3438  0.3194
 6282SOL     OW25191   4.426   4.367   5.910  0.2748 -0.0274 -0.3177
 6282SOL    HW125192   4.498   4.349   5.849 -0.6953 -1.3956 -1.1022
 6282SOL    HW225193   4.441   4.306   5.982 -0.7118 -1.1817 -1.0404
 6283SOL     OW25194   5.109   7.134   9.024 -0.2347 -0.2185  0.8426
 6283SOL    HW125195   5.074   7.149   8.936  0.1505  1.1602  0.8882
 6283SOL    HW225196   5.033   7.109   9.076 -0.3697 -1.6199  0.0112
 6284SOL     OW25197   1.968   5.136   3.848 -0.0140  0.6106  0.3221
 6284SOL    HW125198   1.885   5.134   3.894 -0.2649 -0.5120 -0.1510
 6284SOL    HW225199   2.034   5.123   3.917 -0.3833 -1.0471  0.3905
 6285SOL     OW25200   4.451   3.763   7.682  0.0880 -0.5042 -0.0588
 6285SOL    HW125201   4.478   3.726   7.598 -0.4195  2.4679 -1.6506
 6285SOL    HW225202   4.503   3.842   7.692 -1.0236  0.0723  1.6476
 6286SOL     OW25203   6.064   4.965   6.564  0.2548 -0.0733 -0.0074
 6286SOL    HW125204   6.092   4.997   6.479  0.1907  3.0398  1.0260
 6286SOL    HW225205   6.141   4.974   6.620 -0.1350 -0.5905  0.6273
 6287SOL     OW25206   8.282   8.151   5.234  1.0034 -0.0890  0.6618
 6287SOL    HW125207   8.285   8.214   5.162  3.8839  1.1959  1.7635
 6287SOL    HW225208   8.346   8.084   5.209 -1.3778 -2.2293 -0.0734
 6288SOL     OW25209   0.315   0.068   1.381 -0.1601  0.4012 -0.2471
 6288SOL    HW125210   0.255   0.001   1.348 -0.0405 -1.0622  2.2732
 6288SOL    HW225211   0.401   0.027   1.377 -0.1630  0.0699  1.9106
 6289SOL     OW25212   0.829   0.888   0.232  0.2498 -0.6263  0.0860
 6289SOL    HW125213   0.875   0.955   0.182  0.0537  0.5951  1.4896
 6289SOL    HW225214   0.899   0.839   0.276  0.4565 -2.0313 -1.6988
 6290SOL     OW25215   4.920   9.221   5.133  0.5851 -0.3774 -0.3395
 6290SOL    HW125216   4.969   9.141   5.154  1.3434  0.4632  1.3102
 6290SOL    HW225217   4.964   9.290   5.183 -2.2901  0.4303  1.3317
 6291SOL     OW25218   4.687   9.050   0.377 -0.1808  0.5032 -0.4215
 6291SOL    HW125219   4.595   9.076   0.388  0.3183  1.8768  0.9283
 6291SOL    HW225220   4.736   9.132   0.382  1.1809 -0.2879 -0.2594
 6292SOL     OW25221   1.047   8.566   4.223 -0.4665  0.3027  0.2016
 6292SOL    HW125222   0.956   8.564   4.252 -0.1119 -0.4603  1.3500
 6292SOL    HW225223   1.093   8.615   4.292 -0.1127  1.3301 -0.7367
 6293SOL     OW25224   2.740   1.281   8.230 -0.2130  0.1499 -0.7449
 6293SOL    HW125225   2.719   1.218   8.161  1.1042 -0.4517 -0.6344
 6293SOL    HW225226   2.766   1.227   8.304  0.1790  0.8184 -0.3902
 6294SOL     OW25227   8.758   7.324   8.170  0.1179  0.0601 -0.7272
 6294SOL    HW125228   8.737   7.401   8.117  0.6899  0.1076 -0.8875
 6294SOL    HW225229   8.850   7.335   8.192  0.0415 -0.2754 -0.2393
 6295SOL     OW25230   0.580   2.363   0.316 -0.2290  0.5494  0.1687
 6295SOL    HW125231   0.671   2.387   0.334 -0.6109  2.0708  0.1846
 6295SOL    HW225232   0.529   2.438   0.345 -1.6233 -0.7527  1.2847
 6296SOL     OW25233   2.812   1.746   4.811 -0.0851 -1.1408 -0.0759
 6296SOL    HW125234   2.896   1.787   4.790  0.3753 -2.8788 -1.9641
 6296SOL    HW225235   2.835   1.661   4.849 -1.0082 -0.8871  1.1190
 6297SOL     OW25236   3.183   2.766   7.195  0.6402 -0.4037  0.0994
 6297SOL    HW125237   3.153   2.700   7.132 -0.1962 -0.0366  0.0921
 6297SOL    HW225238   3.165   2.727   7.280  0.6675 -0.4136  0.1007
 6298SOL     OW25239   0.800   2.995   5.124 -0.0293  0.3733  0.3713
 6298SOL    HW125240   0.832   3.023   5.209  0.0360 -1.0998  0.8661
 6298SOL    HW225241   0.749   2.916   5.143 -2.2271  1.4706 -0.6393
 6299SOL     OW25242   0.909   6.413   0.732 -0.5943 -0.5120 -0.0517
 6299SOL    HW125243   0.992   6.371   0.707 -0.0513 -0.0813  0.9675
 6299SOL    HW225244   0.884   6.369   0.813 -0.8620  0.0333  0.1651
 6300SOL     OW25245   4.468   2.457   2.738  0.1284  0.1451 -0.8403
 6300SOL    HW125246   4.518   2.538   2.748  1.4292 -0.5536 -1.5032
 6300SOL    HW225247   4.406   2.475   2.668  2.3568 -0.2960 -3.0498
 6301SOL     OW25248   4.797   3.531   0.431  0.4269 -0.3060 -0.3850
 6301SOL    HW125249   4.726   3.582   0.469  1.4459 -0.1204  1.3415
 6301SOL    HW225250   4.775   3.528   0.337 -0.9098  1.2419 -0.1872
 6302SOL     OW25251   3.675   2.520   6.013  0.7496  0.3922  0.0883
 6302SOL    HW125252   3.685   2.449   5.950 -0.9924  0.8443 -0.7844
 6302SOL    HW225253   3.729   2.495   6.088 -0.2208 -2.1224  0.0399
 6303SOL     OW25254   7.459   2.065   8.536 -0.1872  0.1779 -0.3082
 6303SOL    HW125255   7.555   2.061   8.540 -0.1221  1.2200 -0.5054
 6303SOL    HW225256   7.435   2.002   8.468  0.4578  0.7536 -1.1008
 6304SOL     OW25257   8.234   6.543   4.286 -1.1160 -0.7070 -0.3508
 6304SOL    HW125258   8.151   6.567   4.243 -1.3247  0.6582  0.7264
 6304SOL    HW225259   8.301   6.586   4.233 -1.1702 -0.9690 -0.6374
 6305SOL     OW25260   1.852   3.906   3.486  0.0205 -0.0521 -0.0065
 6305SOL    HW125261   1.902   3.947   3.556  0.4267  3.0145 -1.9041
 6305SOL    HW225262   1.770   3.955   3.482 -0.5995 -1.1003 -0.7825
 6306SOL     OW25263   2.284   5.943   4.026  0.0367 -0.0042  0.0004
 6306SOL    HW125264   2.215   5.930   4.091 -0.4047  0.4507 -0.3722
 6306SOL    HW225265   2.240   5.937   3.942  0.3195  0.9086 -0.2302
 6307SOL     OW25266   5.417   4.259   5.651 -0.3897  0.7001  0.0010
 6307SOL    HW125267   5.418   4.207   5.732  0.3267  1.6585  0.6346
 6307SOL    HW225268   5.391   4.198   5.583  0.8046 -0.5741  0.6542
 6308SOL     OW25269   0.473   2.451   9.169 -0.7912 -0.0984 -0.8053
 6308SOL    HW125270   0.491   2.497   9.251 -2.1736  2.8514 -2.0540
 6308SOL    HW225271   0.552   2.398   9.155 -0.0201  0.1727  1.7967
 6309SOL     OW25272   7.723   5.251   7.561  0.0906 -0.6946 -0.0904
 6309SOL    HW125273   7.789   5.257   7.629 -1.0206  2.9346  0.9202
 6309SOL    HW225274   7.639   5.257   7.608 -0.7551  0.0424 -1.5856
 6310SOL     OW25275   4.409   0.241   5.304  0.5250 -0.7675 -0.0173
 6310SOL    HW125276   4.404   0.250   5.399  2.5301  2.2456 -0.0640
 6310SOL    HW225277   4.336   0.293   5.271  1.8165  1.0827 -0.0924
 6311SOL     OW25278   1.347   4.009   4.519 -0.1098 -0.2869 -0.8350
 6311SOL    HW125279   1.311   3.971   4.599 -0.3161 -0.1112 -0.8444
 6311SOL    HW225280   1.432   3.966   4.509 -0.0769 -0.3005 -0.5153
 6312SOL     OW25281   4.384   5.897   5.859  0.2487 -0.9588 -0.0979
 6312SOL    HW125282   4.372   5.807   5.891 -1.4687 -1.6501 -2.3442
 6312SOL    HW225283   4.312   5.946   5.899  0.8072 -0.7089  0.6229
 6313SOL     OW25284   7.808   7.706   0.358 -0.3752 -0.0502 -0.5009
 6313SOL    HW125285   7.851   7.764   0.295 -0.2665 -0.3508 -0.7066
 6313SOL    HW225286   7.806   7.621   0.315 -0.0282 -0.3295  0.0161
 6314SOL     OW25287   3.234   2.858   1.388 -0.4943 -0.0957  0.0829
 6314SOL    HW125288   3.178   2.907   1.448 -0.8185 -0.2817 -0.0695
 6314SOL    HW225289   3.287   2.802   1.445  0.9469  1.4857  0.3901
 6315SOL     OW25290   9.243   2.405   0.869 -0.3598  0.2431  0.4401
 6315SOL    HW125291   9.241   2.311   0.853  1.0870  0.4654 -1.4370
 6315SOL    HW225292   9.185   2.442   0.802 -0.1707  0.7325  0.5415
 6316SOL     OW25293   2.972   1.927   3.169 -0.0177 -0.2670 -0.5359
 6316SOL    HW125294   2.918   1.992   3.124 -1.1668 -0.5216  0.4188
 6316SOL    HW225295   2.916   1.894   3.239  1.5355 -0.2271  0.7759
 6317SOL     OW25296   9.092   3.825   4.203 -0.7520 -0.3345 -0.1353
 6317SOL    HW125297   9.087   3.737   4.241  0.6359 -0.4468 -0.1382
 6317SOL    HW225298   9.090   3.884   4.278 -2.5524 -0.3044 -0.1833
 6318SOL     OW25299   5.589   7.852   5.923  0.3725 -0.0292  0.4437
 6318SOL    HW125300   5.661   7.788   5.923  1.7576  1.4364 -1.1466
 6318SOL    HW225301   5.555   7.850   5.833  0.4967  1.5029  0.3475
 6319SOL     OW25302   3.144   8.384   7.710  0.0538  0.1094  0.8302
 6319SOL    HW125303   3.075   8.336   7.662  1.0008 -1.6009  1.0824
 6319SOL    HW225304   3.108   8.471   7.723 -1.6517 -0.4324  0.0597
 6320SOL     OW25305   7.037   0.405   5.998  0.2210  0.3061  0.2190
 6320SOL    HW125306   7.120   0.423   6.042 -0.4902 -0.6265  2.0488
 6320SOL    HW225307   6.973   0.460   6.045 -0.2197  1.0604 -1.1980
 6321SOL     OW25308   7.716   2.471   5.243  0.2991  0.5273  0.5118
 6321SOL    HW125309   7.698   2.557   5.206 -1.6140 -0.1280 -0.1865
 6321SOL    HW225310   7.693   2.410   5.173 -0.3033 -0.6186  1.6762
 6322SOL     OW25311   7.557   1.289   3.889 -0.1429 -0.2447  0.0002
 6322SOL    HW125312   7.613   1.284   3.812  0.0275  0.9037  0.0281
 6322SOL    HW225313   7.607   1.342   3.952 -1.4167  1.1901 -0.1324
 6323SOL     OW25314   4.759   2.618   1.055 -0.3489 -0.0925  0.2359
 6323SOL    HW125315   4.821   2.545   1.066 -1.0283 -0.4858  1.7329
 6323SOL    HW225316   4.698   2.608   1.127 -0.8912  1.5582  0.0414
 6324SOL     OW25317   8.566   3.013   7.371  0.1890  0.0654 -0.2533
 6324SOL    HW125318   8.478   3.050   7.381  0.2455  0.0977  0.1389
 6324SOL    HW225319   8.565   2.936   7.427  0.3275 -0.0801 -0.4532
 6325SOL     OW25320   1.156   7.391   5.220  0.0147  0.3417  0.0953
 6325SOL    HW125321   1.089   7.343   5.171 -1.0511 -1.0358  2.6363
 6325SOL    HW225322   1.127   7.384   5.311  1.7108  2.9364  0.9385
 6326SOL     OW25323   8.196   4.475   1.237  0.2800 -0.4121  0.4306
 6326SOL    HW125324   8.108   4.462   1.202  0.1519  0.1941  0.5075
 6326SOL    HW225325   8.182   4.523   1.319  0.7428  0.8103 -0.1765
 6327SOL     OW25326   1.212   4.570   7.412 -0.0891  0.3171  0.0138
 6327SOL    HW125327   1.146   4.544   7.476  0.3661  0.2309  0.4604
 6327SOL    HW225328   1.289   4.593   7.465  0.5311 -0.4416 -0.5219
 6328SOL     OW25329   1.462   6.075   7.797 -0.4446  0.0543 -0.1903
 6328SOL    HW125330   1.412   6.129   7.735 -0.9777  1.4325  1.3748
 6328SOL    HW225331   1.396   6.030   7.849 -0.1917  1.9197  1.9217
 6329SOL     OW25332   8.458   5.502   1.092  0.3975 -0.1895  0.0755
 6329SOL    HW125333   8.398   5.441   1.134  0.5086 -0.2270  0.1830
 6329SOL    HW225334   8.538   5.498   1.146 -0.2849  1.5771  1.3370
 6330SOL     OW25335   0.235   2.203   6.790 -0.2179 -0.7535  0.1533
 6330SOL    HW125336   0.153   2.249   6.772 -0.8824 -1.7687  0.5005
 6330SOL    HW225337   0.303   2.258   6.750 -0.9884  0.4499  0.4573
 6331SOL     OW25338   6.659   4.874   4.796  0.7533  0.1899  0.1350
 6331SOL    HW125339   6.582   4.871   4.852  0.7545 -0.0867  0.1242
 6331SOL    HW225340   6.632   4.927   4.721  0.0574 -1.1726 -0.6295
 6332SOL     OW25341   6.339   1.945   4.434  0.2308  0.4491 -0.1246
 6332SOL    HW125342   6.358   2.017   4.495  1.5486  0.0199 -0.0175
 6332SOL    HW225343   6.246   1.957   4.412 -0.5952  0.0438  2.7489
 6333SOL     OW25344   1.086   1.747   8.036  0.3980 -0.3556 -0.3857
 6333SOL    HW125345   1.028   1.675   8.011 -1.3975  1.5245 -2.0192
 6333SOL    HW225346   1.137   1.765   7.958  1.9562 -0.7951  0.4879
 6334SOL     OW25347   2.725   8.025   2.451 -0.6968  0.2468 -0.1594
 6334SOL    HW125348   2.724   8.120   2.455 -0.5597  0.3658 -2.0772
 6334SOL    HW225349   2.737   8.005   2.359 -0.3765 -1.6412  0.2477
 6335SOL     OW25350   4.238   9.070   3.132 -0.1073 -0.2350 -0.5949
 6335SOL    HW125351   4.261   9.030   3.048 -0.3716 -0.6401 -0.4815
 6335SOL    HW225352   4.228   8.995   3.191 -1.3409 -0.0497 -0.5525
 6336SOL     OW25353   8.748   8.399   6.356  0.1454 -0.0735  0.6830
 6336SOL    HW125354   8.691   8.415   6.431 -0.5604  1.1400 -0.0868
 6336SOL    HW225355   8.688   8.376   6.285  0.7796 -0.8555  0.3863
 6337SOL     OW25356   2.042   3.459   0.393  0.1622 -0.4696  0.0711
 6337SOL    HW125357   1.965   3.415   0.429 -0.8227  0.5044 -0.7613
 6337SOL    HW225358   2.006   3.534   0.345  1.6205 -0.0988 -0.4882
 6338SOL     OW25359   0.802   3.464   7.427 -0.1709 -0.2046  0.6111
 6338SOL    HW125360   0.709   3.465   7.406 -0.0988 -1.6977  0.1227
 6338SOL    HW225361   0.844   3.508   7.354 -0.5049  0.6854  0.9475
 6339SOL     OW25362   8.326   7.299   6.807 -0.1206 -0.3890  0.3559
 6339SOL    HW125363   8.408   7.251   6.810 -0.3440 -0.7107  2.2972
 6339SOL    HW225364   8.276   7.268   6.883 -1.8639  0.1155 -0.5128
 6340SOL     OW25365   0.995   3.810   4.996 -0.1561  0.2820  0.3110
 6340SOL    HW125366   0.942   3.770   5.065 -0.9440 -1.2394 -1.1101
 6340SOL    HW225367   1.057   3.742   4.971  0.6539  1.0902  0.0429
 6341SOL     OW25368   7.148   4.271   2.285 -0.0993  0.1683 -0.3393
 6341SOL    HW125369   7.184   4.262   2.373  0.6777 -3.2636 -0.8557
 6341SOL    HW225370   7.103   4.355   2.286  1.4949  1.1500  2.7019
 6342SOL     OW25371   1.924   4.740   0.824 -0.4186 -0.1189  0.5359
 6342SOL    HW125372   2.012   4.725   0.791 -0.1038 -0.0366  1.3127
 6342SOL    HW225373   1.884   4.653   0.828 -0.2280 -0.2056  0.5662
 6343SOL     OW25374   0.555   8.994   6.310  0.4290  0.7042 -0.4528
 6343SOL    HW125375   0.521   8.905   6.299  2.1618  0.0290 -0.7014
 6343SOL    HW225376   0.566   9.003   6.405  0.3144  0.6273 -0.4317
 6344SOL     OW25377   2.062   0.166   5.243  0.1681  0.2518 -0.2616
 6344SOL    HW125378   2.004   0.234   5.210 -0.5979 -0.7708 -1.1083
 6344SOL    HW225379   2.138   0.169   5.185  1.3468  2.0398  1.2546
 6345SOL     OW25380   0.588   0.315   9.215 -0.5649  0.1359  0.1802
 6345SOL    HW125381   0.547   0.247   9.268 -0.3139 -0.1112  0.0610
 6345SOL    HW225382   0.681   0.310   9.237 -0.3220 -0.5458 -0.9040
 6346SOL     OW25383   0.091   1.152   3.338 -0.0449 -0.7684  0.2883
 6346SOL    HW125384   0.131   1.141   3.252 -0.2559 -0.2784  0.1277
 6346SOL    HW225385   0.161   1.187   3.393 -0.6224  1.5406 -0.3621
 6347SOL     OW25386   2.054   4.300   7.890  0.4328  0.4849 -0.0403
 6347SOL    HW125387   2.001   4.243   7.834  1.1214  0.5689 -0.7971
 6347SOL    HW225388   2.025   4.388   7.869  0.4005  0.4957  0.0491
 6348SOL     OW25389   6.273   5.853   1.738 -0.0296  0.5697 -0.2995
 6348SOL    HW125390   6.326   5.792   1.789  1.7683  2.0650 -0.2526
 6348SOL    HW225391   6.279   5.820   1.648 -0.7008 -0.3843 -0.0050
 6349SOL     OW25392   7.526   3.995   7.236 -0.0163  0.2987  0.1549
 6349SOL    HW125393   7.482   4.004   7.320  0.0069 -2.6575  0.5714
 6349SOL    HW225394   7.615   4.025   7.252  0.5634 -2.0383  1.8236
 6350SOL     OW25395   0.937   8.835   8.703  0.2749  0.2198  0.2211
 6350SOL    HW125396   0.859   8.890   8.700  0.1447  0.0966  1.0835
 6350SOL    HW225397   0.919   8.771   8.772 -0.2286 -1.9218 -1.7534
 6351SOL     OW25398   8.504   7.646   3.648  0.3912  0.2552  0.4481
 6351SOL    HW125399   8.554   7.700   3.587  0.1260 -1.2939 -1.1990
 6351SOL    HW225400   8.570   7.606   3.704  0.5804  2.5192  2.0105
 6352SOL     OW25401   7.444   6.711   1.026  0.2706  0.3298 -0.4834
 6352SOL    HW125402   7.448   6.635   1.083  4.3184  0.1206 -0.7008
 6352SOL    HW225403   7.351   6.725   1.009 -0.7750 -2.7560  1.8868
 6353SOL     OW25404   4.399   8.783   5.192  0.2996 -0.3227  0.0694
 6353SOL    HW125405   4.337   8.856   5.191 -0.8341 -1.2542 -0.8723
 6353SOL    HW225406   4.464   8.807   5.258 -0.4250  1.2082  0.2641
 6354SOL     OW25407   3.077   7.104   7.303 -0.6048  0.4187  0.3324
 6354SOL    HW125408   3.136   7.072   7.371  0.4381 -1.6839 -1.4551
 6354SOL    HW225409   2.989   7.088   7.338 -0.1193  0.5949  1.6860
 6355SOL     OW25410   2.673   2.742   6.134 -0.7768 -0.2123  0.0321
 6355SOL    HW125411   2.624   2.663   6.109  2.0939 -2.1424 -0.0085
 6355SOL    HW225412   2.674   2.795   6.055 -1.3865 -0.8875 -0.4480
 6356SOL     OW25413   5.550   0.267   7.093  0.3390 -0.4006 -0.1146
 6356SOL    HW125414   5.518   0.358   7.095  0.5449 -0.3403  0.6012
 6356SOL    HW225415   5.631   0.269   7.143 -0.8766 -1.4336  2.0613
 6357SOL     OW25416   7.281   0.695   3.733  0.1422 -0.6073  0.0176
 6357SOL    HW125417   7.302   0.716   3.642  1.2937  0.7337  0.5666
 6357SOL    HW225418   7.343   0.745   3.784 -0.1978 -1.6951  1.5558
 6358SOL     OW25419   1.285   3.606   6.819 -0.3059 -0.1680 -0.6037
 6358SOL    HW125420   1.270   3.539   6.753  0.3038 -1.1121  0.1964
 6358SOL    HW225421   1.198   3.624   6.856 -0.6237  0.2427 -1.5142
 6359SOL     OW25422   7.181   1.781   8.580  0.5732  0.6754  0.1295
 6359SOL    HW125423   7.111   1.845   8.565  1.2431  1.2566 -0.5520
 6359SOL    HW225424   7.139   1.696   8.562 -0.1481  0.9553  0.4314
 6360SOL     OW25425   0.953   8.731   8.128 -0.4061 -0.3146  0.2049
 6360SOL    HW125426   0.993   8.648   8.154  1.2006  0.1084 -0.7712
 6360SOL    HW225427   0.961   8.786   8.206  0.5265 -0.3974  0.1850
 6361SOL     OW25428   8.441   5.831   0.891  0.0410 -0.1314 -0.1084
 6361SOL    HW125429   8.526   5.854   0.928  0.9414 -2.0990 -0.7961
 6361SOL    HW225430   8.386   5.813   0.968  0.2250  1.1642  0.3392
 6362SOL     OW25431   3.359   9.216   7.563  0.3208  0.4851 -0.0919
 6362SOL    HW125432   3.391   9.294   7.518  0.3447  0.9590  0.7360
 6362SOL    HW225433   3.371   9.235   7.656 -0.1533 -0.2965  0.1368
 6363SOL     OW25434   7.066   7.943   6.970 -0.0425 -0.1348 -0.5156
 6363SOL    HW125435   7.020   8.002   7.030  2.4636  0.1047  1.3743
 6363SOL    HW225436   7.080   7.994   6.891 -1.9058  0.1740 -0.6719
 6364SOL     OW25437   6.710   2.800   7.874  0.5761 -0.3024 -0.5072
 6364SOL    HW125438   6.752   2.722   7.838  6.5623  1.7189  0.8822
 6364SOL    HW225439   6.681   2.849   7.797  0.6978 -1.9355 -1.6492
 6365SOL     OW25440   1.863   2.933   4.242 -0.0666  0.8446  0.4590
 6365SOL    HW125441   1.931   3.000   4.248  0.2157  0.4323  3.2784
 6365SOL    HW225442   1.799   2.969   4.181  0.4690  3.3463  1.2643
 6366SOL     OW25443   5.252   2.243   4.204  0.3876  0.1579  0.4715
 6366SOL    HW125444   5.173   2.268   4.251 -0.1624 -0.0936 -0.2924
 6366SOL    HW225445   5.307   2.321   4.204  0.8715 -0.1298  2.4240
 6367SOL     OW25446   8.763   3.022   2.400  0.5639  0.0607 -0.8309
 6367SOL    HW125447   8.743   2.929   2.413  0.8330  0.2239  1.0201
 6367SOL    HW225448   8.718   3.045   2.318 -0.1376 -1.5028 -0.9222
 6368SOL     OW25449   0.611   4.799   8.528  0.0329  0.5299 -0.2487
 6368SOL    HW125450   0.683   4.741   8.502  0.7206  0.4842  1.6357
 6368SOL    HW225451   0.600   4.857   8.453  1.2945 -0.1664 -1.0260
 6369SOL     OW25452   4.631   8.226   1.230 -0.0369  0.2183 -0.6670
 6369SOL    HW125453   4.697   8.296   1.228 -0.1075  0.3114  0.0479
 6369SOL    HW225454   4.625   8.196   1.139  1.1595  0.0448 -0.6962
 6370SOL     OW25455   5.985   2.733   8.027  0.0245 -0.5352  0.4981
 6370SOL    HW125456   6.057   2.784   7.989 -0.6534  0.8428  0.9964
 6370SOL    HW225457   5.989   2.649   7.982  0.4744  0.3401 -1.1795
 6371SOL     OW25458   1.910   0.285   6.586 -0.1574 -0.7213  0.7060
 6371SOL    HW125459   1.886   0.193   6.600  0.9704 -0.9471  1.3627
 6371SOL    HW225460   2.000   0.281   6.553 -1.5057 -0.0230 -3.6718
 6372SOL     OW25461   2.060   0.374   8.648 -0.6880 -0.2130 -0.0733
 6372SOL    HW125462   2.114   0.354   8.724 -1.1259 -0.5282  0.1573
 6372SOL    HW225463   2.119   0.362   8.573 -0.2485  0.1331  0.2127
 6373SOL     OW25464   3.752   6.002   7.206  0.1829 -0.6512  0.1972
 6373SOL    HW125465   3.837   6.042   7.190 -0.3889  0.6291  0.2058
 6373SOL    HW225466   3.706   6.065   7.260 -1.4871 -0.3615 -1.4410
 6374SOL     OW25467   7.890   0.981   5.499 -0.0061  0.3559  0.2442
 6374SOL    HW125468   7.913   0.888   5.489 -0.5651  0.0989  1.2652
 6374SOL    HW225469   7.962   1.027   5.456 -0.2515 -0.5610 -1.2451
 6375SOL     OW25470   6.521   0.667   2.703  0.0916 -0.0148 -0.7866
 6375SOL    HW125471   6.460   0.739   2.686  0.7515  0.7927  0.1681
 6375SOL    HW225472   6.465   0.597   2.736 -0.4390  0.4155 -0.7452
 6376SOL     OW25473   6.933   5.579   4.704  0.1340  0.8287 -0.1104
 6376SOL    HW125474   6.896   5.593   4.792 -0.7994 -1.3601 -0.0939
 6376SOL    HW225475   6.863   5.608   4.645  0.7809  2.3474 -0.1832
 6377SOL     OW25476   1.677   4.950   1.401  0.1900 -0.6102 -0.2260
 6377SOL    HW125477   1.654   4.870   1.449 -4.1554  0.6983  0.3125
 6377SOL    HW225478   1.646   4.933   1.312 -0.3181  0.2670 -0.2262
 6378SOL     OW25479   7.158   0.271   6.837  0.1839 -0.2472  0.3504
 6378SOL    HW125480   7.131   0.179   6.835 -0.2054 -0.1249 -0.3312
 6378SOL    HW225481   7.076   0.320   6.847  0.0205  0.1571 -2.2493
 6379SOL     OW25482   4.434   4.824   3.798 -0.1449  0.5609  0.5939
 6379SOL    HW125483   4.376   4.896   3.824 -0.7254  0.2477  0.2062
 6379SOL    HW225484   4.512   4.866   3.764 -0.2647  0.9988  0.8604
 6380SOL     OW25485   5.267   5.536   7.236 -0.4768  1.1033  0.2147
 6380SOL    HW125486   5.224   5.559   7.153 -0.2477  0.0769 -0.2073
 6380SOL    HW225487   5.361   5.540   7.216 -0.4279  0.3572  0.2779
 6381SOL     OW25488   7.711   8.673   8.209 -0.7507 -0.7687  0.2622
 6381SOL    HW125489   7.616   8.666   8.210 -0.8526  0.2625  1.8756
 6381SOL    HW225490   7.740   8.628   8.289 -0.2045  1.7029  1.5753
 6382SOL     OW25491   4.275   0.258   3.587 -0.5345  0.0290 -0.2323
 6382SOL    HW125492   4.322   0.274   3.505  1.0427 -1.3942  0.3239
 6382SOL    HW225493   4.257   0.164   3.586 -2.5489  0.3760  0.0502
 6383SOL     OW25494   9.126   1.547   8.432 -0.5318  0.9303 -0.2833
 6383SOL    HW125495   9.196   1.602   8.468  0.9610 -0.0809 -1.4650
 6383SOL    HW225496   9.054   1.607   8.414 -0.5434  1.8032  2.2704
 6384SOL     OW25497   4.329   2.145   5.532  0.2612  0.5107 -0.2191
 6384SOL    HW125498   4.262   2.208   5.560  0.6990  1.1383 -0.5577
 6384SOL    HW225499   4.394   2.147   5.602  0.0919  0.1517 -0.0509
 6385SOL     OW25500   5.888   3.975   7.936 -0.5644 -0.4488 -0.5165
 6385SOL    HW125501   5.959   3.914   7.957 -1.9940 -1.8583  0.4182
 6385SOL    HW225502   5.929   4.038   7.877  1.5656 -0.9699  0.2818
 6386SOL     OW25503   8.941   0.174   0.469 -0.2818 -0.0000  0.3044
 6386SOL    HW125504   8.950   0.168   0.374  0.8257 -1.3420  0.4689
 6386SOL    HW225505   9.006   0.239   0.495 -0.2612  0.0201  0.2032
 6387SOL     OW25506   6.645   1.924   1.627 -0.1507 -0.0731  0.3435
 6387SOL    HW125507   6.719   1.983   1.641  0.7974 -1.0113 -0.4804
 6387SOL    HW225508   6.683   1.836   1.637 -1.5817 -0.5768  1.8807
 6388SOL     OW25509   4.757   3.031   1.875 -0.2587  0.3104 -1.0262
 6388SOL    HW125510   4.768   3.092   1.801  0.5362  1.6889  0.1658
 6388SOL    HW225511   4.684   3.067   1.925  1.1611  1.1886  0.4930
 6389SOL     OW25512   1.910   0.026   1.420 -0.1881 -0.0176  0.1740
 6389SOL    HW125513   1.875   0.009   1.332 -0.2172  0.3025  0.1204
 6389SOL    HW225514   1.915   0.121   1.425 -0.3494 -0.0302  0.5839
 6390SOL     OW25515   1.863   4.906   3.616 -0.1131 -0.5156 -0.1411
 6390SOL    HW125516   1.942   4.914   3.670 -1.5020  1.2151  1.7507
 6390SOL    HW225517   1.834   4.815   3.630  1.9001 -1.4454 -1.5087
 6391SOL     OW25518   4.777   8.636   0.429  0.2732  0.3326 -0.5418
 6391SOL    HW125519   4.733   8.588   0.498 -0.3952 -1.4597 -2.1171
 6391SOL    HW225520   4.835   8.697   0.474 -0.7620 -0.1719  1.5576
 6392SOL     OW25521   6.853   3.439   1.229  0.0557 -0.1648 -0.3017
 6392SOL    HW125522   6.785   3.476   1.173 -0.1053  0.6385  0.4024
 6392SOL    HW225523   6.842   3.484   1.313 -0.0491 -1.7223  0.5447
 6393SOL     OW25524   0.302   3.747   5.339  0.2291 -0.0308  0.4167
 6393SOL    HW125525   0.253   3.720   5.417 -0.5365 -1.4632 -0.5059
 6393SOL    HW225526   0.264   3.694   5.268  0.2691  1.8838 -1.1049
 6394SOL     OW25527   6.352   2.005   0.040 -0.4323 -0.5414 -0.7976
 6394SOL    HW125528   6.419   1.972  -0.020 -0.6009 -2.1093 -0.1743
 6394SOL    HW225529   6.391   1.999   0.127 -0.4694  0.9937 -0.6431
 6395SOL     OW25530   4.630   7.646   3.460 -0.0175 -0.1438 -0.3303
 6395SOL    HW125531   4.670   7.694   3.533 -0.3055 -0.8229  0.2850
 6395SOL    HW225532   4.546   7.690   3.446  0.0815  0.0501 -0.3165
 6396SOL     OW25533   2.487   0.170   9.045 -0.0861  0.1370  0.3415
 6396SOL    HW125534   2.466   0.084   9.010  0.3365  0.0874  0.2028
 6396SOL    HW225535   2.429   0.181   9.120  0.1672 -0.4582  0.6307
 6397SOL     OW25536   6.567   8.059   2.198  0.5710  0.3663  0.0192
 6397SOL    HW125537   6.649   8.090   2.238  0.8427  0.3175 -0.4940
 6397SOL    HW225538   6.511   8.136   2.194  1.4404  0.9573 -1.7635
 6398SOL     OW25539   4.607   7.243   1.969  0.0553 -0.1839 -0.7093
 6398SOL    HW125540   4.588   7.199   2.052  0.0845  0.9414 -0.0795
 6398SOL    HW225541   4.678   7.304   1.990  0.1827 -0.0120 -1.6048
 6399SOL     OW25542   4.640   1.113   1.390 -0.4045 -0.1146 -0.7188
 6399SOL    HW125543   4.623   1.048   1.321  1.2073  0.0589 -1.3121
 6399SOL    HW225544   4.672   1.190   1.344  1.0723 -0.1213  0.2337
 6400SOL     OW25545   5.943   4.338   5.952  0.0737  0.0615 -0.0389
 6400SOL    HW125546   6.025   4.289   5.960  0.2574 -0.1127 -2.2233
 6400SOL    HW225547   5.881   4.291   6.008  1.2471 -0.2793  1.0145
 6401SOL     OW25548   0.429   1.914   6.185 -0.0849 -0.1833  0.1842
 6401SOL    HW125549   0.349   1.864   6.169 -1.0922  1.2260  0.6659
 6401SOL    HW225550   0.415   1.956   6.270  0.5940  1.1692 -0.3463
 6402SOL     OW25551   7.058   0.489   7.897  0.0693 -0.0101 -0.0883
 6402SOL    HW125552   7.042   0.577   7.933  0.9427 -0.0906  0.5356
 6402SOL    HW225553   7.030   0.495   7.806  1.7603  1.4790 -0.5835
 6403SOL     OW25554   4.045   7.162   7.910  0.0139 -0.5275 -0.6124
 6403SOL    HW125555   4.108   7.097   7.879  0.5079 -0.5939  0.4850
 6403SOL    HW225556   4.098   7.228   7.954 -0.2693  1.5961 -3.1837
 6404SOL     OW25557   7.633   0.291   7.560 -0.9167 -0.6326 -0.3316
 6404SOL    HW125558   7.621   0.198   7.546  0.6481 -0.7943 -0.7943
 6404SOL    HW225559   7.718   0.298   7.604  0.0279  0.6806 -2.2106
 6405SOL     OW25560   9.072   8.961   1.114 -0.1160 -0.3850 -0.0626
 6405SOL    HW125561   8.994   8.963   1.058 -0.4831  0.9370  0.4549
 6405SOL    HW225562   9.130   8.897   1.073 -0.9547 -0.4698 -1.1562
 6406SOL     OW25563   8.527   5.028   7.806  0.1159  0.0023  0.0629
 6406SOL    HW125564   8.528   5.011   7.712  0.7134 -1.5504  0.3233
 6406SOL    HW225565   8.554   4.945   7.846  0.8570  0.9220  1.5625
 6407SOL     OW25566   8.316   1.222   2.982  0.4670 -0.2383 -0.3695
 6407SOL    HW125567   8.235   1.240   2.935  0.7210 -0.3597 -0.8697
 6407SOL    HW225568   8.325   1.294   3.045 -0.3295 -0.5470  0.1068
 6408SOL     OW25569   7.277   3.820   4.536  0.1124  0.1926 -0.1617
 6408SOL    HW125570   7.356   3.857   4.496  1.1570 -2.2230 -0.5528
 6408SOL    HW225571   7.256   3.745   4.480 -0.8496 -0.8157  1.4690
 6409SOL     OW25572   3.242   8.583   1.916 -0.3049 -0.4584 -0.3102
 6409SOL    HW125573   3.309   8.640   1.953 -1.1493  0.2022  0.2327
 6409SOL    HW225574   3.202   8.635   1.846 -0.2193 -0.8747 -0.6763
 6410SOL     OW25575   2.402   7.420   1.677  0.6552  0.9833 -0.0238
 6410SOL    HW125576   2.338   7.360   1.640 -0.0706  2.1943 -0.8168
 6410SOL    HW225577   2.470   7.426   1.611  0.7617  0.9738  0.0855
 6411SOL     OW25578   0.348   6.229   6.131  0.4701 -0.1041 -0.2970
 6411SOL    HW125579   0.363   6.167   6.202  2.7453  0.7489  0.0591
 6411SOL    HW225580   0.323   6.311   6.174 -1.9059 -0.5291 -0.7337
 6412SOL     OW25581   4.151   3.309   7.906  0.1183  0.3596 -0.7103
 6412SOL    HW125582   4.135   3.393   7.948 -0.5423 -0.1528  0.1087
 6412SOL    HW225583   4.238   3.283   7.936 -0.0765  0.3096 -0.1716
 6413SOL     OW25584   6.769   0.341   0.378  0.0937 -0.2975 -0.2887
 6413SOL    HW125585   6.728   0.254   0.374 -1.0835  0.2761 -1.6634
 6413SOL    HW225586   6.726   0.384   0.452 -2.6009  0.6041 -2.2146
 6414SOL     OW25587   4.051   4.573   7.993 -0.1160  0.1246 -0.1445
 6414SOL    HW125588   4.114   4.536   7.932  1.0691  1.6212  0.1034
 6414SOL    HW225589   3.971   4.585   7.942  0.8897  1.4654 -1.4749
 6415SOL     OW25590   4.891   0.811   1.138  0.0368 -0.9133  0.2571
 6415SOL    HW125591   4.820   0.873   1.155 -0.5309 -1.4671 -0.0819
 6415SOL    HW225592   4.892   0.800   1.043  0.2512 -1.2844  0.2988
 6416SOL     OW25593   2.618   4.451   5.689  0.0810  0.3946 -0.2588
 6416SOL    HW125594   2.588   4.382   5.749  0.8137 -0.5410 -0.9295
 6416SOL    HW225595   2.714   4.444   5.692  0.2149  2.1585  0.5177
 6417SOL     OW25596   5.846   1.605   4.780 -0.0608 -0.0387  0.3729
 6417SOL    HW125597   5.930   1.639   4.749  0.4608 -2.0882 -0.6106
 6417SOL    HW225598   5.862   1.580   4.871 -0.2377  1.4941  0.8597
 6418SOL     OW25599   2.018   0.619   1.109 -0.0288  0.8644 -0.7910
 6418SOL    HW125600   2.104   0.579   1.100 -0.0152  0.7239 -0.0430
 6418SOL    HW225601   1.966   0.581   1.038  0.9060  2.0004 -2.1468
 6419SOL     OW25602   2.694   3.556   9.096 -0.0863 -0.1028  0.3918
 6419SOL    HW125603   2.681   3.461   9.094 -1.6670  0.0786 -2.2677
 6419SOL    HW225604   2.789   3.568   9.090  0.0142 -1.5592 -1.9287
 6420SOL     OW25605   2.216   5.199   5.050  0.1766 -0.2580  0.9584
 6420SOL    HW125606   2.283   5.249   5.002 -0.4161  0.4689  0.8751
 6420SOL    HW225607   2.237   5.214   5.142  1.9026 -2.4331  0.9958
 6421SOL     OW25608   6.537   6.515   6.034  0.4589 -0.1336 -0.1164
 6421SOL    HW125609   6.509   6.459   6.107 -0.6498  0.4018 -0.1057
 6421SOL    HW225610   6.528   6.604   6.068  1.2474  0.0852 -0.4638
 6422SOL     OW25611   4.717   7.096   5.058 -0.0026  0.5095  0.0173
 6422SOL    HW125612   4.729   7.002   5.044 -2.6514 -0.1234  1.2932
 6422SOL    HW225613   4.737   7.110   5.150  2.0309  1.6144 -0.5160
 6423SOL     OW25614   6.107   8.978   1.324 -0.2925 -0.0715  0.2285
 6423SOL    HW125615   6.183   9.027   1.292  0.8042 -0.9209  1.4225
 6423SOL    HW225616   6.072   8.935   1.247  0.5437  0.2159 -0.3300
 6424SOL     OW25617   1.537   8.511   9.063 -0.0655  0.5071  0.5062
 6424SOL    HW125618   1.444   8.508   9.082 -0.1311  0.5236  0.1928
 6424SOL    HW225619   1.568   8.422   9.078 -0.5227 -0.0113 -1.3115
 6425SOL     OW25620   2.638   4.716   1.853 -0.1772 -0.1082  0.3697
 6425SOL    HW125621   2.682   4.799   1.865 -0.3972 -0.1762  1.8663
 6425SOL    HW225622   2.559   4.737   1.803 -0.3404  0.6229  0.9255
 6426SOL     OW25623   4.951   0.342   8.055  0.3273 -0.5075  0.3649
 6426SOL    HW125624   4.960   0.247   8.054 -0.2003 -0.5756 -1.9670
 6426SOL    HW225625   5.034   0.375   8.021  0.2516 -0.1483  0.5161
 6427SOL     OW25626   6.834   8.949   2.113  0.2971  1.5181  0.0158
 6427SOL    HW125627   6.915   8.994   2.136  0.2022  2.0228 -0.6306
 6427SOL    HW225628   6.767   8.992   2.166  0.3883  1.3542  0.2669
 6428SOL     OW25629   1.067   8.588   6.827  0.2616  0.4300 -0.2086
 6428SOL    HW125630   1.114   8.614   6.906 -0.2348  0.4353  0.0924
 6428SOL    HW225631   1.045   8.496   6.843 -0.5456  0.6535  0.0218
 6429SOL     OW25632   4.470   1.386   3.077  0.0252  0.1406 -0.3244
 6429SOL    HW125633   4.529   1.362   3.149 -0.8380 -0.7437  0.1068
 6429SOL    HW225634   4.528   1.425   3.011  1.4379 -2.4947 -0.7741
 6430SOL     OW25635   8.660   2.237   7.025 -0.3204 -0.4344  0.0712
 6430SOL    HW125636   8.634   2.258   6.935 -1.8011 -0.4833  0.4481
 6430SOL    HW225637   8.711   2.157   7.018 -2.3178 -1.7153 -0.5634
 6431SOL     OW25638   1.952   4.803   7.256  0.0119  0.6670 -0.1187
 6431SOL    HW125639   1.884   4.735   7.256  0.6715 -0.0292  1.1170
 6431SOL    HW225640   1.906   4.883   7.282 -0.4494  0.3180  0.1595
 6432SOL     OW25641   2.515   1.728   8.820  0.0203 -0.1979  0.4804
 6432SOL    HW125642   2.523   1.648   8.873 -0.6225  0.1976  1.2012
 6432SOL    HW225643   2.434   1.715   8.771 -0.2513  0.1405  0.8352
 6433SOL     OW25644   3.708   8.200   7.695 -0.4777 -0.5315 -0.3879
 6433SOL    HW125645   3.697   8.107   7.714 -0.6505 -0.4968 -0.3229
 6433SOL    HW225646   3.730   8.202   7.601 -1.2950 -0.5781 -0.5827
 6434SOL     OW25647   5.967   6.794   3.256  0.3784 -0.3781 -0.1937
 6434SOL    HW125648   6.036   6.770   3.194  1.7197  0.1487  1.0402
 6434SOL    HW225649   5.972   6.728   3.324 -1.5824 -1.3882 -0.9434
 6435SOL     OW25650   9.068   0.784   7.698  0.2718  0.0494  0.1385
 6435SOL    HW125651   9.001   0.762   7.762  0.0539  0.5358  0.0774
 6435SOL    HW225652   9.098   0.699   7.665 -0.8940 -0.1698 -0.4336
 6436SOL     OW25653   4.363   1.283   4.974 -0.5029  0.0476 -0.1707
 6436SOL    HW125654   4.431   1.252   4.914 -0.5513 -0.8494  0.2211
 6436SOL    HW225655   4.369   1.379   4.969 -0.0878 -0.0122 -1.1236
 6437SOL     OW25656   5.482   2.528   3.520  0.1639  0.0118  0.5915
 6437SOL    HW125657   5.389   2.506   3.526  0.6012 -1.5034  2.8744
 6437SOL    HW225658   5.512   2.483   3.441 -0.8453 -0.1062  0.2547
 6438SOL     OW25659   4.973   9.041   7.933  0.1138 -0.0103 -0.4314
 6438SOL    HW125660   4.951   8.966   7.879  0.8932 -0.1517 -0.5554
 6438SOL    HW225661   5.061   9.023   7.966 -0.2035  0.2393  0.5903
 6439SOL     OW25662   5.131   8.689   0.516 -0.3512  0.3541  0.5546
 6439SOL    HW125663   5.122   8.764   0.575 -0.0557 -0.1078  1.1830
 6439SOL    HW225664   5.220   8.658   0.529 -0.0434  0.6798 -0.6599
 6440SOL     OW25665   4.067   8.608   5.159  1.0358  0.5297  0.2655
 6440SOL    HW125666   4.015   8.646   5.088  0.6580 -0.3359  0.0655
 6440SOL    HW225667   4.063   8.674   5.228  1.6403  1.5096 -0.6028
 6441SOL     OW25668   5.167   5.264   3.147  0.4366  0.2784  0.2165
 6441SOL    HW125669   5.205   5.327   3.209  1.1851  0.4616 -0.4192
 6441SOL    HW225670   5.085   5.305   3.120  1.3838  1.5050 -0.9655
 6442SOL     OW25671   1.176   6.431   3.713 -0.1866 -0.0410 -0.4054
 6442SOL    HW125672   1.238   6.403   3.646  0.4297 -0.7631  0.4448
 6442SOL    HW225673   1.177   6.361   3.778 -1.0760  0.4534  0.1718
 6443SOL     OW25674   5.146   4.946   2.609 -0.5013 -0.1941 -0.0774
 6443SOL    HW125675   5.182   4.879   2.667  0.5691 -0.1242 -0.6404
 6443SOL    HW225676   5.170   5.029   2.650  1.4889 -0.1146 -1.2799
 6444SOL     OW25677   8.268   2.421   7.199 -0.1583  0.3379 -0.0198
 6444SOL    HW125678   8.268   2.461   7.286  0.2566  1.1940 -0.4051
 6444SOL    HW225679   8.339   2.466   7.152 -1.4331  1.0406 -1.3351
 6445SOL     OW25680   4.479   0.557   0.613 -0.4736 -0.2917 -0.6476
 6445SOL    HW125681   4.440   0.581   0.529  2.1969  0.3560 -1.8056
 6445SOL    HW225682   4.558   0.509   0.590 -0.9572 -2.3784  1.5809
 6446SOL     OW25683   5.169   1.344   0.489 -0.9386 -0.4277  0.5315
 6446SOL    HW125684   5.216   1.278   0.540 -1.7744 -0.2526  1.5690
 6446SOL    HW225685   5.148   1.300   0.406 -0.4949 -1.0797  0.7582
 6447SOL     OW25686   5.647   5.186   8.110 -0.1985 -0.2835 -0.3484
 6447SOL    HW125687   5.675   5.157   8.197 -1.6861  0.8150  0.5545
 6447SOL    HW225688   5.724   5.228   8.073  0.1180  0.3811  0.9867
 6448SOL     OW25689   3.826   4.571   5.725 -0.6412 -0.8403 -0.4062
 6448SOL    HW125690   3.872   4.648   5.692 -0.1840 -1.1387 -0.4731
 6448SOL    HW225691   3.757   4.607   5.781 -1.7561 -0.3089 -2.0638
 6449SOL     OW25692   8.543   4.891   2.478  0.1632 -0.0705  0.2107
 6449SOL    HW125693   8.525   4.812   2.529  2.7066  0.8181  2.7947
 6449SOL    HW225694   8.618   4.868   2.423  0.7522  0.4147  0.7883
 6450SOL     OW25695   6.536   0.644   7.897  0.4223  0.1613 -0.0249
 6450SOL    HW125696   6.552   0.708   7.966 -0.0833 -0.3118  0.5396
 6450SOL    HW225697   6.534   0.696   7.816  3.4131  0.4202 -0.0187
 6451SOL     OW25698   2.481   5.208   7.444  0.0462  0.1715 -0.4946
 6451SOL    HW125699   2.507   5.165   7.526 -0.8670  2.6041  1.1762
 6451SOL    HW225700   2.388   5.190   7.436 -0.0985  0.8522 -0.3926
 6452SOL     OW25701   5.239   3.011   8.525  0.0689  0.4471 -0.0970
 6452SOL    HW125702   5.149   3.036   8.546  0.8842  1.3522  2.8008
 6452SOL    HW225703   5.274   3.084   8.475 -0.4884  0.5464 -0.3491
 6453SOL     OW25704   8.610   8.223   8.859  0.6681  0.4482  0.8471
 6453SOL    HW125705   8.545   8.292   8.841 -1.0222 -1.4090 -0.7136
 6453SOL    HW225706   8.579   8.148   8.808  4.3921 -0.4079 -0.4292
 6454SOL     OW25707   6.410   1.014   3.917  0.0652  0.1248  0.3955
 6454SOL    HW125708   6.483   1.063   3.954  0.8669 -0.4284 -0.4248
 6454SOL    HW225709   6.439   0.923   3.919 -0.3894 -0.0437 -0.4363
 6455SOL     OW25710   5.504   8.644   3.328 -0.2541 -0.1316 -0.2247
 6455SOL    HW125711   5.581   8.607   3.371  0.2258 -0.3832 -1.2574
 6455SOL    HW225712   5.538   8.719   3.280 -0.7220 -0.0257 -0.3882
 6456SOL     OW25713   7.135   7.929   5.464  0.0430 -0.3467 -0.4679
 6456SOL    HW125714   7.058   7.900   5.415 -0.8995 -0.6458  1.1084
 6456SOL    HW225715   7.204   7.938   5.398 -1.4041  0.2213 -1.9762
 6457SOL     OW25716   2.529   0.893   5.115 -0.4838  0.0551  0.3634
 6457SOL    HW125717   2.456   0.955   5.114 -0.3690  0.1913  0.1169
 6457SOL    HW225718   2.599   0.939   5.069  0.9358  1.3149  3.5620
 6458SOL     OW25719   3.346   4.235   1.942 -0.3028  0.2296  0.3987
 6458SOL    HW125720   3.287   4.184   1.998  1.2127 -0.1292  1.7574
 6458SOL    HW225721   3.397   4.287   2.003  0.8651  0.4325 -0.7139
 6459SOL     OW25722   9.139   5.099   2.248 -0.4768 -0.2402  0.0169
 6459SOL    HW125723   9.101   5.098   2.336 -0.3695 -1.2253  0.0571
 6459SOL    HW225724   9.125   5.011   2.215  2.0223 -0.7604  0.1467
 6460SOL     OW25725   9.194   5.420   0.736  0.3658 -0.4344  0.0154
 6460SOL    HW125726   9.267   5.360   0.751 -1.3842 -2.4909  0.6882
 6460SOL    HW225727   9.140   5.376   0.670 -1.2912  0.0963  0.9728
 6461SOL     OW25728   8.003   8.406   6.895  0.1285  0.2174  0.6273
 6461SOL    HW125729   8.039   8.494   6.912 -0.5653  0.8276 -0.9189
 6461SOL    HW225730   8.031   8.386   6.806 -0.3184 -0.8471  0.7212
 6462SOL     OW25731   6.976   3.025   3.095 -0.2136 -0.6626 -0.3544
 6462SOL    HW125732   7.003   2.964   3.026  0.4955  0.5587 -1.1960
 6462SOL    HW225733   6.966   2.971   3.173 -0.3324 -1.9647 -1.2472
 6463SOL     OW25734   3.948   1.373   8.899  0.2070  0.4372  0.0400
 6463SOL    HW125735   3.921   1.386   8.990  1.1956 -0.3020  0.4472
 6463SOL    HW225736   3.872   1.402   8.848 -0.7729 -0.1491  1.1122
 6464SOL     OW25737   0.608   6.920   1.183 -0.3559 -0.2041 -0.6959
 6464SOL    HW125738   0.559   6.853   1.231 -1.4542  0.6229 -0.6221
 6464SOL    HW225739   0.680   6.873   1.142 -0.2827 -1.1880  0.5058
 6465SOL     OW25740   2.236   1.813   8.153 -0.3601  0.2426 -0.0028
 6465SOL    HW125741   2.281   1.728   8.159 -1.5698 -0.4534 -0.4248
 6465SOL    HW225742   2.166   1.807   8.218  0.6349  1.6329  1.2384
 6466SOL     OW25743   4.132   5.502   5.758 -0.1755  0.0820 -0.3616
 6466SOL    HW125744   4.062   5.448   5.796 -1.1353  1.7966  0.3935
 6466SOL    HW225745   4.176   5.443   5.696 -1.0493 -1.6128  0.5571
 6467SOL     OW25746   1.735   3.613   3.746 -0.4305  0.0782  0.6257
 6467SOL    HW125747   1.811   3.586   3.797 -1.2336 -3.2767  0.2780
 6467SOL    HW225748   1.671   3.642   3.810  0.2803  0.6914  1.0793
 6468SOL     OW25749   2.645   4.776   7.644 -0.2093 -0.6851 -0.3179
 6468SOL    HW125750   2.629   4.870   7.646  1.2615 -0.4093  0.4978
 6468SOL    HW225751   2.701   4.763   7.567  0.8228 -0.6396  0.4033
 6469SOL     OW25752   2.337   7.746   3.561  0.2184 -0.5477 -0.4878
 6469SOL    HW125753   2.393   7.745   3.483  0.1498  0.9709 -0.5738
 6469SOL    HW225754   2.361   7.826   3.607  0.8067 -1.7928  1.4854
 6470SOL     OW25755   1.922   4.854   6.591  0.7680  0.2418 -0.2065
 6470SOL    HW125756   1.880   4.927   6.546 -1.5352 -0.5377  0.5054
 6470SOL    HW225757   1.900   4.867   6.684  0.0457 -1.4497 -0.0950
 6471SOL     OW25758   2.623   8.195   7.256 -0.5388 -0.5687  0.3930
 6471SOL    HW125759   2.638   8.203   7.350  0.5687  0.3410  0.1644
 6471SOL    HW225760   2.601   8.284   7.227 -0.2295 -0.7129 -0.3107
 6472SOL     OW25761   7.584   0.256   7.304  0.1418  0.0515 -0.6949
 6472SOL    HW125762   7.671   0.258   7.265  0.1142 -0.4723 -0.7997
 6472SOL    HW225763   7.599   0.268   7.397  0.2574  0.7309 -0.7951
 6473SOL     OW25764   6.332   2.976   0.688  0.7786  0.6655 -0.3431
 6473SOL    HW125765   6.282   3.038   0.635  1.5455  0.2120 -1.6443
 6473SOL    HW225766   6.278   2.898   0.690  0.0315  1.1885  0.8939
 6474SOL     OW25767   8.629   5.539   7.696  0.0116  0.3011  0.0132
 6474SOL    HW125768   8.676   5.623   7.695 -0.3647  0.6022  2.1897
 6474SOL    HW225769   8.551   5.554   7.643  0.2063  1.1707 -0.0374
 6475SOL     OW25770   5.072   1.167   1.415  0.1572 -0.0661  0.3379
 6475SOL    HW125771   5.142   1.208   1.465  2.6165 -0.7030 -2.3368
 6475SOL    HW225772   5.104   1.165   1.325 -3.2353 -0.6253 -1.0261
 6476SOL     OW25773   2.445   0.755   6.910  0.7126 -0.0261  0.3736
 6476SOL    HW125774   2.380   0.809   6.865  0.8075 -0.5875 -0.4602
 6476SOL    HW225775   2.508   0.732   6.842  1.8411  0.5825  1.2000
 6477SOL     OW25776   8.660   6.437   1.320  0.7203 -0.3729  0.6275
 6477SOL    HW125777   8.646   6.358   1.267  3.0659  0.1580 -0.9355
 6477SOL    HW225778   8.687   6.405   1.405  1.3386 -1.2720  0.1022
 6478SOL     OW25779   8.962   8.137   4.222 -0.1400  0.2145  0.4210
 6478SOL    HW125780   9.048   8.172   4.242 -0.8536  1.9574  0.6205
 6478SOL    HW225781   8.909   8.158   4.299 -1.3944  1.5699 -0.7562
 6479SOL     OW25782   7.736   5.074   4.207 -0.9564  0.1557  0.0884
 6479SOL    HW125783   7.813   5.112   4.165  0.3124 -0.4695  1.7339
 6479SOL    HW225784   7.737   4.982   4.180 -0.2081 -0.2196  1.3124
 6480SOL     OW25785   4.711   8.461   4.823  0.0289 -0.0071  0.2395
 6480SOL    HW125786   4.633   8.475   4.876  0.0005 -0.3581  0.2931
 6480SOL    HW225787   4.685   8.396   4.759  0.2044  0.0602  0.0970
 6481SOL     OW25788   3.024   8.285   7.453 -0.0519 -0.3164 -0.1738
 6481SOL    HW125789   3.017   8.351   7.385  0.8013  0.3813  0.4015
 6481SOL    HW225790   3.087   8.221   7.419 -0.2871 -0.4305 -0.3983
 6482SOL     OW25791   7.036   1.140   1.911  0.1027  0.1514 -0.6662
 6482SOL    HW125792   7.106   1.197   1.945 -0.9366  0.1473  1.6975
 6482SOL    HW225793   6.966   1.200   1.886  0.0195  0.0304 -0.7243
 6483SOL     OW25794   6.718   6.880   5.902  0.1397 -0.0438 -0.6104
 6483SOL    HW125795   6.745   6.833   5.981  2.5539 -0.5927 -1.6654
 6483SOL    HW225796   6.702   6.970   5.932  0.7903 -0.2854  0.5463
 6484SOL     OW25797   4.501   7.507   7.086 -0.2201 -0.1151 -0.2048
 6484SOL    HW125798   4.422   7.496   7.139 -0.6309 -2.0307 -1.1628
 6484SOL    HW225799   4.562   7.554   7.144 -1.2597 -0.6085  1.3460
 6485SOL     OW25800   6.834   3.113   9.225  0.9955  0.4289  0.0998
 6485SOL    HW125801   6.774   3.184   9.247  1.8019  0.7648  1.3380
 6485SOL    HW225802   6.904   3.155   9.175  0.9643  0.3177 -0.0383
 6486SOL     OW25803   1.971   3.121   1.936  0.9667 -0.3571 -0.1923
 6486SOL    HW125804   1.894   3.113   1.879  1.5984  1.0678 -1.3051
 6486SOL    HW225805   1.992   3.214   1.935  0.8685 -0.2240  2.6139
 6487SOL     OW25806   6.627   0.631   1.685 -0.0766 -0.0084  0.1243
 6487SOL    HW125807   6.535   0.606   1.674 -0.1730  0.7640 -1.1072
 6487SOL    HW225808   6.660   0.638   1.595  1.0883  0.0882  0.5462
 6488SOL     OW25809   5.277   2.392   9.105  0.3301  0.8296  0.2799
 6488SOL    HW125810   5.357   2.400   9.156  0.5735 -0.0102  0.0444
 6488SOL    HW225811   5.206   2.407   9.168  0.6711  1.6347  0.4739
 6489SOL     OW25812   2.537   1.191   3.248  0.2431 -0.2333  0.1803
 6489SOL    HW125813   2.454   1.183   3.294  0.1660 -0.2171  0.0434
 6489SOL    HW225814   2.514   1.188   3.155  0.5917 -2.2604  0.1254
 6490SOL     OW25815   6.875   1.908   2.915  0.1679 -0.3232  0.0562
 6490SOL    HW125816   6.857   1.815   2.931  0.8245 -0.7174 -1.3399
 6490SOL    HW225817   6.803   1.954   2.959 -0.0114 -1.4707  1.0120
 6491SOL     OW25818   0.039   3.807   8.204  0.6350  0.1286 -0.0872
 6491SOL    HW125819   0.105   3.739   8.194  1.5363  1.0588 -0.6231
 6491SOL    HW225820   0.042   3.831   8.296 -0.1453 -0.9932  0.2463
 6492SOL     OW25821   4.299   3.831   9.227 -0.3177  0.0343  0.2174
 6492SOL    HW125822   4.298   3.927   9.220 -1.8280  0.1076  1.0531
 6492SOL    HW225823   4.371   3.804   9.170  0.9227  1.7267  0.9069
 6493SOL     OW25824   7.767   3.001   5.698  0.1765 -0.0530  0.2404
 6493SOL    HW125825   7.730   3.041   5.620  2.5908  0.5914 -0.6697
 6493SOL    HW225826   7.703   2.934   5.724 -0.0492 -1.3611 -3.1735
 6494SOL     OW25827   0.211   7.626   5.901  0.7326  0.3117 -0.0230
 6494SOL    HW125828   0.263   7.570   5.959  0.5208  0.7639  0.6301
 6494SOL    HW225829   0.159   7.680   5.961  1.5174  1.7677 -0.5871
 6495SOL     OW25830   1.661   5.156   4.918  0.2295 -0.0226  0.8290
 6495SOL    HW125831   1.754   5.175   4.902  0.3499 -1.6502 -0.7319
 6495SOL    HW225832   1.653   5.062   4.903 -1.4870 -0.1070  2.0273
 6496SOL     OW25833   2.359   5.522   2.408  0.0331  0.2812 -0.4765
 6496SOL    HW125834   2.424   5.506   2.477 -1.5999  0.2936  1.1610
 6496SOL    HW225835   2.343   5.436   2.369  0.3120  0.1003 -0.1947
 6497SOL     OW25836   1.609   4.905   0.287 -0.3963  0.3518 -0.3125
 6497SOL    HW125837   1.616   4.877   0.378 -0.1400  0.3779 -0.3241
 6497SOL    HW225838   1.698   4.929   0.262  0.0598 -2.1987 -1.4026
 6498SOL     OW25839   3.824   7.524   5.093 -0.0826  0.1000  0.2637
 6498SOL    HW125840   3.733   7.501   5.080 -0.1732 -0.6316  1.9244
 6498SOL    HW225841   3.833   7.534   5.188  1.2664  1.4613  0.0414
 6499SOL     OW25842   6.839   3.033   7.631  0.0229  0.1051 -1.1461
 6499SOL    HW125843   6.884   2.957   7.668  0.3800  1.0723  0.5081
 6499SOL    HW225844   6.876   3.042   7.543  2.2057  0.1135 -0.3058
 6500SOL     OW25845   9.208   7.326   8.897  0.3114 -0.1051 -0.4284
 6500SOL    HW125846   9.193   7.236   8.870 -0.1170 -0.4426  0.8435
 6500SOL    HW225847   9.263   7.363   8.828 -0.1230 -1.1064 -1.3446
 6501SOL     OW25848   2.501   7.584   4.633 -0.1787 -0.3968 -0.1839
 6501SOL    HW125849   2.465   7.593   4.721  0.6291  2.1057 -0.0238
 6501SOL    HW225850   2.595   7.570   4.647 -0.3100 -1.8776 -0.6534
 6502SOL     OW25851   8.319   7.330   8.332  0.3836  0.4103  0.3152
 6502SOL    HW125852   8.365   7.333   8.248  0.3307 -1.3110  0.1817
 6502SOL    HW225853   8.389   7.320   8.397  0.3860  1.1406  0.4332
 6503SOL     OW25854   4.870   5.851   3.308  0.0729 -0.1256 -0.0661
 6503SOL    HW125855   4.847   5.763   3.279  0.2832 -0.4606  0.7458
 6503SOL    HW225856   4.787   5.899   3.309 -0.5278 -1.0803  2.0369
 6504SOL     OW25857   2.770   8.595   3.680 -0.2659 -0.3329  0.0506
 6504SOL    HW125858   2.720   8.545   3.745  1.2606 -1.8999  0.1036
 6504SOL    HW225859   2.765   8.544   3.600 -0.4516  0.5592 -0.5248
 6505SOL     OW25860   4.680   5.806   5.960 -0.1095  0.0624  0.0261
 6505SOL    HW125861   4.632   5.724   5.973  0.5959 -0.0579  2.2988
 6505SOL    HW225862   4.711   5.830   6.047  0.5166  2.2728 -0.7321
 6506SOL     OW25863   4.660   6.932   2.966  0.2358 -0.6983  0.1835
 6506SOL    HW125864   4.599   7.001   2.995  1.0716  0.8703 -1.5545
 6506SOL    HW225865   4.658   6.937   2.870  2.4756 -1.1397  0.0628
 6507SOL     OW25866   3.719   3.368   2.299  0.3957 -0.4777  0.1861
 6507SOL    HW125867   3.740   3.435   2.234 -1.0870 -0.5080 -0.3713
 6507SOL    HW225868   3.698   3.416   2.378  0.6679 -0.3597  0.1873
 6508SOL     OW25869   4.879   8.176   7.678  0.8102 -0.7132 -0.3395
 6508SOL    HW125870   4.941   8.171   7.751 -0.2888  0.3196  0.7083
 6508SOL    HW225871   4.800   8.132   7.711 -0.6380  2.0597  0.1556
 6509SOL     OW25872   0.532   1.868   4.211  0.3148  0.3331  0.3679
 6509SOL    HW125873   0.589   1.847   4.138  0.7275 -1.0174  1.0371
 6509SOL    HW225874   0.476   1.939   4.179  0.8796  0.1739 -1.0361
 6510SOL     OW25875   2.194   0.178   1.632 -0.5225  0.3332 -0.0245
 6510SOL    HW125876   2.202   0.220   1.718  1.6075  1.9248 -0.9035
 6510SOL    HW225877   2.112   0.212   1.596 -0.3004  1.4349  0.4757
 6511SOL     OW25878   6.475   2.848   7.251  0.0023 -0.5646  0.3964
 6511SOL    HW125879   6.524   2.793   7.190  0.9213 -0.3237  0.9093
 6511SOL    HW225880   6.449   2.789   7.322  0.6928 -0.4159  0.7770
 6512SOL     OW25881   8.050   1.852   0.687  0.0436 -0.7526  0.2510
 6512SOL    HW125882   8.085   1.776   0.734 -3.3755 -2.0125  1.0284
 6512SOL    HW225883   8.076   1.927   0.739 -0.0270 -1.7668  1.8018
 6513SOL     OW25884   0.739   4.878   5.103  0.2425  0.8482 -0.1581
 6513SOL    HW125885   0.698   4.799   5.068 -0.1380  1.3374 -0.8485
 6513SOL    HW225886   0.833   4.863   5.092  0.1537  0.6581 -0.6775
 6514SOL     OW25887   1.767   2.499   7.829  0.0393  0.1193  0.0179
 6514SOL    HW125888   1.688   2.507   7.882  0.0723  0.1614  0.0606
 6514SOL    HW225889   1.753   2.419   7.778 -0.7675  1.0081 -1.2202
 6515SOL     OW25890   5.146   8.796   2.733  0.2958 -0.5432  0.4718
 6515SOL    HW125891   5.130   8.890   2.739 -1.3612 -0.8182  0.8103
 6515SOL    HW225892   5.216   8.787   2.668 -0.2703  0.8454 -0.3588
 6516SOL     OW25893   0.668   2.451   4.892 -0.5042  0.1024 -0.1290
 6516SOL    HW125894   0.718   2.449   4.974 -0.0813  0.3516 -0.3744
 6516SOL    HW225895   0.584   2.488   4.917 -0.7293 -0.7148  0.3712
 6517SOL     OW25896   5.811   8.886   8.092 -0.1202 -0.3510 -0.1382
 6517SOL    HW125897   5.783   8.795   8.084 -1.1809 -0.1151  0.6943
 6517SOL    HW225898   5.780   8.929   8.013 -2.7768  0.0414  1.0203
 6518SOL     OW25899   9.157   1.755   4.810 -0.1000 -0.3862  0.1474
 6518SOL    HW125900   9.219   1.755   4.882 -0.4199 -1.4391  0.4396
 6518SOL    HW225901   9.211   1.753   4.731  0.3031  2.3231  0.2428
 6519SOL     OW25902   3.995   8.857   7.774  0.4019 -0.2801 -0.0049
 6519SOL    HW125903   3.955   8.881   7.858 -0.5644  2.2871 -1.0978
 6519SOL    HW225904   3.945   8.781   7.745  0.1466 -0.6360  1.2877
 6520SOL     OW25905   1.672   0.075   3.942 -0.1078 -0.3898 -0.5014
 6520SOL    HW125906   1.704   0.104   4.027  0.7531  3.6416 -2.0070
 6520SOL    HW225907   1.576   0.081   3.949 -0.0125  0.9531 -0.1088
 6521SOL     OW25908   9.239   2.124   8.314 -0.0245 -0.3400 -0.3480
 6521SOL    HW125909   9.227   2.139   8.220  0.0655  1.2686 -0.1380
 6521SOL    HW225910   9.166   2.068   8.340 -1.4491  1.1819 -0.9384
 6522SOL     OW25911   5.830   8.093   5.695 -0.2851 -0.1444 -0.2987
 6522SOL    HW125912   5.776   8.025   5.655  0.6366 -0.7754 -0.5097
 6522SOL    HW225913   5.782   8.120   5.773 -0.9167 -0.6545 -0.5029
 6523SOL     OW25914   6.703   0.133   8.907 -0.0332  0.1683  0.1130
 6523SOL    HW125915   6.720   0.111   8.816 -0.1359  0.5176  0.0091
 6523SOL    HW225916   6.790   0.141   8.947  0.0605 -2.4878  0.6782
 6524SOL     OW25917   6.687   9.200   4.304  0.7366  0.5595 -0.6918
 6524SOL    HW125918   6.740   9.275   4.278  0.5416  0.6602 -0.8040
 6524SOL    HW225919   6.750   9.136   4.336  0.8549  1.0232  0.0190
 6525SOL     OW25920   1.622   0.378   6.134 -0.3223 -0.2325  0.0370
 6525SOL    HW125921   1.681   0.328   6.190 -0.3957  1.5462  1.8278
 6525SOL    HW225922   1.679   0.423   6.071 -0.1590 -1.5415 -0.7831
 6526SOL     OW25923   2.825   9.125   8.902  0.1233  0.5612  0.0717
 6526SOL    HW125924   2.833   9.088   8.990 -1.1596 -0.2784 -0.1343
 6526SOL    HW225925   2.837   9.219   8.914 -1.7437  0.6824  1.4452
 6527SOL     OW25926   5.009   1.995   7.156  0.3245 -0.2039 -0.2189
 6527SOL    HW125927   4.998   1.900   7.153 -0.5498 -0.0983 -2.2236
 6527SOL    HW225928   5.004   2.017   7.249 -0.4756 -2.0073  0.2136
 6528SOL     OW25929   3.901   5.404   1.269 -0.4700  0.3584 -0.1309
 6528SOL    HW125930   3.876   5.375   1.357  0.6552  1.5856  0.6313
 6528SOL    HW225931   3.830   5.463   1.243 -0.9354 -0.2038 -0.1763
 6529SOL     OW25932   0.086   7.628   3.612 -0.3319 -0.2427 -0.1209
 6529SOL    HW125933   0.167   7.676   3.632 -0.6043  0.2923 -0.2833
 6529SOL    HW225934   0.091   7.614   3.517 -1.0030  0.8807 -0.3432
 6530SOL     OW25935   6.207   1.827   8.660 -0.3392  0.3058  0.1087
 6530SOL    HW125936   6.150   1.879   8.716  0.0453 -1.0952  1.8867
 6530SOL    HW225937   6.274   1.793   8.719  1.6565  0.9068 -1.6930
 6531SOL     OW25938   5.668   8.479   0.342  0.5342  0.5441  0.4026
 6531SOL    HW125939   5.731   8.415   0.376  2.4404  1.2668 -1.4768
 6531SOL    HW225940   5.655   8.453   0.251  0.5542  2.1938 -0.1148
 6532SOL     OW25941   3.367   3.864   4.616 -0.1120  0.0061 -0.0782
 6532SOL    HW125942   3.300   3.819   4.667 -0.3691  0.2618 -0.1915
 6532SOL    HW225943   3.337   3.955   4.610  0.7958  0.3841  0.8221
 6533SOL     OW25944   2.679   8.338   9.130 -0.0521  0.4227  0.3696
 6533SOL    HW125945   2.589   8.309   9.120 -0.2449 -0.0506  2.9252
 6533SOL    HW225946   2.676   8.433   9.117 -1.1468  0.5718  1.5818
 6534SOL     OW25947   8.141   0.657   0.335  0.2752  0.1528 -0.6065
 6534SOL    HW125948   8.149   0.601   0.258 -1.0478 -1.0402  0.0674
 6534SOL    HW225949   8.211   0.627   0.394 -0.5895 -1.0484 -0.1385
 6535SOL     OW25950   2.865   4.288   4.848 -0.1198  0.1665 -0.0534
 6535SOL    HW125951   2.854   4.383   4.851 -0.4372  0.2774 -2.7121
 6535SOL    HW225952   2.949   4.272   4.890  0.7557  1.8157 -1.0695
 6536SOL     OW25953   1.599   6.255   5.915 -0.2292  0.1726  0.0210
 6536SOL    HW125954   1.595   6.346   5.941 -1.4395 -0.0074  0.5334
 6536SOL    HW225955   1.654   6.254   5.836  0.7944  1.1557  0.6969
 6537SOL     OW25956   4.038   8.269   5.773 -0.3948  0.1925 -0.1789
 6537SOL    HW125957   3.999   8.294   5.690 -0.5467 -1.1368 -0.5311
 6537SOL    HW225958   3.980   8.306   5.840 -0.4930  0.9145 -0.6489
 6538SOL     OW25959   6.534   4.940   3.863 -0.8885  0.2082 -0.0047
 6538SOL    HW125960   6.570   4.949   3.952  1.6760  1.5393 -1.0893
 6538SOL    HW225961   6.520   5.030   3.835  0.7544 -0.0506 -1.8368
 6539SOL     OW25962   4.609   5.324   2.814 -0.0593 -0.0376 -0.3137
 6539SOL    HW125963   4.560   5.340   2.894 -0.3487 -0.7807 -0.3302
 6539SOL    HW225964   4.623   5.229   2.813 -0.9502 -0.1946 -1.6265
 6540SOL     OW25965   1.277   0.166   2.924  0.0801 -0.5216  0.3354
 6540SOL    HW125966   1.224   0.246   2.915  1.8154  0.5748 -0.8107
 6540SOL    HW225967   1.218   0.103   2.965 -2.0312  0.6785 -0.6836
 6541SOL     OW25968   5.900   1.617   1.333  0.8070  0.3919 -0.0598
 6541SOL    HW125969   5.878   1.662   1.251 -2.1035  3.3486  2.0654
 6541SOL    HW225970   5.835   1.547   1.341  0.1266  1.0663  0.3869
 6542SOL     OW25971   2.833   6.537   7.268  0.3291  0.5503 -0.1604
 6542SOL    HW125972   2.771   6.577   7.329 -0.7964  1.3049 -1.7272
 6542SOL    HW225973   2.781   6.519   7.190  1.2011 -2.3859 -0.1946
 6543SOL     OW25974   6.766   6.875   4.634 -0.5174 -0.3292 -0.1700
 6543SOL    HW125975   6.746   6.908   4.721  0.1720 -0.2974 -0.0198
 6543SOL    HW225976   6.787   6.782   4.647  1.2541  0.0539 -0.0362
 6544SOL     OW25977   1.279   1.283   4.241 -0.4041 -0.2835  0.1084
 6544SOL    HW125978   1.205   1.328   4.282 -0.6694  1.2722 -1.8926
 6544SOL    HW225979   1.354   1.305   4.297 -0.8895  1.0429  0.2696
 6545SOL     OW25980   0.286   0.358   3.609 -0.5259 -0.6902  0.5621
 6545SOL    HW125981   0.330   0.301   3.545 -0.4566 -0.2657  0.2248
 6545SOL    HW225982   0.307   0.446   3.580  0.0544 -0.4918  1.5631
 6546SOL     OW25983   7.635   2.355   0.602 -0.6643 -0.0012 -0.2719
 6546SOL    HW125984   7.682   2.334   0.522  0.3752  0.1155  0.2966
 6546SOL    HW225985   7.559   2.406   0.572 -1.0048 -1.0587 -1.2846
 6547SOL     OW25986   3.801   7.566   7.783  0.0128 -0.6450 -0.2867
 6547SOL    HW125987   3.744   7.608   7.718 -1.3812  1.9082  2.3504
 6547SOL    HW225988   3.867   7.632   7.804  0.9218 -1.7153  0.3619
 6548SOL     OW25989   4.218   4.804   0.349 -0.0442 -0.6121 -0.1746
 6548SOL    HW125990   4.194   4.816   0.440  1.2227 -1.7120  0.3379
 6548SOL    HW225991   4.262   4.885   0.324 -1.3449  0.1307 -0.1742
 6549SOL     OW25992   8.026   8.383   2.002 -0.1830  0.1017 -0.4469
 6549SOL    HW125993   8.005   8.307   1.947  1.1412  1.4398 -3.0213
 6549SOL    HW225994   7.944   8.405   2.046 -0.3064 -3.5075  1.4406
 6550SOL     OW25995   0.148   5.551   5.895 -0.1439 -0.5824  0.1416
 6550SOL    HW125996   0.234   5.585   5.871  0.6049 -1.0113  2.0176
 6550SOL    HW225997   0.139   5.471   5.843  1.0745 -1.0857  0.6559
 6551SOL     OW25998   2.109   2.835   4.117  0.0230  0.0467  0.1902
 6551SOL    HW125999   2.189   2.798   4.080  0.6593  0.6143  0.9608
 6551SOL    HW226000   2.086   2.775   4.189 -0.5704 -0.4210 -0.3699
 6552SOL     OW26001   4.516   2.679   7.809 -0.5331  0.2761  0.1282
 6552SOL    HW126002   4.529   2.769   7.779 -2.5095  1.7553  3.1476
 6552SOL    HW226003   4.433   2.682   7.856  0.3462 -2.6578  2.1264
 6553SOL     OW26004   3.497   6.186   8.609  0.5589 -0.6528 -0.4899
 6553SOL    HW126005   3.509   6.257   8.673 -1.9439  0.5673 -1.2831
 6553SOL    HW226006   3.449   6.119   8.657 -0.5673 -0.0950 -0.8014
 6554SOL     OW26007   2.723   4.687   0.421 -0.0544 -0.4928  0.2634
 6554SOL    HW126008   2.754   4.742   0.349  0.7585  0.1495  1.0837
 6554SOL    HW226009   2.715   4.600   0.383  3.5441 -0.8958  0.1435
 6555SOL     OW26010   6.632   0.633   7.473 -0.4128  0.6337  0.1709
 6555SOL    HW126011   6.646   0.539   7.479 -1.3649  0.5088  0.7325
 6555SOL    HW226012   6.680   0.660   7.395 -1.3312 -0.5668 -0.8563
 6556SOL     OW26013   0.021   7.775   6.089 -0.0331  0.6669 -0.3011
 6556SOL    HW126014  -0.053   7.746   6.035 -0.5770 -3.2779  2.1695
 6556SOL    HW226015  -0.020   7.813   6.167  0.6237  1.1127 -0.1689
 6557SOL     OW26016   6.811   8.403   2.256 -0.5741  0.0514  0.6590
 6557SOL    HW126017   6.874   8.473   2.277 -0.8940 -0.1847  2.6653
 6557SOL    HW226018   6.774   8.428   2.171  1.7357  0.5301 -0.2760
 6558SOL     OW26019   0.773   1.246   1.252 -0.3080 -0.0793 -0.1366
 6558SOL    HW126020   0.850   1.277   1.300 -0.2740 -1.4850  0.7721
 6558SOL    HW226021   0.788   1.275   1.162  0.7270  0.6583  0.2564
 6559SOL     OW26022   1.805   7.001   4.276  0.6228 -0.6506  0.0653
 6559SOL    HW126023   1.879   6.941   4.267  1.5777  0.4799  0.0696
 6559SOL    HW226024   1.747   6.981   4.203  1.4473 -0.8646 -0.5298
 6560SOL     OW26025   9.166   3.590   8.841  0.6138  0.5489  0.1946
 6560SOL    HW126026   9.224   3.666   8.847  0.3131  0.7276  0.9115
 6560SOL    HW226027   9.217   3.518   8.878  0.6127  0.5622  0.2213
 6561SOL     OW26028   1.282   1.112   5.124  0.2998 -0.6095  0.3137
 6561SOL    HW126029   1.257   1.147   5.209 -0.5276 -1.1514  0.3024
 6561SOL    HW226030   1.378   1.110   5.126  0.3011 -0.1396  1.0306
 6562SOL     OW26031   8.268   1.602   4.968  0.1916 -0.3058  0.6009
 6562SOL    HW126032   8.294   1.526   4.915 -0.2658 -0.3578  0.4491
 6562SOL    HW226033   8.247   1.669   4.903  0.7247  0.0013  0.7349
 6563SOL     OW26034   6.740   5.107   3.366  0.0508 -0.2485  0.0794
 6563SOL    HW126035   6.797   5.043   3.409 -2.3366 -1.5633  1.5543
 6563SOL    HW226036   6.761   5.101   3.273  3.1841  0.3452  0.6544
 6564SOL     OW26037   2.506   7.953   7.547 -0.4128 -0.1307  0.4607
 6564SOL    HW126038   2.488   7.937   7.640 -3.6644  0.2780  0.0093
 6564SOL    HW226039   2.540   8.043   7.545  0.3205 -0.3696  1.2717
 6565SOL     OW26040   7.850   4.854   2.432  0.4434 -0.3388  0.0639
 6565SOL    HW126041   7.921   4.890   2.379  0.1376 -1.2791 -1.0346
 6565SOL    HW226042   7.894   4.795   2.493  0.6856 -0.3510 -0.1194
 6566SOL     OW26043   1.066   0.585   4.254 -0.1137 -0.2581  0.4972
 6566SOL    HW126044   1.020   0.615   4.333 -0.7768  0.8144 -0.2591
 6566SOL    HW226045   1.000   0.535   4.205 -0.1601  0.3159 -0.0501
 6567SOL     OW26046   0.467   6.768   1.350  0.0791 -0.0641 -0.0089
 6567SOL    HW126047   0.454   6.806   1.437 -0.0535 -1.1570  0.4637
 6567SOL    HW226048   0.384   6.725   1.330  0.5711 -1.0391 -0.0379
 6568SOL     OW26049   2.613   8.494   0.360 -0.2038 -0.0913  0.0620
 6568SOL    HW126050   2.663   8.434   0.305  0.4926  0.3911  0.1499
 6568SOL    HW226051   2.522   8.478   0.337  0.0066 -0.8128 -0.2856
 6569SOL     OW26052   5.364   2.180   4.563  0.4205 -0.1166 -0.0054
 6569SOL    HW126053   5.406   2.109   4.611  1.7896 -0.1444 -1.1571
 6569SOL    HW226054   5.387   2.163   4.471 -1.3801  0.4033 -0.5841
 6570SOL     OW26055   4.050   0.268   2.632 -0.1409  0.0918 -0.3414
 6570SOL    HW126056   4.046   0.358   2.663 -0.2147  0.3339 -1.0411
 6570SOL    HW226057   3.960   0.249   2.604 -0.3577 -0.5354  0.7068
 6571SOL     OW26058   6.003   6.286   1.646  0.0219 -0.1410 -0.5131
 6571SOL    HW126059   5.981   6.306   1.555 -0.0303  0.8116 -0.3046
 6571SOL    HW226060   5.978   6.194   1.657  0.1978 -0.3176 -1.5037
 6572SOL     OW26061   4.449   3.952   3.005 -0.5948  0.2154 -0.0468
 6572SOL    HW126062   4.364   3.964   3.047 -0.8473  0.2503 -0.5594
 6572SOL    HW226063   4.458   4.029   2.949 -0.6761 -0.2790 -0.7489
 6573SOL     OW26064   2.242   0.298   9.156  0.0353  0.3038 -0.0839
 6573SOL    HW126065   2.175   0.366   9.146 -1.1381 -0.9176 -0.9112
 6573SOL    HW226066   2.195   0.216   9.142  1.6046 -0.6389 -0.0874
 6574SOL     OW26067   1.485   3.867   6.144 -0.0149 -0.2512 -0.2339
 6574SOL    HW126068   1.433   3.847   6.066  0.0969 -1.3597 -0.0407
 6574SOL    HW226069   1.462   3.798   6.206 -0.2374  0.7299  0.7909
 6575SOL     OW26070   0.160   6.036   6.603 -0.8495 -0.8378  0.5330
 6575SOL    HW126071   0.137   6.084   6.683  2.7446  0.4154  0.9937
 6575SOL    HW226072   0.176   5.946   6.632 -0.3072 -0.5615  1.0988
 6576SOL     OW26073   6.564   8.909   3.326  0.0139  0.4548 -0.0632
 6576SOL    HW126074   6.655   8.878   3.322 -0.0634  0.3683 -2.8610
 6576SOL    HW226075   6.514   8.831   3.349  0.5414  0.2818  0.5317
 6577SOL     OW26076   4.333   6.895   1.662  0.2410  0.9018 -0.4213
 6577SOL    HW126077   4.370   6.807   1.651 -0.6619  0.3739  0.5705
 6577SOL    HW226078   4.331   6.931   1.574 -1.4979 -0.9690 -1.2163
 6578SOL     OW26079   2.521   1.330   1.814  0.0772 -0.8829 -0.2525
 6578SOL    HW126080   2.438   1.378   1.808 -0.1698 -1.2375  0.2804
 6578SOL    HW226081   2.524   1.299   1.904  0.5461 -1.3103 -0.4132
 6579SOL     OW26082   3.200   4.789   8.526 -0.1630 -0.2121  0.2412
 6579SOL    HW126083   3.272   4.801   8.464  0.1110 -2.2753  0.0925
 6579SOL    HW226084   3.139   4.860   8.506 -0.7028 -1.4689 -3.3323
 6580SOL     OW26085   7.826   7.628   5.415  0.4010 -0.1787  0.2558
 6580SOL    HW126086   7.813   7.707   5.362 -0.5414 -0.6851 -0.2895
 6580SOL    HW226087   7.857   7.562   5.353  1.3150 -0.2116  0.7352
 6581SOL     OW26088   3.402   0.262   1.509 -0.3425 -0.0858 -0.4762
 6581SOL    HW126089   3.394   0.205   1.585  0.5168 -0.0726 -0.3668
 6581SOL    HW226090   3.489   0.243   1.473 -0.2770  0.7331 -0.7765
 6582SOL     OW26091   8.478   5.560   8.375  0.0027  0.4357  0.5718
 6582SOL    HW126092   8.492   5.627   8.442  1.0903  0.6638  0.1419
 6582SOL    HW226093   8.566   5.540   8.342 -0.4529 -0.1110 -0.3626
 6583SOL     OW26094   8.954   7.889   4.984  0.2851  0.2874  0.1976
 6583SOL    HW126095   9.006   7.816   5.015  1.0262  1.0621  0.8433
 6583SOL    HW226096   8.962   7.955   5.053 -1.2908  0.5574  0.1671
 6584SOL     OW26097   7.916   2.279   2.739 -0.2302 -0.1883  0.1122
 6584SOL    HW126098   7.997   2.246   2.778 -0.4272  0.3290  0.9883
 6584SOL    HW226099   7.876   2.332   2.808  0.1251  1.9807 -1.2448
 6585SOL     OW26100   8.941   3.875   3.194  0.1814  0.5607 -0.0424
 6585SOL    HW126101   8.881   3.865   3.268  0.2433  1.7871  0.1950
 6585SOL    HW226102   8.937   3.791   3.148  0.0100 -0.1582  1.2518
 6586SOL     OW26103   8.979   9.080   2.693 -0.1592  0.5291  0.4948
 6586SOL    HW126104   9.069   9.099   2.666 -0.3970  0.8833 -0.0692
 6586SOL    HW226105   8.988   9.018   2.765  0.7909  3.7734  3.5199
 6587SOL     OW26106   2.638   0.734   3.587  0.1130  0.3502 -0.1819
 6587SOL    HW126107   2.561   0.725   3.532  0.4892  0.5633 -0.7470
 6587SOL    HW226108   2.710   0.700   3.534  0.7581  2.1007 -0.4851
 6588SOL     OW26109   5.172   0.934   4.648 -0.1419  0.6085  0.0882
 6588SOL    HW126110   5.129   0.965   4.568  0.3449 -2.0833 -1.3181
 6588SOL    HW226111   5.254   0.982   4.651 -0.8447  1.8758 -0.1374
 6589SOL     OW26112   5.794   2.006   5.548 -0.6172 -0.3008  0.2082
 6589SOL    HW126113   5.751   2.031   5.630 -0.4052 -2.2675  0.9706
 6589SOL    HW226114   5.812   1.913   5.558 -1.2150 -0.7687 -2.3588
 6590SOL     OW26115   8.702   2.406   5.176  0.2145  0.1584  0.1043
 6590SOL    HW126116   8.655   2.480   5.214  0.4344  0.4996 -0.2776
 6590SOL    HW226117   8.653   2.329   5.204 -1.1072  0.5474 -0.9975
 6591SOL     OW26118   9.070   0.563   0.274 -0.7551 -0.6794 -0.1623
 6591SOL    HW126119   9.024   0.513   0.342 -0.6547  1.8448  1.8902
 6591SOL    HW226120   9.123   0.626   0.322  3.2930 -1.9546 -2.4581
 6592SOL     OW26121   0.113   8.071   1.196  0.1793  0.1831 -0.1881
 6592SOL    HW126122   0.160   8.141   1.150  0.8115 -0.2195 -0.1590
 6592SOL    HW226123   0.181   8.024   1.243 -0.2315 -0.5103 -0.2799
 6593SOL     OW26124   0.417   1.931   0.730  0.2794 -0.7158  0.0097
 6593SOL    HW126125   0.464   1.956   0.809  1.4068 -1.5548 -0.3757
 6593SOL    HW226126   0.410   2.012   0.679 -0.5769 -0.1411  1.0085
 6594SOL     OW26127   4.335   6.351   5.382  0.0330  0.0676  0.7927
 6594SOL    HW126128   4.255   6.399   5.362  0.0549  1.2474  3.2546
 6594SOL    HW226129   4.313   6.296   5.457  1.1152 -0.8262  0.4931
 6595SOL     OW26130   8.941   4.851   0.005 -0.4408  0.4254 -0.4231
 6595SOL    HW126131   8.863   4.887   0.046 -0.3290 -0.5771  0.7085
 6595SOL    HW226132   9.011   4.866   0.069 -0.0054 -0.0098 -0.7918
 6596SOL     OW26133   1.122   0.793   3.828 -0.0011  0.1169 -0.4040
 6596SOL    HW126134   1.197   0.783   3.770 -0.7854  0.1584 -1.4464
 6596SOL    HW226135   1.157   0.775   3.915  1.1111 -0.3363 -0.9224
 6597SOL     OW26136   9.002   7.023   6.857 -0.3882  0.1951  0.0944
 6597SOL    HW126137   9.097   7.028   6.867 -0.2976  1.9360 -1.1626
 6597SOL    HW226138   8.971   6.984   6.939  1.3741 -0.1109  0.6518
 6598SOL     OW26139   3.301   8.712   7.323  0.0834 -0.4512  0.3086
 6598SOL    HW126140   3.330   8.791   7.278 -1.5441  0.3908  0.6737
 6598SOL    HW226141   3.350   8.711   7.405  1.2482 -0.6834 -0.3606
 6599SOL     OW26142   5.977   0.938   6.140  0.0967 -0.2671 -0.3254
 6599SOL    HW126143   5.905   0.972   6.087 -0.2045 -3.2818 -2.0787
 6599SOL    HW226144   6.053   0.939   6.082  0.6472 -0.2902  0.3734
 6600SOL     OW26145   7.662   5.525   3.315 -0.4454 -0.3070  0.0825
 6600SOL    HW126146   7.660   5.537   3.220  0.9172 -2.4831 -0.3015
 6600SOL    HW226147   7.722   5.593   3.347  1.9135 -1.6980 -1.1164
 6601SOL     OW26148   8.401   1.013   4.692 -0.3144 -0.2673 -0.8494
 6601SOL    HW126149   8.367   1.048   4.609  0.6098  1.5167 -0.5355
 6601SOL    HW226150   8.493   0.994   4.674  0.2020  1.2230  0.0151
 6602SOL     OW26151   5.800   1.279   7.897 -0.0518 -0.3770  0.5891
 6602SOL    HW126152   5.785   1.301   7.805  0.3099 -0.8737  0.4054
 6602SOL    HW226153   5.716   1.292   7.939 -0.4093 -0.8579  0.0377
 6603SOL     OW26154   8.751   3.289   0.394 -0.7150  0.1519 -0.1602
 6603SOL    HW126155   8.706   3.230   0.454  1.6928 -1.4914  0.1531
 6603SOL    HW226156   8.726   3.377   0.423 -2.0765 -0.6605  1.2271
 6604SOL     OW26157   7.030   4.069   7.861 -0.0298  0.8627 -0.2826
 6604SOL    HW126158   7.012   3.976   7.870 -0.8641  0.8651 -1.6311
 6604SOL    HW226159   6.944   4.111   7.869  0.5899  1.8430  3.2145
 6605SOL     OW26160   0.713   4.114   2.894  0.0293  0.1470  0.0914
 6605SOL    HW126161   0.656   4.180   2.932 -0.3741  0.0366 -0.3128
 6605SOL    HW226162   0.655   4.040   2.877  0.7275 -0.8987  1.9109
 6606SOL     OW26163   6.102   7.894   0.010  0.0304  0.3108 -0.5117
 6606SOL    HW126164   6.193   7.866   0.014  0.4576  1.1952 -2.4468
 6606SOL    HW226165   6.100   7.977   0.058 -0.2136 -0.6288  1.1694
 6607SOL     OW26166   5.867   8.077   0.704  0.2094 -0.0345 -0.1298
 6607SOL    HW126167   5.795   8.075   0.641  0.8294 -0.4233 -0.8379
 6607SOL    HW226168   5.839   8.017   0.773 -0.8527  1.0333  0.4157
 6608SOL     OW26169   2.027   2.239   5.349 -0.5290  0.1320 -0.0543
 6608SOL    HW126170   2.097   2.303   5.334  0.0998 -0.5075  0.0903
 6608SOL    HW226171   2.037   2.213   5.440  0.7945 -1.9420 -0.7015
 6609SOL     OW26172   4.401   5.774   8.573  0.5099 -0.4846  0.0539
 6609SOL    HW126173   4.469   5.831   8.536  0.0284  0.6257  0.8242
 6609SOL    HW226174   4.416   5.778   8.667 -0.8916  0.1275  0.2624
 6610SOL     OW26175   8.397   2.086   8.674  0.0886  0.0766 -0.4107
 6610SOL    HW126176   8.415   2.025   8.745  1.0778 -1.7754 -2.1571
 6610SOL    HW226177   8.344   2.037   8.612 -0.1379  1.3909 -1.3090
 6611SOL     OW26178   4.860   3.009   6.770 -0.4552 -0.1247  0.5919
 6611SOL    HW126179   4.832   2.956   6.696  0.2219 -0.5898  0.6619
 6611SOL    HW226180   4.827   2.963   6.847 -0.1371 -0.2778  0.6374
 6612SOL     OW26181   3.655   8.505   0.172  0.1614 -0.1387  0.5102
 6612SOL    HW126182   3.578   8.493   0.115  1.2183 -1.1571 -0.7720
 6612SOL    HW226183   3.631   8.461   0.253  0.2323 -2.5659 -0.7071
 6613SOL     OW26184   7.019   3.069   2.508  0.2942 -0.4294  0.1201
 6613SOL    HW126185   7.069   2.998   2.469 -0.9972 -1.3041 -0.0188
 6613SOL    HW226186   6.939   3.074   2.456  0.2110  0.9377  0.3209
 6614SOL     OW26187   7.397   7.679   6.051 -0.7141  0.7113  0.4943
 6614SOL    HW126188   7.467   7.614   6.055 -1.9532 -0.7270  0.1117
 6614SOL    HW226189   7.388   7.710   6.141  0.2592  0.7606  0.5843
 6615SOL     OW26190   0.390   3.407   8.080  0.1201  0.3390 -0.0281
 6615SOL    HW126191   0.408   3.468   8.152 -0.6087  0.0059  0.4470
 6615SOL    HW226192   0.454   3.337   8.090 -0.6008 -0.2137  0.9100
 6616SOL     OW26193   9.192   3.114   1.922  0.0363  0.0495 -0.1015
 6616SOL    HW126194   9.122   3.166   1.960  0.4892  1.1075 -0.6669
 6616SOL    HW226195   9.172   3.024   1.947 -1.5232  0.3276 -0.2741
 6617SOL     OW26196   3.500   1.865   7.411 -0.1673 -0.1282 -0.0928
 6617SOL    HW126197   3.522   1.957   7.418  0.4488 -0.3844  2.4025
 6617SOL    HW226198   3.432   1.851   7.477 -2.4596 -0.9205 -2.4422
 6618SOL     OW26199   9.144   7.676   2.471 -0.2109  0.4531  0.2340
 6618SOL    HW126200   9.223   7.724   2.497 -0.1253 -0.4431  1.7299
 6618SOL    HW226201   9.171   7.625   2.395  0.8507 -0.2895  1.0775
 6619SOL     OW26202   8.231   3.840   9.001  0.0269 -0.0402  0.2673
 6619SOL    HW126203   8.201   3.797   9.081 -1.3801  1.0499  0.3612
 6619SOL    HW226204   8.174   3.807   8.932  0.3435  0.0563 -0.0489
 6620SOL     OW26205   1.925   6.624   4.300 -0.4199 -0.8456 -0.1409
 6620SOL    HW126206   1.942   6.694   4.237  0.3947 -2.1546 -1.4448
 6620SOL    HW226207   2.011   6.585   4.317 -0.8781 -1.6433  0.4356
 6621SOL     OW26208   1.403   0.040   2.719 -0.0239 -0.0182  0.1069
 6621SOL    HW126209   1.333   0.081   2.770  0.4033 -0.1999  0.8581
 6621SOL    HW226210   1.472   0.107   2.716  0.2018 -0.2367  0.3206
 6622SOL     OW26211   4.187   8.576   6.617 -0.5676  0.3664  0.4244
 6622SOL    HW126212   4.173   8.585   6.523 -0.5119  0.9562  0.4709
 6622SOL    HW226213   4.168   8.484   6.635 -0.0029  0.1101 -0.2608
 6623SOL     OW26214   6.840   7.482   1.734  0.1809  0.6872 -0.5252
 6623SOL    HW126215   6.815   7.568   1.699 -1.1260  0.0963 -1.0849
 6623SOL    HW226216   6.765   7.426   1.717  0.2737 -0.1340  1.4599
 6624SOL     OW26217   3.935   6.915   8.470  0.0539 -0.0775  0.1034
 6624SOL    HW126218   3.883   6.994   8.485  0.6337  0.3039  0.1219
 6624SOL    HW226219   3.929   6.900   8.375  1.7940  1.3045 -0.2706
 6625SOL     OW26220   0.595   0.120   1.048 -0.2539 -0.2696 -0.0457
 6625SOL    HW126221   0.530   0.175   1.093  0.5911 -0.4170  1.4271
 6625SOL    HW226222   0.606   0.044   1.105  1.4534 -0.0762 -0.0687
 6626SOL     OW26223   3.087   7.019   8.466 -0.7407 -0.3857  0.2011
 6626SOL    HW126224   3.158   6.969   8.507  0.5714  0.2772 -1.1474
 6626SOL    HW226225   3.021   6.954   8.442 -0.1618 -1.1487  0.6447
 6627SOL     OW26226   2.106   6.480   3.163  0.0646  0.2171 -0.0956
 6627SOL    HW126227   2.112   6.447   3.073 -2.0067  0.1869 -0.2820
 6627SOL    HW226228   2.043   6.421   3.205  1.3597 -0.0517  1.5431
 6628SOL     OW26229   2.983   7.521   1.415  0.1253 -0.1592 -0.3428
 6628SOL    HW126230   2.972   7.439   1.367  0.0706 -0.2342 -0.2016
 6628SOL    HW226231   3.075   7.520   1.443 -0.2285 -0.8143  0.8397
 6629SOL     OW26232   4.850   8.772   5.066  0.4699  0.6124  0.4731
 6629SOL    HW126233   4.796   8.693   5.071  0.9024  0.3057  0.2762
 6629SOL    HW226234   4.788   8.843   5.084  0.4060  0.1290  2.3838
 6630SOL     OW26235   6.989   9.189   5.045  0.5165 -0.6515  0.0980
 6630SOL    HW126236   6.969   9.268   5.095  0.8127  0.3011 -1.2207
 6630SOL    HW226237   7.051   9.219   4.978  0.4942 -1.9679 -0.5364
 6631SOL     OW26238   8.273   8.594   6.526  0.6031  0.4698  0.6476
 6631SOL    HW126239   8.252   8.625   6.614  0.8688 -2.9443  2.0901
 6631SOL    HW226240   8.194   8.612   6.474 -0.7942 -0.1642  2.4442
 6632SOL     OW26241   0.334   2.907   5.418  0.6164 -0.0134  0.0805
 6632SOL    HW126242   0.250   2.950   5.400  0.4088  0.4236  1.9002
 6632SOL    HW226243   0.376   2.900   5.332 -0.4687  1.4653 -0.6152
 6633SOL     OW26244   7.020   8.895   7.398  0.5304  0.4014  0.3633
 6633SOL    HW126245   7.108   8.908   7.361  0.3892  0.5484  0.0778
 6633SOL    HW226246   7.013   8.962   7.466  1.1857 -0.5245  1.3899
 6634SOL     OW26247   2.343   1.633   3.445 -0.0849 -0.0755  0.2747
 6634SOL    HW126248   2.388   1.572   3.388 -0.9441  0.0064 -0.5185
 6634SOL    HW226249   2.253   1.599   3.451  0.1873 -0.5894  2.3118
 6635SOL     OW26250   1.859   8.155   1.581 -0.4036  0.4774 -0.8312
 6635SOL    HW126251   1.922   8.216   1.620  1.9276 -2.5650  0.6521
 6635SOL    HW226252   1.792   8.144   1.648  0.1224  0.1431 -0.3458
 6636SOL     OW26253   7.508   7.858   4.550  0.1745 -0.5651 -0.0750
 6636SOL    HW126254   7.474   7.934   4.597 -2.5957 -0.1644 -2.4206
 6636SOL    HW226255   7.493   7.878   4.457  1.6228 -2.9715 -0.9287
 6637SOL     OW26256   6.117   8.562   8.122 -0.0954 -0.3960  0.8949
 6637SOL    HW126257   6.180   8.625   8.086  0.4531 -2.2336 -1.6303
 6637SOL    HW226258   6.171   8.490   8.154 -0.8074 -0.8393  1.1210
 6638SOL     OW26259   8.055   7.296   6.334  0.6352  0.2561 -0.0529
 6638SOL    HW126260   8.116   7.242   6.384 -0.0454 -0.0298  0.4804
 6638SOL    HW226261   8.003   7.233   6.283 -0.3178  0.3815  0.7483
 6639SOL     OW26262   1.888   7.798   1.608 -0.4162  0.4196 -0.2299
 6639SOL    HW126263   1.805   7.845   1.608 -0.2496  0.7230  0.2736
 6639SOL    HW226264   1.878   7.729   1.673 -0.7523 -0.4367 -1.1549
 6640SOL     OW26265   9.117   3.795   3.762 -0.3340 -0.5800  0.4597
 6640SOL    HW126266   9.086   3.706   3.781  0.0405 -0.2864  2.6676
 6640SOL    HW226267   9.182   3.813   3.829 -1.5048  1.9250  1.0566
 6641SOL     OW26268   3.156   8.072   9.079  0.2312  0.2350  0.0378
 6641SOL    HW126269   3.152   8.064   9.175 -0.5545 -0.7289 -0.0590
 6641SOL    HW226270   3.182   7.985   9.049 -0.2334  0.3302 -0.6645
 6642SOL     OW26271   3.045   5.938   7.696  0.3673  0.4382  0.0106
 6642SOL    HW126272   3.135   5.949   7.665 -0.3288 -0.3603 -2.5791
 6642SOL    HW226273   2.995   6.006   7.650 -0.7298 -0.7824 -0.6939
 6643SOL     OW26274   8.841   1.717   4.089 -0.1127  0.2118 -0.1878
 6643SOL    HW126275   8.933   1.713   4.113 -0.0165 -3.0308 -0.6689
 6643SOL    HW226276   8.796   1.664   4.154 -1.3484  0.0487 -1.1211
 6644SOL     OW26277   2.571   4.631   6.597  0.1039  0.1534 -0.2168
 6644SOL    HW126278   2.551   4.696   6.529 -0.8581  0.2980  0.1881
 6644SOL    HW226279   2.589   4.551   6.549 -2.7295 -0.3439 -0.6370
 6645SOL     OW26280   8.414   3.893   0.452 -0.7858 -0.3601  0.3511
 6645SOL    HW126281   8.367   3.894   0.536  1.8505 -0.4811  1.9193
 6645SOL    HW226282   8.445   3.803   0.443 -2.1905 -0.7162 -1.5186
 6646SOL     OW26283   7.665   2.866   9.166  0.3773 -0.5425  0.0771
 6646SOL    HW126284   7.687   2.881   9.258  1.2968 -0.7609 -0.1037
 6646SOL    HW226285   7.630   2.777   9.164 -3.0923  0.6420  0.7939
 6647SOL     OW26286   2.489   5.489   4.118 -0.7176  0.0522  0.4376
 6647SOL    HW126287   2.556   5.428   4.149 -1.1546 -0.4263  0.4537
 6647SOL    HW226288   2.432   5.501   4.194 -0.2505  1.0230  0.6474
 6648SOL     OW26289   4.694   5.363   0.139  0.1956 -0.5174  0.3064
 6648SOL    HW126290   4.753   5.438   0.153 -0.7698  0.2608  0.2956
 6648SOL    HW226291   4.612   5.389   0.179 -0.1395 -1.6219  0.3689
 6649SOL     OW26292   6.315   4.303   4.692  0.0087  0.2416 -0.3588
 6649SOL    HW126293   6.343   4.294   4.783 -1.2375 -0.4184 -0.0154
 6649SOL    HW226294   6.367   4.239   4.644  1.5878  1.4770 -0.3430
 6650SOL     OW26295   3.650   9.158   2.905 -0.0479 -0.0974  0.1197
 6650SOL    HW126296   3.624   9.081   2.956  2.1294  1.0044  3.2201
 6650SOL    HW226297   3.607   9.232   2.947  1.9077  0.8803  0.5259
 6651SOL     OW26298   5.481   0.108   8.710 -0.5705 -0.5467  0.8802
 6651SOL    HW126299   5.409   0.092   8.650 -1.8254 -0.9062  2.4106
 6651SOL    HW226300   5.498   0.202   8.703  0.9619 -0.9175 -1.7485
 6652SOL     OW26301   4.615   5.489   8.781 -1.3347 -0.0636 -0.0330
 6652SOL    HW126302   4.649   5.577   8.766  0.7750 -0.8586 -0.2468
 6652SOL    HW226303   4.616   5.447   8.695 -1.0040 -0.7248  0.2863
 6653SOL     OW26304   5.294   5.860   8.294 -0.0391  0.4272 -0.4972
 6653SOL    HW126305   5.378   5.815   8.291  0.2349  0.9620 -1.0187
 6653SOL    HW226306   5.276   5.871   8.387 -0.5114 -1.4647 -0.3189
 6654SOL     OW26307   9.075   0.860   0.679 -0.3045  0.1711 -0.0528
 6654SOL    HW126308   9.019   0.938   0.678  0.3579  0.6642 -1.6540
 6654SOL    HW226309   9.107   0.855   0.769 -1.0004  1.2697  0.2855
 6655SOL     OW26310   7.542   8.891   0.494  0.1772 -0.0615  0.9160
 6655SOL    HW126311   7.594   8.913   0.571 -0.9552  0.4838  1.5519
 6655SOL    HW226312   7.456   8.929   0.511  0.1627  0.9300 -1.0519
 6656SOL     OW26313   1.176   4.436   5.797  0.2772 -0.6209 -0.0449
 6656SOL    HW126314   1.133   4.469   5.875 -0.0689 -1.1314 -0.0171
 6656SOL    HW226315   1.125   4.359   5.771 -1.0651  0.8612 -2.1374
 6657SOL     OW26316   5.445   2.946   7.417 -0.4455 -0.0853 -0.1419
 6657SOL    HW126317   5.383   2.960   7.345 -2.0271 -0.8860  1.0116
 6657SOL    HW226318   5.519   2.902   7.376 -1.2669 -0.4506 -1.3002
 6658SOL     OW26319   9.233   2.335   6.418 -0.2585  0.0906 -0.0154
 6658SOL    HW126320   9.200   2.372   6.336 -1.3834 -0.4780  0.1618
 6658SOL    HW226321   9.285   2.259   6.391  1.1126  1.0918 -0.3081
 6659SOL     OW26322   1.930   3.867   7.372 -0.6305 -0.1568 -0.7699
 6659SOL    HW126323   1.994   3.813   7.326 -0.7478  0.3479 -1.5425
 6659SOL    HW226324   1.901   3.813   7.445  2.0046  0.2461  0.7343
 6660SOL     OW26325   6.079   5.096   1.620 -0.2407 -0.1864 -0.2282
 6660SOL    HW126326   6.023   5.174   1.617  0.6767  0.5448  0.9476
 6660SOL    HW226327   6.031   5.036   1.677 -1.0370 -0.5822 -1.2781
 6661SOL     OW26328   7.312   0.566   1.081  0.9090 -0.6613 -0.8877
 6661SOL    HW126329   7.284   0.514   1.006  0.3227 -0.2374 -0.9701
 6661SOL    HW226330   7.245   0.635   1.089  0.9506 -0.7178  0.0350
 6662SOL     OW26331   7.447   8.662   8.183  0.5280 -0.5638  0.2219
 6662SOL    HW126332   7.378   8.656   8.249 -0.9849 -1.4405 -1.3439
 6662SOL    HW226333   7.434   8.748   8.143  1.5437  0.0328  1.1294
 6663SOL     OW26334   0.401   6.137   0.024 -1.3235 -0.2995 -0.7058
 6663SOL    HW126335   0.417   6.058  -0.028 -1.7795 -0.1493 -1.0872
 6663SOL    HW226336   0.379   6.204  -0.041 -1.3253  0.0398 -0.3570
 6664SOL     OW26337   4.906   1.907   4.857  0.5447  0.7230 -0.6375
 6664SOL    HW126338   4.828   1.941   4.900  0.7188  0.4179 -0.0664
 6664SOL    HW226339   4.888   1.914   4.763 -1.1072 -1.4239 -0.5522
 6665SOL     OW26340   8.588   4.864   3.327 -0.0926 -0.2342  0.1190
 6665SOL    HW126341   8.614   4.786   3.376  0.9250 -0.9196 -1.4576
 6665SOL    HW226342   8.512   4.836   3.276 -0.1343  0.0072  0.0501
 6666SOL     OW26343   1.650   0.863   3.296  0.0772  0.5631  0.7568
 6666SOL    HW126344   1.685   0.797   3.356 -0.5270 -1.7164 -1.2572
 6666SOL    HW226345   1.724   0.923   3.281  0.8614 -0.0173  2.1116
 6667SOL     OW26346   6.340   8.517   8.978  0.2582  0.1895 -0.6297
 6667SOL    HW126347   6.260   8.527   8.927 -0.5010  0.5768  0.6046
 6667SOL    HW226348   6.363   8.606   9.004  0.6780 -0.0007 -0.3410
 6668SOL     OW26349   8.619   6.153   6.648  0.2936  0.3433  0.2460
 6668SOL    HW126350   8.662   6.153   6.562 -0.0814  1.0055  0.0544
 6668SOL    HW226351   8.530   6.123   6.629 -0.1554  1.6552  0.2087
 6669SOL     OW26352   8.434   1.171   8.004 -0.2605 -0.4277 -0.6507
 6669SOL    HW126353   8.421   1.101   7.941 -1.6205 -0.7453 -0.0408
 6669SOL    HW226354   8.508   1.142   8.058 -0.1245 -0.8879 -1.0860
 6670SOL     OW26355   4.703   0.588   2.823  0.7047 -0.0876 -0.0157
 6670SOL    HW126356   4.720   0.683   2.824 -3.1420  0.7792 -0.6683
 6670SOL    HW226357   4.696   0.565   2.916 -1.9880  1.1997  0.2020
 6671SOL     OW26358   4.882   5.727   8.495  0.5225 -0.5620 -0.2644
 6671SOL    HW126359   4.787   5.720   8.486  0.2645  1.1136  0.7529
 6671SOL    HW226360   4.916   5.708   8.408 -1.0014  2.1908 -1.5865
 6672SOL     OW26361   3.745   5.960   3.932  0.2479 -0.3472  0.2185
 6672SOL    HW126362   3.811   5.969   4.001 -1.3797 -2.3087  2.1703
 6672SOL    HW226363   3.685   5.893   3.964 -3.7856  2.5136 -0.5170
 6673SOL     OW26364   4.005   7.590   6.504  0.8473  0.1478  0.2142
 6673SOL    HW126365   3.955   7.612   6.426  1.8264 -1.2599 -0.8553
 6673SOL    HW226366   4.049   7.671   6.528  0.6610  0.5542 -0.7786
 6674SOL     OW26367   1.893   9.111   4.247  0.3614  0.0800  0.2911
 6674SOL    HW126368   1.886   9.082   4.338  0.3296 -2.9025 -0.5364
 6674SOL    HW226369   1.987   9.109   4.228  0.2349 -3.6456 -0.8097
 6675SOL     OW26370   6.899   5.248   4.524 -0.5395 -0.2429 -0.0043
 6675SOL    HW126371   6.920   5.327   4.574 -1.1372 -1.0193  1.5171
 6675SOL    HW226372   6.812   5.265   4.489 -0.4707 -0.0513 -0.0884
 6676SOL     OW26373   5.605   6.056   5.416  0.0379 -0.0363  0.1299
 6676SOL    HW126374   5.638   5.968   5.402 -1.5862 -0.5754 -0.4743
 6676SOL    HW226375   5.627   6.104   5.336 -1.0212 -0.5346 -0.4856
 6677SOL     OW26376   2.346   5.069   9.035  0.3861 -0.6861 -0.3819
 6677SOL    HW126377   2.285   5.011   8.990 -1.0082 -0.6097  1.3344
 6677SOL    HW226378   2.302   5.154   9.036  0.6808 -0.5375  0.5615
 6678SOL     OW26379   3.886   2.960   0.339 -0.5738 -0.4820 -0.3332
 6678SOL    HW126380   3.849   3.030   0.393 -0.9082 -0.2706 -0.8283
 6678SOL    HW226381   3.864   2.985   0.249 -1.2883 -1.5631 -0.4835
 6679SOL     OW26382   2.085   3.793   6.768 -0.0961 -0.4355  0.1687
 6679SOL    HW126383   2.001   3.824   6.802  0.1759  0.0121  0.4314
 6679SOL    HW226384   2.142   3.787   6.844  1.1793  2.6374 -0.4247
 6680SOL     OW26385   6.701   7.633   2.008  0.5144  0.2008 -0.6849
 6680SOL    HW126386   6.717   7.658   1.917  1.8597  0.6385 -0.3513
 6680SOL    HW226387   6.641   7.699   2.042  1.0133  0.7687 -0.9004
 6681SOL     OW26388   1.959   8.158   3.529 -0.4802 -0.2157  0.2355
 6681SOL    HW126389   1.881   8.209   3.506 -0.9634  0.2577  2.6647
 6681SOL    HW226390   2.023   8.224   3.559  1.3051 -0.4819 -2.5827
 6682SOL     OW26391   8.537   5.089   1.320 -0.7615  0.1245 -0.3463
 6682SOL    HW126392   8.631   5.072   1.320 -0.4737  1.3198  1.9903
 6682SOL    HW226393   8.503   5.033   1.391 -1.2789  1.9246  0.8888
 6683SOL     OW26394   5.529   1.141   5.008 -0.4260 -0.7483 -1.3397
 6683SOL    HW126395   5.537   1.080   4.935 -0.7760 -0.2045 -1.8440
 6683SOL    HW226396   5.619   1.166   5.029 -0.3144 -1.0471 -1.4664
 6684SOL     OW26397   0.762   8.417   2.767  0.1655  0.3021  0.2644
 6684SOL    HW126398   0.727   8.330   2.748 -0.8810  0.5550  0.9189
 6684SOL    HW226399   0.847   8.400   2.807 -0.1260 -0.4375  0.5961
 6685SOL     OW26400   1.024   8.710   3.108 -0.4937  0.2151 -0.1881
 6685SOL    HW126401   0.988   8.799   3.109  1.2827  1.0732 -2.5681
 6685SOL    HW226402   1.039   8.691   3.015 -0.8899 -2.6567  0.2364
 6686SOL     OW26403   5.581   4.846   8.336  0.1682  0.1765  0.1980
 6686SOL    HW126404   5.566   4.921   8.393 -0.3497  0.0872  0.1901
 6686SOL    HW226405   5.672   4.854   8.307  0.6996 -0.2234  1.6829
 6687SOL     OW26406   7.176   3.474   7.335  0.3727  0.1818 -0.0808
 6687SOL    HW126407   7.112   3.412   7.302  0.1543  0.9072 -1.0496
 6687SOL    HW226408   7.221   3.507   7.257  0.6477  1.0649  0.4339
 6688SOL     OW26409   4.013   2.283   7.307  0.1956  0.1846  0.4057
 6688SOL    HW126410   4.046   2.216   7.248  0.3392  0.1601  0.5131
 6688SOL    HW226411   3.979   2.352   7.250  1.5559  0.7701  0.2781
 6689SOL     OW26412   6.170   6.699   5.177 -0.0083 -0.3072 -0.2571
 6689SOL    HW126413   6.175   6.613   5.135 -1.1453  0.6283 -2.5146
 6689SOL    HW226414   6.077   6.709   5.199  0.1350  0.2917  0.0922
 6690SOL     OW26415   6.084   5.117   4.608  0.0574  0.3110  0.0068
 6690SOL    HW126416   6.160   5.065   4.634 -0.0847  0.0636 -0.0755
 6690SOL    HW226417   6.102   5.144   4.518  0.4990  1.0756  0.3146
 6691SOL     OW26418   7.287   7.101   6.427  0.3248 -0.1425 -0.7837
 6691SOL    HW126419   7.256   7.182   6.469  0.6945  0.3948 -1.5064
 6691SOL    HW226420   7.234   7.032   6.466 -0.1316  0.4721 -0.2771
 6692SOL     OW26421   1.802   8.963   5.864  0.1247 -0.0203 -0.3413
 6692SOL    HW126422   1.733   8.896   5.861  0.0352  0.0619 -0.1016
 6692SOL    HW226423   1.881   8.917   5.834  0.3330 -0.5644  0.9914
 6693SOL     OW26424   3.989   2.938   7.781 -0.4960 -0.0715  0.3446
 6693SOL    HW126425   4.053   3.004   7.809  1.6354 -1.8389 -0.0805
 6693SOL    HW226426   4.041   2.858   7.768 -2.7191 -1.4521 -0.6350
 6694SOL     OW26427   1.534   0.520   6.372  0.2827  0.2798 -0.0854
 6694SOL    HW126428   1.620   0.497   6.407 -0.5432 -0.4227  1.6098
 6694SOL    HW226429   1.552   0.551   6.284  2.4002  1.2028  0.5899
 6695SOL     OW26430   9.041   4.441   0.710 -0.3240 -0.2478  0.6414
 6695SOL    HW126431   9.096   4.520   0.718 -2.4277  1.2699  1.0017
 6695SOL    HW226432   9.095   4.371   0.746  2.8035  0.3559 -2.3362
 6696SOL     OW26433   1.009   8.796   6.497 -0.4465  0.4007 -0.0652
 6696SOL    HW126434   1.057   8.741   6.559 -1.5894  0.3095  0.7908
 6696SOL    HW226435   0.934   8.742   6.470 -1.4194  1.3896  0.5509
 6697SOL     OW26436   6.104   7.409   7.963  0.9112 -0.1092 -0.3373
 6697SOL    HW126437   6.074   7.327   8.002 -0.7915  0.3371 -0.6178
 6697SOL    HW226438   6.196   7.394   7.942  0.6761 -1.8814 -0.2167
 6698SOL     OW26439   4.510   4.979   7.956 -0.0965 -0.1237 -0.5558
 6698SOL    HW126440   4.490   5.046   7.891  0.9026  0.4500 -0.2954
 6698SOL    HW226441   4.446   4.910   7.941 -0.5010  0.4487 -1.4909
 6699SOL     OW26442   2.725   6.213   0.129 -0.4998  0.2424  0.2802
 6699SOL    HW126443   2.702   6.185   0.217  0.0234  0.8188  0.6020
 6699SOL    HW226444   2.665   6.285   0.110 -2.0678 -1.2335 -0.6720
 6700SOL     OW26445   2.984   8.993   1.100  0.1874 -0.4721 -0.2273
 6700SOL    HW126446   2.955   9.079   1.131 -1.1797 -0.7432 -0.7072
 6700SOL    HW226447   3.013   9.008   1.010  1.0947 -0.3011  0.0819
 6701SOL     OW26448   8.671   0.900   4.663 -0.0426 -0.3822  0.2196
 6701SOL    HW126449   8.679   0.832   4.730 -0.6244 -1.6391 -0.9341
 6701SOL    HW226450   8.688   0.982   4.709 -0.7038 -1.1858  1.9640
 6702SOL     OW26451   5.810   3.670   6.728 -0.8280  0.0981  0.2279
 6702SOL    HW126452   5.772   3.757   6.731 -0.6761  0.1509  0.6385
 6702SOL    HW226453   5.878   3.671   6.795  0.3526  0.2231 -0.9319
 6703SOL     OW26454   7.421   4.566   4.572 -0.4875  0.1415 -0.5093
 6703SOL    HW126455   7.513   4.580   4.551 -0.3869 -0.3323 -0.3883
 6703SOL    HW226456   7.406   4.473   4.553 -0.9885  0.2614 -0.7217
 6704SOL     OW26457   6.863   3.554   7.183 -0.1304  0.0430  0.2011
 6704SOL    HW126458   6.873   3.464   7.214  0.0266 -0.2998 -0.8147
 6704SOL    HW226459   6.774   3.579   7.210 -0.6431 -0.8586 -0.5769
 6705SOL     OW26460   6.769   0.459   3.868 -0.2136  0.1050 -0.1661
 6705SOL    HW126461   6.816   0.494   3.943 -1.5052  0.9027  0.3126
 6705SOL    HW226462   6.776   0.526   3.800  1.6826 -0.9781 -1.1153
 6706SOL     OW26463   1.266   0.991   7.173 -0.0674 -0.5054  0.1494
 6706SOL    HW126464   1.179   0.966   7.204 -0.2594 -1.2202 -0.9300
 6706SOL    HW226465   1.288   1.069   7.224 -1.2896 -0.3834  0.5195
 6707SOL     OW26466   0.607   3.223   8.359  0.1463  0.9930 -0.1910
 6707SOL    HW126467   0.565   3.170   8.291  1.2738  1.0901 -0.9817
 6707SOL    HW226468   0.551   3.212   8.436 -1.3835  1.2172 -1.2391
 6708SOL     OW26469   1.044   8.800   7.863 -0.2486  0.3673 -0.0668
 6708SOL    HW126470   1.008   8.768   7.946  0.3776 -0.5390 -0.1235
 6708SOL    HW226471   0.969   8.837   7.817 -0.9145 -0.5323  0.2561
 6709SOL     OW26472   6.155   4.909   3.299  0.5947 -0.0135 -0.0374
 6709SOL    HW126473   6.152   4.989   3.247 -0.3640  0.1532  0.2530
 6709SOL    HW226474   6.182   4.841   3.238  1.9251  0.6012 -0.1780
 6710SOL     OW26475   7.944   6.089   7.790  0.1315  0.0955  0.4728
 6710SOL    HW126476   7.865   6.040   7.768  0.5391  1.0123 -3.9452
 6710SOL    HW226477   7.912   6.175   7.817 -0.4819  0.6993 -1.9971
 6711SOL     OW26478   4.768   8.700   0.771  0.3016 -0.2226  0.2664
 6711SOL    HW126479   4.789   8.765   0.704  2.3727 -0.9827  0.1197
 6711SOL    HW226480   4.683   8.728   0.805 -0.1506  0.9843 -1.6810
 6712SOL     OW26481   3.384   3.144   3.433 -0.2721 -0.5595  0.1233
 6712SOL    HW126482   3.367   3.086   3.507 -1.1277 -1.5750 -0.8247
 6712SOL    HW226483   3.424   3.087   3.367  0.5763  0.3479 -0.1592
 6713SOL     OW26484   1.566   6.933   1.982 -0.2421 -0.4088 -0.1975
 6713SOL    HW126485   1.594   6.873   1.913  0.0421 -0.3858 -0.1040
 6713SOL    HW226486   1.472   6.920   1.989 -0.2017 -0.7359 -0.2804
 6714SOL     OW26487   3.122   4.792   5.133  0.0712  0.3181 -0.3857
 6714SOL    HW126488   3.068   4.715   5.148 -0.3710  0.8271  0.7555
 6714SOL    HW226489   3.206   4.771   5.175  0.1970  0.1896 -0.6949
 6715SOL     OW26490   4.800   7.421   5.758 -0.0763  0.0589  0.4847
 6715SOL    HW126491   4.824   7.500   5.808  1.7757 -0.7202  0.8921
 6715SOL    HW226492   4.738   7.375   5.815 -0.1253  0.5482  0.8397
 6716SOL     OW26493   1.615   2.672   5.919  0.3545  0.0671 -0.0927
 6716SOL    HW126494   1.648   2.683   6.008  1.8229 -1.2418 -0.4497
 6716SOL    HW226495   1.655   2.744   5.870  1.2601 -0.4572 -0.1372
 6717SOL     OW26496   0.458   4.710   7.433  0.7378  0.5914  0.2458
 6717SOL    HW126497   0.411   4.724   7.350  0.4782  0.2206  0.3259
 6717SOL    HW226498   0.430   4.781   7.489  1.0902  0.9769 -0.0601
 6718SOL     OW26499   1.403   4.527   0.241  0.8425 -0.6761 -0.2592
 6718SOL    HW126500   1.441   4.533   0.153  2.0261  0.4105  0.2896
 6718SOL    HW226501   1.404   4.433   0.261 -1.6468 -1.2586 -2.2723
 6719SOL     OW26502   4.798   3.970   7.377 -0.5865  0.1295  0.6191
 6719SOL    HW126503   4.717   4.018   7.396 -1.4017 -1.0124  0.1695
 6719SOL    HW226504   4.784   3.935   7.289  0.2869 -0.3245  0.6567
 6720SOL     OW26505   5.048   5.971   6.399  0.1209 -0.1843  0.7621
 6720SOL    HW126506   5.052   5.925   6.315 -1.6638 -0.1703  0.6305
 6720SOL    HW226507   5.017   6.058   6.377 -0.9883 -0.3749  1.4812
 6721SOL     OW26508   2.522   7.217   1.412  0.1337  0.1229 -0.3524
 6721SOL    HW126509   2.459   7.145   1.410  0.1816  0.0465  0.5056
 6721SOL    HW226510   2.571   7.205   1.494  1.4979 -0.0153 -1.1512
 6722SOL     OW26511   5.779   1.130   4.789  0.0054  0.2488 -0.6029
 6722SOL    HW126512   5.840   1.174   4.730  1.3074 -0.1330  0.4330
 6722SOL    HW226513   5.725   1.076   4.730  1.2809 -0.1381 -1.4570
 6723SOL     OW26514   5.014   1.420   4.541 -0.1628 -0.7728  0.3246
 6723SOL    HW126515   5.041   1.360   4.611  0.0490  0.1820  1.0947
 6723SOL    HW226516   5.066   1.393   4.465  0.7335 -0.8886  0.9577
 6724SOL     OW26517   4.318   2.043   0.306  0.0112 -0.4622 -0.2088
 6724SOL    HW126518   4.391   2.079   0.256 -1.2861 -0.5239 -2.2766
 6724SOL    HW226519   4.300   2.108   0.373  1.8577 -0.3916  0.2660
 6725SOL     OW26520   2.459   3.933   8.132 -0.5781  0.3420 -0.2701
 6725SOL    HW126521   2.482   3.986   8.208 -2.6731 -1.1851  1.5884
 6725SOL    HW226522   2.533   3.873   8.121 -1.0061 -0.6839  1.8775
 6726SOL     OW26523   8.523   6.417   3.988  0.2104 -0.3197 -0.3156
 6726SOL    HW126524   8.465   6.347   4.020 -1.1809  0.9230 -0.0210
 6726SOL    HW226525   8.574   6.442   4.065 -1.7249  1.2950  0.5179
 6727SOL     OW26526   5.428   1.606   5.976 -0.4856  0.8056 -0.0788
 6727SOL    HW126527   5.396   1.595   5.887 -0.4235 -0.9556  0.0924
 6727SOL    HW226528   5.432   1.518   6.012  0.9455  1.3288  1.1690
 6728SOL     OW26529   9.235   1.524   1.150 -0.6043  0.4672 -0.5403
 6728SOL    HW126530   9.305   1.524   1.084 -0.5020 -1.3763 -0.4788
 6728SOL    HW226531   9.176   1.455   1.122 -1.0147  0.2405  0.8439
 6729SOL     OW26532   4.578   6.274   2.667  0.0132 -0.0438 -0.1034
 6729SOL    HW126533   4.614   6.216   2.734 -0.0477  0.6011  0.5022
 6729SOL    HW226534   4.552   6.216   2.596 -1.3827 -0.9352  1.0810
 6730SOL     OW26535   0.242   2.434   3.981  0.0620 -0.3137  0.2929
 6730SOL    HW126536   0.255   2.340   3.967  0.5949 -0.2346  0.2073
 6730SOL    HW226537   0.330   2.471   3.972 -0.0631  0.1267  0.8499
 6731SOL     OW26538   0.205   9.240   3.637 -0.3522 -0.2572  0.4475
 6731SOL    HW126539   0.191   9.157   3.682  2.0302  0.1086  2.0697
 6731SOL    HW226540   0.117   9.271   3.615 -1.3186 -2.9822  0.1116
 6732SOL     OW26541   1.078   8.614   2.818 -0.0138  0.5558 -0.8356
 6732SOL    HW126542   0.998   8.664   2.802  1.1662  2.0938 -2.4169
 6732SOL    HW226543   1.068   8.535   2.765 -0.4420  0.7970 -1.1292
 6733SOL     OW26544   0.441   8.185   0.613 -0.0340 -0.1286 -0.3732
 6733SOL    HW126545   0.489   8.264   0.639 -1.6556  1.0999 -0.9199
 6733SOL    HW226546   0.417   8.201   0.522 -0.9690 -0.9442 -0.2831
 6734SOL     OW26547   9.187   1.114   7.975 -0.5144 -0.2013  0.1408
 6734SOL    HW126548   9.222   1.199   7.951 -1.3289  0.1413  0.1411
 6734SOL    HW226549   9.215   1.102   8.066  0.8624 -0.6142 -0.3060
 6735SOL     OW26550   0.067   6.597   0.777 -0.1872 -0.3958 -0.5194
 6735SOL    HW126551   0.133   6.628   0.715  2.2332 -0.6915  1.7039
 6735SOL    HW226552   0.074   6.657   0.851 -1.8206 -0.9846  0.1505
 6736SOL     OW26553   2.500   2.263   3.921  0.1238  0.0060 -0.5149
 6736SOL    HW126554   2.532   2.177   3.951 -0.9468 -0.6585 -1.1905
 6736SOL    HW226555   2.573   2.300   3.873  0.4755 -0.7175 -0.5614
 6737SOL     OW26556   8.027   5.535   5.329 -0.0151 -0.0606 -0.2422
 6737SOL    HW126557   8.105   5.505   5.283  1.0368 -0.9028  1.9435
 6737SOL    HW226558   7.971   5.457   5.336 -0.3000  0.1323 -0.3437
 6738SOL     OW26559   2.876   0.007   4.695  0.0254  0.5340 -0.2630
 6738SOL    HW126560   2.826  -0.066   4.733  0.9941 -0.9454 -1.7175
 6738SOL    HW226561   2.817   0.082   4.702 -0.9887 -0.3417  1.3300
 6739SOL     OW26562   6.395   4.598   8.761 -0.1568  0.0426  0.3163
 6739SOL    HW126563   6.385   4.506   8.734  0.2162 -0.0555  0.5028
 6739SOL    HW226564   6.487   4.618   8.744  0.0019  0.0888  1.1500
 6740SOL     OW26565   3.438   0.258   6.296  0.9336  0.5444  0.2675
 6740SOL    HW126566   3.437   0.327   6.229 -0.4794 -0.9802 -1.3641
 6740SOL    HW226567   3.395   0.299   6.372  0.5951  1.6127 -0.4728
 6741SOL     OW26568   7.829   1.848   2.237 -0.5432 -0.4775 -0.1314
 6741SOL    HW126569   7.781   1.893   2.306 -0.0592 -0.7357  0.3762
 6741SOL    HW226570   7.779   1.867   2.157 -1.0865 -0.1546  0.2793
 6742SOL     OW26571   1.084   5.352   0.506 -0.0324  0.3270  0.4158
 6742SOL    HW126572   0.994   5.335   0.534 -0.3482  2.7086  1.0656
 6742SOL    HW226573   1.075   5.411   0.431  0.9849 -0.5065 -0.3893
 6743SOL     OW26574   0.248   3.267   4.781 -0.2937  0.1358 -0.7006
 6743SOL    HW126575   0.253   3.229   4.693 -1.4029 -0.3745 -0.5595
 6743SOL    HW226576   0.225   3.194   4.838 -0.9445  0.7226 -0.1904
 6744SOL     OW26577   1.392   8.462   5.574  0.2800 -0.1783 -0.7868
 6744SOL    HW126578   1.480   8.440   5.604  0.3366  0.3537 -0.5507
 6744SOL    HW226579   1.361   8.527   5.636 -0.4311 -0.6333 -0.6484
 6745SOL     OW26580   4.535   1.490   8.207 -0.2716 -0.3539 -0.0571
 6745SOL    HW126581   4.555   1.457   8.119 -0.4171 -0.9776  0.1405
 6745SOL    HW226582   4.487   1.571   8.192  0.7456  0.1733 -0.5494
 6746SOL     OW26583   8.623   3.005   4.758 -0.0932 -0.0302 -0.0236
 6746SOL    HW126584   8.716   2.985   4.744 -0.3818 -1.1492 -0.4676
 6746SOL    HW226585   8.623   3.088   4.805  1.0829  1.0259 -1.7626
 6747SOL     OW26586   4.122   0.934   5.594  0.8471  0.1928 -0.3467
 6747SOL    HW126587   4.070   1.012   5.613 -2.1376 -1.4035 -1.3086
 6747SOL    HW226588   4.135   0.938   5.499 -1.8912 -1.7931 -0.9167
 6748SOL     OW26589   6.378   7.505   6.592 -0.4608  0.2072 -0.3787
 6748SOL    HW126590   6.463   7.525   6.552  0.8561 -0.8543  1.7031
 6748SOL    HW226591   6.376   7.557   6.672 -1.2486 -0.6772  0.1984
 6749SOL     OW26592   3.958   7.290   1.790  0.0665  0.0320  0.1952
 6749SOL    HW126593   3.913   7.374   1.789 -0.8578 -0.3993 -2.3207
 6749SOL    HW226594   4.039   7.305   1.741 -0.2753 -0.6062 -0.5885
 6750SOL     OW26595   0.550   0.676   4.722  0.4441  0.5596  0.6387
 6750SOL    HW126596   0.573   0.706   4.634 -0.0166 -1.2828 -0.1613
 6750SOL    HW226597   0.514   0.588   4.709 -0.1387  0.4466  2.6207
 6751SOL     OW26598   3.330   1.717   1.182  0.0366  0.3728 -0.1750
 6751SOL    HW126599   3.270   1.752   1.116 -0.0520 -0.3185 -0.4746
 6751SOL    HW226600   3.391   1.789   1.200  0.4462  0.3796 -1.4724
 6752SOL     OW26601   3.591   7.013   2.831  0.0648  0.7198 -0.7410
 6752SOL    HW126602   3.546   7.070   2.894  1.6234  2.5898 -1.2442
 6752SOL    HW226603   3.672   6.988   2.875 -1.1431 -2.3223  0.0074
 6753SOL     OW26604   4.001   4.739   0.140 -0.3832 -0.0443  0.6026
 6753SOL    HW126605   4.075   4.736   0.202 -1.7318 -1.3260  2.2584
 6753SOL    HW226606   3.962   4.652   0.146 -0.9501 -0.0038 -1.6643
 6754SOL     OW26607   1.877   5.518   0.957  0.3715 -0.1437  0.1685
 6754SOL    HW126608   1.883   5.611   0.937  0.0068 -0.0970  0.2764
 6754SOL    HW226609   1.919   5.509   1.043  2.4425 -0.4307 -0.8181
 6755SOL     OW26610   8.407   1.305   5.291 -0.2869  0.2965  0.4810
 6755SOL    HW126611   8.486   1.326   5.242 -2.0655  1.8465 -1.9767
 6755SOL    HW226612   8.369   1.230   5.245  0.2409 -1.2026  2.3452
 6756SOL     OW26613   0.988   0.515   0.854 -0.3800 -0.0312  0.1340
 6756SOL    HW126614   0.902   0.551   0.830  0.6567  1.7763 -1.1386
 6756SOL    HW226615   1.032   0.502   0.770  0.6162 -0.8640  0.7747
 6757SOL     OW26616   9.021   4.796   2.692  0.0310 -0.5686 -0.5806
 6757SOL    HW126617   9.076   4.864   2.730 -2.8064  1.1154  0.8153
 6757SOL    HW226618   9.030   4.808   2.597  1.5044  0.0398 -0.3968
 6758SOL     OW26619   3.770   2.898   1.722 -0.2293  0.2548  0.5110
 6758SOL    HW126620   3.813   2.961   1.780 -0.7337  0.6748  0.4370
 6758SOL    HW226621   3.786   2.932   1.634 -0.7281  0.4327  0.4844
 6759SOL     OW26622   8.678   1.561   4.809  0.1067  0.0738  0.7538
 6759SOL    HW126623   8.763   1.517   4.809 -0.0969 -0.4039  2.7303
 6759SOL    HW226624   8.625   1.512   4.872 -0.2961  2.7936  2.7316
 6760SOL     OW26625   1.323   4.229   8.509  0.2393 -0.1447  0.7257
 6760SOL    HW126626   1.311   4.143   8.468  2.0237  0.9090 -2.3719
 6760SOL    HW226627   1.342   4.210   8.600 -1.8669 -2.8452  0.7319
 6761SOL     OW26628   6.681   0.935   8.948  0.4810  0.0711  0.6756
 6761SOL    HW126629   6.713   0.854   8.988 -0.8692 -1.2467 -0.7905
 6761SOL    HW226630   6.707   0.927   8.856 -3.6740 -1.0365 -0.6081
 6762SOL     OW26631   7.927   6.746   8.969 -0.1025  0.6324  0.2217
 6762SOL    HW126632   7.832   6.754   8.964 -0.5041 -2.5757  0.6466
 6762SOL    HW226633   7.957   6.763   8.880 -1.3555 -0.4930 -0.4639
 6763SOL     OW26634   8.906   3.568   7.414  0.0338 -0.3102 -0.0788
 6763SOL    HW126635   8.877   3.491   7.463 -1.9217  0.1467 -0.4434
 6763SOL    HW226636   8.905   3.639   7.478  0.0187 -0.2273 -0.1715
 6764SOL     OW26637   6.112   8.491   8.842 -0.2007  0.0264  0.2951
 6764SOL    HW126638   6.074   8.576   8.823 -1.4078 -0.4113  0.6379
 6764SOL    HW226639   6.040   8.440   8.880 -0.2794 -1.9969 -2.2755
 6765SOL     OW26640   1.556   4.949   9.202 -0.3861 -0.7898 -0.2913
 6765SOL    HW126641   1.494   4.909   9.263 -0.1315 -0.9658 -0.1422
 6765SOL    HW226642   1.636   4.959   9.254 -0.2536 -0.6817 -0.5188
 6766SOL     OW26643   2.196   0.863   5.149 -0.2600  0.9604  0.3297
 6766SOL    HW126644   2.134   0.928   5.115  0.1267  1.3436  0.3364
 6766SOL    HW226645   2.165   0.780   5.115  0.7898  1.4411 -2.0410
 6767SOL     OW26646   2.441   4.055   8.929  0.3764  0.1067 -0.2873
 6767SOL    HW126647   2.349   4.026   8.926  0.6896 -1.0338  0.4393
 6767SOL    HW226648   2.489   3.987   8.882  1.0307 -0.1380  0.7073
 6768SOL     OW26649   2.062   8.606   1.710  0.2788  0.2458 -0.0993
 6768SOL    HW126650   2.054   8.663   1.633 -1.7078 -1.9645 -1.6612
 6768SOL    HW226651   2.156   8.601   1.725  0.5793  4.2249  0.4647
 6769SOL     OW26652   6.004   5.115   6.035  0.4766  0.0873  0.3724
 6769SOL    HW126653   5.993   5.194   5.982 -1.3250 -0.4652 -0.1119
 6769SOL    HW226654   6.092   5.083   6.012 -0.3618 -0.3397 -2.5705
 6770SOL     OW26655   0.334   0.909   5.530 -0.4854  0.4051 -0.4826
 6770SOL    HW126656   0.242   0.908   5.556 -0.7399  0.0509 -1.3748
 6770SOL    HW226657   0.382   0.917   5.613 -1.3120  0.5922 -0.0109
 6771SOL     OW26658   2.234   9.226   3.251  0.2449  0.0156  0.0697
 6771SOL    HW126659   2.171   9.287   3.290  0.4442 -0.5910  1.4185
 6771SOL    HW226660   2.206   9.140   3.282 -0.7520 -0.7806 -2.7665
 6772SOL     OW26661   7.839   0.751   3.046 -0.2965  0.3883 -0.3698
 6772SOL    HW126662   7.845   0.677   2.986  0.2891 -1.8413  2.2240
 6772SOL    HW226663   7.745   0.764   3.059 -0.4265 -0.8711  0.1530
 6773SOL     OW26664   2.661   5.366   4.511 -0.0253 -0.9688 -0.5095
 6773SOL    HW126665   2.624   5.281   4.489 -0.6449 -0.2451 -2.4424
 6773SOL    HW226666   2.597   5.404   4.572 -0.9247 -0.9746 -1.4259
 6774SOL     OW26667   4.554   3.808   4.458  0.3623  0.7618  0.2143
 6774SOL    HW126668   4.552   3.735   4.519 -0.5587 -0.1183 -0.8270
 6774SOL    HW226669   4.592   3.772   4.378 -2.3967  0.6775 -1.1610
 6775SOL     OW26670   8.232   7.730   7.200 -0.2171  0.0373  0.3231
 6775SOL    HW126671   8.145   7.767   7.190 -0.1537  0.2888  0.6971
 6775SOL    HW226672   8.255   7.747   7.291  0.3953  0.3424  0.1157
 6776SOL     OW26673   1.112   1.000   9.113  0.0776  0.1077  0.0507
 6776SOL    HW126674   1.047   0.991   9.044  0.8954  1.9137 -1.0405
 6776SOL    HW226675   1.071   1.057   9.178 -0.5208 -1.2270  0.8947
 6777SOL     OW26676   6.798   3.959   2.061  0.2490  0.6982 -0.8923
 6777SOL    HW126677   6.796   4.023   2.132  1.1104 -0.6437  0.3957
 6777SOL    HW226678   6.828   4.008   1.985  3.7475  1.2976  0.6890
 6778SOL     OW26679   1.148   6.293   6.001 -0.3400 -0.6247 -0.0134
 6778SOL    HW126680   1.210   6.263   5.935  0.2217 -0.7981  0.5778
 6778SOL    HW226681   1.198   6.357   6.052 -1.3014  0.8137 -0.8276
 6779SOL     OW26682   5.456   0.167   4.590 -0.4016 -0.3989 -0.2060
 6779SOL    HW126683   5.461   0.071   4.581 -0.0827 -0.4947  0.8775
 6779SOL    HW226684   5.363   0.186   4.584 -0.8131 -1.1254  2.4074
 6780SOL     OW26685   5.459   4.167   5.903  0.7666  0.2389  0.1488
 6780SOL    HW126686   5.426   4.078   5.911  0.4648  0.3337 -0.0242
 6780SOL    HW226687   5.534   4.171   5.962  1.2655 -0.3589 -0.4307
 6781SOL     OW26688   7.428   1.638   8.173  0.3543  0.3028  0.0290
 6781SOL    HW126689   7.413   1.691   8.095  1.6145  1.1212  0.3145
 6781SOL    HW226690   7.511   1.593   8.157 -0.3818 -1.1347  0.0636
 6782SOL     OW26691   8.697   8.807   2.692 -0.3675 -0.2064 -0.2285
 6782SOL    HW126692   8.688   8.766   2.779 -1.2600  1.7934  0.6770
 6782SOL    HW226693   8.784   8.782   2.663  0.1797 -0.4574  1.5162
 6783SOL     OW26694   0.228   3.156   5.759 -0.1354  0.2705 -0.0062
 6783SOL    HW126695   0.239   3.169   5.853  0.7722 -1.3745  0.1441
 6783SOL    HW226696   0.194   3.067   5.751 -1.5257  0.8589 -1.1840
 6784SOL     OW26697   0.726   7.592   8.847  0.1688  0.0891 -0.2940
 6784SOL    HW126698   0.793   7.529   8.820  1.6790  0.9763  1.2157
 6784SOL    HW226699   0.668   7.542   8.904  0.7159 -0.2194  0.0011
 6785SOL     OW26700   6.915   0.217   5.609 -0.3310 -0.2890 -0.4811
 6785SOL    HW126701   6.838   0.189   5.659  0.3481 -2.5872 -0.5911
 6785SOL    HW226702   6.971   0.259   5.673 -1.6206  1.4071 -0.3955
 6786SOL     OW26703   2.621   0.077   0.332  0.0920 -0.4271  0.0317
 6786SOL    HW126704   2.717   0.080   0.340  0.1315 -2.6347  1.3644
 6786SOL    HW226705   2.589   0.090   0.421 -0.9288  0.9188 -0.4950
 6787SOL     OW26706   6.224   2.120   5.923 -0.0332  0.2615  0.1259
 6787SOL    HW126707   6.144   2.172   5.930 -1.0517 -0.9795 -1.4528
 6787SOL    HW226708   6.201   2.035   5.961 -0.5813 -1.1600 -3.0447
 6788SOL     OW26709   2.326   7.084   1.990  0.0909  0.2893  0.0839
 6788SOL    HW126710   2.309   7.175   1.968 -0.0596  0.2000 -0.1648
 6788SOL    HW226711   2.403   7.060   1.939 -0.7718 -0.1802 -1.0402
 6789SOL     OW26712   0.056   7.950   0.616 -0.7582  0.1042 -0.2693
 6789SOL    HW126713   0.069   7.938   0.522  0.0035  0.0477 -0.1677
 6789SOL    HW226714   0.097   7.872   0.656 -0.0763  0.6663  0.1555
 6790SOL     OW26715   4.773   1.456   3.676 -0.5832  0.2133 -0.5405
 6790SOL    HW126716   4.679   1.476   3.678 -0.7619 -0.5309 -0.9568
 6790SOL    HW226717   4.807   1.508   3.603 -0.4320  1.4153  0.3628
 6791SOL     OW26718   4.205   6.831   8.396 -0.4404  0.1764  0.4750
 6791SOL    HW126719   4.212   6.829   8.301 -1.9304  1.3951  0.3000
 6791SOL    HW226720   4.113   6.852   8.413 -0.4529 -1.0940  2.2057
 6792SOL     OW26721   4.704   7.437   2.561  0.3383 -0.2216  0.0418
 6792SOL    HW126722   4.753   7.476   2.489  0.3235 -0.2558  0.0135
 6792SOL    HW226723   4.629   7.395   2.520  0.1891 -0.0168  0.1032
 6793SOL     OW26724   3.614   2.333   7.713  0.0550 -0.6676 -0.4498
 6793SOL    HW126725   3.599   2.288   7.630 -0.5283 -0.4304 -0.4757
 6793SOL    HW226726   3.553   2.293   7.774  0.5903 -0.9469 -0.0931
 6794SOL     OW26727   7.976   7.317   8.120  0.0756 -0.4998 -0.0447
 6794SOL    HW126728   8.000   7.320   8.213  1.4513 -0.8105 -0.3601
 6794SOL    HW226729   7.998   7.404   8.087  0.7819 -0.7759 -0.3312
 6795SOL     OW26730   1.909   2.170   4.789 -0.0083 -0.2737  0.4076
 6795SOL    HW126731   1.926   2.140   4.700 -2.7802 -0.9563  0.0078
 6795SOL    HW226732   1.937   2.261   4.790  1.1152 -0.5800 -0.7979
 6796SOL     OW26733   8.269   4.793   1.326 -0.0532 -0.1036  0.1329
 6796SOL    HW126734   8.196   4.756   1.375  0.2309 -0.6444  0.1555
 6796SOL    HW226735   8.300   4.866   1.380 -0.9537  0.5188 -0.1633
 6797SOL     OW26736   2.484   3.512   4.619 -0.8101  0.0201  0.6348
 6797SOL    HW126737   2.445   3.428   4.594  4.3777 -3.5205  2.5260
 6797SOL    HW226738   2.455   3.526   4.709  0.2144 -1.2859  1.2068
 6798SOL     OW26739   4.751   1.200   9.037  0.0197 -0.1274 -0.4265
 6798SOL    HW126740   4.724   1.226   9.125 -0.9326  0.7008 -0.9551
 6798SOL    HW226741   4.841   1.168   9.048 -0.4041 -0.8887  0.9914
 6799SOL     OW26742   4.963   3.297   2.823  0.1416  0.1661  0.7225
 6799SOL    HW126743   4.983   3.246   2.901  0.8513 -1.1140 -0.2614
 6799SOL    HW226744   4.998   3.245   2.751 -0.4620  1.3366 -0.4498
 6800SOL     OW26745   6.212   4.328   0.876  0.7624 -0.0810  0.1128
 6800SOL    HW126746   6.244   4.362   0.792  1.3368 -0.7011  0.0681
 6800SOL    HW226747   6.168   4.245   0.853  0.3732  0.0564  0.3508
 6801SOL     OW26748   3.025   8.721   0.096 -0.5977 -0.1672  0.3566
 6801SOL    HW126749   3.044   8.682   0.010  1.2425  0.4991  0.4141
 6801SOL    HW226750   2.979   8.652   0.144  1.6435 -1.9630  0.1075
 6802SOL     OW26751   8.506   2.012   4.657 -0.1593  0.4456  0.4871
 6802SOL    HW126752   8.553   1.970   4.585  0.2948  1.7575 -0.0192
 6802SOL    HW226753   8.536   1.966   4.735 -0.6973 -1.0349 -0.1363
 6803SOL     OW26754   1.825   8.999   9.110  0.4224 -0.9692 -0.1189
 6803SOL    HW126755   1.822   9.030   9.200  0.3887  0.2376 -0.5251
 6803SOL    HW226756   1.889   9.055   9.067  0.1492 -1.2770 -0.9451
 6804SOL     OW26757   5.190   2.777   8.664 -0.3076  0.2016  0.1500
 6804SOL    HW126758   5.116   2.743   8.613 -2.1191  1.4194  1.8059
 6804SOL    HW226759   5.228   2.844   8.608 -1.2064  0.3833 -0.2776
 6805SOL     OW26760   0.379   8.155   6.377 -0.1546  0.6500  0.3118
 6805SOL    HW126761   0.455   8.181   6.324 -0.1236  1.8304  0.9107
 6805SOL    HW226762   0.339   8.084   6.327  1.0568  0.3327 -0.2595
 6806SOL     OW26763   4.816   0.288   7.238 -0.0331  0.1898 -0.3399
 6806SOL    HW126764   4.766   0.300   7.157 -0.7869  0.0957  0.0950
 6806SOL    HW226765   4.787   0.360   7.295 -2.1075 -1.5923  1.0779
 6807SOL     OW26766   3.477   1.964   8.888  0.2454 -0.6900 -0.3838
 6807SOL    HW126767   3.534   2.039   8.870  1.1891 -1.5728 -1.1734
 6807SOL    HW226768   3.535   1.888   8.885 -0.8240 -1.5351 -0.3662
 6808SOL     OW26769   8.063   5.638   0.827 -0.2011 -0.4414  1.2170
 6808SOL    HW126770   8.060   5.679   0.914 -0.3638 -0.3390  1.1637
 6808SOL    HW226771   8.045   5.545   0.844  2.1875 -0.8973  1.5855
 6809SOL     OW26772   3.124   8.041   4.381  0.3477 -0.0677  0.8436
 6809SOL    HW126773   3.112   8.134   4.400  1.1144  0.2728 -0.2118
 6809SOL    HW226774   3.047   7.999   4.419 -1.8306  1.4098 -1.5122
 6810SOL     OW26775   5.153   8.434   4.256 -0.3097 -0.3754 -0.1116
 6810SOL    HW126776   5.152   8.339   4.258  0.1834 -0.4318 -1.4828
 6810SOL    HW226777   5.149   8.456   4.163 -1.1951  0.9615  0.2062
 6811SOL     OW26778   4.291   6.552   4.711  0.4255 -0.3366 -0.0446
 6811SOL    HW126779   4.304   6.507   4.627  0.6636  0.8257 -0.6562
 6811SOL    HW226780   4.376   6.544   4.755  0.3894 -0.7052 -0.0408
 6812SOL     OW26781   3.806   8.180   4.048  0.7684 -0.0085  1.0312
 6812SOL    HW126782   3.796   8.212   3.958 -1.1840  0.0146  1.2066
 6812SOL    HW226783   3.893   8.208   4.074  0.8129  1.2552 -0.3580
 6813SOL     OW26784   7.711   7.698   7.194 -0.5039 -0.6202  0.1807
 6813SOL    HW126785   7.659   7.764   7.148  0.5905  0.0145 -0.1850
 6813SOL    HW226786   7.655   7.669   7.266 -0.6498  1.4230  0.9370
 6814SOL     OW26787   3.705   6.247   5.899  0.3557  0.5008 -0.4901
 6814SOL    HW126788   3.779   6.298   5.931  0.7483 -0.3797  0.0272
 6814SOL    HW226789   3.633   6.268   5.959  1.0698 -1.0903  0.9877
 6815SOL     OW26790   6.671   7.405   5.602 -1.1923  0.0230  0.4721
 6815SOL    HW126791   6.596   7.463   5.614 -0.6270  1.0277 -0.6222
 6815SOL    HW226792   6.737   7.438   5.663 -0.8390  0.6044 -0.2142
 6816SOL     OW26793   4.175   3.789   4.941 -0.3003 -0.3430  0.6515
 6816SOL    HW126794   4.202   3.697   4.943 -0.2217 -0.3149  1.0819
 6816SOL    HW226795   4.087   3.787   4.902  0.2002 -0.4609 -0.5105
 6817SOL     OW26796   5.159   8.516   9.030 -0.4967  0.3230 -0.0196
 6817SOL    HW126797   5.075   8.481   8.998 -1.1706  3.3890 -2.0501
 6817SOL    HW226798   5.142   8.540   9.121 -2.2223  1.8052 -0.6784
 6818SOL     OW26799   6.984   3.869   8.561  0.1328  0.1529 -0.4434
 6818SOL    HW126800   7.069   3.827   8.570  0.7213  0.9878 -1.7924
 6818SOL    HW226801   6.924   3.798   8.538  0.5656 -0.3471 -0.0424
 6819SOL     OW26802   2.928   5.073   8.897  0.2208 -0.6435  0.2229
 6819SOL    HW126803   2.850   5.060   8.842  0.7771 -0.1029 -0.7111
 6819SOL    HW226804   2.974   4.989   8.893 -0.0905 -0.8333  0.4563
 6820SOL     OW26805   0.294   1.555   3.617  0.2640  0.5341  0.2642
 6820SOL    HW126806   0.227   1.604   3.569  1.9365 -0.4765 -3.4513
 6820SOL    HW226807   0.373   1.607   3.607  1.1665 -0.8652 -0.0691
 6821SOL     OW26808   0.501   5.995   1.008  0.1831 -0.5065  0.6042
 6821SOL    HW126809   0.476   6.041   0.927  0.4142  1.0185  1.3686
 6821SOL    HW226810   0.596   6.003   1.012  0.1702 -0.5742  1.0391
 6822SOL     OW26811   0.311   6.638   0.457 -0.3656  0.4495 -0.3501
 6822SOL    HW126812   0.352   6.647   0.543  1.8951 -1.3180 -1.1154
 6822SOL    HW226813   0.384   6.651   0.395 -0.8405 -2.9420 -1.8154
 6823SOL     OW26814   3.238   7.092   8.033  0.4272  0.4601  0.1599
 6823SOL    HW126815   3.221   7.146   8.110  1.0696 -0.1443  0.7497
 6823SOL    HW226816   3.334   7.088   8.026  0.3796  0.8109 -0.8994
 6824SOL     OW26817   2.088   3.572   6.370 -0.4339 -0.0258 -0.3710
 6824SOL    HW126818   2.023   3.503   6.384  0.3819 -0.8303 -0.5000
 6824SOL    HW226819   2.137   3.576   6.452  0.6794 -0.8495 -0.9684
 6825SOL     OW26820   1.399   1.642   0.253 -0.1629  0.5912 -0.0784
 6825SOL    HW126821   1.420   1.669   0.163  0.6841  0.6920  0.1407
 6825SOL    HW226822   1.438   1.555   0.262  2.0517  1.6014  0.9749
 6826SOL     OW26823   8.241   6.382   0.460 -0.4775 -0.5396  0.7755
 6826SOL    HW126824   8.239   6.471   0.424 -1.7827 -1.2571 -1.1002
 6826SOL    HW226825   8.333   6.358   0.462 -0.2129  0.3961  0.0565
 6827SOL     OW26826   7.301   6.052   3.692 -0.2745  0.4972  0.2350
 6827SOL    HW126827   7.219   6.075   3.735 -0.8457 -0.2978 -0.4051
 6827SOL    HW226828   7.344   5.992   3.753 -1.2226 -0.8721 -0.3991
 6828SOL     OW26829   6.684   8.251   6.824 -0.4449  0.6060 -0.3244
 6828SOL    HW126830   6.669   8.170   6.777 -2.2899  1.4609 -1.3057
 6828SOL    HW226831   6.622   8.250   6.897  0.2379  0.6914  0.2771
 6829SOL     OW26832   4.873   1.896   9.165 -0.0415 -0.1541  0.4752
 6829SOL    HW126833   4.798   1.877   9.222  0.2669 -0.3981  0.8077
 6829SOL    HW226834   4.885   1.817   9.113 -0.3658  0.0956  0.0218
 6830SOL     OW26835   0.424   0.830   3.310 -0.0817 -0.1217  0.1539
 6830SOL    HW126836   0.414   0.876   3.227 -1.6608 -0.7366 -0.0283
 6830SOL    HW226837   0.416   0.898   3.376 -1.1350  0.0534 -0.1463
 6831SOL     OW26838   8.795   7.961   1.641 -0.1877 -0.2273 -0.4898
 6831SOL    HW126839   8.845   7.887   1.675 -0.9321 -0.2437  0.6037
 6831SOL    HW226840   8.784   7.941   1.548  0.3282 -1.0797 -0.3817
 6832SOL     OW26841   0.319   9.076   1.024 -0.3827  0.3527  0.3005
 6832SOL    HW126842   0.270   9.103   1.102  0.0413 -0.3186  0.8087
 6832SOL    HW226843   0.252   9.065   0.956 -0.6798  1.6285  0.3606
 6833SOL     OW26844   1.373   9.057   5.814  0.1863 -0.4684  0.3730
 6833SOL    HW126845   1.354   9.079   5.722 -0.8224 -0.7518  0.5101
 6833SOL    HW226846   1.426   8.977   5.809 -0.3129 -0.7818  0.0571
 6834SOL     OW26847   1.710   3.255   2.019  0.1259  0.6269  0.2965
 6834SOL    HW126848   1.703   3.215   2.106  0.0444 -0.4062 -0.1740
 6834SOL    HW226849   1.630   3.306   2.010 -0.1841  0.1978  0.5600
 6835SOL     OW26850   2.427   1.680   5.551  0.0105 -0.2063  0.7485
 6835SOL    HW126851   2.517   1.651   5.563  0.5322  0.2842 -1.4786
 6835SOL    HW226852   2.430   1.774   5.565  1.0012  0.7060 -3.8054
 6836SOL     OW26853   6.234   7.475   5.616 -0.2455 -0.0928 -0.1088
 6836SOL    HW126854   6.307   7.429   5.658 -1.6734 -1.3568  1.0932
 6836SOL    HW226855   6.226   7.557   5.664  0.6353  0.2675 -0.5433
 6837SOL     OW26856   5.125   8.991   7.559  0.8383 -0.3129 -0.3303
 6837SOL    HW126857   5.126   8.929   7.487  2.3963 -1.3462  0.5204
 6837SOL    HW226858   5.077   8.947   7.629 -0.4786  0.5932 -0.6412
 6838SOL     OW26859   9.114   3.628   7.914 -0.6043  0.4554 -0.3830
 6838SOL    HW126860   9.117   3.682   7.835 -0.4883 -1.7787 -1.9854
 6838SOL    HW226861   9.204   3.600   7.928 -0.4244  1.7078  1.2474
 6839SOL     OW26862   8.690   0.698   4.857 -0.5047 -0.2196 -0.3250
 6839SOL    HW126863   8.751   0.714   4.928  0.1380 -1.0863 -0.6647
 6839SOL    HW226864   8.614   0.657   4.899 -0.5207  0.1290 -0.0142
 6840SOL     OW26865   0.595   8.618   1.456  0.3222  0.5937 -0.0757
 6840SOL    HW126866   0.574   8.712   1.457 -2.3926  0.0928  1.6119
 6840SOL    HW226867   0.691   8.614   1.459  0.5582  3.2767 -1.4974
 6841SOL     OW26868   3.048   2.439   3.498  0.8438 -0.2282 -0.3564
 6841SOL    HW126869   3.086   2.511   3.549  0.3705 -2.3392  3.2959
 6841SOL    HW226870   2.957   2.465   3.485  1.0630  0.4963 -0.5580
 6842SOL     OW26871   1.076   0.395   0.562 -0.3416  0.0847  0.1339
 6842SOL    HW126872   1.148   0.443   0.522 -0.2705  0.4482  0.6888
 6842SOL    HW226873   1.113   0.308   0.582 -0.6517 -0.4293 -1.4387
 6843SOL     OW26874   6.440   5.196   9.038 -0.6067 -0.0387 -0.4236
 6843SOL    HW126875   6.522   5.246   9.046 -0.0511 -0.7797 -1.3515
 6843SOL    HW226876   6.458   5.132   8.970 -1.6730 -0.8114  0.0093
 6844SOL     OW26877   0.935   0.601   6.369 -0.2090  0.8036  0.1965
 6844SOL    HW126878   1.029   0.600   6.355 -0.2986 -1.1475 -0.5962
 6844SOL    HW226879   0.900   0.650   6.294 -0.0770 -2.3886 -2.1504
 6845SOL     OW26880   3.794   0.590   7.997  0.0305 -0.2913 -0.1061
 6845SOL    HW126881   3.793   0.625   8.086  0.6153  0.0358 -0.2210
 6845SOL    HW226882   3.883   0.606   7.966 -0.7655  1.7356 -1.5854
 6846SOL     OW26883   5.722   5.510   6.640 -0.3540  0.3939 -0.1098
 6846SOL    HW126884   5.746   5.449   6.710 -1.9276 -1.6070 -1.2066
 6846SOL    HW226885   5.789   5.498   6.573  0.3454  1.2520  0.4111
 6847SOL     OW26886   3.450   7.683   0.334 -0.3154  0.0458  0.1921
 6847SOL    HW126887   3.400   7.666   0.414 -1.0074  0.0975 -0.2230
 6847SOL    HW226888   3.428   7.609   0.276 -0.6361  0.5475 -0.3324
 6848SOL     OW26889   8.408   0.692   5.753  0.0855  0.1587 -0.3022
 6848SOL    HW126890   8.340   0.745   5.795  0.3718  0.4577 -0.2103
 6848SOL    HW226891   8.479   0.754   5.735  0.2612 -0.1149 -0.5613
 6849SOL     OW26892   7.659   0.639   3.810 -0.6287  0.3177  0.2149
 6849SOL    HW126893   7.588   0.691   3.847  0.8982  1.6933  1.3716
 6849SOL    HW226894   7.719   0.703   3.771  0.5238 -0.6924  0.2298
 6850SOL     OW26895   3.962   3.221   5.369 -0.3065  0.3572  0.0622
 6850SOL    HW126896   4.031   3.288   5.366 -0.4909  0.5169 -0.6354
 6850SOL    HW226897   3.994   3.151   5.312 -0.1567 -0.1249  0.7175
 6851SOL     OW26898   8.172   8.564   9.102 -0.1886 -0.0907  0.3064
 6851SOL    HW126899   8.230   8.609   9.164  0.0754  1.1205 -0.7632
 6851SOL    HW226900   8.161   8.476   9.139  0.1239  0.5164  1.9356
 6852SOL     OW26901   2.365   6.482   6.238 -0.3893 -0.3500  0.8085
 6852SOL    HW126902   2.402   6.525   6.161 -1.7443  0.1890  0.4284
 6852SOL    HW226903   2.316   6.408   6.204 -0.0807 -0.7707  1.2591
 6853SOL     OW26904   1.714   1.477   4.447  0.0316  0.2014 -0.4819
 6853SOL    HW126905   1.748   1.398   4.403 -0.3971  0.5648 -1.4770
 6853SOL    HW226906   1.667   1.524   4.379 -1.7443  0.1585  0.6619
 6854SOL     OW26907   4.460   2.475   4.092 -0.2122  0.1913 -0.2159
 6854SOL    HW126908   4.434   2.444   4.006 -0.2220  1.7502 -0.8057
 6854SOL    HW226909   4.537   2.530   4.076  1.1682 -1.2768  1.0473
 6855SOL     OW26910   6.168   6.314   1.992  0.1170  0.1558  0.7349
 6855SOL    HW126911   6.197   6.279   1.907 -0.2469  1.6874 -0.0501
 6855SOL    HW226912   6.194   6.247   2.055  3.2139  0.3079 -0.1961
 6856SOL     OW26913   2.525   5.828   9.139  0.0186  0.1435 -0.6843
 6856SOL    HW126914   2.564   5.773   9.207 -1.6643 -1.6433 -1.0752
 6856SOL    HW226915   2.431   5.820   9.154 -0.3389  0.7040 -2.4705
 6857SOL     OW26916   0.232   7.280   3.269 -0.5136  0.1273 -0.4314
 6857SOL    HW126917   0.314   7.253   3.310 -0.6124 -2.6151 -1.7943
 6857SOL    HW226918   0.165   7.260   3.335 -0.3325 -0.6105 -0.4566
 6858SOL     OW26919   5.969   0.498   6.379  0.2731 -0.3952  0.0306
 6858SOL    HW126920   5.885   0.462   6.350 -0.0184  0.5390 -0.3118
 6858SOL    HW226921   5.946   0.576   6.429  0.8535 -1.1230  1.5035
 6859SOL     OW26922   1.446   4.416   2.236 -0.1565 -0.1303  0.1832
 6859SOL    HW126923   1.375   4.439   2.176  0.6530  0.3648 -0.5960
 6859SOL    HW226924   1.440   4.320   2.244  0.4524 -0.3421 -1.6206
 6860SOL     OW26925   0.840   8.932   7.722 -0.8037 -0.2099  0.1570
 6860SOL    HW126926   0.886   9.015   7.721  0.4780 -0.8506  1.6853
 6860SOL    HW226927   0.765   8.947   7.780  0.3289 -0.5227  1.7640
 6861SOL     OW26928   4.405   2.364   0.284  0.1765  0.0274  0.0630
 6861SOL    HW126929   4.480   2.314   0.251 -0.6291 -1.1617 -0.0273
 6861SOL    HW226930   4.391   2.330   0.373 -0.1305  0.4000  0.1602
 6862SOL     OW26931   6.996   1.688   8.239 -0.1407 -0.3132  0.1320
 6862SOL    HW126932   6.914   1.639   8.245 -0.4179  0.3155  2.7531
 6862SOL    HW226933   7.060   1.631   8.281 -0.0628  0.7215  1.4627
 6863SOL     OW26934   2.173   3.301   5.438 -0.1015 -0.8108 -0.1872
 6863SOL    HW126935   2.165   3.228   5.377 -0.1465 -0.2529 -0.8693
 6863SOL    HW226936   2.091   3.349   5.428 -0.1076 -0.7136  0.3179
 6864SOL     OW26937   0.899   3.431   4.922 -0.3015  0.2469 -0.6903
 6864SOL    HW126938   0.952   3.352   4.909 -1.4587 -0.5089 -0.9218
 6864SOL    HW226939   0.940   3.496   4.865  2.3317  0.6853  1.4839
 6865SOL     OW26940   5.664   1.831   7.631 -0.2740  0.2595  0.2138
 6865SOL    HW126941   5.734   1.864   7.575  2.7047 -1.8591  2.3935
 6865SOL    HW226942   5.700   1.835   7.719 -1.6613 -3.6267  1.1633
 6866SOL     OW26943   5.995   6.096   8.513 -0.3855  0.0090 -0.1241
 6866SOL    HW126944   5.969   6.053   8.431 -1.6633  0.7448 -0.1366
 6866SOL    HW226945   5.949   6.180   8.511  1.3027  0.9947  0.3392
 6867SOL     OW26946   5.834   2.636   7.647 -0.3895  0.0955 -0.0228
 6867SOL    HW126947   5.887   2.662   7.723 -0.4390 -0.4403  0.2015
 6867SOL    HW226948   5.824   2.541   7.657 -0.4961  0.0407 -0.6382
 6868SOL     OW26949   8.029   7.436   0.022 -0.3326 -0.2700  0.0661
 6868SOL    HW126950   8.080   7.410   0.099 -0.4112  1.6640  0.8132
 6868SOL    HW226951   7.941   7.450   0.055 -0.4351  0.2866 -0.4345
 6869SOL     OW26952   3.976   5.602   0.762 -0.2611  0.3809 -0.1587
 6869SOL    HW126953   4.037   5.545   0.714  0.3435 -1.2104  2.3009
 6869SOL    HW226954   4.002   5.691   0.738  0.5496 -0.3260 -2.0582
 6870SOL     OW26955   1.247   7.665   4.223 -0.1923 -0.3689 -0.2851
 6870SOL    HW126956   1.153   7.673   4.206  0.1397 -0.3597 -2.3649
 6870SOL    HW226957   1.271   7.747   4.266 -0.9719  0.0050 -0.5423
 6871SOL     OW26958   3.883   8.258   6.492 -0.1122  0.1339 -0.2332
 6871SOL    HW126959   3.870   8.279   6.400  1.0762 -1.5627 -0.8335
 6871SOL    HW226960   3.814   8.196   6.513 -0.6532  0.8584  0.1608
 6872SOL     OW26961   1.192   4.010   3.009  0.6684  0.4048  0.4883
 6872SOL    HW126962   1.110   3.992   2.962  0.6274  1.1619  0.2550
 6872SOL    HW226963   1.184   3.960   3.090 -0.3933  1.0979  0.8363
 6873SOL     OW26964   8.554   0.590   5.434 -0.2351 -0.2664 -0.1652
 6873SOL    HW126965   8.621   0.639   5.483 -1.6337  0.1149  1.4575
 6873SOL    HW226966   8.506   0.541   5.500 -1.2055 -0.9991 -1.3589
 6874SOL     OW26967   5.028   5.306   6.670 -0.5587  0.4111 -0.3614
 6874SOL    HW126968   5.087   5.368   6.626 -0.2641  3.2366  3.4864
 6874SOL    HW226969   5.086   5.247   6.717 -0.7362  1.3032  1.0293
 6875SOL     OW26970   5.510   4.875   4.605  0.1616  0.3603 -0.2187
 6875SOL    HW126971   5.566   4.871   4.682 -0.3354  1.4295  0.2312
 6875SOL    HW226972   5.515   4.966   4.577 -0.0438  0.0894 -1.1663
 6876SOL     OW26973   3.562   7.389   7.934 -0.2696 -0.2439  0.8258
 6876SOL    HW126974   3.603   7.336   8.003 -0.0832 -0.9111  0.2115
 6876SOL    HW226975   3.635   7.421   7.882 -0.4806 -1.1396 -0.0566
 6877SOL     OW26976   2.178   0.433   5.727  0.4774  0.6053 -0.0337
 6877SOL    HW126977   2.157   0.404   5.638 -1.4070 -1.2032  0.9138
 6877SOL    HW226978   2.248   0.374   5.756  1.6242  1.6775 -0.5243
 6878SOL     OW26979   6.227   8.644   2.893  0.1116 -0.1576 -0.1773
 6878SOL    HW126980   6.252   8.670   2.803 -2.3359  1.1517 -0.5605
 6878SOL    HW226981   6.261   8.555   2.902  0.4639 -0.3238 -2.3987
 6879SOL     OW26982   5.888   4.771   6.675 -0.0331  0.3739 -0.2579
 6879SOL    HW126983   5.957   4.832   6.647  0.3806  1.1617  2.2706
 6879SOL    HW226984   5.835   4.822   6.736 -1.2465 -1.0666 -0.0750
 6880SOL     OW26985   8.925   1.304   4.269  0.1049 -0.1390 -0.1119
 6880SOL    HW126986   9.005   1.253   4.278  1.1484  1.1262 -1.5581
 6880SOL    HW226987   8.903   1.299   4.176 -0.7145  0.6394  0.0209
 6881SOL     OW26988   2.499   6.867   4.967 -0.3193  0.1612  0.4390
 6881SOL    HW126989   2.415   6.911   4.980  0.1273  1.1904 -0.0327
 6881SOL    HW226990   2.488   6.820   4.884  0.5379  2.8329 -1.3219
 6882SOL     OW26991   7.502   4.756   9.084 -0.3207  0.0416  0.1045
 6882SOL    HW126992   7.498   4.800   9.169  1.5617  3.7183 -1.4616
 6882SOL    HW226993   7.575   4.695   9.092 -1.4165 -1.1754  1.6152
 6883SOL     OW26994   8.715   4.932   0.134 -0.4847 -0.4625  0.0211
 6883SOL    HW126995   8.727   4.891   0.220  1.8513  0.9806  0.4941
 6883SOL    HW226996   8.703   5.025   0.153  3.0146  0.3968 -1.1674
 6884SOL     OW26997   3.592   3.775   0.304 -0.5534  0.4933  0.1902
 6884SOL    HW126998   3.602   3.751   0.212  0.5230  0.8842  0.1923
 6884SOL    HW226999   3.509   3.823   0.307 -1.5432 -1.1248 -0.2262
 6885SOL     OW27000   0.846   8.496   5.454 -0.0575  0.0278 -0.1433
 6885SOL    HW127001   0.933   8.494   5.494  0.9537 -0.2902 -2.2167
 6885SOL    HW227002   0.789   8.456   5.520  1.7251 -1.6121  0.5196
 6886SOL     OW27003   6.446   7.326   1.695 -0.5641 -0.4259 -0.4608
 6886SOL    HW127004   6.420   7.394   1.758 -1.5412 -1.4108  0.2454
 6886SOL    HW227005   6.384   7.255   1.710  0.5595 -1.5681 -1.0377
 6887SOL     OW27006   0.344   3.166   8.542  0.7622 -0.1268 -0.0236
 6887SOL    HW127007   0.249   3.158   8.551  0.4289  3.3422  1.6776
 6887SOL    HW227008   0.359   3.261   8.542  4.2386 -0.5631 -0.3215
 6888SOL     OW27009   3.335   3.399   4.141 -1.1957 -0.3488  0.6113
 6888SOL    HW127010   3.405   3.352   4.186  0.4145 -0.1810 -1.5573
 6888SOL    HW227011   3.360   3.491   4.145 -1.1309 -0.3049 -0.3678
 6889SOL     OW27012   4.616   8.000   5.494  0.6761  0.8418  0.8402
 6889SOL    HW127013   4.693   7.949   5.468 -0.9638 -0.7663 -1.2379
 6889SOL    HW227014   4.615   8.075   5.435  0.1773  0.3756  0.2481
 6890SOL     OW27015   4.494   5.567   5.080 -0.3329 -1.2074  0.8049
 6890SOL    HW127016   4.585   5.541   5.071  0.0354  0.5190 -1.8148
 6890SOL    HW227017   4.445   5.485   5.086  1.2362 -2.2598 -0.0674
 6891SOL     OW27018   6.375   1.631   6.131  0.1790 -0.2409 -0.0887
 6891SOL    HW127019   6.294   1.581   6.119 -0.5329 -0.4130  3.9456
 6891SOL    HW227020   6.411   1.599   6.214  1.8980  3.0377  0.6068
 6892SOL     OW27021   1.709   7.511   7.057 -0.5240  0.7020 -0.7484
 6892SOL    HW127022   1.749   7.504   6.970  0.7276  1.3695 -0.2557
 6892SOL    HW227023   1.732   7.429   7.101 -1.4090  0.2336 -1.1145
 6893SOL     OW27024   0.849   2.971   2.856 -0.2540  0.5457  0.0019
 6893SOL    HW127025   0.928   3.017   2.884  0.2025 -0.5423  0.5756
 6893SOL    HW227026   0.879   2.911   2.787 -0.1648 -1.2399  1.5086
 6894SOL     OW27027   5.345   6.108   1.990  0.0821 -0.2751 -0.0240
 6894SOL    HW127028   5.315   6.118   1.899 -0.6696 -0.6669  0.1730
 6894SOL    HW227029   5.430   6.153   1.992 -0.8367  1.5761 -0.4058
 6895SOL     OW27030   6.555   4.948   8.621 -0.6212  0.4090 -0.7006
 6895SOL    HW127031   6.491   4.912   8.560 -0.4032 -4.0032  1.2841
 6895SOL    HW227032   6.514   4.940   8.707  2.2985 -2.4509  0.6329
 6896SOL     OW27033   3.213   1.595   1.902 -0.0704 -0.3253 -0.0971
 6896SOL    HW127034   3.147   1.654   1.939  0.4211  0.4680 -0.4604
 6896SOL    HW227035   3.245   1.545   1.976 -1.9646 -1.6509 -0.0795
 6897SOL     OW27036   3.187   1.214   8.520  0.2298  0.8579 -0.0179
 6897SOL    HW127037   3.127   1.279   8.556  0.2802  1.8113 -1.5461
 6897SOL    HW227038   3.136   1.133   8.516 -0.2329  1.1020  0.7440
 6898SOL     OW27039   6.051   1.346   2.475 -0.2411  0.0148  0.0661
 6898SOL    HW127040   6.028   1.316   2.387 -1.6980  2.4488 -0.4800
 6898SOL    HW227041   5.976   1.400   2.501  1.5770  1.9579  1.4931
 6899SOL     OW27042   7.354   4.011   1.486  0.5334 -0.2335  0.1925
 6899SOL    HW127043   7.380   3.919   1.491  1.0123 -0.0955  0.3298
 6899SOL    HW227044   7.420   4.057   1.537  1.0726  0.3478 -0.9997
 6900SOL     OW27045   8.176   1.190   2.475 -0.1791 -0.0269  0.6273
 6900SOL    HW127046   8.147   1.169   2.386  2.5268  0.3142 -0.4514
 6900SOL    HW227047   8.141   1.120   2.530 -0.9572 -0.8861 -0.9131
 6901SOL     OW27048   3.245   8.013   7.584 -0.0451  0.0220 -0.7349
 6901SOL    HW127049   3.221   8.064   7.507 -2.4560 -0.3217 -0.2763
 6901SOL    HW227050   3.162   7.979   7.618  1.1082 -1.1680  1.0952
 6902SOL     OW27051   5.903   3.329   3.570  0.0415  0.2799  0.0672
 6902SOL    HW127052   5.824   3.363   3.528 -0.3088  1.0143  1.2803
 6902SOL    HW227053   5.883   3.237   3.589 -1.1416  0.8346  1.7435
 6903SOL     OW27054   8.582   1.739   5.633 -0.1947 -0.1418 -0.2720
 6903SOL    HW127055   8.618   1.650   5.642  0.3250  0.1117  0.2094
 6903SOL    HW227056   8.631   1.791   5.697  0.4174  0.7754 -1.4545
 6904SOL     OW27057   6.880   9.159   9.065  0.5311 -0.0421  0.3406
 6904SOL    HW127058   6.871   9.127   8.975 -1.5242 -0.3610  0.5951
 6904SOL    HW227059   6.906   9.250   9.056  0.3896 -0.0817 -0.5986
 6905SOL     OW27060   2.276   1.843   4.177  0.2553 -0.1936 -0.2713
 6905SOL    HW127061   2.361   1.808   4.152  0.3398 -0.9843  1.0070
 6905SOL    HW227062   2.277   1.934   4.147  0.5100 -0.8982 -2.5618
 6906SOL     OW27063   4.400   5.896   1.955  0.2610 -0.0546  0.3429
 6906SOL    HW127064   4.440   5.961   2.012 -1.3820  0.8939  0.4708
 6906SOL    HW227065   4.473   5.857   1.908  1.3705  1.2532  0.9210
 6907SOL     OW27066   0.609   4.395   6.255  0.3061  0.2330 -0.3519
 6907SOL    HW127067   0.573   4.401   6.167  0.8933  0.1656 -0.6008
 6907SOL    HW227068   0.536   4.365   6.309 -0.3193  1.1941 -0.6394
 6908SOL     OW27069   6.799   1.587   9.227  0.2356  0.0821  0.2532
 6908SOL    HW127070   6.748   1.641   9.165  0.8852 -2.0775 -2.3196
 6908SOL    HW227071   6.748   1.506   9.235  0.5429  0.0300  2.0718
 6909SOL     OW27072   1.827   5.595   8.960 -0.0400 -0.3088  0.5340
 6909SOL    HW127073   1.782   5.650   8.896  2.3015  0.4516 -0.5392
 6909SOL    HW227074   1.825   5.508   8.921  2.2343  0.3200 -1.1514
 6910SOL     OW27075   4.618   0.747   1.425 -0.0621 -0.1690  0.0010
 6910SOL    HW127076   4.691   0.791   1.469 -0.2353 -0.0430  0.1639
 6910SOL    HW227077   4.637   0.654   1.437 -0.0351 -0.1365  0.2243
 6911SOL     OW27078   3.367   4.794   6.160 -0.4225 -0.0536 -0.9242
 6911SOL    HW127079   3.394   4.886   6.160  1.2810 -0.4968  0.7291
 6911SOL    HW227080   3.285   4.794   6.210  0.3382  0.4026  0.3601
 6912SOL     OW27081   1.633   5.704   7.550 -0.1329  0.2087 -0.5552
 6912SOL    HW127082   1.613   5.624   7.599  0.7328  0.5043  0.3146
 6912SOL    HW227083   1.724   5.724   7.574 -0.0176  0.9181 -1.5231
 6913SOL     OW27084   3.296   3.872   6.332  0.2462 -0.3956  0.2169
 6913SOL    HW127085   3.348   3.907   6.260 -0.8199  1.0555  0.1008
 6913SOL    HW227086   3.219   3.833   6.289  0.2448 -0.7022  0.4961
 6914SOL     OW27087   7.070   0.521   5.593  0.8012  0.0911 -0.3579
 6914SOL    HW127088   6.984   0.543   5.629  0.2290  0.2118 -1.7293
 6914SOL    HW227089   7.103   0.450   5.648  0.0045  0.3315  0.4321
 6915SOL     OW27090   1.370   2.583   1.090 -0.1524 -0.0260  0.0742
 6915SOL    HW127091   1.418   2.510   1.131  1.5316  1.0749  0.1689
 6915SOL    HW227092   1.346   2.640   1.163  2.2924  1.6148 -0.2843
 6916SOL     OW27093   3.808   9.244   3.163  0.8054  0.0329  0.0396
 6916SOL    HW127094   3.847   9.314   3.110  0.4508 -0.7501 -1.2971
 6916SOL    HW227095   3.879   9.182   3.178  1.4272  1.1518  2.1878
 6917SOL     OW27096   7.290   7.507   6.773  0.2345 -0.0849  0.2417
 6917SOL    HW127097   7.376   7.540   6.746 -0.3616  0.4545 -1.1063
 6917SOL    HW227098   7.241   7.585   6.798 -0.5980 -0.1009 -1.2290
 6918SOL     OW27099   2.909   5.435   5.759 -0.4909  0.3611  0.0735
 6918SOL    HW127100   2.999   5.431   5.727 -1.1002 -0.2379 -1.6768
 6918SOL    HW227101   2.893   5.348   5.796 -0.5594  0.2753 -0.1628
 6919SOL     OW27102   3.752   2.958   2.030  0.2265 -0.1897 -0.4017
 6919SOL    HW127103   3.844   2.970   2.052 -0.1439  1.8696  0.2770
 6919SOL    HW227104   3.714   2.917   2.109  0.6895 -2.0074 -1.0622
 6920SOL     OW27105   8.985   2.209   4.641  0.0523 -0.0975 -1.0608
 6920SOL    HW127106   8.918   2.143   4.660 -1.3021  1.4369 -0.2044
 6920SOL    HW227107   8.960   2.242   4.555 -0.5442  0.7320 -0.5822
 6921SOL     OW27108   7.250   1.264   2.393  0.5171  0.0597 -0.7681
 6921SOL    HW127109   7.288   1.337   2.443  1.3277  0.1832 -1.5378
 6921SOL    HW227110   7.265   1.287   2.302  0.0091 -0.6720 -1.0442
 6922SOL     OW27111   3.396   8.189   0.335  0.0122  0.1602 -0.4101
 6922SOL    HW127112   3.473   8.243   0.355  0.9111 -0.6424 -1.5551
 6922SOL    HW227113   3.421   8.101   0.364 -0.5763 -0.0564 -0.5613
 6923SOL     OW27114   2.019   6.132   6.701 -0.1698  0.1405 -0.1221
 6923SOL    HW127115   1.989   6.091   6.620 -1.2602 -0.1403  0.4067
 6923SOL    HW227116   2.004   6.065   6.768 -0.1155  0.6928  0.4447
 6924SOL     OW27117   0.683   8.888   7.175 -0.0266  0.0215  0.0334
 6924SOL    HW127118   0.646   8.824   7.236  0.2059 -0.9787 -0.8481
 6924SOL    HW227119   0.770   8.855   7.156 -0.4177 -0.1720 -1.5196
 6925SOL     OW27120   8.850   0.470   8.849 -0.4424 -0.4574 -0.2031
 6925SOL    HW127121   8.854   0.426   8.764 -0.9822 -1.1347  0.1089
 6925SOL    HW227122   8.934   0.449   8.891 -0.6977 -1.2322 -0.0487
 6926SOL     OW27123   1.437   0.422   9.099  0.5660 -0.2533  0.4637
 6926SOL    HW127124   1.454   0.515   9.089 -0.0362 -0.3162 -1.6839
 6926SOL    HW227125   1.352   0.417   9.141  0.9981  0.1291  1.4145
 6927SOL     OW27126   7.526   2.586   5.580 -0.6047  0.3022  0.3455
 6927SOL    HW127127   7.486   2.521   5.522  0.0914 -0.1497  0.3624
 6927SOL    HW227128   7.518   2.548   5.667 -2.9022  1.5868  0.7891
 6928SOL     OW27129   4.980   0.582   3.082 -0.3175  0.2315 -0.3551
 6928SOL    HW127130   5.010   0.541   3.001 -2.4970 -4.6017  0.8720
 6928SOL    HW227131   4.885   0.583   3.074 -0.6761 -1.4650  2.4189
 6929SOL     OW27132   2.224   2.099   4.700 -0.1495 -0.3420  0.1004
 6929SOL    HW127133   2.154   2.036   4.689 -0.8521  0.3197  0.6601
 6929SOL    HW227134   2.278   2.064   4.771 -1.2850  0.2989  1.3355
 6930SOL     OW27135   5.385   4.164   0.358  0.0068 -0.4962 -0.6238
 6930SOL    HW127136   5.300   4.200   0.335  0.7849  1.8893 -0.0211
 6930SOL    HW227137   5.448   4.232   0.334  1.4982 -1.0323  1.4663
 6931SOL     OW27138   7.336   2.922   4.929 -0.2370  0.9153 -0.3113
 6931SOL    HW127139   7.286   2.988   4.976  1.2250  1.6001  0.3421
 6931SOL    HW227140   7.320   2.840   4.977  0.7291  1.4849  1.0439
 6932SOL     OW27141   0.356   5.735   0.936 -0.4471 -0.3780  0.2301
 6932SOL    HW127142   0.272   5.761   0.897 -0.4263  0.4084  0.6786
 6932SOL    HW227143   0.402   5.818   0.949 -0.1868 -0.6833  1.3046
 6933SOL     OW27144   6.637   0.776   0.832 -0.4367  0.4674 -0.4482
 6933SOL    HW127145   6.566   0.721   0.797 -1.2138  0.4443  1.0765
 6933SOL    HW227146   6.638   0.852   0.775 -2.2803  0.8510 -0.0419
 6934SOL     OW27147   7.988   0.678   8.584  0.0917  0.0044  0.5891
 6934SOL    HW127148   7.936   0.599   8.597 -0.4026  0.0136 -1.0749
 6934SOL    HW227149   8.054   0.653   8.519  0.2693  0.8108  0.4436
 6935SOL     OW27150   5.522   0.492   1.617 -0.2528  0.2053  0.1390
 6935SOL    HW127151   5.477   0.521   1.537 -1.9244 -0.2729  0.8599
 6935SOL    HW227152   5.607   0.536   1.614 -0.6079  0.8529 -1.4795
 6936SOL     OW27153   0.369   6.703   0.714  0.0376  0.5696  0.2607
 6936SOL    HW127154   0.414   6.661   0.787  0.2144  1.2219  0.5366
 6936SOL    HW227155   0.388   6.796   0.725 -1.6252  0.9036  0.5725
 6937SOL     OW27156   5.181   0.885   0.714  0.0275 -0.0266  0.2721
 6937SOL    HW127157   5.264   0.892   0.761 -0.9538  0.1339  2.0807
 6937SOL    HW227158   5.187   0.800   0.669  0.3619 -1.0512  2.1227
 6938SOL     OW27159   6.081   0.611   7.131  0.0489 -0.3444 -0.6674
 6938SOL    HW127160   6.086   0.584   7.222  0.8665  2.9944  0.4028
 6938SOL    HW227161   5.994   0.583   7.102 -0.4662 -0.9230  1.3110
 6939SOL     OW27162   2.021   4.412   0.654  0.0691  0.4687 -0.4809
 6939SOL    HW127163   2.072   4.486   0.687 -0.8637  0.4859  0.9923
 6939SOL    HW227164   1.953   4.451   0.599  0.1727  0.6207 -0.5016
 6940SOL     OW27165   5.136   1.727   7.167  0.1572  0.8182  0.0012
 6940SOL    HW127166   5.049   1.686   7.170 -0.3771  1.7162 -2.0246
 6940SOL    HW227167   5.187   1.669   7.111  0.6070  0.7724  0.4574
 6941SOL     OW27168   0.551   8.561   9.179  0.3089 -0.0104 -0.0070
 6941SOL    HW127169   0.510   8.586   9.096 -1.0853  1.2034  0.9887
 6941SOL    HW227170   0.642   8.544   9.157 -0.0475  0.2123 -1.7907
 6942SOL     OW27171   4.699   3.118   8.172  0.6641 -0.1400  0.0595
 6942SOL    HW127172   4.740   3.031   8.172  1.0348  0.0335 -0.0579
 6942SOL    HW227173   4.772   3.179   8.165  0.3208  0.1454 -1.3352
 6943SOL     OW27174   7.179   4.531   4.355 -0.3399  0.1869 -0.5009
 6943SOL    HW127175   7.149   4.621   4.365  2.0301  1.0382 -0.2991
 6943SOL    HW227176   7.270   4.533   4.386 -0.7836 -2.6873  1.3015
 6944SOL     OW27177   1.698   9.078   6.595  0.1763  0.2579 -0.2499
 6944SOL    HW127178   1.609   9.062   6.566  0.4180  0.5632 -1.2024
 6944SOL    HW227179   1.736   8.990   6.604 -1.1326 -0.1135  3.3886
 6945SOL     OW27180   1.130   8.375   9.172 -0.1098  0.0957 -0.1933
 6945SOL    HW127181   1.184   8.440   9.128  3.0733 -1.4153  1.1889
 6945SOL    HW227182   1.141   8.394   9.265 -0.7918 -1.1815  0.1717
 6946SOL     OW27183   2.479   2.553   1.593  0.2987 -0.3267  0.1636
 6946SOL    HW127184   2.421   2.552   1.669 -0.3086  1.3143 -0.2301
 6946SOL    HW227185   2.468   2.641   1.556  2.6266 -0.1300 -0.2346
 6947SOL     OW27186   6.967   3.422   0.009  0.3164 -0.0895  0.0131
 6947SOL    HW127187   6.939   3.503  -0.033  0.3654 -0.1690 -0.1744
 6947SOL    HW227188   7.006   3.371  -0.062 -0.4489 -0.6197 -0.0289
 6948SOL     OW27189   1.952   3.875   2.958 -0.0786  0.2604  0.1306
 6948SOL    HW127190   1.930   3.968   2.953  0.7081  0.4525  0.1641
 6948SOL    HW227191   1.932   3.850   3.048  2.8869  1.2492  1.2030
 6949SOL     OW27192   8.516   3.815   9.142 -0.0386  0.3542  0.5684
 6949SOL    HW127193   8.566   3.734   9.150  0.5755  0.4926 -1.3942
 6949SOL    HW227194   8.425   3.787   9.135  0.3594 -0.4886 -3.0518
 6950SOL     OW27195   1.265   3.295   4.229  0.2686 -0.1131  0.6114
 6950SOL    HW127196   1.277   3.329   4.141 -0.3510 -1.3775  0.0215
 6950SOL    HW227197   1.171   3.274   4.235  0.5802 -1.5023  1.0070
 6951SOL     OW27198   2.770   8.831   2.542  0.5194  0.3670 -0.4231
 6951SOL    HW127199   2.746   8.912   2.498 -0.1522  0.8674  0.8001
 6951SOL    HW227200   2.852   8.851   2.587 -0.3504  0.8659  1.0362
 6952SOL     OW27201   4.637   2.642   5.790 -0.2301 -0.4326  0.1746
 6952SOL    HW127202   4.617   2.582   5.862  2.5658  1.9738  3.2851
 6952SOL    HW227203   4.563   2.703   5.788  0.2005  0.2321  2.0335
 6953SOL     OW27204   8.294   0.539   4.061 -0.0775  0.6241  0.6030
 6953SOL    HW127205   8.377   0.562   4.020 -0.7337  1.7861 -0.1186
 6953SOL    HW227206   8.319   0.494   4.141  1.2454 -0.9466 -0.6179
 6954SOL     OW27207   1.766   3.758   4.833  0.1447  0.1215  0.0528
 6954SOL    HW127208   1.750   3.715   4.749  0.9867 -1.4137  0.6342
 6954SOL    HW227209   1.796   3.846   4.809  1.9443 -0.7935 -1.3512
 6955SOL     OW27210   6.672   3.848   7.781 -0.3389 -0.1797  0.2323
 6955SOL    HW127211   6.689   3.776   7.721  0.2799 -1.0954  1.4599
 6955SOL    HW227212   6.592   3.889   7.748  0.3987 -0.1792 -1.6300
 6956SOL     OW27213   7.024   0.819   1.617 -0.1807  0.3126 -0.5724
 6956SOL    HW127214   7.077   0.894   1.643  3.5357 -2.2498  0.1234
 6956SOL    HW227215   6.975   0.795   1.696  0.9085  0.2945  0.1132
 6957SOL     OW27216   4.410   2.156   1.572  0.7417  0.0029  0.2586
 6957SOL    HW127217   4.357   2.188   1.645 -1.4067 -0.3410 -1.0481
 6957SOL    HW227218   4.416   2.061   1.587  3.2507  0.3163  1.7349
 6958SOL     OW27219   3.506   4.634   5.663  0.3878 -0.0159  0.0009
 6958SOL    HW127220   3.417   4.672   5.666  0.9849  1.4762 -0.1155
 6958SOL    HW227221   3.544   4.655   5.748  0.2383 -1.7469  0.5328
 6959SOL     OW27222   1.916   9.052   8.023 -0.1656  0.5607 -0.9657
 6959SOL    HW127223   1.970   9.066   8.101  0.2487  0.1177 -1.1695
 6959SOL    HW227224   1.827   9.074   8.052 -0.0384  0.2636 -0.3192
 6960SOL     OW27225   0.531   1.880   0.256  0.0496 -0.3143 -0.0893
 6960SOL    HW127226   0.488   1.916   0.179 -1.0887 -0.4968  0.4444
 6960SOL    HW227227   0.616   1.849   0.224 -0.2791 -0.1143 -1.1949
 6961SOL     OW27228   3.308   8.734   0.954  0.7558  0.2200 -0.6567
 6961SOL    HW127229   3.260   8.769   1.029 -0.8234 -0.8013 -1.1430
 6961SOL    HW227230   3.377   8.680   0.993  0.4046  0.2808  0.0731
 6962SOL     OW27231   2.915   6.457   5.878  0.6950  0.2749  0.7458
 6962SOL    HW127232   2.909   6.524   5.810 -1.7279 -0.1888  0.4267
 6962SOL    HW227233   2.861   6.490   5.949  0.4664 -0.7865  1.0809
 6963SOL     OW27234   1.294   6.517   3.146  0.7866 -0.0762 -0.2878
 6963SOL    HW127235   1.305   6.426   3.170 -1.5026 -0.1981  0.6100
 6963SOL    HW227236   1.330   6.566   3.220 -1.4242 -0.3823  1.0986
 6964SOL     OW27237   0.944   0.643   8.137 -0.2882 -0.3428  0.4990
 6964SOL    HW127238   0.940   0.564   8.192  0.8074 -1.6469 -1.2054
 6964SOL    HW227239   0.993   0.706   8.190 -0.0807 -1.2231  1.3967
 6965SOL     OW27240   6.553   5.827   8.870  0.3238 -0.1511 -0.5635
 6965SOL    HW127241   6.570   5.742   8.911  0.2261  0.6321  1.1990
 6965SOL    HW227242   6.577   5.815   8.778 -1.0433 -2.5013 -0.7084
 6966SOL     OW27243   7.705   4.647   2.964  0.0810  0.5712 -0.4693
 6966SOL    HW127244   7.757   4.590   3.020 -0.4426  0.1522 -0.3929
 6966SOL    HW227245   7.636   4.680   3.021 -0.7682 -0.2741 -0.9696
 6967SOL     OW27246   1.151   0.664   1.967 -0.0321  0.4062  0.5710
 6967SOL    HW127247   1.194   0.660   2.052  2.2531 -0.2989 -0.5315
 6967SOL    HW227248   1.214   0.709   1.910 -0.4681 -1.1602 -1.2669
 6968SOL     OW27249   4.965   8.014   4.160  0.4825 -0.0822 -0.0498
 6968SOL    HW127250   4.983   7.946   4.096  1.0830 -0.2564  0.3002
 6968SOL    HW227251   4.899   8.069   4.118 -0.6798 -1.3737  0.0211
 6969SOL     OW27252   3.280   2.587   2.393  0.1501 -0.1606 -0.4845
 6969SOL    HW127253   3.218   2.657   2.410  0.1204 -0.0294 -1.1098
 6969SOL    HW227254   3.227   2.514   2.363  0.1985 -0.3975 -0.0024
 6970SOL     OW27255   4.961   8.063   9.081  0.1597  0.3755  0.0576
 6970SOL    HW127256   5.056   8.075   9.074  0.3637 -0.6460  0.8051
 6970SOL    HW227257   4.924   8.133   9.027  1.2939  1.7749  1.0197
 6971SOL     OW27258   6.106   4.197   1.955 -0.4564 -0.5497  0.4288
 6971SOL    HW127259   6.017   4.181   1.922  0.1135 -1.2563 -0.8459
 6971SOL    HW227260   6.121   4.126   2.018  0.0077 -1.8041 -1.0457
 6972SOL     OW27261   5.385   5.433   3.322 -0.1760  0.3511 -0.0453
 6972SOL    HW127262   5.452   5.441   3.389 -0.5598 -0.5494  0.4704
 6972SOL    HW227263   5.433   5.406   3.243  0.0939 -0.1988  0.2971
 6973SOL     OW27264   2.508   4.738   7.868  0.1033  0.0551  0.3042
 6973SOL    HW127265   2.533   4.764   7.779 -0.3500  0.9606  0.4374
 6973SOL    HW227266   2.592   4.728   7.914  0.2903  2.0811  0.4667
 6974SOL     OW27267   8.527   7.064   8.077  0.4453 -0.0791 -0.2742
 6974SOL    HW127268   8.546   7.071   8.171 -1.3445  0.3283  0.0907
 6974SOL    HW227269   8.438   7.027   8.073  0.0703  0.8916 -1.7827
 6975SOL     OW27270   3.038   3.779   3.948 -0.0352  0.6952  0.1143
 6975SOL    HW127271   3.126   3.743   3.962 -0.6316 -0.6299  0.6088
 6975SOL    HW227272   2.981   3.702   3.944 -1.0785  1.4933 -0.9973
 6976SOL     OW27273   0.271   3.270   1.084  0.3071 -0.6330  0.1063
 6976SOL    HW127274   0.346   3.220   1.053  0.6435 -0.9118  1.3216
 6976SOL    HW227275   0.215   3.205   1.127  1.2136  0.1047  2.5879
 6977SOL     OW27276   1.868   0.800   0.719  0.5499 -0.5842 -0.6005
 6977SOL    HW127277   1.773   0.805   0.718  0.3948 -2.3965  0.3480
 6977SOL    HW227278   1.897   0.860   0.650 -1.2983 -0.7637 -1.5789
 6978SOL     OW27279   4.334   0.827   3.655 -0.0258 -0.0855  0.0514
 6978SOL    HW127280   4.373   0.880   3.586 -1.4589  1.8910  0.6803
 6978SOL    HW227281   4.332   0.738   3.618  2.6710  0.1830 -0.9305
 6979SOL     OW27282   3.844   0.162   8.415  0.3854  0.0664  0.2148
 6979SOL    HW127283   3.890   0.240   8.385  0.6895 -0.2680 -0.2125
 6979SOL    HW227284   3.774   0.150   8.351  2.4214 -1.9774 -1.8606
 6980SOL     OW27285   0.726   4.762   6.803  0.1010  0.3802 -0.1649
 6980SOL    HW127286   0.665   4.698   6.767 -0.6332 -0.5735  2.5188
 6980SOL    HW227287   0.672   4.836   6.830  0.5190  0.7518 -0.3235
 6981SOL     OW27288   2.725   8.400   4.774 -0.3102 -0.2505  0.0846
 6981SOL    HW127289   2.771   8.473   4.732  1.5610 -0.8036  1.0760
 6981SOL    HW227290   2.790   8.330   4.779 -1.6307 -1.4922  0.4866
 6982SOL     OW27291   6.027   4.023   7.029 -0.3778  0.0893 -0.4693
 6982SOL    HW127292   6.040   3.959   6.959 -0.6802  0.2811 -0.7009
 6982SOL    HW227293   6.082   4.097   7.004 -1.1001  0.4856 -0.9242
 6983SOL     OW27294   2.569   4.931   0.993  0.0716 -0.1096  0.1234
 6983SOL    HW127295   2.518   5.002   1.030  0.6941  0.6216 -0.3795
 6983SOL    HW227296   2.577   4.953   0.900  0.6115 -0.6219  0.0377
 6984SOL     OW27297   6.083   1.762   6.735 -0.1534 -0.2449 -0.2184
 6984SOL    HW127298   6.055   1.738   6.647  1.1783  1.8812 -1.3156
 6984SOL    HW227299   6.176   1.783   6.725 -0.4105  1.8857  1.2434
 6985SOL     OW27300   2.588   0.302   1.882  0.7389  0.2489  0.1266
 6985SOL    HW127301   2.539   0.291   1.800  2.7295  0.3630 -1.1215
 6985SOL    HW227302   2.573   0.220   1.929  0.2870 -0.1769 -0.7347
 6986SOL     OW27303   7.994   3.056   4.769  0.0810  0.0341 -0.1115
 6986SOL    HW127304   8.064   3.057   4.834  0.7028  1.5204 -0.7367
 6986SOL    HW227305   7.988   3.147   4.739 -0.5815 -0.4827 -1.6974
 6987SOL     OW27306   3.588   0.040   5.072  0.5349  0.0872 -0.0541
 6987SOL    HW127307   3.524   0.001   5.013 -2.0992  2.0863  1.2698
 6987SOL    HW227308   3.623  -0.034   5.122 -1.0170 -1.0564 -0.6034
 6988SOL     OW27309   4.529   6.769   1.879  0.8411 -0.2667  0.2851
 6988SOL    HW127310   4.541   6.677   1.902  1.1586 -0.1447  0.6195
 6988SOL    HW227311   4.509   6.768   1.785  0.3853 -0.7085  0.3791
 6989SOL     OW27312   8.854   0.289   1.877  0.2081  0.3873 -0.3531
 6989SOL    HW127313   8.842   0.340   1.797 -0.1034  1.8288  0.5787
 6989SOL    HW227314   8.780   0.229   1.878  0.3102  0.2292 -1.2222
 6990SOL     OW27315   4.912   5.551   6.727 -0.5451 -0.0466 -0.2671
 6990SOL    HW127316   4.938   5.462   6.703 -0.2273 -0.2023  0.6138
 6990SOL    HW227317   4.849   5.539   6.798 -2.7007  0.3416 -2.0059
 6991SOL     OW27318   8.082   6.710   5.121 -0.6549  0.2378  0.2662
 6991SOL    HW127319   8.038   6.626   5.109 -0.3282  0.1073 -0.0299
 6991SOL    HW227320   8.173   6.688   5.138 -0.6968  0.5095  0.8754
 6992SOL     OW27321   8.996   2.483   6.495  0.3589  0.4599 -0.1709
 6992SOL    HW127322   9.034   2.495   6.408 -0.9553 -0.8293 -0.9494
 6992SOL    HW227323   9.038   2.404   6.529  0.5270  0.7006  0.1929
 6993SOL     OW27324   3.561   5.286   6.436 -0.1551 -0.2903 -0.8623
 6993SOL    HW127325   3.492   5.278   6.370 -1.1963 -0.8292  0.2731
 6993SOL    HW227326   3.641   5.300   6.384 -1.3081  2.2157 -2.1781
 6994SOL     OW27327   4.711   3.532   7.832  0.1620  0.1086  0.0087
 6994SOL    HW127328   4.621   3.560   7.847  0.5261  1.8039 -0.6618
 6994SOL    HW227329   4.704   3.442   7.802 -1.3288  0.2537 -0.1405
 6995SOL     OW27330   1.323   1.838   2.954 -0.0039  0.1152 -0.3714
 6995SOL    HW127331   1.253   1.782   2.921  0.1214  0.2382 -0.8560
 6995SOL    HW227332   1.331   1.908   2.889  0.1505  0.4418 -0.0057
 6996SOL     OW27333   5.047   1.722   8.994  0.3574  0.2352  0.8776
 6996SOL    HW127334   4.971   1.676   8.957  0.4478 -1.3357  2.4909
 6996SOL    HW227335   5.091   1.655   9.047  2.6324  1.2409  0.3371
 6997SOL     OW27336   1.520   6.053   0.104 -0.0908 -0.2200 -0.0987
 6997SOL    HW127337   1.561   6.029   0.186  0.1375  2.3644  0.6434
 6997SOL    HW227338   1.590   6.094   0.053 -0.7927  0.5833 -0.4624
 6998SOL     OW27339   1.415   4.637   4.356 -0.2933 -0.1571  1.2434
 6998SOL    HW127340   1.393   4.720   4.400 -2.4225 -0.1857  0.3442
 6998SOL    HW227341   1.510   4.630   4.364 -0.2343  1.5961  2.7039
 6999SOL     OW27342   4.021   2.528   1.631  0.1528 -0.3998  0.2473
 6999SOL    HW127343   4.028   2.485   1.546 -0.3069 -0.0929  0.0501
 6999SOL    HW227344   4.111   2.543   1.657  0.3708 -2.3203  0.7638
 7000SOL     OW27345   1.831   0.590   3.225 -0.4074  0.3765  0.5179
 7000SOL    HW127346   1.767   0.600   3.155 -0.6898 -3.6980 -0.0891
 7000SOL    HW227347   1.779   0.568   3.302  0.0869 -1.6747  0.3269
 7001SOL     OW27348   2.657   0.509   2.053 -0.8854 -0.3331  0.2332
 7001SOL    HW127349   2.574   0.555   2.041 -1.4212 -1.5904 -1.1568
 7001SOL    HW227350   2.652   0.434   1.994  1.1134 -0.6177  0.3500
 7002SOL     OW27351   7.875   1.416   6.129  0.0169  0.3723 -0.2634
 7002SOL    HW127352   7.909   1.504   6.115  0.0461  0.3009 -0.6390
 7002SOL    HW227353   7.891   1.399   6.222 -0.6761  1.0488 -0.0117
 7003SOL     OW27354   5.900   8.428   7.423 -0.1889  0.0527 -0.4129
 7003SOL    HW127355   5.905   8.335   7.443 -1.0247 -0.0180 -0.5084
 7003SOL    HW227356   5.909   8.471   7.508  0.5082 -0.0986 -0.4060
 7004SOL     OW27357   7.883   2.661   4.245 -0.3854  0.4528 -0.2634
 7004SOL    HW127358   7.806   2.633   4.195  1.0202 -2.0475 -1.2349
 7004SOL    HW227359   7.892   2.595   4.314  0.3497  1.2747  0.4550
 7005SOL     OW27360   2.017   0.077   4.391 -0.1478  0.1146  0.1479
 7005SOL    HW127361   1.959   0.153   4.389  0.6248  0.7696  1.2607
 7005SOL    HW227362   1.975   0.015   4.451 -0.0629  0.2922  0.3942
 7006SOL     OW27363   0.896   1.270   5.334  0.4001  0.5069  0.0114
 7006SOL    HW127364   0.807   1.242   5.355  0.9708 -0.7722  0.8459
 7006SOL    HW227365   0.894   1.289   5.241 -1.0842  1.8785  0.2790
 7007SOL     OW27366   4.184   6.241   7.941 -0.0489 -0.4529 -0.1939
 7007SOL    HW127367   4.142   6.326   7.946 -2.5893 -1.6332  0.1813
 7007SOL    HW227368   4.263   6.255   7.887 -0.8702  1.9112 -0.8689
 7008SOL     OW27369   1.058   1.040   8.577  0.5402 -0.0810 -0.6218
 7008SOL    HW127370   1.027   1.111   8.522 -0.7521  0.1495  0.3543
 7008SOL    HW227371   0.997   1.038   8.651  2.5272  0.0216  1.1270
 7009SOL     OW27372   1.577   0.871   7.419  0.6289 -0.7681  0.1758
 7009SOL    HW127373   1.527   0.889   7.339 -1.8155 -2.4416  1.2044
 7009SOL    HW227374   1.577   0.953   7.467  1.4685  0.0486 -1.1557
 7010SOL     OW27375   6.325   0.798   0.781 -0.7341  0.5027 -0.1925
 7010SOL    HW127376   6.322   0.889   0.809  0.2856  0.6980 -0.6895
 7010SOL    HW227377   6.239   0.782   0.742 -0.0069  2.0790 -2.6386
 7011SOL     OW27378   8.097   0.461   0.675 -0.0901  0.7626 -0.0835
 7011SOL    HW127379   8.129   0.404   0.744 -0.4833 -1.4842 -1.6731
 7011SOL    HW227380   8.103   0.409   0.595 -3.3647  1.7903 -1.1648
 7012SOL     OW27381   6.423   0.395   1.363  0.4625 -0.2760 -0.1042
 7012SOL    HW127382   6.504   0.421   1.319  2.0791 -2.8707  1.1194
 7012SOL    HW227383   6.418   0.452   1.439  0.8112  0.2697 -0.4801
 7013SOL     OW27384   3.470   5.275   1.130  0.3980  0.3261 -0.0901
 7013SOL    HW127385   3.475   5.350   1.071 -0.5285 -0.2435 -0.9282
 7013SOL    HW227386   3.545   5.221   1.107  0.3770  0.3987 -0.3353
 7014SOL     OW27387   4.127   6.811   0.959  0.2438  0.0416 -0.8609
 7014SOL    HW127388   4.074   6.882   0.924  0.1776  0.2064 -0.4299
 7014SOL    HW227389   4.081   6.783   1.039  1.9012  1.6246  0.7501
 7015SOL     OW27390   1.096   6.290   0.195  0.0183  0.0204 -0.3739
 7015SOL    HW127391   1.020   6.238   0.218 -0.3749  0.2864 -1.0526
 7015SOL    HW227392   1.169   6.246   0.238 -0.4985 -0.3015  0.1837
 7016SOL     OW27393   1.343   1.736   3.248  0.2461  0.3815 -0.5893
 7016SOL    HW127394   1.349   1.771   3.159 -0.1243 -1.1093 -1.2235
 7016SOL    HW227395   1.270   1.785   3.288  1.5786  2.3709 -0.4333
 7017SOL     OW27396   6.852   8.304   7.714 -0.3977 -0.5374 -0.0506
 7017SOL    HW127397   6.759   8.323   7.704 -0.0623  0.3410 -1.7837
 7017SOL    HW227398   6.896   8.365   7.655  1.2039 -1.7891 -0.2290
 7018SOL     OW27399   1.373   0.026   3.298  0.4933 -0.3125 -0.0601
 7018SOL    HW127400   1.324   0.103   3.329  0.5484 -0.2805 -0.0529
 7018SOL    HW227401   1.386  -0.027   3.377  1.5196  0.2512  0.1692
 7019SOL     OW27402   1.478   0.710   9.094 -0.3536  0.3858  0.6816
 7019SOL    HW127403   1.397   0.730   9.047  0.6454  1.1271 -0.8012
 7019SOL    HW227404   1.500   0.791   9.140  1.4110  1.4668 -1.8552
 7020SOL     OW27405   8.297   8.022   6.283  0.3230 -0.3012 -0.0342
 7020SOL    HW127406   8.211   8.048   6.250  0.8351  1.4775 -0.0503
 7020SOL    HW227407   8.298   7.926   6.276 -0.8240 -0.2032 -2.0837
 7021SOL     OW27408   7.049   2.945   2.852 -0.1248 -0.6936  0.0596
 7021SOL    HW127409   6.995   2.868   2.831 -1.2198  0.1055 -0.1467
 7021SOL    HW227410   6.999   3.019   2.819  1.1861  0.0824 -0.2693
 7022SOL     OW27411   2.425   2.599   8.885 -0.1972  0.1319  0.4474
 7022SOL    HW127412   2.507   2.643   8.863 -0.0821  0.1918  0.9830
 7022SOL    HW227413   2.361   2.636   8.825  0.0671  0.4511  0.3583
 7023SOL     OW27414   6.811   7.058   3.097  0.0470 -0.0353 -0.1877
 7023SOL    HW127415   6.825   7.100   3.012 -1.4921  0.8379 -0.0513
 7023SOL    HW227416   6.823   6.965   3.080 -0.7459  0.0777 -1.4802
 7024SOL     OW27417   1.690   2.623   8.199  0.2145 -0.1218  0.0443
 7024SOL    HW127418   1.669   2.710   8.234 -0.1067 -0.3669  0.4523
 7024SOL    HW227419   1.635   2.615   8.121  1.9881  1.0285 -1.4070
 7025SOL     OW27420   6.656   5.630   3.341 -0.3377 -0.4435 -0.5615
 7025SOL    HW127421   6.704   5.550   3.361 -1.0856 -0.7837 -0.0653
 7025SOL    HW227422   6.680   5.691   3.411 -0.8240 -0.7086 -0.1507
 7026SOL     OW27423   1.739   0.621   9.183 -0.4484 -0.3872  0.8649
 7026SOL    HW127424   1.762   0.670   9.262 -0.3977 -0.3090  0.8016
 7026SOL    HW227425   1.727   0.531   9.214 -1.3871 -0.1808  1.1296
 7027SOL     OW27426   3.957   4.333   9.039  0.1827 -0.2330 -0.2429
 7027SOL    HW127427   4.040   4.291   9.062  0.3303  0.0101 -0.3259
 7027SOL    HW227428   3.978   4.390   8.965 -0.4620 -1.6645 -1.5905
 7028SOL     OW27429   0.560   3.973   5.114  0.3970  0.4264 -0.5695
 7028SOL    HW127430   0.563   3.979   5.018 -1.4065 -2.0138 -0.8759
 7028SOL    HW227431   0.467   3.981   5.135  0.6469 -0.2283  0.8691
 7029SOL     OW27432   1.568   1.250   4.997  0.1642  0.2916  1.1871
 7029SOL    HW127433   1.507   1.255   4.923  0.9263 -0.6693  0.4733
 7029SOL    HW227434   1.636   1.314   4.976  1.2866 -1.1602  0.1592
 7030SOL     OW27435   3.718   3.477   8.413 -0.7845 -0.2029  0.1965
 7030SOL    HW127436   3.774   3.402   8.433 -0.7490 -0.5382 -1.0874
 7030SOL    HW227437   3.673   3.496   8.496 -0.3852 -1.2905  0.6795
 7031SOL     OW27438   6.409   4.984   8.858 -0.0489 -0.3470  0.6988
 7031SOL    HW127439   6.329   5.038   8.854 -0.2307 -0.6853 -0.6952
 7031SOL    HW227440   6.380   4.901   8.895 -1.0758 -1.5982 -2.5815
 7032SOL     OW27441   4.725   5.034   4.561  0.1684  0.2199  0.0194
 7032SOL    HW127442   4.648   5.004   4.610  0.1371  0.7075  0.2730
 7032SOL    HW227443   4.776   5.084   4.625  0.2279  0.6941 -0.3949
 7033SOL     OW27444   1.843   5.694   1.431  0.4914  0.9780  0.3688
 7033SOL    HW127445   1.869   5.618   1.484 -1.1540 -0.7262 -1.1018
 7033SOL    HW227446   1.760   5.722   1.469  0.0487  0.6817 -0.3566
 7034SOL     OW27447   2.937   3.063   8.718 -0.3691 -0.2185 -0.0208
 7034SOL    HW127448   3.003   3.084   8.783  0.4778  0.5329 -1.0933
 7034SOL    HW227449   2.864   3.026   8.768  0.5992 -0.4602  1.2439
 7035SOL     OW27450   6.912   4.363   1.384  0.1695  0.1464 -0.3710
 7035SOL    HW127451   6.965   4.337   1.459  2.1927  3.0362 -0.6640
 7035SOL    HW227452   6.899   4.281   1.334  1.7072 -1.1921  1.2995
 7036SOL     OW27453   2.737   8.718   8.357 -0.3006  0.0104  0.0974
 7036SOL    HW127454   2.751   8.628   8.387  0.4787  0.4312  1.0468
 7036SOL    HW227455   2.824   8.758   8.359 -0.0752 -0.0307 -3.2278
 7037SOL     OW27456   6.294   6.689   8.918 -0.5429 -0.3761 -0.2559
 7037SOL    HW127457   6.381   6.703   8.957 -0.1544 -0.9240 -0.8942
 7037SOL    HW227458   6.236   6.676   8.993  0.0695 -0.7395  0.1673
 7038SOL     OW27459   3.060   8.668   8.562  0.5644 -0.0757  0.1514
 7038SOL    HW127460   3.106   8.669   8.478 -0.1671  0.0105 -0.2558
 7038SOL    HW227461   3.050   8.576   8.583 -0.5217 -0.1369 -0.5748
 7039SOL     OW27462   4.221   8.446   6.919  0.4490 -0.4507  0.6772
 7039SOL    HW127463   4.144   8.498   6.942 -0.3198 -1.3405  0.1784
 7039SOL    HW227464   4.187   8.358   6.904  1.5416 -0.8212  0.2776
 7040SOL     OW27465   5.727   6.015   0.843 -0.1576 -0.4050 -0.5893
 7040SOL    HW127466   5.817   6.024   0.874 -0.7402 -0.9876  1.4454
 7040SOL    HW227467   5.676   6.077   0.896 -1.3095 -1.9513  0.2121
 7041SOL     OW27468   1.443   3.267   4.437 -0.0542 -0.0174  0.4476
 7041SOL    HW127469   1.368   3.271   4.378 -0.2263 -1.0334  0.5621
 7041SOL    HW227470   1.516   3.238   4.382  0.0172  0.0161  0.5247
 7042SOL     OW27471   2.090   6.468   7.140  0.5234  0.3803  0.2484
 7042SOL    HW127472   2.037   6.392   7.116  1.0043  0.6182 -1.7198
 7042SOL    HW227473   2.141   6.439   7.216 -0.0604 -0.9097  0.1689
 7043SOL     OW27474   7.745   1.269   3.693  0.7058 -0.0847 -0.2048
 7043SOL    HW127475   7.795   1.213   3.752  1.2924  1.0073  0.3770
 7043SOL    HW227476   7.774   1.243   3.605 -2.9496 -4.4307 -0.4706
 7044SOL     OW27477   4.276   7.098   7.320  0.0496  0.0252  0.1458
 7044SOL    HW127478   4.222   7.176   7.307 -1.1540 -1.1476 -3.0275
 7044SOL    HW227479   4.351   7.111   7.261 -0.1327 -1.1549 -0.3659
 7045SOL     OW27480   3.463   2.324   3.455  0.4641  0.0658 -0.3818
 7045SOL    HW127481   3.475   2.251   3.394 -1.4622 -1.1069  0.5398
 7045SOL    HW227482   3.410   2.387   3.405  0.8441  0.1517 -0.6801
 7046SOL     OW27483   1.039   8.213   8.069 -0.1606  0.2329 -0.3263
 7046SOL    HW127484   1.130   8.241   8.071  0.8903 -2.9215  0.4200
 7046SOL    HW227485   1.037   8.139   8.008 -2.5481  1.0549 -1.3963
 7047SOL     OW27486   6.388   4.821   1.361 -0.4298  0.4221 -0.7223
 7047SOL    HW127487   6.330   4.790   1.293 -0.0076 -0.6706 -0.6105
 7047SOL    HW227488   6.385   4.753   1.429 -0.1311  1.0347 -0.0734
 7048SOL     OW27489   6.580   2.367   5.648  0.1997 -0.0360  0.2665
 7048SOL    HW127490   6.500   2.317   5.634  0.2822 -0.1599  0.2281
 7048SOL    HW227491   6.560   2.455   5.617 -0.0570  0.0453  0.6557
 7049SOL     OW27492   5.334   2.313   6.473 -0.6658 -0.8713  0.7399
 7049SOL    HW127493   5.321   2.407   6.479  0.4782 -0.6156 -0.2505
 7049SOL    HW227494   5.427   2.300   6.494 -0.3099 -1.5231 -1.0259
 7050SOL     OW27495   2.367   5.461   8.165  0.5213  0.5284 -0.5407
 7050SOL    HW127496   2.347   5.368   8.154  0.0370  0.7292 -1.4205
 7050SOL    HW227497   2.302   5.492   8.228 -0.0267  0.5188 -1.1031
 7051SOL     OW27498   6.114   4.779   5.353 -0.1916  0.5298 -0.5823
 7051SOL    HW127499   6.051   4.707   5.356 -0.7828  1.0598 -0.2093
 7051SOL    HW227500   6.109   4.811   5.263 -1.3714  1.3695 -0.2343
 7052SOL     OW27501   6.421   3.282   2.634  0.2039 -0.5680 -0.1894
 7052SOL    HW127502   6.395   3.214   2.572  0.1688 -0.5820 -0.1593
 7052SOL    HW227503   6.359   3.353   2.617  1.6229  0.3682 -1.8070
 7053SOL     OW27504   0.876   0.176   9.168  0.3145 -0.1372  0.1814
 7053SOL    HW127505   0.952   0.215   9.210 -0.4551  1.1795  0.4124
 7053SOL    HW227506   0.849   0.241   9.103 -0.5134 -0.6609 -0.0108
 7054SOL     OW27507   2.919   2.100   0.504 -0.0482 -0.5627  0.2093
 7054SOL    HW127508   2.948   2.166   0.441 -0.5053 -0.5273  0.0338
 7054SOL    HW227509   2.990   2.096   0.569  0.2914 -0.3899 -0.1458
 7055SOL     OW27510   2.372   3.770   6.416 -0.1207 -0.2904  0.6249
 7055SOL    HW127511   2.312   3.838   6.445  0.1221  0.3116 -0.2465
 7055SOL    HW227512   2.328   3.728   6.343  0.8097  0.6672 -0.5269
 7056SOL     OW27513   0.085   3.599   0.813 -0.4004  0.1567  0.1352
 7056SOL    HW127514   0.174   3.584   0.845 -0.3779 -0.0172 -0.0061
 7056SOL    HW227515   0.059   3.515   0.776 -1.1843 -0.2343  1.5149
 7057SOL     OW27516   2.482   6.507   5.963  0.2172  0.1437  0.5631
 7057SOL    HW127517   2.520   6.555   5.890  0.1814 -0.4746  0.1341
 7057SOL    HW227518   2.524   6.421   5.961 -1.2102 -0.5715  0.0475
 7058SOL     OW27519   5.894   9.159   9.126 -0.1421  0.1192 -0.0514
 7058SOL    HW127520   5.841   9.223   9.078 -2.0184  0.8512  2.7692
 7058SOL    HW227521   5.840   9.080   9.129 -0.5728  0.4454  1.7300
 7059SOL     OW27522   5.823   1.542   1.983  0.3663  0.2765  0.1837
 7059SOL    HW127523   5.840   1.530   1.889  0.5473 -0.9657  0.3608
 7059SOL    HW227524   5.728   1.547   1.989  0.2764 -0.9025  0.0475
 7060SOL     OW27525   3.069   2.613   8.031  0.2257  0.3168 -0.5303
 7060SOL    HW127526   3.119   2.674   8.085 -0.1534  2.5088 -2.4685
 7060SOL    HW227527   2.981   2.615   8.068  0.9385 -1.9139  1.5742
 7061SOL     OW27528   5.552   8.931   4.301 -0.1721  0.0534 -0.2571
 7061SOL    HW127529   5.458   8.911   4.309 -0.0622  0.0946  1.8485
 7061SOL    HW227530   5.556   9.005   4.240 -1.3024 -1.1787 -1.8999
 7062SOL     OW27531   8.423   5.445   2.231 -0.2810 -0.5449 -0.0517
 7062SOL    HW127532   8.421   5.433   2.136  0.8106 -1.0331 -0.0372
 7062SOL    HW227533   8.341   5.408   2.263 -1.1442  0.5882 -0.8932
 7063SOL     OW27534   6.644   9.062   5.555  0.3347 -0.3807 -0.4816
 7063SOL    HW127535   6.634   9.104   5.640  1.0103 -0.0394 -0.5717
 7063SOL    HW227536   6.733   9.027   5.555  0.5608  0.1657 -1.2862
 7064SOL     OW27537   3.149   2.003   4.159  0.4129  0.3550 -0.5048
 7064SOL    HW127538   3.216   1.957   4.109  0.4932 -0.6629  0.4801
 7064SOL    HW227539   3.194   2.033   4.238 -0.4938 -1.5096  0.8298
 7065SOL     OW27540   6.046   5.950   7.355 -0.1933 -0.4674 -0.0481
 7065SOL    HW127541   6.060   5.930   7.262 -0.8931  0.4839 -0.3851
 7065SOL    HW227542   6.124   5.918   7.399  0.7072  0.1566 -1.1385
 7066SOL     OW27543   1.069   1.320   1.636  0.0928  0.6744 -0.5215
 7066SOL    HW127544   0.993   1.365   1.674  0.7194  0.6646  0.8111
 7066SOL    HW227545   1.144   1.371   1.667  0.7468 -0.5296 -0.0713
 7067SOL     OW27546   3.274   1.272   8.792  0.3969 -0.1678 -0.0655
 7067SOL    HW127547   3.267   1.255   8.698  0.2885 -2.4634  0.3084
 7067SOL    HW227548   3.367   1.262   8.812  0.4635  0.5900  0.0529
 7068SOL     OW27549   1.683   5.438   5.900  0.2984 -0.2157 -0.3014
 7068SOL    HW127550   1.778   5.440   5.890  0.3160 -1.7615 -0.7438
 7068SOL    HW227551   1.650   5.495   5.831  0.8819 -0.5571 -0.8794
 7069SOL     OW27552   7.231   2.809   6.484 -0.2214 -0.1215 -0.2873
 7069SOL    HW127553   7.313   2.791   6.439  0.1208  1.1532 -0.2172
 7069SOL    HW227554   7.258   2.839   6.571 -0.6262  2.0276 -0.8303
 7070SOL     OW27555   5.393   8.387   6.236 -0.1941  0.3648  0.1938
 7070SOL    HW127556   5.301   8.366   6.250 -0.6474  1.8433 -0.4073
 7070SOL    HW227557   5.415   8.450   6.304  0.3894  0.0070  0.3463
 7071SOL     OW27558   4.170   0.552   8.985  0.2944  0.0174  0.1433
 7071SOL    HW127559   4.243   0.514   8.937  0.3810  0.1653  0.1588
 7071SOL    HW227560   4.148   0.487   9.052  1.1582  0.4731  0.8862
 7072SOL     OW27561   7.053   6.850   5.849  0.1832  0.0878  0.5208
 7072SOL    HW127562   7.131   6.872   5.797 -0.6600 -0.8697 -1.2263
 7072SOL    HW227563   6.994   6.924   5.834 -0.1159 -0.2562  0.0065
 7073SOL     OW27564   7.167   1.627   3.949 -0.2709 -0.2687 -0.3163
 7073SOL    HW127565   7.216   1.657   3.872  0.1281  0.1603  0.1019
 7073SOL    HW227566   7.230   1.577   3.999  0.2121  1.5409  0.9901
 7074SOL     OW27567   5.905   3.507   4.232 -0.2655  0.3356  0.0857
 7074SOL    HW127568   5.892   3.414   4.213  1.6759 -0.2946  1.5487
 7074SOL    HW227569   5.917   3.548   4.146 -2.8486 -0.4057 -0.7140
 7075SOL     OW27570   2.831   2.217   4.844 -0.2284  0.2666  0.3304
 7075SOL    HW127571   2.794   2.141   4.890 -1.3820  0.9221  0.5200
 7075SOL    HW227572   2.815   2.291   4.902  0.5883  0.7188 -0.0028
 7076SOL     OW27573   6.775   7.815   7.108 -0.4752 -0.4075  0.0633
 7076SOL    HW127574   6.849   7.836   7.165 -1.9043  0.0471  1.8493
 7076SOL    HW227575   6.748   7.727   7.135  0.0244 -0.9943 -1.2891
 7077SOL     OW27576   3.442   5.028   6.279  0.3667 -0.5101 -0.1656
 7077SOL    HW127577   3.400   5.106   6.314  0.0489 -0.8389  0.2035
 7077SOL    HW227578   3.523   5.059   6.238  1.3224 -0.2191  1.8133
 7078SOL     OW27579   2.931   4.301   1.791 -0.5267 -0.2554 -0.5093
 7078SOL    HW127580   2.928   4.347   1.875 -0.1533 -0.7062 -0.2437
 7078SOL    HW227581   2.857   4.241   1.794  0.1664 -1.1236  0.0134
 7079SOL     OW27582   4.215   2.170   0.968  0.0813 -0.3643 -0.8296
 7079SOL    HW127583   4.305   2.149   0.943  0.1852 -1.3233  0.2770
 7079SOL    HW227584   4.161   2.125   0.903  0.3835  0.1857 -1.4777
 7080SOL     OW27585   1.761   7.426   3.395  0.4334  0.4624  0.9030
 7080SOL    HW127586   1.667   7.422   3.414  0.6304  0.8888  2.0354
 7080SOL    HW227587   1.767   7.480   3.316 -0.3043 -0.0874  0.4459
 7081SOL     OW27588   2.921   0.471   3.028 -0.5485 -0.4072 -0.3179
 7081SOL    HW127589   2.884   0.496   3.113  0.3234 -1.2548  0.3377
 7081SOL    HW227590   2.846   0.454   2.972 -1.1391 -0.1991  0.4005
 7082SOL     OW27591   6.372   8.202   2.525  0.1925 -0.0372 -0.2588
 7082SOL    HW127592   6.330   8.287   2.534  0.5663  0.1415 -0.1853
 7082SOL    HW227593   6.348   8.172   2.437 -0.9818 -0.4329  0.1635
 7083SOL     OW27594   1.569   2.132   4.356  0.2566  0.2039 -0.1721
 7083SOL    HW127595   1.594   2.129   4.264  2.1262 -1.1092  0.3233
 7083SOL    HW227596   1.479   2.099   4.357 -0.2016  1.3318 -1.6249
 7084SOL     OW27597   5.407   6.622   7.333  0.3634 -0.3083  0.4618
 7084SOL    HW127598   5.491   6.668   7.328  0.2685 -0.2420 -1.4734
 7084SOL    HW227599   5.419   6.546   7.276 -1.1049  0.1055 -0.4522
 7085SOL     OW27600   0.765   8.627   6.747 -0.0507  0.2596 -0.1690
 7085SOL    HW127601   0.690   8.591   6.793 -1.0776  4.1845  1.7110
 7085SOL    HW227602   0.841   8.594   6.794 -0.9078  0.4776  1.4194
 7086SOL     OW27603   8.583   5.058   3.524 -0.2685  0.2220  0.5651
 7086SOL    HW127604   8.508   5.038   3.581 -1.7958  0.1973 -1.3365
 7086SOL    HW227605   8.585   4.986   3.461  1.0335  0.5232  0.2412
 7087SOL     OW27606   8.361   5.121   3.144 -0.3691  0.0544 -0.4544
 7087SOL    HW127607   8.363   5.185   3.215  0.6327 -1.0878  0.5946
 7087SOL    HW227608   8.311   5.048   3.180 -0.0966 -0.4182 -1.0239
 7088SOL     OW27609   3.372   4.848   2.330 -0.2697  0.1244 -0.2036
 7088SOL    HW127610   3.455   4.852   2.283 -0.4068 -1.8752 -0.7309
 7088SOL    HW227611   3.394   4.812   2.416 -0.3135  1.7877  0.5432
 7089SOL     OW27612   0.285   6.025   1.196  0.2101 -0.9619 -0.5180
 7089SOL    HW127613   0.335   6.037   1.116  0.1792  0.5255 -0.3304
 7089SOL    HW227614   0.349   5.999   1.262  0.9277  1.6165 -0.1022
 7090SOL     OW27615   2.059   5.813   8.859  0.5868 -0.5741 -0.0647
 7090SOL    HW127616   2.071   5.757   8.936  1.5177 -0.3702 -0.0615
 7090SOL    HW227617   1.991   5.768   8.808  1.0540 -1.5130  0.1177
 7091SOL     OW27618   7.632   2.009   4.637  0.5590  0.0824  0.0899
 7091SOL    HW127619   7.625   1.953   4.714 -0.0411  1.2818  0.9299
 7091SOL    HW227620   7.724   2.035   4.633  0.6399 -0.1887  0.2514
 7092SOL     OW27621   9.157   5.558   5.151  0.5470  0.2572 -0.2603
 7092SOL    HW127622   9.158   5.620   5.077  1.1246  0.3120 -0.2107
 7092SOL    HW227623   9.067   5.561   5.183  0.1990 -0.0358 -1.1861
 7093SOL     OW27624   0.135   7.121   3.507 -0.0557  0.3253 -0.0589
 7093SOL    HW127625   0.184   7.060   3.452  0.7023  0.5016  0.4043
 7093SOL    HW227626   0.072   7.066   3.554 -0.1038  0.0536 -0.4350
 7094SOL     OW27627   1.145   0.574   2.549 -0.1917  0.2983  0.3030
 7094SOL    HW127628   1.197   0.529   2.616  0.7943 -0.4923 -0.9574
 7094SOL    HW227629   1.127   0.507   2.484 -1.3490  1.0010 -0.1260
 7095SOL     OW27630   1.324   0.962   0.035  0.0201  0.6006 -0.1278
 7095SOL    HW127631   1.277   0.941   0.116  0.9989 -2.0977 -0.1601
 7095SOL    HW227632   1.256   0.969  -0.032 -0.5057 -3.5587 -0.2492
 7096SOL     OW27633   8.084   1.530   4.213  0.2153 -0.1092  0.6287
 7096SOL    HW127634   8.028   1.464   4.254  1.0933 -2.0556 -1.1083
 7096SOL    HW227635   8.111   1.491   4.130  1.9470  1.8712  0.1562
 7097SOL     OW27636   5.288   9.200   3.279  0.0017 -0.0744  0.1294
 7097SOL    HW127637   5.281   9.133   3.212 -0.7780 -0.4174  0.5309
 7097SOL    HW227638   5.295   9.282   3.231 -2.7293 -0.0724 -0.4511
 7098SOL     OW27639   2.731   0.409   8.313 -0.4349 -0.0294 -0.3692
 7098SOL    HW127640   2.760   0.488   8.359 -0.2178 -0.6197  0.5357
 7098SOL    HW227641   2.812   0.365   8.288 -0.4676 -1.3206  1.5335
 7099SOL     OW27642   7.362   0.100   0.561  0.0194 -0.1878  0.1332
 7099SOL    HW127643   7.298   0.097   0.490  1.0981 -0.9922 -0.8475
 7099SOL    HW227644   7.316   0.067   0.637 -0.8130 -0.4927 -0.4905
 7100SOL     OW27645   5.333   4.284   8.265 -0.7665  0.2156 -0.1638
 7100SOL    HW127646   5.384   4.288   8.184 -0.9333  1.5426 -0.2212
 7100SOL    HW227647   5.257   4.230   8.242 -0.0369 -0.7488 -0.4199
 7101SOL     OW27648   2.448   5.789   3.479 -0.3899  0.3219 -0.1513
 7101SOL    HW127649   2.539   5.766   3.496 -0.1387  0.4109 -1.2755
 7101SOL    HW227650   2.451   5.881   3.452 -0.9142  0.5527  0.5464
 7102SOL     OW27651   3.673   2.846   7.530  1.0684  0.6597  0.1151
 7102SOL    HW127652   3.588   2.871   7.494  1.0443 -0.3284 -0.5357
 7102SOL    HW227653   3.659   2.760   7.568  1.1127  1.6266  2.4889
 7103SOL     OW27654   5.761   6.449   1.089  0.2695 -0.5036 -0.1221
 7103SOL    HW127655   5.846   6.469   1.128 -0.1264  1.7998 -0.3040
 7103SOL    HW227656   5.714   6.399   1.156  1.2104 -0.5002  0.5483
 7104SOL     OW27657   3.004   4.611   9.138  0.0401  0.0588  0.1287
 7104SOL    HW127658   3.076   4.636   9.080  2.4541 -0.7772  2.5870
 7104SOL    HW227659   2.991   4.518   9.121 -0.7619  0.2901 -0.5798
 7105SOL     OW27660   5.277   8.279   4.583 -0.0303 -0.2515 -0.1156
 7105SOL    HW127661   5.220   8.344   4.624  0.8479  1.7313 -1.9055
 7105SOL    HW227662   5.220   8.231   4.523 -0.5065 -0.6266  0.6215
 7106SOL     OW27663   2.297   7.981   3.820  0.1908  0.1922 -0.0724
 7106SOL    HW127664   2.275   8.071   3.843 -0.7413  1.1291 -3.9241
 7106SOL    HW227665   2.376   7.988   3.766 -0.2613 -1.1568 -0.9811
 7107SOL     OW27666   1.971   3.433   1.840 -0.6019 -0.3799  0.6588
 7107SOL    HW127667   1.924   3.479   1.770  0.2734 -0.1576  0.2057
 7107SOL    HW227668   1.953   3.485   1.918 -1.0132 -0.2351  0.4749
 7108SOL     OW27669   2.774   1.026   7.402 -0.4879 -0.8981  0.1028
 7108SOL    HW127670   2.792   1.072   7.485  0.6419  0.7155 -0.9718
 7108SOL    HW227671   2.680   1.009   7.404 -0.3505 -1.6703  2.0871
 7109SOL     OW27672   1.507   8.515   6.396  0.4067 -0.1732 -1.0993
 7109SOL    HW127673   1.522   8.591   6.340  1.1385  0.7078  0.2207
 7109SOL    HW227674   1.544   8.540   6.481 -0.8294 -1.3561 -0.1506
 7110SOL     OW27675   1.505   6.977   4.754 -0.5625  0.1687 -0.0146
 7110SOL    HW127676   1.552   7.054   4.723 -1.2915  0.3941 -0.5702
 7110SOL    HW227677   1.418   7.009   4.778 -0.9588 -0.5124 -0.5010
 7111SOL     OW27678   8.827   0.267   0.830  0.1132 -0.2984  0.6688
 7111SOL    HW127679   8.897   0.202   0.834  0.2294 -0.1535  1.1100
 7111SOL    HW227680   8.768   0.236   0.762 -0.3816 -1.4206  1.5774
 7112SOL     OW27681   2.652   3.386   6.384 -0.2427  0.5215 -0.3870
 7112SOL    HW127682   2.633   3.294   6.366 -1.0952  0.8159 -1.0550
 7112SOL    HW227683   2.717   3.384   6.454 -0.7112 -0.5729  0.0346
 7113SOL     OW27684   5.319   8.602   4.573 -0.1233 -0.2654 -0.3210
 7113SOL    HW127685   5.283   8.514   4.558  1.8682 -1.0011 -1.2206
 7113SOL    HW227686   5.396   8.606   4.516 -0.3053  2.1931 -0.5105
 7114SOL     OW27687   5.317   7.406   4.080  0.1665  0.1077  0.2911
 7114SOL    HW127688   5.254   7.335   4.067  0.1703  0.2128 -0.3691
 7114SOL    HW227689   5.303   7.464   4.005  0.2909  0.7094  0.7272
 7115SOL     OW27690   2.001   1.712   7.977  0.0546  0.2700  0.3822
 7115SOL    HW127691   2.002   1.761   7.895  0.1887  1.4775  1.0796
 7115SOL    HW227692   2.065   1.756   8.033  0.1532 -0.6830  1.0562
 7116SOL     OW27693   4.336   4.243   0.724  0.0684 -0.6775  0.0949
 7116SOL    HW127694   4.310   4.269   0.812  1.0316 -1.5121  0.6471
 7116SOL    HW227695   4.275   4.173   0.700 -0.6432  0.0271 -0.2046
 7117SOL     OW27696   2.638   3.944   1.088 -0.2411  0.3113  0.2444
 7117SOL    HW127697   2.546   3.929   1.069 -0.8572  1.2319  2.2420
 7117SOL    HW227698   2.681   3.940   1.003 -2.3506  1.5496 -0.9689
 7118SOL     OW27699   6.794   3.667   3.172  0.3328 -0.0643  0.4722
 7118SOL    HW127700   6.836   3.679   3.257  1.9089  0.3892 -0.3293
 7118SOL    HW227701   6.860   3.621   3.119  0.4470  1.9654 -1.2945
 7119SOL     OW27702   1.058   6.483   1.152  0.5312 -0.1425  0.4208
 7119SOL    HW127703   1.152   6.480   1.169  0.9778  0.1230 -1.7796
 7119SOL    HW227704   1.018   6.473   1.239  2.5691 -0.0462  1.4312
 7120SOL     OW27705   5.886   1.278   3.417  0.4395  0.0776 -0.5865
 7120SOL    HW127706   5.970   1.323   3.420  0.8100 -0.6129 -0.5338
 7120SOL    HW227707   5.907   1.185   3.424 -0.2774 -0.1553 -1.3335
 7121SOL     OW27708   2.683   3.205   4.862  0.5610 -0.0636 -0.1099
 7121SOL    HW127709   2.601   3.217   4.911  0.3390  0.5161 -0.6121
 7121SOL    HW227710   2.737   3.281   4.887  2.0197 -1.7172  2.2442
 7122SOL     OW27711   5.868   1.885   4.643  0.0458 -0.0423 -0.5809
 7122SOL    HW127712   5.939   1.837   4.685 -0.7183 -0.6362  0.0778
 7122SOL    HW227713   5.789   1.854   4.688 -0.7553 -0.2881 -2.0982
 7123SOL     OW27714   2.502   0.213   4.124 -0.6166  0.5794 -0.1329
 7123SOL    HW127715   2.501   0.305   4.099 -0.3000  0.5617 -0.2186
 7123SOL    HW227716   2.595   0.189   4.124 -0.7384  0.0749 -0.8247
 7124SOL     OW27717   8.168   8.337   6.669  0.1349  0.5193 -0.1544
 7124SOL    HW127718   8.118   8.408   6.630 -1.1697 -0.3538 -0.1422
 7124SOL    HW227719   8.176   8.272   6.599 -0.0112  0.0394  0.2620
 7125SOL     OW27720   6.931   3.250   2.943  0.6125  0.1661  0.1851
 7125SOL    HW127721   6.928   3.164   2.984  2.0427 -0.2988 -0.6339
 7125SOL    HW227722   6.973   3.235   2.858  1.1116  1.7101  0.1342
 7126SOL     OW27723   3.939   1.271   3.523 -0.0905 -0.4156  0.1257
 7126SOL    HW127724   3.919   1.353   3.477 -0.4922 -1.5081 -1.7592
 7126SOL    HW227725   3.855   1.240   3.556 -0.7601 -2.1301 -2.8522
 7127SOL     OW27726   4.353   9.147   5.448  0.3324  0.0989 -0.2600
 7127SOL    HW127727   4.276   9.195   5.478  1.8285  2.6686 -0.2996
 7127SOL    HW227728   4.332   9.121   5.358 -0.1280  1.6698 -0.6242
 7128SOL     OW27729   4.743   3.746   5.859 -0.3460  0.7442  0.2430
 7128SOL    HW127730   4.709   3.686   5.793 -0.5500  1.9338 -0.7646
 7128SOL    HW227731   4.838   3.732   5.858 -0.2107  1.5843 -1.1847
 7129SOL     OW27732   3.265   5.178   9.219 -0.1432 -0.4667 -0.6600
 7129SOL    HW127733   3.189   5.230   9.244  0.6172  1.3669 -1.9177
 7129SOL    HW227734   3.250   5.160   9.126  0.3197 -1.2598 -0.5819
 7130SOL     OW27735   1.808   8.125   4.086  0.4433  0.2818 -0.1013
 7130SOL    HW127736   1.894   8.085   4.074 -0.0708 -0.4032 -1.8307
 7130SOL    HW227737   1.825   8.201   4.142  1.9256 -0.6347  0.7737
 7131SOL     OW27738   3.521   2.142   8.125 -0.6049  0.5975  0.4169
 7131SOL    HW127739   3.439   2.161   8.172  0.7008  1.7505  2.3911
 7131SOL    HW227740   3.553   2.060   8.163 -1.2288 -0.3202 -0.9681
 7132SOL     OW27741   7.170   4.077   5.667  0.1720 -0.3185  0.0057
 7132SOL    HW127742   7.140   4.008   5.726  1.2019 -0.7993 -0.0137
 7132SOL    HW227743   7.244   4.038   5.620  0.6723  0.7419 -0.1171
 7133SOL     OW27744   0.029   0.286   8.572  0.1624 -0.0275  0.5790
 7133SOL    HW127745  -0.020   0.205   8.561 -1.8412  1.1772  0.1903
 7133SOL    HW227746   0.014   0.335   8.491  0.5805  1.1138  1.1617
 7134SOL     OW27747   3.211   6.363   1.712  0.1414 -0.3974  0.1010
 7134SOL    HW127748   3.121   6.356   1.680  0.4811  1.1940 -1.3523
 7134SOL    HW227749   3.208   6.430   1.779  0.3782  0.3290 -0.6005
 7135SOL     OW27750   6.206   8.119   8.799 -0.1297  0.3542 -0.1721
 7135SOL    HW127751   6.263   8.113   8.875 -0.4754  0.3501  0.0877
 7135SOL    HW227752   6.127   8.163   8.831 -1.4297 -2.0361  0.1604
 7136SOL     OW27753   3.688   4.195   5.969  0.3036  1.0698  0.1926
 7136SOL    HW127754   3.761   4.227   5.916  0.9085 -0.4744  0.0564
 7136SOL    HW227755   3.706   4.227   6.057  0.9911  0.9410  0.1006
 7137SOL     OW27756   2.642   2.835   0.300 -0.0565 -0.0674 -0.2303
 7137SOL    HW127757   2.554   2.802   0.282  0.4231 -1.9035  0.5717
 7137SOL    HW227758   2.671   2.873   0.217 -0.3877 -2.3230 -1.4541
 7138SOL     OW27759   5.873   8.586   8.278 -0.0552  0.5172  0.0341
 7138SOL    HW127760   5.800   8.600   8.218 -0.8744 -2.4922  0.1293
 7138SOL    HW227761   5.948   8.571   8.220  0.0990  1.7659 -0.1068
 7139SOL     OW27762   3.159   9.171   8.478 -0.0622 -0.2936  0.5419
 7139SOL    HW127763   3.132   9.260   8.500  0.8830 -0.3669  2.0991
 7139SOL    HW227764   3.159   9.169   8.382 -0.1403  1.3545  0.4853
 7140SOL     OW27765   5.063   3.963   0.350 -0.3773 -0.1003 -0.1570
 7140SOL    HW127766   5.003   3.940   0.420  0.3770 -0.8477  0.2636
 7140SOL    HW227767   5.150   3.947   0.386  0.0284 -0.3716 -1.2066
 7141SOL     OW27768   1.040   4.631   0.457 -0.0520  0.4906  0.0462
 7141SOL    HW127769   1.069   4.660   0.370  0.2721  0.1073  0.0210
 7141SOL    HW227770   1.120   4.629   0.509  0.5367 -2.9973 -0.6894
 7142SOL     OW27771   1.277   5.658   8.615  0.0038 -0.3018 -0.4873
 7142SOL    HW127772   1.336   5.725   8.580 -0.6069  0.8390  0.5727
 7142SOL    HW227773   1.200   5.707   8.645 -0.7684 -1.5647 -0.3210
 7143SOL     OW27774   3.378   9.118   2.099  0.0645  0.2558  0.1504
 7143SOL    HW127775   3.420   9.141   2.182 -1.7634  0.5795  1.0319
 7143SOL    HW227776   3.451   9.105   2.038  1.4377  0.3516  1.7040
 7144SOL     OW27777   1.852   5.409   5.011 -0.8476  0.2180 -0.2744
 7144SOL    HW127778   1.880   5.321   4.990  0.7110  0.8493 -0.9748
 7144SOL    HW227779   1.926   5.448   5.058 -1.4934  1.1528  0.0076
 7145SOL     OW27780   0.835   0.400   6.515 -0.0781 -0.7194  0.0945
 7145SOL    HW127781   0.841   0.323   6.458  0.7909 -0.5577 -0.0379
 7145SOL    HW227782   0.868   0.472   6.462  1.0171 -0.6178  0.8758
 7146SOL     OW27783   5.736   1.509   5.331  0.8058 -0.1919 -0.0564
 7146SOL    HW127784   5.830   1.493   5.339  0.4790 -3.4665 -1.1727
 7146SOL    HW227785   5.703   1.507   5.421  1.6466 -0.4070  0.2566
 7147SOL     OW27786   3.178   8.927   8.589 -0.1015 -0.2975  0.5163
 7147SOL    HW127787   3.157   8.999   8.530 -2.3884  0.4565  2.1308
 7147SOL    HW227788   3.116   8.858   8.566 -0.9267 -0.0499  1.8820
 7148SOL     OW27789   6.302   7.876   1.677  0.2597 -0.0187 -0.6769
 7148SOL    HW127790   6.227   7.897   1.621  0.6621  2.2756 -0.4784
 7148SOL    HW227791   6.267   7.817   1.743 -0.9569 -0.3227 -1.5597
 7149SOL     OW27792   3.411   1.784   6.073 -0.0312 -0.2914 -0.0296
 7149SOL    HW127793   3.492   1.735   6.059 -0.0307 -0.1238 -0.6143
 7149SOL    HW227794   3.440   1.875   6.084 -0.3110  0.2674 -3.1041
 7150SOL     OW27795   7.957   1.666   0.933  0.3219 -0.4211 -0.1085
 7150SOL    HW127796   7.948   1.576   0.966 -1.9160 -0.1948  0.0989
 7150SOL    HW227797   8.049   1.674   0.908  0.5998 -2.7271 -0.0184
 7151SOL     OW27798   1.494   7.671   7.529 -0.1019 -0.2502 -0.4281
 7151SOL    HW127799   1.400   7.656   7.514 -0.3067 -1.6916  1.7719
 7151SOL    HW227800   1.537   7.636   7.451 -1.3167 -1.2955 -0.6659
 7152SOL     OW27801   3.872   5.808   6.561 -0.2289 -0.1028 -0.1840
 7152SOL    HW127802   3.966   5.824   6.568  0.2177 -2.4031  0.1134
 7152SOL    HW227803   3.850   5.834   6.472  1.1593 -1.3609 -0.9525
 7153SOL     OW27804   3.442   1.603   3.953 -0.1190 -0.4659  0.3933
 7153SOL    HW127805   3.413   1.540   3.887  0.4268 -0.2204 -0.0882
 7153SOL    HW227806   3.529   1.630   3.924 -1.0685  1.9564 -0.4814
 7154SOL     OW27807   3.468   0.184   3.734 -0.2562 -0.1456 -0.5394
 7154SOL    HW127808   3.514   0.129   3.669 -1.1822 -1.0275 -0.4722
 7154SOL    HW227809   3.538   0.234   3.776  0.5534 -0.8072 -1.0558
 7155SOL     OW27810   2.801   0.630   3.387  0.3504  0.8534 -0.2379
 7155SOL    HW127811   2.782   0.674   3.305 -0.0712  0.2667 -0.4613
 7155SOL    HW227812   2.802   0.537   3.364  2.2123  0.7768  0.0127
 7156SOL     OW27813   0.853   5.447   0.072 -0.0104  0.0063  0.2525
 7156SOL    HW127814   0.874   5.374   0.014  0.2021  0.0733  0.2417
 7156SOL    HW227815   0.894   5.523   0.030 -1.6634  0.4425 -0.6290
 7157SOL     OW27816   6.400   0.683   1.014 -0.1345  0.6110 -0.0284
 7157SOL    HW127817   6.438   0.596   1.005 -0.2850 -0.0017  3.6945
 7157SOL    HW227818   6.384   0.712   0.924  1.4470 -2.4783 -1.4469
 7158SOL     OW27819   5.154   4.801   8.559  0.8426 -0.0001 -0.0100
 7158SOL    HW127820   5.091   4.835   8.495  1.2415  1.8533  0.5142
 7158SOL    HW227821   5.178   4.714   8.526 -2.0717 -0.8445 -0.1499
 7159SOL     OW27822   7.029   0.748   4.285 -0.2614 -0.0362 -0.3558
 7159SOL    HW127823   7.109   0.726   4.332 -0.6320 -2.3733 -0.6913
 7159SOL    HW227824   6.961   0.693   4.325 -0.9230 -0.8394 -2.4633
 7160SOL     OW27825   1.867   4.609   0.500  0.3328  0.4563  0.2572
 7160SOL    HW127826   1.795   4.584   0.441 -0.1125  0.3645  0.8326
 7160SOL    HW227827   1.825   4.664   0.566  0.8906  0.8181  0.3162
 7161SOL     OW27828   0.915   7.192   1.405  0.0399 -0.2472  0.0013
 7161SOL    HW127829   0.876   7.228   1.325  1.2230  0.6258 -0.2196
 7161SOL    HW227830   0.912   7.264   1.467  1.3815 -0.0930 -0.0707
 7162SOL     OW27831   6.418   3.963   6.833 -0.1275  0.3655 -0.5213
 7162SOL    HW127832   6.497   4.009   6.804  1.9021 -0.7918  2.7183
 7162SOL    HW227833   6.430   3.873   6.803  0.0809  0.0533  0.4931
 7163SOL     OW27834   4.768   3.328   2.623  0.1089  0.0752  0.2532
 7163SOL    HW127835   4.798   3.349   2.712 -1.7187  0.9988  0.6938
 7163SOL    HW227836   4.722   3.244   2.632 -1.9931  1.2113  0.6748
 7164SOL     OW27837   1.370   5.056   8.034  0.0427  0.4686  0.2708
 7164SOL    HW127838   1.429   4.989   8.068 -0.5563 -0.9406 -1.3131
 7164SOL    HW227839   1.321   5.086   8.110 -0.2913 -1.5425  0.9086
 7165SOL     OW27840   2.944   8.314   9.092 -0.0975  0.0989  0.7356
 7165SOL    HW127841   2.849   8.302   9.086  0.1286 -1.6699 -0.1393
 7165SOL    HW227842   2.969   8.267   9.171 -0.0276  1.3171  1.4575
 7166SOL     OW27843   5.731   1.676   8.390 -0.7246 -0.1680 -0.0721
 7166SOL    HW127844   5.704   1.592   8.426  0.3347 -0.5610 -0.1510
 7166SOL    HW227845   5.754   1.729   8.466  0.6127 -0.6793 -0.0945
 7167SOL     OW27846   6.677   3.676   0.074 -0.2587  0.1807 -0.2405
 7167SOL    HW127847   6.635   3.602   0.031 -2.1904  0.9024  0.3082
 7167SOL    HW227848   6.620   3.751   0.055  0.7402  1.1911  0.6093
 7168SOL     OW27849   7.113   1.618   4.744  0.1937  0.8197  0.2137
 7168SOL    HW127850   7.195   1.578   4.774 -0.0801  0.4989  0.5278
 7168SOL    HW227851   7.119   1.615   4.648 -0.8357 -2.1202  0.1449
 7169SOL     OW27852   5.128   0.885   6.884  0.6754 -0.1277 -0.0526
 7169SOL    HW127853   5.184   0.962   6.873  0.2996  0.4765  1.8982
 7169SOL    HW227854   5.148   0.830   6.808  3.9880  0.0058  0.5655
 7170SOL     OW27855   3.994   0.792   7.024  0.1035 -0.1473  0.3069
 7170SOL    HW127856   4.088   0.811   7.029  0.6178 -2.3267  0.0539
 7170SOL    HW227857   3.956   0.838   7.099  1.0853  2.0591 -0.4547
 7171SOL     OW27858   3.115   6.379   4.097  0.0529 -0.3728  0.4944
 7171SOL    HW127859   3.023   6.352   4.093 -0.0587  0.0745 -2.8869
 7171SOL    HW227860   3.113   6.460   4.147 -1.8797  0.9655 -1.5273
 7172SOL     OW27861   1.908   6.921   4.940  0.1463  0.0841 -0.0402
 7172SOL    HW127862   1.848   6.863   4.893  0.1470 -0.3160  0.4476
 7172SOL    HW227863   1.880   6.915   5.031  0.9815 -0.1705  0.2056
 7173SOL     OW27864   9.142   7.242   2.899 -0.1439  0.0366 -0.3320
 7173SOL    HW127865   9.149   7.241   2.803 -0.2617 -0.8806 -0.3417
 7173SOL    HW227866   9.232   7.226   2.929 -0.5557 -2.5980 -0.3428
 7174SOL     OW27867   1.448   6.851   8.357 -0.2007 -0.1014 -0.1969
 7174SOL    HW127868   1.440   6.833   8.450 -1.8071 -0.0207 -0.2915
 7174SOL    HW227869   1.378   6.800   8.316  1.1583 -1.0134 -1.5049
 7175SOL     OW27870   8.457   4.440   2.137  0.4856 -0.0654 -0.1409
 7175SOL    HW127871   8.444   4.352   2.171  0.8561 -0.4073 -0.8640
 7175SOL    HW227872   8.373   4.483   2.149  0.0541 -0.7846 -0.5456
 7176SOL     OW27873   8.486   8.811   0.848  0.1987  0.2649 -0.3188
 7176SOL    HW127874   8.535   8.810   0.766  2.3386 -3.6773  0.7882
 7176SOL    HW227875   8.399   8.781   0.824  1.1191 -1.9607 -1.0963
 7177SOL     OW27876   0.720   4.305   7.329  0.0198 -0.5729 -0.0145
 7177SOL    HW127877   0.704   4.292   7.423 -1.0532 -0.8335 -0.2293
 7177SOL    HW227878   0.774   4.230   7.303  1.2608  0.0618  0.6060
 7178SOL     OW27879   9.212   6.137   7.028  0.3321  0.3092  0.1768
 7178SOL    HW127880   9.168   6.053   7.042  1.9275 -0.2758  2.1946
 7178SOL    HW227881   9.143   6.202   7.035 -0.7903 -0.7599 -0.5114
 7179SOL     OW27882   1.156   9.125   8.471 -0.0843  0.2041  0.0771
 7179SOL    HW127883   1.244   9.144   8.439  0.0505  1.6493  1.1704
 7179SOL    HW227884   1.103   9.114   8.392  0.8488  0.4599 -0.5981
 7180SOL     OW27885   5.311   5.981   4.732 -0.1179  0.5467 -0.0494
 7180SOL    HW127886   5.359   5.953   4.655 -0.0095  3.3572 -1.0945
 7180SOL    HW227887   5.363   5.948   4.806  0.7807 -0.5655 -1.1321
 7181SOL     OW27888   1.845   2.970   3.387  0.1694  0.0123  0.6167
 7181SOL    HW127889   1.764   2.980   3.437 -1.9718  1.5251 -2.7836
 7181SOL    HW227890   1.833   2.889   3.338  1.4659 -0.5479  1.1639
 7182SOL     OW27891   3.635   5.902   7.691 -0.3981 -0.0479  0.1582
 7182SOL    HW127892   3.612   5.920   7.600  0.4710  0.0111 -0.0601
 7182SOL    HW227893   3.699   5.832   7.687 -1.8082 -1.4349  0.8641
 7183SOL     OW27894   3.070   1.923   5.528  0.2659  0.3746 -0.1530
 7183SOL    HW127895   3.109   2.009   5.545  0.1761  0.2862  0.5448
 7183SOL    HW227896   3.116   1.890   5.452  2.1037 -0.0435  1.0733
 7184SOL     OW27897   5.074   2.473   8.894 -0.1753 -0.2022 -0.5731
 7184SOL    HW127898   5.107   2.562   8.907  0.3832 -0.5608  0.6243
 7184SOL    HW227899   5.128   2.419   8.952 -1.4623 -1.1144 -0.1738
 7185SOL     OW27900   9.046   0.863   5.880 -0.4373  0.0862 -0.6321
 7185SOL    HW127901   9.065   0.807   5.805  1.5353 -0.5885  0.2974
 7185SOL    HW227902   9.030   0.801   5.952 -1.2666  0.7248 -0.2537
 7186SOL     OW27903   3.931   7.819   9.020 -0.4852  0.3160  0.3567
 7186SOL    HW127904   4.019   7.820   8.982 -0.9016  1.9330 -0.6450
 7186SOL    HW227905   3.873   7.798   8.947 -1.0204  0.2471  0.7986
 7187SOL     OW27906   4.625   5.530   8.335 -0.0488  0.2378 -0.6719
 7187SOL    HW127907   4.630   5.484   8.419  0.4217 -0.2510 -0.9616
 7187SOL    HW227908   4.568   5.475   8.281 -0.1521  0.4253 -0.7532
 7188SOL     OW27909   7.025   2.245   5.365  0.5263 -0.3214  0.1477
 7188SOL    HW127910   6.940   2.247   5.322  1.4191 -1.5174 -1.8017
 7188SOL    HW227911   7.086   2.283   5.301  1.4723  0.4799  1.4762
 7189SOL     OW27912   6.245   3.581   0.416  0.1636  0.1966 -0.2953
 7189SOL    HW127913   6.299   3.504   0.434  0.0874 -0.1906 -1.6291
 7189SOL    HW227914   6.182   3.583   0.488  2.4950  1.2284  1.8730
 7190SOL     OW27915   4.654   0.950   1.141 -0.4104 -0.2350  0.4417
 7190SOL    HW127916   4.653   1.026   1.084 -0.7637  0.1734  0.9845
 7190SOL    HW227917   4.562   0.937   1.166 -0.2714 -0.4562  0.8458
 7191SOL     OW27918   9.085   3.402   5.480 -0.3596  0.4101 -0.5625
 7191SOL    HW127919   9.163   3.447   5.514 -0.4666 -1.1397  1.9635
 7191SOL    HW227920   9.110   3.309   5.478 -1.6081  0.0705 -1.3355
 7192SOL     OW27921   5.247   1.158   8.905  0.3103 -0.3795 -0.2517
 7192SOL    HW127922   5.242   1.130   8.813  0.2785  0.0140 -0.3707
 7192SOL    HW227923   5.170   1.117   8.945 -0.1033  0.0611 -0.5726
 7193SOL     OW27924   9.240   5.188   0.234 -0.2391  0.6541 -0.0196
 7193SOL    HW127925   9.188   5.220   0.160  0.0035 -0.0720 -0.5182
 7193SOL    HW227926   9.200   5.104   0.257 -0.9641  1.3509  1.3757
 7194SOL     OW27927   6.245   6.141   7.667  0.0424 -0.0369 -0.5045
 7194SOL    HW127928   6.293   6.184   7.738  1.4928  0.5568 -1.7778
 7194SOL    HW227929   6.313   6.094   7.618 -0.4552  1.7058 -3.0243
 7195SOL     OW27930   5.746   1.568   3.771  0.3542  0.1884  0.1245
 7195SOL    HW127931   5.814   1.519   3.817 -0.0690 -1.5490 -1.0192
 7195SOL    HW227932   5.684   1.594   3.839 -0.0276 -1.9240  0.6413
 7196SOL     OW27933   1.190   5.831   3.095 -0.3147 -0.7465  0.0598
 7196SOL    HW127934   1.117   5.866   3.043 -1.0345  0.3720  1.7709
 7196SOL    HW227935   1.154   5.752   3.136 -0.3243 -0.6174  0.2998
 7197SOL     OW27936   8.668   7.867   7.765  0.2917 -0.1005 -0.4768
 7197SOL    HW127937   8.697   7.815   7.690 -0.0215  1.0278 -1.4119
 7197SOL    HW227938   8.746   7.914   7.793 -0.0333  1.0390 -1.4172
 7198SOL     OW27939   1.337   0.769   8.011  0.4871 -0.6817  0.3857
 7198SOL    HW127940   1.414   0.788   7.958  1.4095  0.2579  1.9859
 7198SOL    HW227941   1.372   0.734   8.093 -0.5335  2.1238  2.1706
 7199SOL     OW27942   8.116   0.940   3.715 -0.2182  0.5958 -0.0740
 7199SOL    HW127943   8.164   0.867   3.754 -2.6649  0.1177  2.3033
 7199SOL    HW227944   8.175   1.015   3.722  1.7959 -0.7736 -1.2759
 7200SOL     OW27945   7.480   0.592   0.347  0.3155  0.4818 -0.2040
 7200SOL    HW127946   7.395   0.614   0.310  0.0341  1.0180  0.7291
 7200SOL    HW227947   7.470   0.504   0.382  0.0768  0.6323  0.1053
 7201SOL     OW27948   1.415   6.506   1.853  0.0658 -0.4654  0.3764
 7201SOL    HW127949   1.326   6.484   1.826  0.0553  2.2137 -2.2784
 7201SOL    HW227950   1.408   6.527   1.946 -1.8577 -1.2813  0.4485
 7202SOL     OW27951   1.899   2.576   2.886 -0.2595  0.1776  0.5872
 7202SOL    HW127952   1.913   2.569   2.981  1.1637 -1.7565  0.2985
 7202SOL    HW227953   1.949   2.653   2.860  0.5204 -0.0952  1.2269
 7203SOL     OW27954   2.921   0.623   3.640  0.3592 -0.0375  0.3749
 7203SOL    HW127955   2.883   0.640   3.554  1.1631 -0.2001 -0.0251
 7203SOL    HW227956   2.941   0.530   3.640  1.0416  0.1040  0.4537
 7204SOL     OW27957   9.161   7.359   5.994 -0.3630 -0.1439 -0.1895
 7204SOL    HW127958   9.248   7.396   6.012 -0.2184 -0.6975  0.2895
 7204SOL    HW227959   9.148   7.375   5.901 -1.4234  3.4083  0.4162
 7205SOL     OW27960   8.424   0.734   7.009 -0.1790 -0.6841 -0.1251
 7205SOL    HW127961   8.516   0.738   6.983 -0.2770 -1.6761 -0.6504
 7205SOL    HW227962   8.376   0.746   6.927 -0.5210 -0.3075  0.1288
 7206SOL     OW27963   1.382   2.647   7.385  0.1549  0.7556 -0.2234
 7206SOL    HW127964   1.309   2.677   7.331  0.3528 -0.4460 -1.2163
 7206SOL    HW227965   1.350   2.654   7.475 -0.5052  1.9645 -0.5290
 7207SOL     OW27966   1.715   7.627   4.498 -0.0789 -0.3102 -0.3372
 7207SOL    HW127967   1.759   7.707   4.472 -0.5910 -0.1315 -0.6736
 7207SOL    HW227968   1.785   7.561   4.505  0.4039  0.2650  0.3889
 7208SOL     OW27969   8.595   3.610   3.370  0.1793 -0.1670 -0.4792
 7208SOL    HW127970   8.561   3.679   3.313  0.7704  1.9825  1.6006
 7208SOL    HW227971   8.517   3.567   3.406 -0.2112 -0.0021 -1.1179
 7209SOL     OW27972   3.753   0.341   4.710  0.6856  0.0651 -0.3112
 7209SOL    HW127973   3.733   0.315   4.800  0.5192  0.7941 -0.1327
 7209SOL    HW227974   3.688   0.295   4.657 -0.8521  1.5755  0.1704
 7210SOL     OW27975   2.774   5.295   3.305  0.0875  0.1480  0.4410
 7210SOL    HW127976   2.745   5.216   3.259  2.9763 -1.0369  0.4063
 7210SOL    HW227977   2.799   5.356   3.236  0.9627 -0.2231  0.4117
 7211SOL     OW27978   4.274   3.031   7.843 -0.2216 -0.0768 -0.0967
 7211SOL    HW127979   4.367   3.031   7.866 -0.3082 -2.4240  0.5776
 7211SOL    HW227980   4.233   2.976   7.910 -1.7914 -0.5655 -1.3857
 7212SOL     OW27981   7.941   5.160   4.923  0.2673 -0.4044  0.2155
 7212SOL    HW127982   7.913   5.084   4.973 -1.0964 -1.0371 -1.4171
 7212SOL    HW227983   7.882   5.230   4.951  0.9777 -0.1338  1.0988
 7213SOL     OW27984   8.209   4.611   8.297 -0.1513  0.1159 -0.2822
 7213SOL    HW127985   8.218   4.646   8.385 -0.8197 -0.1076 -0.1200
 7213SOL    HW227986   8.123   4.643   8.268 -0.7256 -1.2952 -0.1778
 7214SOL     OW27987   4.277   0.805   6.987  0.1604 -0.5428 -0.1692
 7214SOL    HW127988   4.321   0.723   7.008  0.0310 -0.6611 -0.3487
 7214SOL    HW227989   4.347   0.870   6.982  0.0945 -0.2197  1.9205
 7215SOL     OW27990   7.015   0.900   3.226 -0.2861  0.8194  0.3187
 7215SOL    HW127991   6.936   0.847   3.223 -1.5546  2.6542 -0.2642
 7215SOL    HW227992   6.987   0.984   3.261  1.7254  1.0610  1.5567
 7216SOL     OW27993   4.224   4.999   9.014  0.7357 -0.2825  0.8038
 7216SOL    HW127994   4.290   5.045   8.963  0.7237 -0.6083  0.4921
 7216SOL    HW227995   4.223   4.910   8.979  0.2210 -0.3174  0.8879
 7217SOL     OW27996   0.140   9.190   5.552  0.3328 -0.3038  0.3365
 7217SOL    HW127997   0.119   9.226   5.638 -0.6366  0.1991 -0.0903
 7217SOL    HW227998   0.236   9.191   5.548  0.4295 -1.2550  1.7840
 7218SOL     OW27999   0.674   1.378   3.665 -0.1841  0.5789  0.3905
 7218SOL    HW128000   0.611   1.306   3.666  1.3075 -0.7557  0.1666
 7218SOL    HW228001   0.620   1.455   3.645 -1.9526 -0.2853  1.5501
 7219SOL     OW28002   6.853   6.856   9.127  0.0999 -0.5737 -0.1231
 7219SOL    HW128003   6.775   6.821   9.084 -0.4922  0.4423  0.0804
 7219SOL    HW228004   6.879   6.929   9.071  1.5164 -1.5160 -0.7419
 7220SOL     OW28005   7.598   5.091   5.931  0.4592  0.1567 -0.4630
 7220SOL    HW128006   7.601   5.034   6.008 -2.4669  1.3088  0.6582
 7220SOL    HW228007   7.530   5.052   5.875  2.1335 -0.3289 -2.2647
 7221SOL     OW28008   8.967   4.458   6.215  0.0614  0.2200  0.6369
 7221SOL    HW128009   9.006   4.545   6.213 -0.9192  0.7228  1.8986
 7221SOL    HW228010   8.873   4.474   6.206 -0.0125 -0.8561 -0.9116
 7222SOL     OW28011   2.652   4.238   1.190  0.5232 -0.4137  0.0703
 7222SOL    HW128012   2.584   4.265   1.253  0.7856 -1.5375  0.8642
 7222SOL    HW228013   2.624   4.153   1.159  1.4920 -0.8317  0.3033
 7223SOL     OW28014   4.443   7.582   1.772 -0.3039  0.0868  0.4733
 7223SOL    HW128015   4.532   7.615   1.764  0.0666 -1.1152 -0.8551
 7223SOL    HW228016   4.428   7.532   1.692 -1.6167 -1.0440  1.3533
 7224SOL     OW28017   7.610   7.112   5.725  0.4087  0.3642  0.4973
 7224SOL    HW128018   7.600   7.157   5.641 -1.2307 -0.3238  0.2986
 7224SOL    HW228019   7.680   7.049   5.710  1.2613  1.3605  0.1507
 7225SOL     OW28020   2.990   0.330   8.276  0.2663  0.5019  0.2418
 7225SOL    HW128021   3.004   0.417   8.239 -1.2241  0.5751 -0.2243
 7225SOL    HW228022   3.005   0.270   8.203 -0.0549  0.4675  0.2029
 7226SOL     OW28023   2.192   0.988   4.304 -0.3536  0.1559 -0.4097
 7226SOL    HW128024   2.147   1.027   4.379 -0.9231  0.6712 -1.0199
 7226SOL    HW228025   2.210   1.061   4.245  2.9611  0.3526  0.5998
 7227SOL     OW28026   0.339   8.256   2.621  0.3124 -0.4314 -0.1495
 7227SOL    HW128027   0.411   8.294   2.671  0.6464 -0.0051 -0.9404
 7227SOL    HW228028   0.324   8.171   2.662  0.8166 -0.2413  0.4459
 7228SOL     OW28029   4.840   1.628   5.730  0.1665  1.0260 -0.2220
 7228SOL    HW128030   4.770   1.643   5.666 -2.9140  1.4574  2.9955
 7228SOL    HW228031   4.861   1.716   5.763 -1.2746  0.5312  2.1975
 7229SOL     OW28032   1.850   2.329   5.641 -0.2299 -0.4824 -0.2297
 7229SOL    HW128033   1.935   2.286   5.637 -1.0034 -2.1139  0.1931
 7229SOL    HW228034   1.790   2.269   5.598 -1.2773  0.3861 -0.0288
 7230SOL     OW28035   3.108   7.646   7.763 -0.1611  0.0511  0.0181
 7230SOL    HW128036   3.168   7.575   7.786  0.0765  0.6711  1.3855
 7230SOL    HW228037   3.045   7.606   7.704  0.7764 -0.9558 -0.3313
 7231SOL     OW28038   0.750   2.051   0.549 -0.0078 -0.3058 -0.3757
 7231SOL    HW128039   0.754   1.958   0.528 -1.2835 -0.8971  1.7246
 7231SOL    HW228040   0.826   2.067   0.604 -1.7315 -1.0723  2.4070
 7232SOL     OW28041   0.731   9.134   7.058 -0.0072  0.0615  0.9065
 7232SOL    HW128042   0.725   9.056   7.113  0.0474 -0.7428 -0.1757
 7232SOL    HW228043   0.732   9.099   6.968  4.3065  0.9642  0.4011
 7233SOL     OW28044   7.847   7.891   1.685  0.4262 -0.1822 -0.1145
 7233SOL    HW128045   7.835   7.832   1.759 -1.4956 -1.3352 -1.2671
 7233SOL    HW228046   7.913   7.953   1.715 -0.1909 -0.6593  2.5114
 7234SOL     OW28047   2.312   7.995   6.881 -0.5225  0.0728 -0.0015
 7234SOL    HW128048   2.374   7.967   6.814 -1.3774  1.5897 -1.5064
 7234SOL    HW228049   2.244   7.927   6.880 -1.0508  0.5932 -1.4384
 7235SOL     OW28050   1.471   0.228   1.436 -0.5557  0.0865  0.5056
 7235SOL    HW128051   1.377   0.236   1.452 -0.4588 -0.0993  1.1902
 7235SOL    HW228052   1.492   0.302   1.379 -0.6310  1.7401  2.5026
 7236SOL     OW28053   6.008   7.724   8.550  0.6000 -0.1994 -0.0374
 7236SOL    HW128054   6.027   7.813   8.579 -0.2480 -0.2119  0.5906
 7236SOL    HW228055   5.914   7.714   8.563  0.4703 -0.7768 -1.2612
 7237SOL     OW28056   1.556   6.556   7.216 -0.2565  0.2594 -1.1904
 7237SOL    HW128057   1.527   6.479   7.266  0.0349 -0.0567 -1.5083
 7237SOL    HW228058   1.474   6.597   7.187 -0.4207  0.2386 -0.7713
 7238SOL     OW28059   2.894   2.015   2.499  0.1317  0.2424 -0.1674
 7238SOL    HW128060   2.860   2.033   2.411 -1.6807 -0.1847  0.4057
 7238SOL    HW228061   2.900   1.920   2.504  1.1090  0.2974 -0.1274
 7239SOL     OW28062   3.444   4.934   9.062  0.0421  0.0408  0.0181
 7239SOL    HW128063   3.497   4.943   9.141  1.9803  0.9218 -1.3079
 7239SOL    HW228064   3.507   4.925   8.991 -1.6289 -0.8173 -1.4594
 7240SOL     OW28065   5.628   7.499   7.559  0.1267  0.1832 -0.1481
 7240SOL    HW128066   5.645   7.427   7.498 -0.7874 -0.8402  0.7684
 7240SOL    HW228067   5.536   7.522   7.545  0.0765  0.3427  0.4048
 7241SOL     OW28068   0.349   3.538   2.339 -0.0079  0.2210 -0.1652
 7241SOL    HW128069   0.319   3.627   2.321  0.1332  0.7295  1.8743
 7241SOL    HW228070   0.413   3.548   2.410 -0.9117 -1.6055  0.9676
 7242SOL     OW28071   1.560   6.588   4.936  0.4669 -0.2721 -0.2997
 7242SOL    HW128072   1.578   6.495   4.952  0.1215 -0.2106  0.4634
 7242SOL    HW228073   1.470   6.600   4.965  1.0813  0.7005  1.3170
 7243SOL     OW28074   0.523   7.734   5.051  0.1607 -0.2253 -0.5011
 7243SOL    HW128075   0.444   7.712   5.001  0.1816  0.5763 -0.8967
 7243SOL    HW228076   0.586   7.761   4.985  1.7483 -3.4445 -0.5087
 7244SOL     OW28077   0.902   3.900   7.711  0.0400 -0.8956 -0.1095
 7244SOL    HW128078   0.814   3.870   7.686 -0.8052  0.8837  0.5770
 7244SOL    HW228079   0.890   3.944   7.795  1.8176 -1.6462  0.5797
 7245SOL     OW28080   6.843   4.818   7.851  0.1276  0.3230  0.3270
 7245SOL    HW128081   6.924   4.856   7.817  0.1524 -0.3752 -0.4049
 7245SOL    HW228082   6.869   4.774   7.932  0.4601  0.2032  0.1560
 7246SOL     OW28083   4.968   0.002   3.090 -0.1741 -0.4393  0.5266
 7246SOL    HW128084   4.971  -0.093   3.103  0.5079 -0.3857  0.7738
 7246SOL    HW228085   4.893   0.030   3.142 -1.2942 -1.0112 -0.7044
 7247SOL     OW28086   0.806   3.981   8.008  0.2591 -0.2489  0.3651
 7247SOL    HW128087   0.715   3.960   7.989  0.8881 -0.2192 -3.6148
 7247SOL    HW228088   0.849   3.896   8.015  0.0192 -0.2601  2.0158
 7248SOL     OW28089   3.434   2.811   2.274  0.6102  0.1272 -0.3859
 7248SOL    HW128090   3.490   2.841   2.345  1.8928 -2.8912  0.0335
 7248SOL    HW228091   3.471   2.726   2.248 -2.7888 -1.2853 -1.2011
 7249SOL     OW28092   4.309   5.912   4.487  0.0725 -0.8418  0.3283
 7249SOL    HW128093   4.257   5.844   4.530  0.2227 -1.6868 -0.7716
 7249SOL    HW228094   4.396   5.902   4.525 -0.5126  0.6251  2.2275
 7250SOL     OW28095   6.388   5.022   0.815  0.0047 -0.9063  0.3662
 7250SOL    HW128096   6.338   4.997   0.738 -2.2160  1.6311  0.8037
 7250SOL    HW228097   6.378   5.117   0.820  1.7605 -0.7496  2.6645
 7251SOL     OW28098   6.198   3.911   5.256 -0.3290 -0.1308  0.1462
 7251SOL    HW128099   6.286   3.891   5.223  0.2769 -0.2794  1.7537
 7251SOL    HW228100   6.181   3.844   5.322 -0.4418  1.5325  1.8821
 7252SOL     OW28101   5.000   4.040   5.533  0.2017  0.1638 -0.1490
 7252SOL    HW128102   5.016   3.946   5.522 -0.1526  0.0659  0.1679
 7252SOL    HW228103   4.927   4.045   5.594  0.0367  0.6426 -0.3819
 7253SOL     OW28104   4.095   1.043   2.297 -0.1350 -0.2733  0.2870
 7253SOL    HW128105   4.027   1.089   2.346  1.1906  1.9973  0.1035
 7253SOL    HW228106   4.148   1.000   2.365  0.1873  0.7345  0.6855
 7254SOL     OW28107   6.456   0.549   6.757  0.0245 -0.0075 -0.7250
 7254SOL    HW128108   6.408   0.545   6.840  1.5597  1.4966  0.2910
 7254SOL    HW228109   6.541   0.510   6.776  1.2304  2.3811 -0.9083
 7255SOL     OW28110   0.866   8.529   4.762 -0.2238  0.1495  0.2003
 7255SOL    HW128111   0.942   8.472   4.754  0.7433  1.4945 -0.5801
 7255SOL    HW228112   0.880   8.598   4.698 -1.5536  1.0557  0.8207
 7256SOL     OW28113   3.250   2.205   5.188  0.1705 -0.0669 -0.5048
 7256SOL    HW128114   3.298   2.128   5.218 -1.7166 -1.3259 -0.5213
 7256SOL    HW228115   3.189   2.225   5.259 -0.0176  0.8314 -0.9027
 7257SOL     OW28116   2.188   6.724   3.138  0.2209  0.4100  0.1691
 7257SOL    HW128117   2.154   6.638   3.160 -0.3954  1.0058  1.6684
 7257SOL    HW228118   2.117   6.784   3.160  0.3844  1.2742 -1.4852
 7258SOL     OW28119   2.995   7.397   5.431 -0.3395  0.2583 -0.0455
 7258SOL    HW128120   2.979   7.305   5.453 -0.3058  0.4497  0.8059
 7258SOL    HW228121   2.909   7.429   5.403 -0.1882 -0.2288 -1.1251
 7259SOL     OW28122   5.907   6.471   8.673  0.5243 -0.2161  0.1073
 7259SOL    HW128123   5.963   6.397   8.696  2.1274  1.1134  0.6795
 7259SOL    HW228124   5.906   6.526   8.752 -0.4141  0.5098 -0.3861
 7260SOL     OW28125   3.410   1.897   0.059 -0.0242 -0.2380  0.3054
 7260SOL    HW128126   3.374   1.809   0.065 -0.6092  0.0265  0.7412
 7260SOL    HW228127   3.494   1.886   0.014  0.0258 -1.0471  0.5976
 7261SOL     OW28128   5.123   4.207   0.251 -0.1149 -0.1471  0.3944
 7261SOL    HW128129   5.089   4.122   0.282 -0.7179 -0.2818 -0.5957
 7261SOL    HW228130   5.131   4.196   0.157  0.3031  0.7392  0.3220
 7262SOL     OW28131   1.705   3.450   8.783 -0.3782 -0.3689 -0.7862
 7262SOL    HW128132   1.690   3.375   8.725 -2.1156  0.4114 -1.4159
 7262SOL    HW228133   1.759   3.510   8.730 -3.4370  1.1587 -2.5007
 7263SOL     OW28134   1.753   0.201   1.094 -0.4462  0.1828 -0.5788
 7263SOL    HW128135   1.845   0.178   1.112 -0.6731 -1.1547 -1.0046
 7263SOL    HW228136   1.751   0.215   0.999 -0.9516 -1.2183 -0.7950
 7264SOL     OW28137   6.462   8.427   6.186 -0.4424 -0.2281  0.4492
 7264SOL    HW128138   6.440   8.464   6.272 -0.0011 -2.5805  1.6476
 7264SOL    HW228139   6.383   8.378   6.160  0.7277 -2.7524  1.4035
 7265SOL     OW28140   3.956   4.486   0.073 -0.5773  0.3271  0.0566
 7265SOL    HW128141   3.928   4.400   0.104 -0.2029  0.2850  0.2803
 7265SOL    HW228142   4.020   4.467   0.004 -0.9474  0.4244 -0.3171
 7266SOL     OW28143   3.983   7.769   7.803  0.3611  0.0318  0.3138
 7266SOL    HW128144   3.964   7.821   7.725  0.4136 -0.3659  0.0307
 7266SOL    HW228145   3.975   7.831   7.876 -0.0963  0.3123  0.0318
 7267SOL     OW28146   4.266   0.541   5.831 -0.3186 -0.0410  0.6183
 7267SOL    HW128147   4.285   0.573   5.919 -0.6825  1.4520  0.1922
 7267SOL    HW228148   4.350   0.544   5.785 -0.4541  0.9361  0.4101
 7268SOL     OW28149   4.990   3.916   7.865  0.1343 -0.6011  0.8301
 7268SOL    HW128150   5.051   3.911   7.791 -1.4269  1.6384 -0.7662
 7268SOL    HW228151   4.909   3.876   7.833 -0.5593  0.3813  1.2930
 7269SOL     OW28152   6.077   5.985   7.851  0.5137  0.3217 -0.0452
 7269SOL    HW128153   6.135   6.012   7.780 -0.5590  2.2893 -0.2424
 7269SOL    HW228154   6.050   6.067   7.892 -0.3833 -0.6764  1.4430
 7270SOL     OW28155   2.432   8.249   1.595  0.8242  0.9540  0.5117
 7270SOL    HW128156   2.397   8.183   1.655 -1.6733 -0.1980 -1.9705
 7270SOL    HW228157   2.510   8.208   1.557  0.2346  0.0654  0.2227
 7271SOL     OW28158   6.128   7.477   8.526 -0.0367  0.1434  0.8623
 7271SOL    HW128159   6.037   7.447   8.518  0.1199 -0.5819  1.6364
 7271SOL    HW228160   6.121   7.571   8.543 -0.5628  0.5357 -1.1788
 7272SOL     OW28161   6.742   7.236   5.387 -0.0113 -0.6934  0.2647
 7272SOL    HW128162   6.703   7.302   5.445 -1.7278  0.1000 -1.6685
 7272SOL    HW228163   6.786   7.287   5.320  0.1005 -1.5463 -0.3221
 7273SOL     OW28164   0.184   7.584   6.422 -0.4608  0.3572 -0.2158
 7273SOL    HW128165   0.235   7.584   6.341  1.0232  0.6937  0.6819
 7273SOL    HW228166   0.108   7.640   6.403 -0.9920 -0.8334 -1.8440
 7274SOL     OW28167   3.379   4.425   1.193  0.9373 -0.2653 -0.2969
 7274SOL    HW128168   3.345   4.338   1.169  3.2337 -1.7523  1.3880
 7274SOL    HW228169   3.327   4.451   1.269  1.1608 -0.8432  0.0599
 7275SOL     OW28170   2.296   0.590   5.398 -0.2195  0.0932 -1.4159
 7275SOL    HW128171   2.314   0.684   5.391  0.9837  0.1001  0.7697
 7275SOL    HW228172   2.202   0.582   5.384 -0.7841  1.9750  0.7146
 7276SOL     OW28173   5.206   8.143   4.288  0.6120  0.1802  0.2664
 7276SOL    HW128174   5.258   8.159   4.209  1.1609 -3.0097 -0.1574
 7276SOL    HW228175   5.122   8.111   4.255  0.8612 -1.2215  0.9204
 7277SOL     OW28176   8.499   0.428   2.629  0.2719 -0.2009 -0.3082
 7277SOL    HW128177   8.570   0.452   2.570  2.3710 -0.8392  1.8116
 7277SOL    HW228178   8.528   0.346   2.670 -1.5504 -0.3105  0.8857
 7278SOL     OW28179   7.355   3.059   6.327  0.6172  0.1305  0.5645
 7278SOL    HW128180   7.308   2.976   6.335  0.6602  0.1370  0.9257
 7278SOL    HW228181   7.435   3.037   6.280  0.2626  0.1195 -0.0524
 7279SOL     OW28182   5.762   6.635   2.611  0.1864 -0.6249 -0.0787
 7279SOL    HW128183   5.776   6.629   2.517  1.0378 -0.6533  0.0379
 7279SOL    HW228184   5.743   6.546   2.640  0.3231 -0.6804 -0.1633
 7280SOL     OW28185   2.050   0.554   7.504  0.0714  0.0550 -0.7797
 7280SOL    HW128186   2.082   0.510   7.425 -0.2589 -1.0797 -0.2958
 7280SOL    HW228187   1.959   0.526   7.512 -0.1492  0.8354 -0.4547
 7281SOL     OW28188   1.527   8.448   7.866  0.0719 -0.5422  0.2179
 7281SOL    HW128189   1.472   8.488   7.935 -0.7246  0.4325 -0.9401
 7281SOL    HW228190   1.474   8.456   7.786  1.5009 -0.5131 -0.7483
 7282SOL     OW28191   6.095   1.770   3.901  0.1124 -0.5227 -0.0605
 7282SOL    HW128192   6.123   1.795   3.989  2.4446  1.3297 -1.2050
 7282SOL    HW228193   6.140   1.832   3.843 -0.5806 -2.2599 -2.6360
 7283SOL     OW28194   8.767   5.392   0.184 -0.0872 -0.6759 -0.3003
 7283SOL    HW128195   8.741   5.455   0.117  2.1262  1.1138  0.4047
 7283SOL    HW228196   8.690   5.383   0.240 -1.5966 -1.3526 -2.3673
 7284SOL     OW28197   5.933   1.795   6.371  0.4832 -0.1337  0.7561
 7284SOL    HW128198   5.879   1.827   6.444 -1.1630 -0.3877 -0.3056
 7284SOL    HW228199   5.891   1.712   6.346  1.5315 -0.4605  0.0432
 7285SOL     OW28200   1.119   4.949   6.937  0.1022 -0.6240  0.1680
 7285SOL    HW128201   1.125   4.931   6.844  0.2360 -2.1478  0.4455
 7285SOL    HW228202   1.080   4.870   6.975  0.2903 -0.1430  1.4356
 7286SOL     OW28203   7.482   3.612   8.589 -0.0632 -0.3677  0.0989
 7286SOL    HW128204   7.458   3.545   8.652 -2.2159 -1.0740 -1.3621
 7286SOL    HW228205   7.540   3.567   8.527 -0.0480 -0.3828  0.1245
 7287SOL     OW28206   3.382   8.594   2.973 -0.1780  0.3716 -0.1757
 7287SOL    HW128207   3.456   8.649   2.946 -2.0550  3.5216  0.6236
 7287SOL    HW228208   3.390   8.588   3.068  0.1634 -1.1045 -0.2705
 7288SOL     OW28209   6.657   4.961   7.993 -0.4129 -0.1364  0.0821
 7288SOL    HW128210   6.572   4.938   7.957 -0.8143 -1.8751  1.9695
 7288SOL    HW228211   6.719   4.907   7.944 -0.3525  1.0689 -1.2347
 7289SOL     OW28212   7.925   4.538   4.265  0.0949  0.4554  0.1310
 7289SOL    HW128213   7.950   4.459   4.312 -1.2211  0.4603  0.8922
 7289SOL    HW228214   8.005   4.567   4.222  0.8774 -0.6199  0.8213
 7290SOL     OW28215   5.967   3.596   3.993  0.7293  0.6073  0.4237
 7290SOL    HW128216   5.964   3.523   3.931 -1.6986  1.6901 -0.8651
 7290SOL    HW228217   6.054   3.634   3.981  2.2078 -2.1370  1.3501
 7291SOL     OW28218   0.549   2.895   1.385  0.0066 -0.1369  0.1192
 7291SOL    HW128219   0.590   2.811   1.363  0.1561 -0.2802  0.9249
 7291SOL    HW228220   0.574   2.953   1.313  2.2248 -0.0207  0.9160
 7292SOL     OW28221   5.016   8.476   0.390  0.4247 -0.4147 -0.4377
 7292SOL    HW128222   5.032   8.564   0.425  2.1299 -0.3736 -1.1717
 7292SOL    HW228223   4.926   8.478   0.359  0.4348  1.0849 -0.4431
 7293SOL     OW28224   3.429   0.524   4.610 -0.2831  0.3864 -0.1682
 7293SOL    HW128225   3.474   0.441   4.593 -0.9313  0.2183 -1.1589
 7293SOL    HW228226   3.352   0.521   4.553 -0.4933  1.5248  0.0382
 7294SOL     OW28227   5.398   4.942   6.732 -0.0643  0.0877  0.1036
 7294SOL    HW128228   5.347   4.992   6.795 -0.6157 -0.0291 -0.2511
 7294SOL    HW228229   5.454   5.007   6.689 -1.8458  0.6732 -1.4305
 7295SOL     OW28230   7.751   0.737   7.735  0.1213 -0.4361 -0.4312
 7295SOL    HW128231   7.683   0.774   7.678  0.8308  1.0921 -0.3230
 7295SOL    HW228232   7.749   0.792   7.814  0.9322 -0.8786 -0.0890
 7296SOL     OW28233   0.889   2.941   7.468 -0.2114 -0.1842 -0.6557
 7296SOL    HW128234   0.946   3.002   7.421 -0.4525  0.3752 -0.2223
 7296SOL    HW228235   0.810   2.991   7.488 -1.2036 -1.1883 -1.9429
 7297SOL     OW28236   4.973   1.207   3.673  0.0782 -0.1824  0.0234
 7297SOL    HW128237   5.001   1.236   3.586  1.0656  2.2451  1.0818
 7297SOL    HW228238   4.879   1.224   3.675  0.4383  2.0930  0.2151
 7298SOL     OW28239   2.174   4.052   0.190  0.1426 -0.5271  0.2060
 7298SOL    HW128240   2.139   4.093   0.270 -1.2822  0.8307 -1.0310
 7298SOL    HW228241   2.148   3.960   0.197 -0.5942 -0.2762  0.9849
 7299SOL     OW28242   7.303   4.037   3.905  0.1778 -0.4367 -0.3833
 7299SOL    HW128243   7.338   3.973   3.842  1.9029 -0.1569  0.2273
 7299SOL    HW228244   7.379   4.062   3.958 -0.6620  1.3640  0.0476
 7300SOL     OW28245   0.200   3.170   6.993 -0.1286  0.0135 -0.2002
 7300SOL    HW128246   0.283   3.194   7.035 -0.6542  1.8793 -0.1253
 7300SOL    HW228247   0.202   3.215   6.908  0.3833 -2.7154 -1.7282
 7301SOL     OW28248   4.847   1.698   0.936 -0.3954  0.4347  0.0353
 7301SOL    HW128249   4.822   1.783   0.973  0.0581  1.0282 -0.9766
 7301SOL    HW228250   4.929   1.715   0.890 -0.4185 -0.5083 -0.3867
 7302SOL     OW28251   0.202   1.190   1.134 -0.4932  0.2600  0.2175
 7302SOL    HW128252   0.263   1.154   1.070 -1.1290  0.1856 -0.3534
 7302SOL    HW228253   0.200   1.125   1.204  2.4145  1.6476  1.7527
 7303SOL     OW28254   6.056   2.274   4.585  0.5448 -0.5468 -0.4744
 7303SOL    HW128255   6.033   2.346   4.643  1.5387  0.6667 -1.5142
 7303SOL    HW228256   6.021   2.300   4.499  1.0245 -1.2416 -0.8944
 7304SOL     OW28257   2.293   0.617   7.622 -0.0779  0.1840  0.2469
 7304SOL    HW128258   2.289   0.568   7.704 -0.3143 -0.4251 -0.1225
 7304SOL    HW228259   2.205   0.612   7.586  0.2371 -0.3271 -0.4838
 7305SOL     OW28260   0.816   8.669   1.689 -0.2226  0.2837  0.6969
 7305SOL    HW128261   0.868   8.591   1.708 -1.0749 -0.0506  1.7628
 7305SOL    HW228262   0.880   8.740   1.684  0.3105 -0.0194  2.5643
 7306SOL     OW28263   6.470   6.087   8.409  0.0632  0.4068  0.0844
 7306SOL    HW128264   6.409   6.063   8.479 -1.5265  0.5727 -1.2098
 7306SOL    HW228265   6.474   6.182   8.412  0.7474  0.3719  0.5471
 7307SOL     OW28266   2.732   0.606   0.423  0.0918  0.3492 -0.3337
 7307SOL    HW128267   2.816   0.575   0.391  0.3005  0.7520 -0.1823
 7307SOL    HW228268   2.752   0.650   0.506 -0.6753 -2.4172  1.4560
 7308SOL     OW28269   4.003   2.118   2.122 -0.3180 -0.3398  0.0946
 7308SOL    HW128270   3.940   2.057   2.084  0.7913 -1.1490 -0.5080
 7308SOL    HW228271   3.980   2.121   2.215 -1.3281 -0.4840 -0.1317
 7309SOL     OW28272   7.320   0.931   4.889  0.1902 -0.0482  0.8131
 7309SOL    HW128273   7.399   0.929   4.944  0.3267  0.6427  0.6533
 7309SOL    HW228274   7.281   1.017   4.907  0.2873  0.2256 -0.2248
 7310SOL     OW28275   6.341   6.083   1.396 -0.6039 -0.3299  0.0519
 7310SOL    HW128276   6.283   6.129   1.335 -1.2169 -1.0214  0.0913
 7310SOL    HW228277   6.291   6.006   1.423  0.7253 -1.5217 -0.7126
 7311SOL     OW28278   2.260   3.836   3.938  0.2228 -0.2390 -0.0890
 7311SOL    HW128279   2.263   3.924   3.976  2.0018 -0.7617  1.1111
 7311SOL    HW228280   2.305   3.844   3.854 -1.3537  0.3646 -0.9153
 7312SOL     OW28281   0.218   4.022   5.713 -0.5275 -0.2889  0.5587
 7312SOL    HW128282   0.150   4.069   5.664  1.4021  0.7747 -1.2834
 7312SOL    HW228283   0.223   3.936   5.670 -0.0447 -0.0008  0.0282
 7313SOL     OW28284   0.528   5.007   3.157 -0.2173  0.1175 -0.1107
 7313SOL    HW128285   0.579   5.052   3.223 -0.0054  0.2563 -0.3665
 7313SOL    HW228286   0.488   5.077   3.105  0.5211  0.0306 -0.8262
 7314SOL     OW28287   5.264   3.251   2.637 -0.5676 -0.1867  0.1349
 7314SOL    HW128288   5.185   3.242   2.585  1.1873  0.6721 -2.9145
 7314SOL    HW228289   5.335   3.250   2.573  1.6884  2.3721  2.3704
 7315SOL     OW28290   3.759   0.795   2.936  0.3122  0.9424 -0.0913
 7315SOL    HW128291   3.700   0.855   2.982  0.7149  0.3457  1.2403
 7315SOL    HW228292   3.847   0.831   2.952  0.5943 -0.2044  1.0888
 7316SOL     OW28293   8.122   1.414   0.553 -0.1024  0.4578 -0.0389
 7316SOL    HW128294   8.030   1.443   0.551 -0.2500 -0.0459 -0.6015
 7316SOL    HW228295   8.142   1.406   0.646 -0.4095  1.2517  0.1096
 7317SOL     OW28296   4.367   8.043   8.976  0.2449  0.2953  0.4346
 7317SOL    HW128297   4.411   7.958   8.986  0.2879  0.2961  0.2655
 7317SOL    HW228298   4.384   8.067   8.885 -2.3408 -0.9687 -0.4763
 7318SOL     OW28299   0.112   3.883   3.527 -0.0979  0.0473  0.0350
 7318SOL    HW128300   0.094   3.809   3.585  1.6773 -1.6216 -1.4157
 7318SOL    HW228301   0.081   3.855   3.441 -0.0028  1.2788 -0.4172
 7319SOL     OW28302   0.742   1.386   9.247 -1.2670  0.3189  0.3197
 7319SOL    HW128303   0.784   1.308   9.283 -1.7137  0.4618  1.1555
 7319SOL    HW228304   0.750   1.452   9.316 -2.0559  0.6165  0.1354
 7320SOL     OW28305   0.473   2.646   6.751  0.2350 -0.3677  0.0705
 7320SOL    HW128306   0.489   2.588   6.825  1.8322  0.1010  0.1184
 7320SOL    HW228307   0.417   2.595   6.692  1.3946 -1.8708  0.2174
 7321SOL     OW28308   3.652   0.913   0.033  0.6777  0.0422  0.3846
 7321SOL    HW128309   3.581   0.922  -0.030  1.7529 -1.6335 -1.1667
 7321SOL    HW228310   3.612   0.869   0.108  0.0679 -0.9821 -0.5115
 7322SOL     OW28311   5.858   0.490   7.017 -0.1680 -0.4222  0.0728
 7322SOL    HW128312   5.851   0.444   7.101  1.9245 -1.2505 -0.1496
 7322SOL    HW228313   5.793   0.447   6.961  0.3474 -1.7756  0.4665
 7323SOL     OW28314   6.442   4.545   6.476  1.1297  0.1969 -0.3540
 7323SOL    HW128315   6.432   4.556   6.382  1.1177  1.4155 -0.2235
 7323SOL    HW228316   6.353   4.553   6.511  0.9228 -1.6377 -0.3349
 7324SOL     OW28317   1.892   1.208   3.529 -0.2504 -0.1302 -0.1177
 7324SOL    HW128318   1.846   1.173   3.605 -0.4584  1.8316  0.7094
 7324SOL    HW228319   1.824   1.252   3.479  0.2479  0.3410 -0.3836
 7325SOL     OW28320   4.716   1.648   4.791 -0.4791  0.2098 -0.5048
 7325SOL    HW128321   4.807   1.675   4.782 -0.0103 -1.3098 -0.6291
 7325SOL    HW228322   4.705   1.579   4.725 -1.4797 -0.1863  0.0530
 7326SOL     OW28323   0.632   2.868   1.091 -0.2655  0.0474 -0.2688
 7326SOL    HW128324   0.658   2.959   1.105  0.3728 -0.4166  2.1590
 7326SOL    HW228325   0.698   2.818   1.140 -0.9933 -1.6821 -0.9988
 7327SOL     OW28326   9.202   7.779   4.831 -0.0939 -0.1805 -0.0949
 7327SOL    HW128327   9.125   7.824   4.796 -1.6586 -2.1444  0.6294
 7327SOL    HW228328   9.185   7.686   4.817  1.3038 -0.7883  1.7056
 7328SOL     OW28329   6.172   9.136   1.854 -0.1730  0.5744 -0.5281
 7328SOL    HW128330   6.237   9.095   1.798 -0.1413 -0.1944  0.0615
 7328SOL    HW228331   6.155   9.221   1.813  1.4442  0.9455 -0.5164
 7329SOL     OW28332   4.811   8.365   9.210  0.4597  0.0059  0.4430
 7329SOL    HW128333   4.783   8.292   9.154  1.5331 -0.9113  1.0393
 7329SOL    HW228334   4.835   8.323   9.293  0.7810  1.0845  0.9118
 7330SOL     OW28335   3.812   3.699   5.210 -0.4728  0.0560 -0.4109
 7330SOL    HW128336   3.726   3.674   5.243  0.3149  0.8853  2.6398
 7330SOL    HW228337   3.805   3.794   5.194 -0.2539  0.0449 -0.5808
 7331SOL     OW28338   3.044   1.384   7.457  0.5883  0.1556 -0.2431
 7331SOL    HW128339   3.100   1.307   7.450  1.1913  0.4488  1.1495
 7331SOL    HW228340   3.064   1.421   7.543 -0.6312  1.1390 -0.3567
 7332SOL     OW28341   6.154   8.894   5.277 -0.0038 -0.1620 -0.1777
 7332SOL    HW128342   6.098   8.951   5.331 -0.5249 -1.6111  0.8664
 7332SOL    HW228343   6.243   8.916   5.304 -0.1697  0.5821 -0.2167
 7333SOL     OW28344   5.760   7.735   7.591 -0.6293  0.5696  0.3420
 7333SOL    HW128345   5.851   7.764   7.586 -0.6487  0.6691  0.5591
 7333SOL    HW228346   5.764   7.640   7.593 -0.4911  0.5846  1.1099
 7334SOL     OW28347   6.337   0.481   8.004  0.2053 -0.5310  0.2102
 7334SOL    HW128348   6.269   0.547   8.017  1.2599  0.7187 -0.4211
 7334SOL    HW228349   6.401   0.522   7.946  0.5935 -2.3467 -0.7245
 7335SOL     OW28350   3.155   5.406   6.967 -0.5065  0.0789 -0.7432
 7335SOL    HW128351   3.243   5.370   6.978 -0.5782 -0.3462 -1.5369
 7335SOL    HW228352   3.148   5.428   6.874 -1.0870  0.5132 -0.6068
 7336SOL     OW28353   0.531   9.170   1.452  0.5451 -0.1691  0.4626
 7336SOL    HW128354   0.574   9.234   1.508 -0.7567  0.8771  0.3210
 7336SOL    HW228355   0.550   9.085   1.492  0.9808  0.4390  1.5529
 7337SOL     OW28356   0.245   4.487   7.191 -0.2922  0.1887 -0.1312
 7337SOL    HW128357   0.221   4.576   7.166 -0.9274  0.1915  0.4377
 7337SOL    HW228358   0.230   4.485   7.286 -0.4746 -0.5807 -0.1726
 7338SOL     OW28359   6.867   0.644   6.036 -0.1948 -0.1871 -0.3197
 7338SOL    HW128360   6.803   0.643   6.107 -0.5008  0.4499 -0.5719
 7338SOL    HW228361   6.932   0.710   6.063 -1.0501  1.0824 -1.2373
 7339SOL     OW28362   7.831   0.679   1.172 -0.1271  0.6288 -0.2111
 7339SOL    HW128363   7.863   0.645   1.088 -0.1517  0.8219 -0.2998
 7339SOL    HW228364   7.736   0.678   1.163 -0.2167 -1.1362  0.5185
 7340SOL     OW28365   6.707   3.392   5.008  0.5936  0.7700 -0.6020
 7340SOL    HW128366   6.773   3.386   5.077 -0.3283  1.6170  0.3881
 7340SOL    HW228367   6.756   3.419   4.930  1.8265 -1.2462 -0.5936
 7341SOL     OW28368   1.540   4.035   4.806  0.7588 -0.0644  0.4676
 7341SOL    HW128369   1.470   3.969   4.812 -0.0768  0.7418 -0.2036
 7341SOL    HW228370   1.621   3.983   4.807  0.1660 -1.0183  1.2083
 7342SOL     OW28371   4.845   8.899   0.568 -0.0065 -0.4066 -0.3379
 7342SOL    HW128372   4.820   8.957   0.496 -2.7277  1.3121  1.7825
 7342SOL    HW228373   4.866   8.959   0.640  0.3683 -2.0734  0.9851
 7343SOL     OW28374   8.177   0.237   0.533  0.3864  0.0425  0.0148
 7343SOL    HW128375   8.194   0.183   0.456 -0.8987  0.5743 -0.6789
 7343SOL    HW228376   8.148   0.175   0.600  1.7042 -0.4474  0.1560
 7344SOL     OW28377   0.503   4.612   6.653 -0.2594 -0.6458  0.8627
 7344SOL    HW128378   0.482   4.519   6.647  0.2942 -0.6966 -1.4185
 7344SOL    HW228379   0.472   4.649   6.570  0.1403  1.0725  1.4365
 7345SOL     OW28380   2.397   8.898   2.853  0.2124 -0.1476 -0.3500
 7345SOL    HW128381   2.434   8.973   2.806 -0.8576  0.6235 -0.0008
 7345SOL    HW228382   2.468   8.835   2.856  2.0436  1.8284  1.6116
 7346SOL     OW28383   5.410   4.931   6.050  0.3272  0.0003  0.3766
 7346SOL    HW128384   5.447   4.901   5.966  1.7077 -0.6602  1.1830
 7346SOL    HW228385   5.316   4.916   6.041  0.5595 -1.0132 -0.6838
 7347SOL     OW28386   8.866   8.585   5.897 -0.1372  0.0237  0.0314
 7347SOL    HW128387   8.949   8.546   5.924  0.7068  2.3525  1.1497
 7347SOL    HW228388   8.874   8.597   5.803  0.7791  0.1507  0.1193
 7348SOL     OW28389   3.472   8.128   4.294  0.1003 -0.5225 -0.3979
 7348SOL    HW128390   3.426   8.096   4.372 -0.6468 -2.0178 -1.3898
 7348SOL    HW228391   3.472   8.053   4.234  0.4349  0.6552 -1.9389
 7349SOL     OW28392   8.449   8.666   0.379  0.1625 -0.2216  0.2398
 7349SOL    HW128393   8.499   8.699   0.454  2.5011 -3.3604  0.2538
 7349SOL    HW228394   8.475   8.722   0.307  1.0437  0.3413  0.9703
 7350SOL     OW28395   8.196   1.628   0.821  0.2097 -0.1527 -0.2731
 7350SOL    HW128396   8.204   1.533   0.821 -2.4645 -0.4692  1.1450
 7350SOL    HW228397   8.287   1.660   0.820  1.1701 -2.6388 -1.7441
 7351SOL     OW28398   6.445   1.068   8.028  0.1121 -0.0392 -0.6009
 7351SOL    HW128399   6.504   1.073   8.103  2.4888 -1.3112 -2.2487
 7351SOL    HW228400   6.366   1.113   8.056  1.1366  0.0662  2.4178
 7352SOL     OW28401   0.851   7.828   7.451 -0.1546  0.6928 -0.3501
 7352SOL    HW128402   0.772   7.844   7.399 -1.7723 -3.6357  0.4056
 7352SOL    HW228403   0.831   7.867   7.536 -0.2605  1.9797 -0.9270
 7353SOL     OW28404   6.469   1.776   8.735 -0.4108  0.1943  0.2680
 7353SOL    HW128405   6.528   1.815   8.799 -0.6356  0.0282  0.5786
 7353SOL    HW228406   6.495   1.814   8.651  1.2726 -1.1641  0.1219
 7354SOL     OW28407   8.033   6.531   0.700  0.4497  0.0735 -0.4776
 7354SOL    HW128408   7.990   6.606   0.659 -1.1045  1.3063  3.0209
 7354SOL    HW228409   8.127   6.549   0.692  0.1210  2.5180  0.2918
 7355SOL     OW28410   4.390   4.889   1.873 -0.0502  0.2363 -0.4498
 7355SOL    HW128411   4.333   4.898   1.797 -0.4647 -3.7583 -0.8229
 7355SOL    HW228412   4.331   4.877   1.947  0.2750 -0.6204 -0.3084
 7356SOL     OW28413   1.202   3.108   3.714  0.5134  0.0082 -0.4631
 7356SOL    HW128414   1.223   3.018   3.736  1.2799 -0.1877 -1.8982
 7356SOL    HW228415   1.120   3.102   3.664 -0.8840  0.3932  1.6443
 7357SOL     OW28416   5.354   2.070   1.018  0.4228 -0.3030  0.1629
 7357SOL    HW128417   5.354   2.146   0.960 -3.1174 -0.9886 -1.0021
 7357SOL    HW228418   5.370   2.105   1.105  2.7365  1.1734 -0.7700
 7358SOL     OW28419   2.586   8.687   0.058  0.3327  0.2305  0.5435
 7358SOL    HW128420   2.515   8.637   0.098  1.6106 -0.8690  1.5685
 7358SOL    HW228421   2.654   8.689   0.126  0.7503  2.4764  0.1322
 7359SOL     OW28422   1.411   7.688   3.978 -0.3853 -0.2658  0.1450
 7359SOL    HW128423   1.372   7.669   4.063 -2.4676 -0.4261 -0.7684
 7359SOL    HW228424   1.505   7.694   3.995 -0.3628 -3.3347  1.9262
 7360SOL     OW28425   4.099   4.491   3.751 -0.3854 -0.0129  0.4072
 7360SOL    HW128426   4.046   4.412   3.741 -1.2305  0.3048  1.9687
 7360SOL    HW228427   4.102   4.531   3.664 -1.4795 -0.8101 -0.0019
 7361SOL     OW28428   8.221   8.525   1.481 -0.2532 -0.4459  0.1718
 7361SOL    HW128429   8.129   8.542   1.461  0.0612 -0.2313 -1.1774
 7361SOL    HW228430   8.231   8.430   1.476 -0.1437 -0.3838 -0.9035
 7362SOL     OW28431   7.679   6.776   3.004 -0.5355 -0.2010  0.6503
 7362SOL    HW128432   7.690   6.871   2.994  0.9893 -0.5275 -1.6614
 7362SOL    HW228433   7.728   6.739   2.930 -1.7653 -2.7687  1.0250
 7363SOL     OW28434   2.885   1.087   3.503 -0.2098  0.0973  0.1111
 7363SOL    HW128435   2.959   1.132   3.462  0.9993 -2.4739 -0.7338
 7363SOL    HW228436   2.874   1.008   3.452 -0.8887 -1.6077  2.6990
 7364SOL     OW28437   6.503   8.603   7.614  0.2616  0.8612  0.3412
 7364SOL    HW128438   6.550   8.545   7.675  1.6852  0.3340 -1.1964
 7364SOL    HW228439   6.466   8.671   7.671 -0.7126 -1.0147  2.1021
 7365SOL     OW28440   9.082   1.092   2.070  0.2525 -0.5527  0.3458
 7365SOL    HW128441   9.099   0.998   2.075  0.1525 -0.6378 -0.7551
 7365SOL    HW228442   8.986   1.099   2.066  0.2925 -0.4635 -0.5520
 7366SOL     OW28443   1.672   4.683   6.217 -0.3324 -0.6135  0.1844
 7366SOL    HW128444   1.601   4.739   6.248 -0.9440 -2.1553  1.7160
 7366SOL    HW228445   1.629   4.604   6.185  0.6127 -0.9838 -0.2239
 7367SOL     OW28446   7.745   0.209   9.108 -0.2094 -0.4426 -0.3675
 7367SOL    HW128447   7.708   0.121   9.115 -1.5495 -0.0236 -1.8595
 7367SOL    HW228448   7.837   0.194   9.086 -0.2274 -1.4594  0.1598
 7368SOL     OW28449   3.612   9.189   0.310  0.0392 -0.5186  0.1141
 7368SOL    HW128450   3.588   9.165   0.400  0.9800  0.0611  0.5248
 7368SOL    HW228451   3.561   9.268   0.292 -0.5087 -0.8959 -0.0483
 7369SOL     OW28452   1.698   2.606   0.083  0.2320 -0.2045  0.7303
 7369SOL    HW128453   1.636   2.568   0.144  1.4514  1.2727  3.0256
 7369SOL    HW228454   1.706   2.541   0.013 -2.6654 -1.1095  1.1115
 7370SOL     OW28455   3.640   9.112   5.283 -0.4156  0.6162  0.5913
 7370SOL    HW128456   3.707   9.138   5.346  0.5233 -0.9582  0.3026
 7370SOL    HW228457   3.658   9.020   5.266 -1.0294  0.8400 -1.5114
 7371SOL     OW28458   2.698   8.036   0.131 -0.1391 -0.6488 -0.4026
 7371SOL    HW128459   2.753   8.006   0.059  1.2217 -0.7839  0.6592
 7371SOL    HW228460   2.755   8.036   0.207 -0.8971  1.7450  0.2565
 7372SOL     OW28461   8.049   4.859   4.241 -0.1689  0.6599  0.0659
 7372SOL    HW128462   8.057   4.920   4.168  0.3339  1.0351  0.4282
 7372SOL    HW228463   7.964   4.817   4.229 -0.7569  1.8065  0.1013
 7373SOL     OW28464   1.775   3.404   6.639  0.5016  0.1049 -0.3282
 7373SOL    HW128465   1.769   3.475   6.703  1.4200  0.7638 -0.9488
 7373SOL    HW228466   1.750   3.325   6.688  0.4250  0.7063  0.6245
 7374SOL     OW28467   8.113   6.046   6.343 -0.3191 -0.0255  0.1694
 7374SOL    HW128468   8.038   6.052   6.401 -0.9542  1.6650 -0.7847
 7374SOL    HW228469   8.107   5.958   6.305 -1.1720 -0.3060  0.9264
 7375SOL     OW28470   5.754   7.504   3.293 -0.8887 -0.4783 -0.3627
 7375SOL    HW128471   5.673   7.496   3.242 -0.8241  0.8950 -0.7158
 7375SOL    HW228472   5.822   7.519   3.228 -0.7938  1.2447  0.1017
 7376SOL     OW28473   0.961   1.767   8.632 -0.3681  0.6064 -0.5220
 7376SOL    HW128474   0.900   1.741   8.701 -0.2576 -1.0634 -0.9980
 7376SOL    HW228475   0.926   1.727   8.552  0.3383  1.1938 -1.1421
 7377SOL     OW28476   1.016   5.965   9.183 -0.0649  0.2590  0.0705
 7377SOL    HW128477   0.983   6.034   9.124  1.1216 -0.4424 -1.4828
 7377SOL    HW228478   1.088   5.925   9.135  0.1539 -1.1844  1.5199
 7378SOL     OW28479   2.630   8.162   1.434 -0.3441  0.3019 -0.3991
 7378SOL    HW128480   2.572   8.111   1.378  0.4504  0.6065 -1.5233
 7378SOL    HW228481   2.699   8.100   1.459 -0.3767  0.3261 -0.2495
 7379SOL     OW28482   8.916   7.167   7.406  0.4014 -0.3374 -0.1977
 7379SOL    HW128483   8.903   7.094   7.467  1.9668  0.8109  1.6302
 7379SOL    HW228484   9.011   7.181   7.404  0.1899  1.3317 -0.8575
 7380SOL     OW28485   9.005   9.225   1.212 -0.2381  0.2488 -0.6788
 7380SOL    HW128486   8.912   9.227   1.188 -0.5131  1.2347  0.3446
 7380SOL    HW228487   9.038   9.144   1.174 -1.5721 -0.2341 -0.8730
 7381SOL     OW28488   2.406   2.485   3.010  0.4573 -0.1454 -0.3397
 7381SOL    HW128489   2.344   2.538   2.960  1.3848 -0.8683 -2.3654
 7381SOL    HW228490   2.410   2.402   2.963  1.1901 -0.9764  1.1100
 7382SOL     OW28491   5.724   3.078   4.626 -0.1068 -0.0688  0.1707
 7382SOL    HW128492   5.805   3.038   4.596  0.0804 -0.2177  0.8650
 7382SOL    HW228493   5.680   3.009   4.677 -0.2344  0.3004  0.5679
 7383SOL     OW28494   2.112   1.311   3.053  0.5391 -0.1408 -0.1858
 7383SOL    HW128495   2.122   1.377   2.985  0.4254  0.3777  0.2903
 7383SOL    HW228496   2.160   1.235   3.020 -1.3874 -0.7055 -1.8728
 7384SOL     OW28497   2.935   7.308   7.562 -0.0725 -0.0892 -0.1093
 7384SOL    HW128498   2.869   7.370   7.593  0.2677 -0.0700  0.6028
 7384SOL    HW228499   3.008   7.363   7.532  1.0421 -0.1170  2.3256
 7385SOL     OW28500   3.319   5.266   8.967  0.3103  0.3547  0.1016
 7385SOL    HW128501   3.364   5.299   9.045 -0.3490  3.4924 -0.6904
 7385SOL    HW228502   3.383   5.209   8.924  2.1165  1.6196  0.9739
 7386SOL     OW28503   3.429   0.922   0.223  0.4855  0.0649  0.0870
 7386SOL    HW128504   3.394   0.963   0.302 -0.7490 -0.2221 -0.2786
 7386SOL    HW228505   3.363   0.940   0.156  1.4517  0.1901 -0.8452
 7387SOL     OW28506   1.139   2.543   5.926  0.0536  0.2468  0.8486
 7387SOL    HW128507   1.119   2.487   5.851 -0.5051  2.5998 -0.8821
 7387SOL    HW228508   1.230   2.522   5.948 -0.4573 -2.0555  1.0019
 7388SOL     OW28509   4.295   2.534   8.938 -0.4875 -0.2164 -0.2432
 7388SOL    HW128510   4.216   2.525   8.886 -0.4618  0.3848 -0.3913
 7388SOL    HW228511   4.270   2.593   9.010  0.1924  1.1224 -1.0732
 7389SOL     OW28512   1.180   8.803   5.537 -0.5901 -0.3367 -0.4420
 7389SOL    HW128513   1.096   8.834   5.570 -0.6553 -0.0804 -0.8404
 7389SOL    HW228514   1.160   8.722   5.491 -0.4962 -0.7056  0.1585
 7390SOL     OW28515   4.353   0.004   1.785  0.2536 -0.0919 -0.3768
 7390SOL    HW128516   4.425   0.060   1.815  0.5427 -0.5454 -0.2069
 7390SOL    HW228517   4.320   0.047   1.706  3.4041 -1.9660 -2.9546
 7391SOL     OW28518   7.992   2.754   3.782 -0.3951 -0.4438  0.5669
 7391SOL    HW128519   8.019   2.665   3.758 -0.0890  0.0517 -1.0572
 7391SOL    HW228520   7.927   2.741   3.851 -1.0476 -1.9836 -0.2822
 7392SOL     OW28521   6.350   4.956   2.734  0.2312 -0.1903  0.3729
 7392SOL    HW128522   6.384   4.867   2.733 -1.7116 -0.9737 -0.3740
 7392SOL    HW228523   6.269   4.951   2.785  0.1048  1.1618  0.3497
 7393SOL     OW28524   5.384   2.559   7.021  0.0291  0.1636  0.4000
 7393SOL    HW128525   5.464   2.516   7.052  0.6079  0.1124 -1.1069
 7393SOL    HW228526   5.409   2.651   7.008 -0.2313  0.1993  0.1366
 7394SOL     OW28527   2.835   0.128   2.834 -0.4110  0.4425  0.3127
 7394SOL    HW128528   2.878   0.145   2.917  0.3373 -0.9099  0.2240
 7394SOL    HW228529   2.774   0.056   2.851  0.5180 -0.5804 -0.5134
 7395SOL     OW28530   4.177   4.601   7.025 -0.2842  0.7780 -0.1089
 7395SOL    HW128531   4.262   4.560   7.009 -1.3125 -1.9991  1.0403
 7395SOL    HW228532   4.176   4.619   7.119 -1.3559 -0.2622  0.1004
 7396SOL     OW28533   5.272   3.828   7.606 -0.0407 -0.0175  0.3277
 7396SOL    HW128534   5.327   3.750   7.612 -1.2458 -1.0224 -0.9685
 7396SOL    HW228535   5.288   3.862   7.518  0.1784  0.9809  0.7457
 7397SOL     OW28536   6.753   3.858   1.423  0.0409  0.7319 -0.2478
 7397SOL    HW128537   6.783   3.768   1.436 -0.4739  0.8132  1.8171
 7397SOL    HW228538   6.818   3.896   1.363  0.6555 -0.7965 -0.6057
 7398SOL     OW28539   7.442   1.457   7.483  0.1052  0.8232  0.3526
 7398SOL    HW128540   7.509   1.517   7.452 -0.5489  0.7151 -1.3249
 7398SOL    HW228541   7.488   1.400   7.545  1.3808  1.2496 -0.1754
 7399SOL     OW28542   3.852   4.790   7.222  0.9345 -0.6493 -0.2023
 7399SOL    HW128543   3.875   4.699   7.201 -0.6451 -1.0001 -0.5879
 7399SOL    HW228544   3.871   4.838   7.142 -0.5942 -1.1325 -0.9044
 7400SOL     OW28545   1.277   7.747   2.170  0.6481 -0.9074  0.2817
 7400SOL    HW128546   1.341   7.814   2.146  0.9388  0.1206  3.4395
 7400SOL    HW228547   1.225   7.734   2.090  3.5576 -0.4555 -1.8526
 7401SOL     OW28548   4.207   4.879   5.833 -0.1157 -0.1717  0.0622
 7401SOL    HW128549   4.147   4.887   5.907  0.2563 -1.5579  0.5458
 7401SOL    HW228550   4.250   4.794   5.846  0.5401 -0.0779 -1.3145
 7402SOL     OW28551   7.355   8.783   2.208  0.1752  0.0827 -0.5260
 7402SOL    HW128552   7.331   8.875   2.195  1.8314  0.4207 -1.5154
 7402SOL    HW228553   7.333   8.740   2.125 -3.0035 -1.0618  0.7546
 7403SOL     OW28554   5.070   5.882   8.655 -0.2006  0.0539 -0.3950
 7403SOL    HW128555   5.143   5.824   8.678  0.0202  0.6176  0.3810
 7403SOL    HW228556   5.015   5.830   8.597  1.2458 -0.1301 -1.7094
 7404SOL     OW28557   0.181   4.955   8.623 -0.0016 -0.3773 -0.6163
 7404SOL    HW128558   0.119   5.028   8.622 -0.2197 -0.5375  0.5099
 7404SOL    HW228559   0.258   4.988   8.575 -1.1977 -0.4220 -2.6887
 7405SOL     OW28560   9.222   0.378   2.805 -0.2918  0.2173 -0.0860
 7405SOL    HW128561   9.189   0.463   2.833  0.8463  0.0621  1.8312
 7405SOL    HW228562   9.264   0.395   2.720 -1.4401  1.2244 -0.4784
 7406SOL     OW28563   3.033   7.601   0.173  0.2868  0.2024 -0.0892
 7406SOL    HW128564   3.037   7.507   0.158  0.9428  0.2351 -0.1163
 7406SOL    HW228565   2.996   7.610   0.261  0.1062 -0.0759 -0.1369
 7407SOL     OW28566   6.861   8.029   1.887 -0.2537  0.4798  0.2216
 7407SOL    HW128567   6.823   7.942   1.898  1.0417 -0.0949  0.3744
 7407SOL    HW228568   6.792   8.089   1.914 -1.3799 -0.4677 -0.4593
 7408SOL     OW28569   3.787   8.613   8.870 -0.5297 -0.4683  0.5160
 7408SOL    HW128570   3.810   8.568   8.789 -0.9205 -0.4263  0.3849
 7408SOL    HW228571   3.765   8.702   8.844  1.5788  0.2353  0.9175
 7409SOL     OW28572   6.550   7.639   3.860 -0.4125 -0.0958 -0.2427
 7409SOL    HW128573   6.521   7.555   3.895  0.4670  0.7470  2.8277
 7409SOL    HW228574   6.643   7.627   3.841 -0.1542  0.2999  0.7236
 7410SOL     OW28575   1.615   5.826   6.186  0.5972 -0.1915  0.0291
 7410SOL    HW128576   1.646   5.879   6.112  1.3072  0.0628  0.4865
 7410SOL    HW228577   1.688   5.766   6.204 -0.1470 -1.2467 -0.3923
 7411SOL     OW28578   6.006   0.181   6.926  0.2143 -0.7773 -0.2457
 7411SOL    HW128579   5.975   0.091   6.913  1.6798 -1.0451 -2.6200
 7411SOL    HW228580   5.969   0.229   6.852 -1.8297  1.0592  1.8040
 7412SOL     OW28581   3.020   1.110   7.661 -0.2670 -0.2278 -0.2139
 7412SOL    HW128582   3.081   1.161   7.714  1.1061 -0.6552 -1.3236
 7412SOL    HW228583   3.062   1.024   7.651 -2.1840 -1.3834  1.0023
 7413SOL     OW28584   3.896   8.974   0.229 -0.2437 -0.1795 -0.1412
 7413SOL    HW128585   3.913   8.880   0.220 -1.4073 -0.3441 -0.8047
 7413SOL    HW228586   3.886   8.987   0.324 -0.2800 -0.7581 -0.0584
 7414SOL     OW28587   0.725   6.219   6.197  0.2713  0.5252  0.5073
 7414SOL    HW128588   0.724   6.195   6.289  0.9425  0.5409  0.5240
 7414SOL    HW228589   0.801   6.277   6.188 -0.4845  1.5007  0.1848
 7415SOL     OW28590   0.719   6.986   5.816 -0.0404 -0.0964  0.0389
 7415SOL    HW128591   0.679   6.935   5.746  0.7350  0.0304 -0.5067
 7415SOL    HW228592   0.654   7.052   5.838  0.2618  0.7637 -1.5502
 7416SOL     OW28593   4.964   6.579   4.615 -0.7142  0.0264 -0.6381
 7416SOL    HW128594   4.872   6.558   4.596 -0.8378 -0.4482  0.4253
 7416SOL    HW228595   4.977   6.551   4.705  1.5083 -3.3921 -1.8339
 7417SOL     OW28596   8.680   7.876   6.793  0.4541  0.3880 -0.2757
 7417SOL    HW128597   8.613   7.944   6.792 -0.6928 -0.6809 -1.7469
 7417SOL    HW228598   8.675   7.839   6.882  0.4891  1.6231  0.2562
 7418SOL     OW28599   0.541   0.467   0.478 -0.3923  0.7719 -0.2160
 7418SOL    HW128600   0.617   0.462   0.418  1.1818 -0.0238  1.7285
 7418SOL    HW228601   0.543   0.557   0.511 -1.9494  1.5712 -2.0990
 7419SOL     OW28602   7.124   8.928   1.806  0.0291 -0.3170  0.2395
 7419SOL    HW128603   7.046   8.906   1.755  0.4381 -0.8021 -0.1935
 7419SOL    HW228604   7.153   8.844   1.842 -0.4815  0.0778  1.6065
 7420SOL     OW28605   2.832   8.199   2.841  0.2077 -0.2866  0.3492
 7420SOL    HW128606   2.740   8.209   2.814  0.8012  0.6829 -1.4291
 7420SOL    HW228607   2.871   8.143   2.775  1.6677  2.0086 -0.8670
 7421SOL     OW28608   4.549   1.863   8.573 -0.0099 -0.5406 -0.1503
 7421SOL    HW128609   4.482   1.877   8.505  0.6829  1.2946 -0.5206
 7421SOL    HW228610   4.588   1.779   8.551  0.1121 -0.0500 -1.9792
 7422SOL     OW28611   0.455   1.588   5.908  0.4330 -0.2504 -0.9447
 7422SOL    HW128612   0.500   1.672   5.918  0.8988 -0.5635 -0.3886
 7422SOL    HW228613   0.502   1.528   5.966 -1.4647 -0.3059  0.6411
 7423SOL     OW28614   3.383   8.328   7.828  0.2671 -0.5554 -0.3044
 7423SOL    HW128615   3.294   8.354   7.804  0.1477  0.1668  0.8506
 7423SOL    HW228616   3.437   8.354   7.753 -0.1771  1.1026 -0.0812
 7424SOL     OW28617   9.135   6.967   6.340  0.5100 -0.3889 -0.4889
 7424SOL    HW128618   9.078   7.030   6.294  0.7130 -0.1129 -0.3669
 7424SOL    HW228619   9.194   7.022   6.392  0.4325 -0.6903 -0.0721
 7425SOL     OW28620   3.545   1.794   4.902 -0.3920 -0.0919 -0.5439
 7425SOL    HW128621   3.484   1.810   4.975 -0.8581  0.3538 -1.0221
 7425SOL    HW228622   3.596   1.718   4.930  0.1585  0.7002  0.7061
 7426SOL     OW28623   7.696   4.389   8.651  0.5762  0.5692  0.3104
 7426SOL    HW128624   7.635   4.451   8.610 -0.0920 -0.0482  0.3686
 7426SOL    HW228625   7.660   4.303   8.630  1.1207  0.2133  0.8330
 7427SOL     OW28626   7.074   3.407   0.811 -0.5054 -0.1140 -1.0993
 7427SOL    HW128627   7.026   3.464   0.750 -0.9389  0.8744  0.1332
 7427SOL    HW228628   7.166   3.422   0.789 -0.4898  2.5377  0.3785
 7428SOL     OW28629   8.408   0.727   4.425  0.0970 -0.3325 -0.1214
 7428SOL    HW128630   8.347   0.760   4.492  0.2464  1.5522 -0.8660
 7428SOL    HW228631   8.393   0.633   4.425 -0.6766 -0.2622  1.8134
 7429SOL     OW28632   0.017   3.880   3.997 -0.6838 -0.4863  0.3878
 7429SOL    HW128633   0.028   3.975   4.001 -1.2671 -0.3716 -0.4370
 7429SOL    HW228634  -0.039   3.859   4.072 -0.1285 -0.2610  0.8801
 7430SOL     OW28635   1.590   5.515   8.093 -0.1225  0.0222 -0.2068
 7430SOL    HW128636   1.593   5.437   8.148  0.2849 -0.7678 -1.3135
 7430SOL    HW228637   1.500   5.546   8.101  0.5127  1.4969  2.9512
 7431SOL     OW28638   8.260   7.799   6.017 -0.0596  0.2628  0.0001
 7431SOL    HW128639   8.238   7.788   6.110 -0.7918 -0.7987 -0.2774
 7431SOL    HW228640   8.353   7.823   6.017  0.0229 -0.0139  1.0052
 7432SOL     OW28641   6.812   8.426   8.177 -0.1085 -0.0713 -0.2438
 7432SOL    HW128642   6.904   8.450   8.185 -0.0821  0.3016 -1.5638
 7432SOL    HW228643   6.767   8.508   8.159 -0.9458  0.0195  1.9437
 7433SOL     OW28644   1.610   6.099   8.181  0.0934 -0.1342 -0.6292
 7433SOL    HW128645   1.587   6.013   8.146  1.2786 -0.1977 -1.3244
 7433SOL    HW228646   1.638   6.150   8.104  0.9295  0.3474 -0.0218
 7434SOL     OW28647   7.558   0.132   1.825 -0.3770  0.6748  0.6233
 7434SOL    HW128648   7.525   0.212   1.786  3.0626  1.2161 -1.5873
 7434SOL    HW228649   7.536   0.063   1.762  2.0151  0.9786 -0.6630
 7435SOL     OW28650   1.892   3.520   2.108  0.0337  0.2981 -0.2210
 7435SOL    HW128651   1.894   3.514   2.203  2.0387  0.4083 -0.1975
 7435SOL    HW228652   1.822   3.461   2.081 -1.0183  0.7699  1.3258
 7436SOL     OW28653   3.048   4.230   5.791  0.5983  0.2143  0.4704
 7436SOL    HW128654   3.123   4.289   5.789  0.9148 -0.2029 -0.9707
 7436SOL    HW228655   2.978   4.278   5.746  0.2788  0.2102  0.9446
 7437SOL     OW28656   7.438   4.169   2.172  0.2306  0.6850 -0.5832
 7437SOL    HW128657   7.414   4.123   2.092 -1.6657 -2.1277  1.3960
 7437SOL    HW228658   7.357   4.212   2.201  0.1480 -0.4840  1.0562
 7438SOL     OW28659   0.778   3.619   3.781 -0.4387 -0.8388  0.1056
 7438SOL    HW128660   0.722   3.679   3.731  0.6314 -0.1803 -0.3181
 7438SOL    HW228661   0.860   3.616   3.733  0.7433  0.0316  1.9300
 7439SOL     OW28662   6.813   6.594   0.577  0.3399 -0.2028  0.0215
 7439SOL    HW128663   6.810   6.634   0.490 -0.7582 -2.5331 -1.0976
 7439SOL    HW228664   6.880   6.643   0.624  1.5063  0.6459 -2.3902
 7440SOL     OW28665   5.257   5.848   6.254  0.7522 -0.3226 -0.8986
 7440SOL    HW128666   5.333   5.789   6.254 -0.0116 -1.4014  0.9796
 7440SOL    HW228667   5.265   5.896   6.336 -0.1870  0.1029 -1.0464
 7441SOL     OW28668   1.232   0.711   1.085 -0.3044  0.7520  0.1038
 7441SOL    HW128669   1.254   0.803   1.099  0.5886  1.4155 -4.1256
 7441SOL    HW228670   1.316   0.669   1.069 -0.8293 -0.4887  0.5020
 7442SOL     OW28671   3.856   3.306   0.105  0.9385 -0.2402  0.4434
 7442SOL    HW128672   3.761   3.307   0.116  0.8907 -1.0790  0.1342
 7442SOL    HW228673   3.890   3.330   0.192  0.4634 -1.1467  0.8904
 7443SOL     OW28674   2.200   2.469   5.399  0.5198 -0.1260  0.1805
 7443SOL    HW128675   2.273   2.522   5.432  0.8341 -1.3877  1.6322
 7443SOL    HW228676   2.122   2.521   5.419  0.9779  1.7621 -2.3864
 7444SOL     OW28677   3.371   5.638   3.930  0.2431 -0.3999 -0.1394
 7444SOL    HW128678   3.299   5.586   3.894  0.1207  0.2262 -0.8419
 7444SOL    HW228679   3.330   5.694   3.995 -0.0481  0.4162 -0.9925
 7445SOL     OW28680   3.073   2.190   4.471 -0.1786  0.1133  0.1330
 7445SOL    HW128681   3.034   2.234   4.396 -1.3058 -1.4685 -0.2550
 7445SOL    HW228682   3.163   2.173   4.444 -0.5551 -0.3858 -0.8558
 7446SOL     OW28683   8.895   1.607   5.572  0.2236  0.2446 -0.7162
 7446SOL    HW128684   8.903   1.586   5.665 -0.3763  1.6759 -0.3094
 7446SOL    HW228685   8.982   1.638   5.547  0.1068  0.8746 -0.3529
 7447SOL     OW28686   3.155   4.721   7.108  0.0332 -0.0362 -0.0051
 7447SOL    HW128687   3.202   4.647   7.069  0.8386  0.8217 -0.7344
 7447SOL    HW228688   3.215   4.757   7.173  0.1301  0.6543 -0.4591
 7448SOL     OW28689   2.111   3.977   8.572 -0.6527  0.1317  0.6681
 7448SOL    HW128690   2.171   4.048   8.548 -1.9591  1.4338  1.0970
 7448SOL    HW228691   2.164   3.898   8.567  0.2547  0.8064 -2.3246
 7449SOL     OW28692   4.507   2.899   8.132 -0.0268 -0.0174 -0.4292
 7449SOL    HW128693   4.422   2.886   8.174  0.1754 -1.1135 -0.3283
 7449SOL    HW228694   4.538   2.982   8.166 -0.4066 -0.3104  0.6768
 7450SOL     OW28695   6.325   1.111   7.235 -0.4613 -0.3810  0.2003
 7450SOL    HW128696   6.390   1.100   7.304 -0.4911 -0.4129  0.2236
 7450SOL    HW228697   6.262   1.040   7.250  0.5921 -1.6430 -1.0809
 7451SOL     OW28698   3.591   6.999   0.577 -0.3835  0.3539  0.2959
 7451SOL    HW128699   3.541   6.919   0.557 -0.7186  0.3946  0.9358
 7451SOL    HW228700   3.639   7.018   0.496 -1.9298  0.6924 -0.5884
 7452SOL     OW28701   2.560   2.573   0.515  0.6149 -0.1598  0.4708
 7452SOL    HW128702   2.507   2.561   0.436 -0.7302 -0.0415  1.3370
 7452SOL    HW228703   2.557   2.489   0.559  1.8794 -0.4119  0.1116
 7453SOL     OW28704   1.193   0.978   6.690  0.4038  0.4933  0.0718
 7453SOL    HW128705   1.142   0.897   6.681  0.4850  0.5514 -1.0651
 7453SOL    HW228706   1.249   0.963   6.765  0.7996 -0.7235 -0.4436
 7454SOL     OW28707   1.043   0.668   8.670  0.1552 -0.2940  0.1868
 7454SOL    HW128708   1.078   0.741   8.721 -1.5198  0.4302  0.3656
 7454SOL    HW228709   1.081   0.679   8.583  1.8248 -0.6464  0.8475
 7455SOL     OW28710   7.360   7.253   6.883 -0.2104 -0.0140 -0.4341
 7455SOL    HW128711   7.340   7.337   6.842  1.0835 -0.0666 -1.2412
 7455SOL    HW228712   7.282   7.199   6.868 -0.5674  0.6487 -0.9929
 7456SOL     OW28713   7.689   1.821   3.913  0.1690 -0.2167 -0.7761
 7456SOL    HW128714   7.780   1.849   3.910  0.1461 -0.1516 -0.8433
 7456SOL    HW228715   7.643   1.878   3.852 -0.5882  2.1756  1.7885
 7457SOL     OW28716   3.174   2.212   7.786 -0.3034 -0.2477 -0.4302
 7457SOL    HW128717   3.167   2.180   7.696  0.0864  0.3993 -0.7011
 7457SOL    HW228718   3.252   2.267   7.786 -0.9671  0.7282 -0.0067
 7458SOL     OW28719   2.957   3.566   9.196  0.2341  0.3918 -0.7398
 7458SOL    HW128720   2.912   3.536   9.274  0.2188  0.1566 -0.8385
 7458SOL    HW228721   3.035   3.510   9.190  0.9224  1.2622 -0.1673
 7459SOL     OW28722   4.463   7.600   6.627 -0.3228 -0.1001 -0.3988
 7459SOL    HW128723   4.514   7.623   6.705  0.7228 -0.6017 -0.9157
 7459SOL    HW228724   4.457   7.681   6.577  1.1637 -0.3228 -0.9887
 7460SOL     OW28725   5.215   1.927   9.087 -0.5508  0.1708  0.4789
 7460SOL    HW128726   5.227   1.991   9.017  2.2774  0.1678  0.8094
 7460SOL    HW228727   5.165   1.856   9.047  0.4611  0.4419 -1.3782
 7461SOL     OW28728   0.486   6.708   3.135 -0.0791 -0.0520 -0.4526
 7461SOL    HW128729   0.394   6.695   3.114 -0.5524  0.5184  1.1356
 7461SOL    HW228730   0.534   6.670   3.060 -1.5791 -0.3327 -1.3002
 7462SOL     OW28731   9.208   6.356   0.248  0.5122 -0.1325 -0.3834
 7462SOL    HW128732   9.248   6.280   0.206 -0.1136  1.0633 -3.4955
 7462SOL    HW228733   9.119   6.357   0.212 -0.1019  1.0011  1.1107
 7463SOL     OW28734   3.506   2.645   1.904 -0.2561  1.0354 -1.0141
 7463SOL    HW128735   3.595   2.652   1.870  0.2384  2.9994  0.5473
 7463SOL    HW228736   3.515   2.654   1.999 -1.7676 -2.5000 -0.3728
 7464SOL     OW28737   3.315   5.971   8.728 -0.4788  0.0433 -0.4294
 7464SOL    HW128738   3.266   5.889   8.731 -2.2602  1.0935  2.5375
 7464SOL    HW228739   3.295   6.014   8.811  1.4907  2.8825 -1.3060
 7465SOL     OW28740   5.561   3.065   3.862  0.1524 -0.1339 -0.1079
 7465SOL    HW128741   5.529   3.107   3.782 -2.8757 -0.4927  0.7912
 7465SOL    HW228742   5.548   3.131   3.930  0.8099 -0.5409  0.4263
 7466SOL     OW28743   3.046   8.655   9.068  0.0044 -0.2269 -0.4677
 7466SOL    HW128744   3.044   8.735   9.016  2.2800  0.1127 -0.1131
 7466SOL    HW228745   3.111   8.600   9.025  0.1608 -0.9189  0.6223
 7467SOL     OW28746   8.992   6.113   1.358 -0.1768  0.5141  0.2097
 7467SOL    HW128747   8.982   6.121   1.453 -0.2350 -0.0888  0.2583
 7467SOL    HW228748   9.013   6.202   1.329 -1.4552  0.9789  0.6281
 7468SOL     OW28749   2.570   0.822   0.983  0.5756 -0.1895  0.4915
 7468SOL    HW128750   2.518   0.903   0.979  0.2954 -0.2695  1.9220
 7468SOL    HW228751   2.635   0.839   1.051  1.0772 -0.8579  0.1882
 7469SOL     OW28752   5.314   1.272   2.010 -0.2869 -0.0229 -0.1247
 7469SOL    HW128753   5.227   1.264   2.050 -0.9411 -0.8733 -1.6294
 7469SOL    HW228754   5.326   1.190   1.963  0.3996  0.9479 -1.7183
 7470SOL     OW28755   5.604   2.045   0.019  0.5928  0.3241  0.2074
 7470SOL    HW128756   5.519   2.088   0.013  0.5648  0.5004  1.5893
 7470SOL    HW228757   5.609   1.990  -0.059 -0.4709  0.8682 -0.2599
 7471SOL     OW28758   6.874   2.394   7.287 -0.6604 -0.5251 -0.6679
 7471SOL    HW128759   6.945   2.330   7.283 -0.6261 -0.4988 -0.4490
 7471SOL    HW228760   6.808   2.353   7.343  0.0345  0.3141  0.7921
 7472SOL     OW28761   1.042   1.132   8.258 -0.3645  0.4140 -0.5783
 7472SOL    HW128762   1.017   1.179   8.179  0.0637  1.6997  0.0178
 7472SOL    HW228763   1.001   1.180   8.330 -0.0880 -0.2455  0.0457
 7473SOL     OW28764   1.777   5.408   0.442  0.4289 -0.3043  0.0856
 7473SOL    HW128765   1.785   5.466   0.517 -0.6721 -1.4646  1.1298
 7473SOL    HW228766   1.821   5.328   0.469  1.2150 -0.2796 -1.0406
 7474SOL     OW28767   6.417   7.050   7.898 -0.2045 -0.0440  0.0690
 7474SOL    HW128768   6.399   7.082   7.810 -1.0712 -0.5994  0.0306
 7474SOL    HW228769   6.336   7.005   7.924  0.5856 -1.2383  0.5370
 7475SOL     OW28770   3.378   8.548   4.951 -0.3808 -0.1306  0.6605
 7475SOL    HW128771   3.413   8.627   4.910  0.1571 -0.0127  1.3339
 7475SOL    HW228772   3.446   8.520   5.012 -0.4754 -1.2433  0.2740
 7476SOL     OW28773   5.602   2.343   6.531  0.7208  0.9745 -0.0597
 7476SOL    HW128774   5.588   2.422   6.479  0.4977  0.4912 -0.7477
 7476SOL    HW228775   5.618   2.375   6.620 -0.3531  1.7442 -0.1332
 7477SOL     OW28776   2.458   4.315   5.910  0.4047 -0.2384  0.3097
 7477SOL    HW128777   2.400   4.369   5.856  0.6272 -1.5833 -1.3764
 7477SOL    HW228778   2.482   4.371   5.984 -0.7676  1.3237 -0.4428
 7478SOL     OW28779   1.962   1.673   4.458 -0.6347  0.5582  0.0462
 7478SOL    HW128780   1.911   1.592   4.459  1.3723 -0.7864  1.4753
 7478SOL    HW228781   2.019   1.664   4.381 -0.2392  0.4858  0.3450
 7479SOL     OW28782   5.435   7.894   4.088 -0.0999 -0.1697  0.1885
 7479SOL    HW128783   5.496   7.960   4.053 -0.5680 -0.2278 -0.7856
 7479SOL    HW228784   5.372   7.881   4.017 -0.2847 -1.3257  0.5529
 7480SOL     OW28785   1.345   1.023   0.745  0.1373 -0.0363 -0.2945
 7480SOL    HW128786   1.385   1.106   0.773 -2.8971  1.5149 -0.1331
 7480SOL    HW228787   1.329   0.976   0.827  2.1621 -1.0370 -0.4050
 7481SOL     OW28788   2.482   2.552   8.563 -0.2106 -0.1408  0.4219
 7481SOL    HW128789   2.481   2.629   8.507 -1.3870 -1.9950 -2.2853
 7481SOL    HW228790   2.400   2.507   8.544  0.0227 -1.6379  2.6019
 7482SOL     OW28791   0.186   6.440   4.453 -0.6475  0.5280  0.2416
 7482SOL    HW128792   0.216   6.389   4.528 -0.8827  0.5167  0.3281
 7482SOL    HW228793   0.121   6.500   4.489  0.4406  1.6866  0.3590
 7483SOL     OW28794   5.410   1.207   4.167  0.1928 -0.1786  0.3732
 7483SOL    HW128795   5.430   1.219   4.074  1.4527  0.7998  0.7275
 7483SOL    HW228796   5.415   1.296   4.203 -1.1122 -0.4391  1.2343
 7484SOL     OW28797   6.449   9.096   7.443  0.6657  0.3073  0.2370
 7484SOL    HW128798   6.448   9.097   7.539 -0.5866  1.2201  0.2452
 7484SOL    HW228799   6.491   9.178   7.419 -1.4326  1.3971  0.0587
 7485SOL     OW28800   3.519   6.102   3.477 -0.3057 -0.3347 -0.3230
 7485SOL    HW128801   3.533   6.095   3.572 -0.3253  1.0436 -0.2031
 7485SOL    HW228802   3.437   6.055   3.462 -2.2517  2.4465  0.9202
 7486SOL     OW28803   7.732   8.722   0.830 -0.0828  0.1837  0.2634
 7486SOL    HW128804   7.808   8.721   0.888 -0.7640 -2.0324  1.2393
 7486SOL    HW228805   7.684   8.801   0.855  0.5254  0.1755  1.5454
 7487SOL     OW28806   5.522   9.076   5.690 -0.4825 -0.0717  0.0942
 7487SOL    HW128807   5.444   9.114   5.650 -0.1880 -0.7250 -1.1880
 7487SOL    HW228808   5.540   9.130   5.767 -1.1406  1.1948 -0.6155
 7488SOL     OW28809   3.731   3.516   0.345  0.4288 -0.6257  0.0848
 7488SOL    HW128810   3.744   3.547   0.435 -1.1723  0.5553 -0.0586
 7488SOL    HW228811   3.664   3.574   0.309  0.5514 -1.5182 -1.6611
 7489SOL     OW28812   5.456   1.641   0.958 -0.2130  0.5773 -0.3278
 7489SOL    HW128813   5.436   1.640   1.052  0.6653 -1.8894 -0.0871
 7489SOL    HW228814   5.381   1.596   0.917  0.7076 -0.9749 -0.4048
 7490SOL     OW28815   6.739   6.934   7.354  0.3081  0.3947  0.3801
 7490SOL    HW128816   6.779   6.936   7.267 -0.9828 -1.8137 -0.3378
 7490SOL    HW228817   6.658   6.983   7.344  0.0415 -0.0666  0.2643
 7491SOL     OW28818   1.776   4.976   7.861 -0.0619 -0.7016  0.4906
 7491SOL    HW128819   1.825   4.958   7.941  0.1585 -1.4804  0.1855
 7491SOL    HW228820   1.685   4.953   7.883 -0.4003  1.1288  1.1853
 7492SOL     OW28821   8.028   0.708   3.240 -0.4461 -0.0782 -0.0617
 7492SOL    HW128822   8.007   0.742   3.327  1.4955  0.4187  0.2624
 7492SOL    HW228823   7.953   0.732   3.186 -2.3210 -1.5662  1.7176
 7493SOL     OW28824   1.247   7.620   8.832  0.0042 -0.3495 -0.4694
 7493SOL    HW128825   1.253   7.678   8.756 -0.0841 -1.6958 -1.5311
 7493SOL    HW228826   1.327   7.568   8.830  1.2548  1.2854  1.8545
 7494SOL     OW28827   7.667   7.525   2.911  0.0782 -0.1616  0.2560
 7494SOL    HW128828   7.741   7.487   2.864 -0.0433  1.0624 -0.9892
 7494SOL    HW228829   7.590   7.485   2.871  0.0296 -0.7956  0.9681
 7495SOL     OW28830   5.951   2.883   1.212  0.2436 -0.3793 -0.1529
 7495SOL    HW128831   5.964   2.846   1.299 -0.4152  2.9749  1.5554
 7495SOL    HW228832   6.039   2.901   1.179  0.5158 -2.1888 -0.5115
 7496SOL     OW28833   2.469   3.057   5.294 -0.6737 -0.2119  0.7334
 7496SOL    HW128834   2.439   2.967   5.278  0.2464 -0.8834  2.4551
 7496SOL    HW228835   2.484   3.060   5.389 -0.1910  1.6137  0.6321
 7497SOL     OW28836   7.036   8.114   7.600  0.6036  0.2363 -1.0336
 7497SOL    HW128837   7.008   8.118   7.509  0.9944 -0.0495 -1.1715
 7497SOL    HW228838   6.974   8.170   7.647  0.6549  0.7257 -1.5358
 7498SOL     OW28839   3.114   1.719   0.238 -0.2506  0.0208  0.2223
 7498SOL    HW128840   3.147   1.722   0.328  0.1664 -0.3862  0.0844
 7498SOL    HW228841   3.189   1.691   0.185 -0.6650 -0.3837 -0.1649
 7499SOL     OW28842   8.847   6.154   0.902  0.6956  0.0344  0.3219
 7499SOL    HW128843   8.854   6.236   0.950 -2.6428  0.3644  0.5006
 7499SOL    HW228844   8.904   6.094   0.950 -0.9317  0.8657  3.6753
 7500SOL     OW28845   7.028   1.868   0.617 -0.4390 -0.2498 -0.5876
 7500SOL    HW128846   6.993   1.932   0.555  1.6037  1.0506 -0.5038
 7500SOL    HW228847   6.951   1.824   0.652 -1.8438  1.2125 -1.6742
 7501SOL     OW28848   8.859   8.102   6.401 -0.4226 -0.2809  0.0355
 7501SOL    HW128849   8.874   8.188   6.362 -3.3491 -0.9899 -3.0440
 7501SOL    HW228850   8.796   8.119   6.471 -0.1039  0.1822  0.2210
 7502SOL     OW28851   4.095   2.502   6.272 -0.9111 -0.0925 -0.2654
 7502SOL    HW128852   4.087   2.414   6.310  0.2730 -0.3603 -0.5905
 7502SOL    HW228853   4.138   2.553   6.341  1.0734 -0.5335 -1.1028
 7503SOL     OW28854   0.737   6.938   1.999  0.1801 -0.4648 -0.6128
 7503SOL    HW128855   0.734   6.954   1.905  0.3969 -0.5990 -0.6425
 7503SOL    HW228856   0.830   6.941   2.021  0.0380  1.2099 -0.1247
 7504SOL     OW28857   2.430   4.517   7.065  0.2281  0.0998  0.2156
 7504SOL    HW128858   2.424   4.503   6.970  1.2568  0.6937  0.0491
 7504SOL    HW228859   2.522   4.503   7.086 -0.6080 -4.3606  1.8860
 7505SOL     OW28860   3.331   0.656   0.051 -0.1050 -0.3522 -0.1136
 7505SOL    HW128861   3.263   0.623  -0.008 -0.2474  1.2856 -0.9041
 7505SOL    HW228862   3.309   0.748   0.065  2.6226  0.6199 -1.4577
 7506SOL     OW28863   6.872   9.005   6.418  0.3399 -0.0379 -0.3798
 7506SOL    HW128864   6.785   8.965   6.420  0.2811  0.0434 -1.1922
 7506SOL    HW228865   6.877   9.050   6.334  1.6561 -1.1318 -0.9345
 7507SOL     OW28866   4.631   1.879   5.677 -0.1389 -0.5564  0.1595
 7507SOL    HW128867   4.649   1.970   5.655  2.2364 -0.9884  0.0231
 7507SOL    HW228868   4.565   1.852   5.613 -0.3100  0.8346 -0.2900
 7508SOL     OW28869   0.921   7.908   8.494  0.2276 -0.7782 -0.2205
 7508SOL    HW128870   0.846   7.914   8.435  0.7028  2.1539 -0.6568
 7508SOL    HW228871   0.989   7.865   8.441  0.9382  2.5503 -2.3443
 7509SOL     OW28872   5.672   1.547   3.015 -0.1632  0.2363 -0.1657
 7509SOL    HW128873   5.735   1.513   2.951  0.8421  3.0229 -0.8327
 7509SOL    HW228874   5.659   1.475   3.077  0.2711 -1.9347 -2.4442
 7510SOL     OW28875   9.084   6.840   4.406  0.1749  0.2279 -0.1344
 7510SOL    HW128876   9.167   6.798   4.430 -1.6509 -2.2877  2.4850
 7510SOL    HW228877   9.074   6.819   4.313  2.9210  1.6318 -0.8729
 7511SOL     OW28878   4.610   7.356   6.490 -0.4657 -0.0376  0.0852
 7511SOL    HW128879   4.705   7.356   6.478 -0.7328 -0.6213 -2.8603
 7511SOL    HW228880   4.585   7.449   6.483 -0.1571  0.0870  0.5958
 7512SOL     OW28881   3.777   8.878   1.718  0.0564 -0.8237  0.5785
 7512SOL    HW128882   3.731   8.962   1.714  0.5375 -0.5871 -0.0893
 7512SOL    HW228883   3.787   8.852   1.626 -0.4047 -1.7872  0.7950
 7513SOL     OW28884   2.297   8.127   2.430  0.1195  0.1895  0.0924
 7513SOL    HW128885   2.313   8.164   2.516 -0.6456  0.6665  0.0387
 7513SOL    HW228886   2.344   8.185   2.369 -1.8094  1.6844 -0.0821
 7514SOL     OW28887   4.700   7.839   2.332 -0.9271  0.0671 -0.9361
 7514SOL    HW128888   4.613   7.877   2.320  0.4722  3.3722 -1.8159
 7514SOL    HW228889   4.753   7.877   2.262  1.9627  0.8471  1.4317
 7515SOL     OW28890   8.624   0.975   2.147  0.0443 -0.2158  0.2176
 7515SOL    HW128891   8.555   0.975   2.214 -1.2242 -1.1155 -1.0540
 7515SOL    HW228892   8.698   1.020   2.190 -0.5702 -1.1129  2.3628
 7516SOL     OW28893   6.287   5.829   0.041 -0.0467  0.0599 -0.3588
 7516SOL    HW128894   6.291   5.921   0.068  2.1992  0.0331 -0.3563
 7516SOL    HW228895   6.197   5.802   0.060 -0.5725  2.0601  0.2655
 7517SOL     OW28896   4.830   7.689   6.449  0.3889  0.5018 -0.2526
 7517SOL    HW128897   4.825   7.782   6.471 -2.0560  0.0106  1.7358
 7517SOL    HW228898   4.756   7.674   6.391  2.1383  0.1734 -2.5112
 7518SOL     OW28899   1.392   0.456   0.148 -0.0775 -0.0694 -0.2151
 7518SOL    HW128900   1.406   0.367   0.178 -0.6101 -0.2018 -0.3499
 7518SOL    HW228901   1.396   0.451   0.052  1.7152  0.3675 -0.1850
 7519SOL     OW28902   2.977   0.163   1.802  0.2107  0.1470 -0.3903
 7519SOL    HW128903   2.906   0.143   1.863  0.0079 -1.2016 -1.0195
 7519SOL    HW228904   3.041   0.093   1.817 -0.8182 -1.5457 -3.1817
 7520SOL     OW28905   0.770   4.407   1.859  0.4695  0.1506 -0.5189
 7520SOL    HW128906   0.800   4.432   1.772  1.3515 -0.4576 -0.4036
 7520SOL    HW228907   0.717   4.481   1.888  3.3202  2.1326 -0.0055
 7521SOL     OW28908   3.076   1.802   8.075 -0.2790 -0.0184  0.3578
 7521SOL    HW128909   3.037   1.727   8.031  0.3586 -0.4779  0.5520
 7521SOL    HW228910   3.006   1.839   8.129 -0.7696 -0.0845 -0.2389
 7522SOL     OW28911   7.071   3.688   1.735 -0.2877 -0.4662 -0.1488
 7522SOL    HW128912   7.012   3.747   1.690 -1.2267  0.2391  1.8904
 7522SOL    HW228913   7.153   3.738   1.743 -0.7768  0.2168  0.7314
 7523SOL     OW28914   8.317   7.550   6.698 -0.8164 -0.0093 -0.9919
 7523SOL    HW128915   8.392   7.598   6.734 -0.7311  1.6855 -3.2282
 7523SOL    HW228916   8.326   7.461   6.733  0.5256  0.9149  1.1751
 7524SOL     OW28917   1.349   0.368   1.193  0.2996 -0.3437  0.0017
 7524SOL    HW128918   1.299   0.340   1.116  0.8662 -0.7324 -0.2350
 7524SOL    HW228919   1.288   0.358   1.266  0.0434 -0.8468 -0.2739
 7525SOL     OW28920   3.042   8.076   0.671 -0.0573 -0.1595  0.5084
 7525SOL    HW128921   3.101   8.010   0.707 -0.0480 -0.4361 -0.0049
 7525SOL    HW228922   3.036   8.142   0.740 -0.3775 -0.8835  1.2001
 7526SOL     OW28923   7.151   4.362   2.805  0.4578  0.0692 -0.8634
 7526SOL    HW128924   7.112   4.280   2.835  1.5634  0.0226  0.5709
 7526SOL    HW228925   7.079   4.409   2.762 -0.3879 -1.2842 -0.9779
 7527SOL     OW28926   6.744   4.703   3.304  0.4748 -0.9058 -0.0547
 7527SOL    HW128927   6.686   4.647   3.356 -0.3366 -0.9671 -0.9993
 7527SOL    HW228928   6.721   4.684   3.213 -1.2210  2.2957 -0.4432
 7528SOL     OW28929   8.757   4.821   2.332 -0.5471 -0.2488 -0.7739
 7528SOL    HW128930   8.732   4.741   2.287  0.6998 -1.6759  0.9265
 7528SOL    HW228931   8.847   4.806   2.360 -0.9354  0.9273  1.3264
 7529SOL     OW28932   6.041   0.927   2.199 -0.2630  0.7706 -0.4734
 7529SOL    HW128933   6.069   0.835   2.206 -2.0706  0.2818  1.0376
 7529SOL    HW228934   6.077   0.956   2.115  1.8539 -0.7576 -0.1719
 7530SOL     OW28935   4.257   0.085   0.245  0.3605 -0.0228  0.7080
 7530SOL    HW128936   4.219   0.021   0.186  2.8301 -0.2819 -0.7608
 7530SOL    HW228937   4.190   0.100   0.312 -1.1511 -2.4160 -0.1524
 7531SOL     OW28938   0.253   7.288   2.507 -0.2281  0.0344 -0.5013
 7531SOL    HW128939   0.290   7.240   2.433  0.4221  1.3580 -1.0600
 7531SOL    HW228940   0.328   7.309   2.563 -0.2466  1.7639 -1.0771
 7532SOL     OW28941   4.863   5.851   5.233  0.4305 -0.1196 -0.6515
 7532SOL    HW128942   4.886   5.944   5.221  0.7040 -0.1021 -0.0005
 7532SOL    HW228943   4.778   5.853   5.278  0.4688 -0.1888 -0.5774
 7533SOL     OW28944   8.432   4.644   1.599 -0.1104  0.0069  0.0635
 7533SOL    HW128945   8.372   4.632   1.673 -0.3827  0.7766 -0.0279
 7533SOL    HW228946   8.399   4.586   1.531  0.9994 -1.8515  1.0281
 7534SOL     OW28947   1.069   1.548   9.102  0.4915 -0.4389 -0.4994
 7534SOL    HW128948   0.978   1.519   9.096  1.3594 -3.3987 -0.8190
 7534SOL    HW228949   1.077   1.616   9.035 -1.1435 -1.1790 -1.5126
 7535SOL     OW28950   0.103   4.750   2.414  0.1773 -0.4842  0.0769
 7535SOL    HW128951   0.011   4.757   2.389 -0.0501 -1.5763  0.5315
 7535SOL    HW228952   0.104   4.759   2.509  0.6660  0.5165 -0.0117
 7536SOL     OW28953   2.190   0.858   4.845 -0.2877  0.7145  0.2783
 7536SOL    HW128954   2.194   0.903   4.761  0.8955  1.2830  0.6158
 7536SOL    HW228955   2.234   0.775   4.831 -0.1423  0.7843  0.3199
 7537SOL     OW28956   0.612   5.759   7.779 -0.5111  0.3062 -0.1840
 7537SOL    HW128957   0.574   5.737   7.694 -1.8260 -0.6084  0.6004
 7537SOL    HW228958   0.542   5.803   7.826  0.3044  1.0976  0.3374
 7538SOL     OW28959   6.905   3.946   0.749 -0.2973  0.2588 -0.4185
 7538SOL    HW128960   6.809   3.940   0.749 -0.2665 -0.3707  0.2422
 7538SOL    HW228961   6.930   3.933   0.841  0.4568 -0.1208 -0.6726
 7539SOL     OW28962   1.814   2.450   2.094  0.2743 -0.4946 -0.6401
 7539SOL    HW128963   1.779   2.508   2.162 -0.4680 -1.7970  0.1395
 7539SOL    HW228964   1.906   2.439   2.118  0.1106 -0.6372 -0.0359
 7540SOL     OW28965   6.337   8.835   5.034 -0.1405  0.5093 -0.1519
 7540SOL    HW128966   6.299   8.810   5.118 -1.5336 -0.4453 -1.0142
 7540SOL    HW228967   6.269   8.887   4.991 -0.3841 -0.9059 -1.5843
 7541SOL     OW28968   4.959   3.748   1.688  0.3027  0.0675 -0.2822
 7541SOL    HW128969   5.020   3.709   1.625  2.0155  0.6738  0.9198
 7541SOL    HW228970   5.004   3.825   1.721 -1.6878  1.2952 -0.2527
 7542SOL     OW28971   5.413   3.053   0.279  0.0212 -0.0036  0.4668
 7542SOL    HW128972   5.454   3.139   0.282  2.3219 -0.9781 -0.8040
 7542SOL    HW228973   5.476   2.994   0.319 -0.8009 -1.3497 -0.1221
 7543SOL     OW28974   7.834   0.594   7.259  0.0011  0.0312  0.7375
 7543SOL    HW128975   7.854   0.680   7.222 -0.2808  0.6363  1.9401
 7543SOL    HW228976   7.837   0.608   7.354  1.7564 -1.7029  1.0072
 7544SOL     OW28977   6.960   4.085   8.761  0.7384 -0.2498 -0.4722
 7544SOL    HW128978   7.042   4.084   8.811  0.4884 -0.3759 -0.0607
 7544SOL    HW228979   6.981   4.039   8.680  1.7055  1.6724 -1.3808
 7545SOL     OW28980   1.279   4.953   0.394 -0.1622 -0.4916 -0.0558
 7545SOL    HW128981   1.262   4.870   0.439  1.4834 -0.9038 -0.1333
 7545SOL    HW228982   1.319   5.009   0.461 -1.4978  0.3691  0.0706
 7546SOL     OW28983   7.856   3.560   3.902  0.5736  0.0060 -0.0356
 7546SOL    HW128984   7.848   3.654   3.886  1.1742 -0.1599 -1.4286
 7546SOL    HW228985   7.949   3.541   3.891  0.5346 -0.6740  0.7047
 7547SOL     OW28986   6.175   2.193   1.331  0.2309  0.8013  0.5911
 7547SOL    HW128987   6.243   2.132   1.359 -0.0852 -0.2423 -0.7732
 7547SOL    HW228988   6.120   2.141   1.272  0.5146  2.6436 -1.4220
 7548SOL     OW28989   6.824   1.305   2.332 -0.0754 -0.3051  0.0862
 7548SOL    HW128990   6.812   1.307   2.427  1.1441 -0.8061  0.2648
 7548SOL    HW228991   6.883   1.231   2.317 -1.1013 -0.9062 -1.1707
 7549SOL     OW28992   8.052   2.853   3.329  0.2219 -0.0944 -0.1448
 7549SOL    HW128993   8.094   2.937   3.311 -0.4703  0.0074 -1.4426
 7549SOL    HW228994   8.124   2.792   3.340  0.8280  0.9963  3.0234
 7550SOL     OW28995   8.243   8.633   1.219 -0.2509 -0.1833  0.6776
 7550SOL    HW128996   8.183   8.707   1.231  1.2143  0.9584  1.2655
 7550SOL    HW228997   8.267   8.608   1.308 -1.7850 -2.3462  0.5679
 7551SOL     OW28998   8.960   5.555   8.461  0.3086  0.1917 -0.1724
 7551SOL    HW128999   8.939   5.645   8.488  2.3161  0.5004  0.5748
 7551SOL    HW229000   9.039   5.565   8.408  1.1607 -1.1970  0.7683
 7552SOL     OW29001   7.654   4.469   7.717 -0.6909 -0.4396 -0.1409
 7552SOL    HW129002   7.581   4.466   7.655 -0.5881 -0.0903 -0.2814
 7552SOL    HW229003   7.708   4.393   7.694 -0.7058 -0.3684 -0.4146
 7553SOL     OW29004   9.133   8.790   0.896 -0.0048  0.1319 -0.4180
 7553SOL    HW129005   9.133   8.740   0.814 -1.6165 -0.5577 -0.0476
 7553SOL    HW229006   9.183   8.736   0.957 -0.0669 -0.0754 -0.5492
 7554SOL     OW29007   8.743   8.238   8.601  0.3098  0.2747 -0.2365
 7554SOL    HW129008   8.750   8.325   8.562  0.4326  1.2532  1.8348
 7554SOL    HW229009   8.720   8.255   8.692  0.2907 -1.8839  0.1973
 7555SOL     OW29010   3.837   2.995   4.418 -0.3627  0.3980 -0.4451
 7555SOL    HW129011   3.755   2.947   4.419 -0.7986  1.0968 -0.9402
 7555SOL    HW229012   3.860   3.000   4.325  0.6884 -0.5152 -0.2522
 7556SOL     OW29013   3.157   8.177   1.016 -0.0141  0.0730  0.7498
 7556SOL    HW129014   3.092   8.224   1.068 -1.3874 -1.7046  0.7158
 7556SOL    HW229015   3.232   8.238   1.011 -2.0400  2.6907 -0.2050
 7557SOL     OW29016   0.259   7.430   0.698 -0.2852  0.0299 -0.1033
 7557SOL    HW129017   0.337   7.378   0.720  0.1623 -0.1482 -1.9012
 7557SOL    HW229018   0.190   7.393   0.752  0.7829 -0.0789  1.2466
 7558SOL     OW29019   4.170   8.297   0.070  0.1206 -0.0545 -0.6494
 7558SOL    HW129020   4.243   8.254   0.024  0.4776 -1.0003  0.7326
 7558SOL    HW229021   4.148   8.237   0.141 -1.1551  0.8395 -0.2605
 7559SOL     OW29022   4.638   0.656   0.166 -0.5754  0.3789 -0.5661
 7559SOL    HW129023   4.584   0.585   0.201  2.4845 -2.0187 -0.2746
 7559SOL    HW229024   4.718   0.613   0.137  0.4221  3.4253 -2.9024
 7560SOL     OW29025   2.361   7.698   1.958 -0.1398 -0.0416  0.2730
 7560SOL    HW129026   2.354   7.602   1.965 -0.7110 -0.0032  0.2480
 7560SOL    HW229027   2.353   7.716   1.865  1.1761 -0.0557  0.1431
 7561SOL     OW29028   1.197   1.006   7.992  0.7893 -0.2053 -0.1495
 7561SOL    HW129029   1.259   0.934   8.006  1.5500  0.8465  2.5448
 7561SOL    HW229030   1.227   1.075   8.051 -3.0981  0.2842  1.5324
 7562SOL     OW29031   1.082   4.313   4.612 -1.1480 -0.4016  0.3612
 7562SOL    HW129032   1.144   4.280   4.677  0.0400 -1.6384 -1.2858
 7562SOL    HW229033   1.086   4.408   4.620 -1.5685 -0.5206  2.5155
 7563SOL     OW29034   5.333   9.118   0.734 -0.4425 -0.3029  0.1589
 7563SOL    HW129035   5.298   9.207   0.738 -0.3927 -0.3337  1.4391
 7563SOL    HW229036   5.418   9.128   0.690  0.0752  0.4533  1.2878
 7564SOL     OW29037   5.762   4.648   7.526 -0.0882  0.2567  0.1766
 7564SOL    HW129038   5.693   4.709   7.499 -1.1712 -1.0332 -0.0618
 7564SOL    HW229039   5.821   4.702   7.578  0.7949  2.2934 -2.6775
 7565SOL     OW29040   3.958   3.916   7.915  0.3319 -0.3615  0.0361
 7565SOL    HW129041   4.043   3.875   7.898  1.1264  1.3225 -0.2689
 7565SOL    HW229042   3.976   3.979   7.985 -0.7741 -0.3309  0.3010
 7566SOL     OW29043   1.665   4.349   1.021 -0.0797  0.1896  0.6827
 7566SOL    HW129044   1.627   4.419   1.074 -1.3135 -0.9941  1.4163
 7566SOL    HW229045   1.593   4.288   1.005  0.7443 -0.4656 -0.7176
 7567SOL     OW29046   0.671   4.384   8.313 -0.5040 -0.6842  0.3042
 7567SOL    HW129047   0.648   4.346   8.398  0.8118 -1.6604  0.2568
 7567SOL    HW229048   0.672   4.310   8.253  0.0580 -0.2413 -0.2393
 7568SOL     OW29049   2.573   1.128   1.316  0.3367  0.0711 -0.3315
 7568SOL    HW129050   2.519   1.049   1.327  1.6246 -0.8708 -0.4469
 7568SOL    HW229051   2.616   1.140   1.400  1.6006 -0.5080 -0.8600
 7569SOL     OW29052   7.267   0.518   5.395  0.1084 -0.1595  0.3768
 7569SOL    HW129053   7.327   0.590   5.412 -0.8436  1.3057 -2.0185
 7569SOL    HW229054   7.207   0.519   5.470  2.1887 -0.8551  2.1721
 7570SOL     OW29055   1.530   7.939   6.932 -0.3690  0.7373 -0.3484
 7570SOL    HW129056   1.612   7.890   6.945 -1.2706 -0.4453  1.2836
 7570SOL    HW229057   1.486   7.934   7.017 -2.6905  0.3195 -1.5158
 7571SOL     OW29058   2.603   2.906   5.905  0.4508 -0.1745  0.1670
 7571SOL    HW129059   2.563   2.884   5.821  0.0948 -0.4017  0.3948
 7571SOL    HW229060   2.530   2.910   5.966  0.6694  0.3066  0.4054
 7572SOL     OW29061   7.912   1.678   1.532 -0.4152 -0.3186 -0.4908
 7572SOL    HW129062   7.992   1.669   1.480 -0.1373 -0.7849 -0.0081
 7572SOL    HW229063   7.943   1.670   1.623 -0.8893  0.4569 -0.2573
 7573SOL     OW29064   7.827   2.190   5.975 -0.3101  0.3068 -0.4890
 7573SOL    HW129065   7.898   2.126   5.974 -1.3025 -0.8579 -2.5750
 7573SOL    HW229066   7.747   2.138   5.988 -0.9100  1.4906  0.8905
 7574SOL     OW29067   2.056   9.059   8.259  0.5605 -0.2074 -0.6210
 7574SOL    HW129068   2.009   9.099   8.331  1.6553  1.4576 -0.7950
 7574SOL    HW229069   2.123   9.005   8.300  0.2827 -0.3999 -0.4122
 7575SOL     OW29070   8.630   8.169   3.359 -0.4414 -0.5800 -0.0729
 7575SOL    HW129071   8.605   8.084   3.323 -0.6179 -0.5689  0.0284
 7575SOL    HW229072   8.664   8.217   3.283  1.0907 -1.2703  0.1298
 7576SOL     OW29073   4.695   1.058   7.751 -0.3506 -0.0958 -0.4550
 7576SOL    HW129074   4.705   1.076   7.845  1.2110 -1.4169 -0.3304
 7576SOL    HW229075   4.716   0.965   7.741 -1.4184 -0.2152 -2.0047
 7577SOL     OW29076   8.240   8.547   8.660  0.4560  0.0702 -0.6421
 7577SOL    HW129077   8.263   8.486   8.590  0.0519 -3.3144  1.9342
 7577SOL    HW229078   8.308   8.614   8.657  2.1809 -1.6361 -2.3567
 7578SOL     OW29079   6.750   5.653   8.253  0.6126  0.7451 -0.0963
 7578SOL    HW129080   6.682   5.587   8.265  0.6663  0.6150 -0.4917
 7578SOL    HW229081   6.726   5.724   8.312  1.0574 -0.0177  1.0383
 7579SOL     OW29082   4.248   1.937   6.563  0.0919 -0.1300  0.3613
 7579SOL    HW129083   4.243   1.872   6.633 -2.3035 -2.7514 -1.9950
 7579SOL    HW229084   4.246   1.886   6.482  0.7568  2.8156 -1.6887
 7580SOL     OW29085   3.297   7.786   6.282 -0.1752  0.0414 -0.0856
 7580SOL    HW129086   3.249   7.705   6.265 -0.0343 -0.1134  0.2390
 7580SOL    HW229087   3.385   7.757   6.305  0.2850  0.3597 -1.4004
 7581SOL     OW29088   0.663   2.946   2.489 -0.2331 -0.3609 -0.5070
 7581SOL    HW129089   0.638   3.037   2.475 -1.0802 -0.3280  0.9585
 7581SOL    HW229090   0.757   2.944   2.476 -0.2774  0.6104 -1.0535
 7582SOL     OW29091   1.319   2.018   2.761  0.1696 -0.0270  0.0390
 7582SOL    HW129092   1.241   1.990   2.713  0.3592 -0.6752  0.1034
 7582SOL    HW229093   1.388   2.023   2.694 -0.4733  3.0287 -0.5197
 7583SOL     OW29094   0.140   2.606   0.222  0.2718 -0.5924 -0.0939
 7583SOL    HW129095   0.184   2.591   0.305  2.5096 -0.9135 -1.2707
 7583SOL    HW229096   0.048   2.619   0.246  0.8384 -0.6580  2.4032
 7584SOL     OW29097   4.277   8.383   1.960  0.2472 -0.0116 -0.2358
 7584SOL    HW129098   4.200   8.424   1.999 -1.5873 -1.6446 -1.9021
 7584SOL    HW229099   4.275   8.410   1.868  1.8050  0.0693 -0.2672
 7585SOL     OW29100   3.308   2.003   2.840  0.0260  0.6021  0.2067
 7585SOL    HW129101   3.268   2.087   2.862 -2.3855 -0.6159  0.9178
 7585SOL    HW229102   3.238   1.939   2.856  1.3437 -1.4066 -1.5547
 7586SOL     OW29103   3.072   5.911   8.157  0.0416  0.2801  0.3070
 7586SOL    HW129104   3.027   5.862   8.088 -1.1286  2.7163 -0.7989
 7586SOL    HW229105   3.127   5.973   8.109  0.6203  0.8099  1.6180
 7587SOL     OW29106   3.999   7.085   7.006 -0.5122 -0.0693 -0.7125
 7587SOL    HW129107   3.919   7.137   7.001 -0.8836 -0.7296 -2.1470
 7587SOL    HW229108   4.070   7.149   6.993 -0.6406  0.7737  2.0648
 7588SOL     OW29109   3.910   8.920   8.870 -0.3974  0.0610 -0.3990
 7588SOL    HW129110   3.817   8.924   8.851 -0.5316  1.7207  0.4652
 7588SOL    HW229111   3.915   8.905   8.964  0.2159 -0.1289 -0.4546
 7589SOL     OW29112   6.291   3.757   4.832 -0.1476  0.1161 -0.2668
 7589SOL    HW129113   6.268   3.692   4.765  1.1704  0.8092 -1.4370
 7589SOL    HW229114   6.249   3.724   4.911 -2.8369 -0.0800 -1.6424
 7590SOL     OW29115   4.195   8.514   3.521  0.0157 -0.0274 -0.2233
 7590SOL    HW129116   4.131   8.474   3.462 -1.5744 -0.2870  1.5859
 7590SOL    HW229117   4.142   8.559   3.587  1.7289  0.8227  0.6428
 7591SOL     OW29118   6.135   1.481   2.752  0.1329  0.3644  0.1956
 7591SOL    HW129119   6.157   1.561   2.702 -1.1115  0.7276  0.2116
 7591SOL    HW229120   6.120   1.415   2.684 -0.3513  0.5447  0.1231
 7592SOL     OW29121   4.970   1.972   3.474 -0.3164 -0.1211 -0.0963
 7592SOL    HW129122   4.982   2.066   3.488 -0.2305 -0.1718  0.1747
 7592SOL    HW229123   5.035   1.950   3.408 -0.6729  0.1054 -0.5272
 7593SOL     OW29124   6.295   9.137   0.098 -0.0513  0.5624  0.3356
 7593SOL    HW129125   6.377   9.157   0.144  1.1227 -0.9078 -1.0272
 7593SOL    HW229126   6.266   9.222   0.063  0.6317  1.1760  1.2287
 7594SOL     OW29127   3.704   1.679   4.414 -0.0351 -0.6641 -0.1101
 7594SOL    HW129128   3.628   1.628   4.443 -2.3040  1.8953 -1.1285
 7594SOL    HW229129   3.760   1.686   4.491 -1.3086 -1.7785  0.9666
 7595SOL     OW29130   6.588   6.095   7.273  1.1853  0.0257  0.0469
 7595SOL    HW129131   6.516   6.133   7.323  0.3130 -1.8404  0.2823
 7595SOL    HW229132   6.667   6.137   7.308  0.5074 -0.3842  2.1906
 7596SOL     OW29133   4.800   6.406   3.861  0.1723 -0.6892 -0.3444
 7596SOL    HW129134   4.876   6.419   3.806 -0.4791  1.6535 -0.7876
 7596SOL    HW229135   4.737   6.360   3.805  1.0934 -2.3434 -0.0740
 7597SOL     OW29136   4.684   0.372   0.280 -0.5994  0.0643  0.2176
 7597SOL    HW129137   4.705   0.422   0.358  0.2285  1.3603 -0.8160
 7597SOL    HW229138   4.767   0.360   0.234 -1.1198 -0.3829 -0.6513
 7598SOL     OW29139   1.406   7.626   3.413 -0.0706  0.0998 -0.0356
 7598SOL    HW129140   1.468   7.557   3.388  0.0357  0.5180 -0.9331
 7598SOL    HW229141   1.371   7.596   3.497  3.1193  0.9732  1.7647
 7599SOL     OW29142   5.130   4.209   7.339 -0.5098  0.0602 -0.3006
 7599SOL    HW129143   5.060   4.195   7.402  0.1089 -0.9922  0.1784
 7599SOL    HW229144   5.164   4.296   7.359 -0.7223 -0.0161  0.4021
 7600SOL     OW29145   3.905   3.568   4.654 -0.0009 -0.1245  0.4886
 7600SOL    HW129146   3.865   3.584   4.569  1.0858  0.8267  0.1208
 7600SOL    HW229147   3.958   3.489   4.640  0.1730  0.0272  0.2791
 7601SOL     OW29148   4.826   3.201   4.429 -0.2985 -0.8480 -0.0511
 7601SOL    HW129149   4.916   3.193   4.395 -0.3485 -1.6133 -0.0214
 7601SOL    HW229150   4.773   3.221   4.352 -0.4156 -2.5997 -0.4548
 7602SOL     OW29151   5.032   2.823   5.411  0.0271 -0.1689  0.4451
 7602SOL    HW129152   4.948   2.838   5.454 -0.1454 -0.6898  0.3032
 7602SOL    HW229153   5.061   2.910   5.384 -1.9248 -0.2049 -2.2213
 7603SOL     OW29154   3.760   1.151   6.407  0.1788  1.0669 -0.2447
 7603SOL    HW129155   3.832   1.090   6.393 -0.3693  0.8514 -2.5332
 7603SOL    HW229156   3.752   1.157   6.502  0.6529 -1.9418  0.0841
 7604SOL     OW29157   2.419   2.264   2.859 -0.0230  0.7832  0.5021
 7604SOL    HW129158   2.338   2.260   2.808  0.3831  1.0996 -0.1770
 7604SOL    HW229159   2.477   2.201   2.816 -0.1466  0.0030  1.4376
 7605SOL     OW29160   5.060   3.472   7.554 -0.4960 -0.3473  0.1291
 7605SOL    HW129161   5.024   3.532   7.489 -1.3876 -1.6982 -0.6745
 7605SOL    HW229162   5.151   3.460   7.527 -0.8642 -0.9130 -0.9001
 7606SOL     OW29163   2.475   6.725   4.739  0.0706  0.5539 -0.4681
 7606SOL    HW129164   2.566   6.728   4.710  0.2057  2.9752  0.0337
 7606SOL    HW229165   2.425   6.700   4.662  0.9562  1.3001 -1.2967
 7607SOL     OW29166   9.234   4.928   7.993 -0.2910  0.3687 -0.1203
 7607SOL    HW129167   9.315   4.888   7.961 -1.1755 -0.8175 -0.9859
 7607SOL    HW229168   9.253   5.022   7.997  1.7041 -0.0190  1.4736
 7608SOL     OW29169   9.140   0.617   2.907 -0.3320 -0.2321 -0.0908
 7608SOL    HW129170   9.075   0.593   2.973 -0.2038 -0.6166 -0.0980
 7608SOL    HW229171   9.096   0.682   2.853 -1.0553 -1.1441 -0.6490
 7609SOL     OW29172   4.652   7.591   8.701 -0.5234 -0.4880  0.2512
 7609SOL    HW129173   4.578   7.556   8.751 -0.3145 -0.4027  0.6168
 7609SOL    HW229174   4.698   7.513   8.670 -0.0641 -0.5510  1.0601
 7610SOL     OW29175   4.631   1.783   7.664 -0.8193  0.3034 -0.8982
 7610SOL    HW129176   4.634   1.849   7.733  3.1406 -0.3435 -0.2041
 7610SOL    HW229177   4.682   1.820   7.593 -2.1128 -0.3777 -2.2408
 7611SOL     OW29178   2.396   7.548   4.865  0.1400  0.0855 -0.3707
 7611SOL    HW129179   2.325   7.485   4.852  0.4846 -0.2768 -0.5189
 7611SOL    HW229180   2.438   7.521   4.947 -0.2665  0.6646  0.0351
 7612SOL     OW29181   3.736   1.832   6.559  0.3724  0.3022  0.2617
 7612SOL    HW129182   3.683   1.799   6.632 -0.7573 -0.1465 -0.7208
 7612SOL    HW229183   3.826   1.810   6.582  0.3792  2.4399  2.6997
 7613SOL     OW29184   5.233   4.456   7.415  0.1733 -0.2262 -0.1979
 7613SOL    HW129185   5.160   4.509   7.385  0.1360  0.3253  0.8321
 7613SOL    HW229186   5.258   4.494   7.499  2.8741  0.8341 -1.3438
 7614SOL     OW29187   4.491   5.301   7.266 -0.3709 -0.1021 -0.4605
 7614SOL    HW129188   4.441   5.346   7.198 -0.3147  3.1649  1.4519
 7614SOL    HW229189   4.440   5.315   7.346  1.7481  0.2038  0.9249
 7615SOL     OW29190   1.549   0.374   4.726 -0.2136 -0.2547 -0.0141
 7615SOL    HW129191   1.552   0.397   4.819  3.8335  2.0135 -0.4374
 7615SOL    HW229192   1.508   0.449   4.685 -1.0633 -0.8006 -0.1774
 7616SOL     OW29193   8.466   6.650   8.178  0.2114  0.6717  0.1501
 7616SOL    HW129194   8.454   6.652   8.273 -1.8399 -0.8588 -0.0047
 7616SOL    HW229195   8.485   6.558   8.158 -0.1246  0.8362 -1.0014
 7617SOL     OW29196   4.923   8.285   5.219 -0.3479 -0.0156 -0.3142
 7617SOL    HW129197   4.906   8.216   5.155 -0.8222 -1.3170  1.1467
 7617SOL    HW229198   4.960   8.239   5.295  0.6204  1.5274  0.1913
 7618SOL     OW29199   3.788   5.266   3.184  0.3736 -0.1862  0.6056
 7618SOL    HW129200   3.831   5.190   3.223 -2.2442 -1.4728  1.1596
 7618SOL    HW229201   3.765   5.238   3.095  1.9847  1.0446 -0.2573
 7619SOL     OW29202   5.594   4.216   1.704 -0.2435  0.4798  0.4975
 7619SOL    HW129203   5.527   4.150   1.717  0.4344 -0.0778  1.2412
 7619SOL    HW229204   5.549   4.299   1.714 -1.4518  0.2298 -1.9596
 7620SOL     OW29205   5.453   6.966   6.670 -0.2800 -0.7505  0.3018
 7620SOL    HW129206   5.449   6.905   6.744 -0.7230 -0.2039  0.7369
 7620SOL    HW229207   5.397   6.926   6.603 -1.4635 -0.2959  0.9934
 7621SOL     OW29208   2.220   2.874   7.924  0.2533  0.1403 -0.0067
 7621SOL    HW129209   2.256   2.908   7.842 -0.0795 -1.3074 -0.7861
 7621SOL    HW229210   2.183   2.951   7.968  1.3492  1.1025 -0.7229
 7622SOL     OW29211   1.211   0.367   8.020  0.2431  0.8133 -0.2446
 7622SOL    HW129212   1.120   0.355   8.050 -0.0571  2.7001 -0.2761
 7622SOL    HW229213   1.262   0.377   8.100  0.2291  0.8577 -0.2404
 7623SOL     OW29214   2.707   7.950   8.680  0.1504  0.7163  0.2081
 7623SOL    HW129215   2.727   7.904   8.762 -2.1780 -0.4649  0.2097
 7623SOL    HW229216   2.736   7.891   8.611 -0.5922  0.3401  0.2086
 7624SOL     OW29217   3.774   7.674   1.165 -0.0854 -0.1887  0.5007
 7624SOL    HW129218   3.827   7.731   1.221 -1.8834  0.7641  1.3080
 7624SOL    HW229219   3.688   7.717   1.161 -0.5075 -1.0877 -1.6753
 7625SOL     OW29220   0.896   0.551   8.407 -0.7556  0.4546 -0.1334
 7625SOL    HW129221   0.811   0.510   8.391 -0.8569 -0.3420  2.0818
 7625SOL    HW229222   0.879   0.645   8.403 -1.9581  0.3178  1.1652
 7626SOL     OW29223   9.217   3.711   1.497 -0.0252  0.0836 -0.5617
 7626SOL    HW129224   9.244   3.621   1.516  0.3746  0.0964 -1.0464
 7626SOL    HW229225   9.299   3.759   1.486 -0.2281  0.6435  0.2709
 7627SOL     OW29226   6.436   6.265   6.511 -0.1710  0.5624 -0.2146
 7627SOL    HW129227   6.357   6.230   6.553 -0.7885  2.3015  0.1625
 7627SOL    HW229228   6.473   6.325   6.576 -0.6305  2.6102 -1.7409
 7628SOL     OW29229   6.134   5.125   4.349  0.2940 -0.3595  0.2561
 7628SOL    HW129230   6.128   5.221   4.353 -1.3838 -0.3291 -1.3941
 7628SOL    HW229231   6.224   5.108   4.323  0.0794  0.9254 -1.5299
 7629SOL     OW29232   8.751   1.192   3.815 -0.2951  0.1078 -0.1801
 7629SOL    HW129233   8.729   1.103   3.843  1.4344  0.0549  1.2389
 7629SOL    HW229234   8.761   1.186   3.720  2.5896 -1.9768  0.1279
 7630SOL     OW29235   6.968   1.937   9.097 -0.3529 -0.1538 -0.2987
 7630SOL    HW129236   7.037   1.965   9.036  0.9364 -1.4895  0.4765
 7630SOL    HW229237   6.906   2.010   9.098  0.5472  0.6858 -1.7721
 7631SOL     OW29238   6.508   0.536   7.146  0.2438 -0.1374  0.2898
 7631SOL    HW129239   6.480   0.600   7.211  0.8863 -0.3347  0.7684
 7631SOL    HW229240   6.586   0.574   7.106  0.6777 -0.6589  0.6373
 7632SOL     OW29241   8.768   0.129   5.887  0.5658 -0.1854  0.1020
 7632SOL    HW129242   8.778   0.216   5.847 -0.9267 -0.3525 -0.6961
 7632SOL    HW229243   8.773   0.068   5.814 -1.6876 -0.5305  0.1873
 7633SOL     OW29244   3.768   2.555   4.469 -0.1488 -0.2260 -0.4002
 7633SOL    HW129245   3.772   2.459   4.474 -0.0069 -0.2940 -1.4493
 7633SOL    HW229246   3.845   2.579   4.417  0.7284  0.5981  1.2095
 7634SOL     OW29247   8.703   4.581   2.195 -0.1827  0.0206 -0.1975
 7634SOL    HW129248   8.708   4.550   2.285  1.1651 -0.4288 -0.4051
 7634SOL    HW229249   8.617   4.553   2.164 -0.2300 -0.7449  0.6097
 7635SOL     OW29250   8.266   4.529   0.779  0.3496 -0.3343  0.4151
 7635SOL    HW129251   8.313   4.569   0.706  0.9737  1.0155  1.5083
 7635SOL    HW229252   8.302   4.440   0.786  1.9070  0.2904  0.5016
 7636SOL     OW29253   4.930   5.389   3.058  0.3695 -0.1211 -0.0922
 7636SOL    HW129254   4.922   5.443   3.137  0.7839 -0.5357  0.2401
 7636SOL    HW229255   4.866   5.426   2.998  0.7117  0.8047  0.0872
 7637SOL     OW29256   3.371   7.654   3.784 -0.3418  0.6894 -0.0697
 7637SOL    HW129257   3.401   7.653   3.694 -1.0057 -0.3615 -0.2998
 7637SOL    HW229258   3.417   7.580   3.826  1.3233  2.2202  0.9439
 7638SOL     OW29259   5.320   8.492   2.007  0.2760 -0.1253  0.2502
 7638SOL    HW129260   5.304   8.514   1.915  0.4888  0.5004  0.3568
 7638SOL    HW229261   5.302   8.398   2.012  1.3482 -0.4068 -0.6811
 7639SOL     OW29262   7.418   3.150   8.746  0.1504 -0.5380  0.6641
 7639SOL    HW129263   7.330   3.113   8.754 -0.1786  0.3141  1.1425
 7639SOL    HW229264   7.464   3.120   8.824  0.7057 -2.0508 -0.2181
 7640SOL     OW29265   2.900   7.395   6.090  0.0062 -0.0273 -0.0137
 7640SOL    HW129266   2.972   7.381   6.029  0.1957  0.8821 -0.0145
 7640SOL    HW229267   2.931   7.361   6.173 -0.9549 -3.0893 -0.7661
 7641SOL     OW29268   2.522   4.309   0.803  0.1796  0.1430 -0.1347
 7641SOL    HW129269   2.564   4.390   0.773  2.1655 -0.1573  1.5985
 7641SOL    HW229270   2.449   4.339   0.857  0.9949  0.8158  0.6260
 7642SOL     OW29271   6.009   1.104   6.962  0.5626 -0.2337 -0.2257
 7642SOL    HW129272   5.928   1.086   6.915  0.0576 -0.4635  0.6976
 7642SOL    HW229273   6.041   1.019   6.991  0.2789 -0.0207  0.7650
 7643SOL     OW29274   0.173   8.324   2.884 -0.1455  0.0468 -0.3327
 7643SOL    HW129275   0.126   8.240   2.888 -0.1254  0.0193 -0.6726
 7643SOL    HW229276   0.222   8.320   2.802 -0.7665  0.7152 -0.7481
 7644SOL     OW29277   1.878   4.143   2.971 -0.2222  0.0134 -0.2047
 7644SOL    HW129278   1.864   4.232   2.937 -0.5067 -0.3096 -0.9563
 7644SOL    HW229279   1.906   4.156   3.062  1.1297  0.9378 -0.7190
 7645SOL     OW29280   1.602   1.640   3.826 -0.5005  0.5292 -0.1009
 7645SOL    HW129281   1.672   1.639   3.891 -1.3386 -0.1048  0.8220
 7645SOL    HW229282   1.561   1.726   3.836 -0.5242  0.4957  0.0931
 7646SOL     OW29283   6.481   4.093   4.264 -0.3733 -0.1657 -0.2078
 7646SOL    HW129284   6.429   4.030   4.214  0.2731 -1.1929  0.4036
 7646SOL    HW229285   6.571   4.079   4.235  0.3201 -2.0846  2.4650
 7647SOL     OW29286   6.571   3.922   8.025  0.1056 -0.1554  0.3068
 7647SOL    HW129287   6.633   3.886   7.962 -0.8452  0.9121 -1.3204
 7647SOL    HW229288   6.517   3.983   7.974 -2.8609 -1.6385  1.4076
 7648SOL     OW29289   4.837   5.151   3.127 -0.4034  0.3392 -0.3044
 7648SOL    HW129290   4.867   5.236   3.096 -0.7859  0.7721  0.4744
 7648SOL    HW229291   4.762   5.129   3.071 -0.6700  0.7980 -0.1326
 7649SOL     OW29292   4.262   8.001   8.061 -0.5199 -0.5546 -0.1608
 7649SOL    HW129293   4.283   8.025   7.971  0.0005 -1.0198 -0.1698
 7649SOL    HW229294   4.200   8.068   8.090  0.7557  0.7157 -0.2236
 7650SOL     OW29295   7.953   6.050   5.550 -0.5053  0.6238 -0.0064
 7650SOL    HW129296   8.035   6.091   5.525 -0.2659 -0.3055 -0.8143
 7650SOL    HW229297   7.886   6.100   5.504 -0.2897  0.6885 -0.2532
 7651SOL     OW29298   0.831   6.096   8.062 -0.1060  0.3221 -0.4708
 7651SOL    HW129299   0.740   6.090   8.091  0.0587  1.5302  0.3919
 7651SOL    HW229300   0.833   6.048   7.980 -1.1921 -0.9527  0.2073
 7652SOL     OW29301   6.505   5.065   5.902  0.0453 -0.5616 -0.4074
 7652SOL    HW129302   6.581   5.008   5.901  0.8365  0.4494  0.5856
 7652SOL    HW229303   6.509   5.112   5.819  2.0477  1.4228  0.7313
 7653SOL     OW29304   3.424   1.040   4.957  0.1698 -0.1109  0.2500
 7653SOL    HW129305   3.473   0.979   4.902 -1.2857 -0.4974 -0.6726
 7653SOL    HW229306   3.466   1.125   4.942  0.2864 -0.3531 -0.8433
 7654SOL     OW29307   0.698   2.217   2.515 -0.3081 -0.1925 -0.1694
 7654SOL    HW129308   0.614   2.176   2.493  1.0350 -2.9536 -0.6129
 7654SOL    HW229309   0.692   2.237   2.608 -1.7013  0.3447 -0.3561
 7655SOL     OW29310   3.239   4.348   0.132  0.1808 -0.2979 -0.1600
 7655SOL    HW129311   3.149   4.367   0.157 -0.2127 -0.9077 -1.0599
 7655SOL    HW229312   3.261   4.416   0.068  0.8218  0.6341  1.0279
 7656SOL     OW29313   6.344   5.901   2.284  0.2343 -0.4774  0.2558
 7656SOL    HW129314   6.346   5.806   2.296 -2.4266 -0.8434 -1.3554
 7656SOL    HW229315   6.313   5.935   2.368  1.3019 -0.9655  0.8754
 7657SOL     OW29316   2.653   6.565   1.899  0.0993 -0.4130 -0.6411
 7657SOL    HW129317   2.589   6.575   1.828  0.3955  0.5944 -0.7817
 7657SOL    HW229318   2.648   6.472   1.922 -0.3078 -0.6715 -1.6844
 7658SOL     OW29319   1.262   2.444   8.002 -0.4521 -0.7619 -0.6343
 7658SOL    HW129320   1.273   2.353   8.029  0.8765 -0.5113 -0.2607
 7658SOL    HW229321   1.217   2.438   7.918 -0.4601 -1.7566 -0.5796
 7659SOL     OW29322   7.328   4.531   8.066 -0.4497 -0.1876  0.1944
 7659SOL    HW129323   7.293   4.619   8.077  0.2809  0.1319  0.0051
 7659SOL    HW229324   7.359   4.528   7.976 -1.3141 -0.9519 -0.0937
 7660SOL     OW29325   0.675   6.545   5.719 -0.2005  0.0221  0.1910
 7660SOL    HW129326   0.688   6.458   5.757 -0.0150 -0.2551 -0.4852
 7660SOL    HW229327   0.715   6.605   5.782 -0.7427 -0.3350  0.8890
 7661SOL     OW29328   4.039   6.647   7.693 -0.0182 -0.5448 -0.4514
 7661SOL    HW129329   4.049   6.582   7.623  0.7318 -0.4002 -0.4901
 7661SOL    HW229330   4.062   6.599   7.773  3.8440  0.4259 -0.7997
 7662SOL     OW29331   5.608   2.097   5.751 -0.1749  0.3441 -0.1146
 7662SOL    HW129332   5.593   2.179   5.798  1.1315 -0.7685  2.4341
 7662SOL    HW229333   5.521   2.057   5.746 -0.4998  0.9498  0.4902
 7663SOL     OW29334   1.657   7.063   8.376 -0.8513 -0.0138  0.3478
 7663SOL    HW129335   1.689   7.040   8.463 -1.7245 -2.0735  0.2000
 7663SOL    HW229336   1.568   7.095   8.391 -1.7735 -2.2392  0.1548
 7664SOL     OW29337   7.834   4.411   6.895 -0.3407 -0.4339 -0.1903
 7664SOL    HW129338   7.807   4.469   6.967  1.8137 -1.2336  1.3760
 7664SOL    HW229339   7.784   4.442   6.820 -2.3285  0.8029  1.4962
 7665SOL     OW29340   1.721   4.227   4.660 -0.0997 -0.1231  0.2745
 7665SOL    HW129341   1.728   4.150   4.716 -1.1107 -1.2718 -1.1016
 7665SOL    HW229342   1.636   4.264   4.682 -0.2166 -0.2033 -0.0416
 7666SOL     OW29343   8.573   4.298   4.480  0.0348 -0.2266 -0.4309
 7666SOL    HW129344   8.555   4.310   4.387 -1.5406  0.9283 -0.0391
 7666SOL    HW229345   8.605   4.209   4.488  1.8704  0.2097 -2.2846
 7667SOL     OW29346   1.842   6.422   3.025 -0.0035  0.0354  0.0718
 7667SOL    HW129347   1.763   6.368   3.018  1.0481 -1.5000 -0.4861
 7667SOL    HW229348   1.914   6.360   3.021  1.2609  1.4223  0.3474
 7668SOL     OW29349   1.354   2.343   7.648  0.2399  0.0231 -0.0757
 7668SOL    HW129350   1.354   2.355   7.552 -1.9636 -1.9075 -0.3910
 7668SOL    HW229351   1.277   2.391   7.678  0.4233 -0.1236  0.6400
 7669SOL     OW29352   4.139   1.047   8.675  0.4321  0.8153  0.2630
 7669SOL    HW129353   4.168   1.047   8.766 -0.8561  0.2668  0.6945
 7669SOL    HW229354   4.137   1.140   8.650  1.2703  0.9374  0.6165
 7670SOL     OW29355   4.814   0.662   3.379 -0.4697 -0.0104 -0.2939
 7670SOL    HW129356   4.761   0.654   3.300 -1.3550  1.1814  0.1516
 7670SOL    HW229357   4.903   0.645   3.350 -0.9952 -1.3129 -1.2033
 7671SOL     OW29358   2.833   1.607   2.308  0.8659  0.2072  0.2221
 7671SOL    HW129359   2.833   1.666   2.384  0.7548  0.7253 -0.1788
 7671SOL    HW229360   2.910   1.552   2.320 -0.6128 -1.6206  2.1832
 7672SOL     OW29361   8.059   8.358   8.361 -0.0640 -0.4335 -0.7171
 7672SOL    HW129362   8.015   8.375   8.445 -0.4788  2.1559 -1.3822
 7672SOL    HW229363   8.151   8.348   8.384 -0.4974 -2.9313  0.3452
 7673SOL     OW29364   7.248   4.795   1.212  0.0689  0.4049 -0.6019
 7673SOL    HW129365   7.223   4.887   1.226  2.8157  0.8641  2.9049
 7673SOL    HW229366   7.186   4.745   1.265  0.5444  0.6323  0.2022
 7674SOL     OW29367   0.318   8.737   7.349 -0.3112 -0.3534  0.1955
 7674SOL    HW129368   0.393   8.766   7.297  0.9361 -1.5566  1.2104
 7674SOL    HW229369   0.315   8.798   7.422 -0.9688  0.2917 -0.3572
 7675SOL     OW29370   3.659   4.312   0.818 -0.2434 -0.1383  0.1194
 7675SOL    HW129371   3.747   4.318   0.856 -0.5924  0.7658  0.8098
 7675SOL    HW229372   3.674   4.280   0.728  0.6585 -1.4460  0.7042
 7676SOL     OW29373   3.006   4.290   5.410  0.5006  0.1569 -0.1451
 7676SOL    HW129374   2.948   4.223   5.375  1.0702 -0.4131 -0.0294
 7676SOL    HW229375   3.017   4.353   5.339  0.9361 -0.5201 -0.6872
 7677SOL     OW29376   3.138   0.389   8.489  0.3021  0.3429  0.1901
 7677SOL    HW129377   3.144   0.484   8.502 -0.3845  0.6253 -1.3208
 7677SOL    HW229378   3.091   0.379   8.406  1.3269 -1.3013 -0.2474
 7678SOL     OW29379   4.820   7.904   0.321 -0.0363  0.4288  0.2061
 7678SOL    HW129380   4.752   7.972   0.320  0.9814  1.5124  1.2838
 7678SOL    HW229381   4.850   7.899   0.230  0.6294  2.2604  0.2658
 7679SOL     OW29382   5.045   5.204   1.692 -0.2773 -0.1836 -0.8745
 7679SOL    HW129383   5.028   5.150   1.615 -0.4002  0.4694 -1.3053
 7679SOL    HW229384   5.140   5.198   1.705 -0.3982 -1.3145 -0.3105
 7680SOL     OW29385   2.327   1.424   7.369  0.0827  0.1743 -0.0909
 7680SOL    HW129386   2.301   1.451   7.281  0.1087 -0.5010 -0.3077
 7680SOL    HW229387   2.396   1.486   7.393  1.4778 -0.8362 -1.3385
 7681SOL     OW29388   7.314   6.863   1.903 -0.0947 -0.1925  0.0920
 7681SOL    HW129389   7.252   6.925   1.941  0.1505 -0.0151  0.2065
 7681SOL    HW229390   7.384   6.918   1.867  1.3084 -0.4329  2.2289
 7682SOL     OW29391   8.013   6.058   1.281  0.2279 -0.2438  0.0077
 7682SOL    HW129392   8.081   6.003   1.318 -0.7218 -0.5397  1.4117
 7682SOL    HW229393   8.026   6.143   1.323  1.6844  0.6843 -2.1413
 7683SOL     OW29394   0.838   4.327   6.412  0.8702  0.6027  0.2542
 7683SOL    HW129395   0.897   4.401   6.401 -0.0563  1.3316  0.1005
 7683SOL    HW229396   0.761   4.349   6.361 -0.4873  0.7089  2.2337
 7684SOL     OW29397   1.275   4.720   6.047 -0.3241 -0.2141 -0.7220
 7684SOL    HW129398   1.236   4.748   5.965  1.1239 -0.4660 -1.5190
 7684SOL    HW229399   1.259   4.625   6.050  0.7392 -0.4188 -1.3430
 7685SOL     OW29400   0.060   3.363   5.283 -0.1129  0.7640  0.1900
 7685SOL    HW129401   0.127   3.295   5.281  0.3748  1.2242  0.3533
 7685SOL    HW229402   0.056   3.390   5.375  0.2719  1.4996 -0.0002
 7686SOL     OW29403   9.106   6.813   5.434  0.5471  0.3083  1.2573
 7686SOL    HW129404   9.100   6.717   5.431  0.1955  0.3321 -0.9669
 7686SOL    HW229405   9.200   6.831   5.435  0.8346 -0.1641 -2.3447
 7687SOL     OW29406   0.310   3.002   0.110 -0.2225  0.5647  0.2981
 7687SOL    HW129407   0.277   3.006   0.021  1.3168  1.8452 -0.2533
 7687SOL    HW229408   0.232   3.000   0.165 -1.2808  3.8564 -0.9124
 7688SOL     OW29409   4.894   6.175   8.567  0.2205  0.5234  0.4026
 7688SOL    HW129410   4.836   6.224   8.625 -0.3373 -0.0542  0.3514
 7688SOL    HW229411   4.973   6.160   8.619  1.2606  3.2189 -0.2765
 7689SOL     OW29412   6.272   7.259   4.866  0.6665 -0.0712 -0.1549
 7689SOL    HW129413   6.318   7.304   4.795 -0.6298  1.5485 -0.0372
 7689SOL    HW229414   6.341   7.235   4.928  1.6114  0.0661 -1.1189
 7690SOL     OW29415   5.157   2.885   7.261  0.0071  0.6055  0.0422
 7690SOL    HW129416   5.138   2.946   7.190  1.9872  1.3801  0.1218
 7690SOL    HW229417   5.149   2.799   7.220 -0.1271  0.9938 -0.7792
 7691SOL     OW29418   2.516   5.504   5.495  0.2370  0.3130  0.3110
 7691SOL    HW129419   2.496   5.481   5.586  0.2670  0.0772  0.2573
 7691SOL    HW229420   2.566   5.586   5.501 -2.8328  2.3524  0.3569
 7692SOL     OW29421   6.406   0.421   8.545  0.3476 -0.5652 -0.0412
 7692SOL    HW129422   6.435   0.360   8.613 -0.7649  0.5190  1.4592
 7692SOL    HW229423   6.401   0.506   8.588 -0.2807  0.1908 -1.5142
 7693SOL     OW29424   7.305   7.638   5.213  0.4787 -0.1441  0.9841
 7693SOL    HW129425   7.270   7.576   5.148 -1.4103  1.9006 -0.0884
 7693SOL    HW229426   7.296   7.592   5.296  0.1676 -1.7141  0.1309
 7694SOL     OW29427   1.322   5.900   7.959 -0.5576  0.1935 -0.3455
 7694SOL    HW129428   1.235   5.859   7.955 -0.4627  0.0507 -1.0602
 7694SOL    HW229429   1.311   5.972   8.021 -0.8779 -0.5368  0.4837
 7695SOL     OW29430   2.513   7.499   3.866 -0.3508  0.5268  0.2865
 7695SOL    HW129431   2.496   7.518   3.958  1.1675 -3.1585  1.5188
 7695SOL    HW229432   2.486   7.408   3.855  2.2771 -0.1170 -2.0740
 7696SOL     OW29433   4.633   1.862   6.935 -0.1408 -0.0776 -0.1139
 7696SOL    HW129434   4.657   1.952   6.916  0.0103 -0.3039 -1.1083
 7696SOL    HW229435   4.560   1.868   6.996 -0.5402  0.7413 -0.6524
 7697SOL     OW29436   8.781   2.806   2.082  0.0657 -0.1838  0.0386
 7697SOL    HW129437   8.831   2.887   2.095  3.7933 -2.3185  0.2360
 7697SOL    HW229438   8.838   2.737   2.116 -3.2089 -2.9204  0.4948
 7698SOL     OW29439   2.183   1.311   6.830 -0.5768  0.0526  0.4073
 7698SOL    HW129440   2.219   1.337   6.745 -2.0528  1.5484  0.1840
 7698SOL    HW229441   2.224   1.227   6.849  0.7176  0.2773 -1.1998
 7699SOL     OW29442   8.944   1.587   0.743 -0.3270  0.0190 -0.5031
 7699SOL    HW129443   8.906   1.511   0.698 -0.8451 -0.7555  1.1362
 7699SOL    HW229444   8.896   1.591   0.826  0.0419  1.8673 -0.3429
 7700SOL     OW29445   6.902   2.457   9.033  0.2892 -0.1632  0.2790
 7700SOL    HW129446   6.842   2.470   9.107  1.9080  0.5112  1.5312
 7700SOL    HW229447   6.989   2.461   9.072  1.1939  0.0617 -1.6652
 7701SOL     OW29448   5.399   9.071   1.472 -0.0719 -0.4903 -0.5765
 7701SOL    HW129449   5.446   9.129   1.532 -1.3232 -0.4635  0.4099
 7701SOL    HW229450   5.310   9.067   1.507 -0.3214 -2.0654 -1.3085
 7702SOL     OW29451   5.725   6.753   7.822  0.4215  0.0179 -0.4092
 7702SOL    HW129452   5.751   6.703   7.899 -0.5089  0.1267 -0.0202
 7702SOL    HW229453   5.687   6.688   7.763  2.1871 -0.2711 -1.2962
 7703SOL     OW29454   6.965   0.173   4.018 -0.0795 -0.0111  0.2319
 7703SOL    HW129455   6.975   0.082   4.047  0.5549  0.6854  2.3916
 7703SOL    HW229456   6.917   0.216   4.089  1.1002  1.7114  0.0481
 7704SOL     OW29457   9.032   7.341   9.105  0.2300  1.1986  0.9051
 7704SOL    HW129458   9.085   7.347   9.025  0.0301 -1.4588  0.4999
 7704SOL    HW229459   9.083   7.387   9.171  1.3910  1.6451 -0.2558
 7705SOL     OW29460   6.854   7.757   8.518  0.4875 -0.1441 -0.7086
 7705SOL    HW129461   6.849   7.735   8.425  2.3159  1.6106 -1.3127
 7705SOL    HW229462   6.852   7.853   8.519  1.8414 -0.0856  0.9184
 7706SOL     OW29463   6.967   6.499   3.142 -0.6828 -0.2886  0.4801
 7706SOL    HW129464   6.963   6.411   3.103  1.6238  0.4290 -1.6514
 7706SOL    HW229465   6.940   6.487   3.232 -3.2434 -2.6735 -0.4668
 7707SOL     OW29466   5.469   6.111   7.816 -0.9151  0.5697  0.0560
 7707SOL    HW129467   5.409   6.173   7.776 -1.0973  0.4557  0.1510
 7707SOL    HW229468   5.555   6.134   7.780 -1.3449 -0.9143 -2.1203
 7708SOL     OW29469   1.528   8.979   3.225 -0.1560  0.0214  0.2038
 7708SOL    HW129470   1.511   9.028   3.145 -1.6171 -0.2238  0.3395
 7708SOL    HW229471   1.587   9.036   3.275  2.6330 -0.7434 -1.9093
 7709SOL     OW29472   3.685   6.173   3.252  0.2367 -0.2178 -0.5670
 7709SOL    HW129473   3.638   6.124   3.320  0.2783  0.0794 -0.3229
 7709SOL    HW229474   3.674   6.265   3.276  0.2254 -0.1098 -0.9830
 7710SOL     OW29475   1.018   6.873   9.072  0.2402  0.4309 -0.7271
 7710SOL    HW129476   0.960   6.806   9.035  1.1835 -0.9562  0.2172
 7710SOL    HW229477   0.964   6.916   9.138  0.4585 -1.4614  0.8006
 7711SOL     OW29478   0.275   7.590   4.504  0.2110  0.6334 -0.7545
 7711SOL    HW129479   0.300   7.609   4.413  2.3475  0.6021 -0.2339
 7711SOL    HW229480   0.358   7.578   4.549 -0.6494  3.0480  1.7616
 7712SOL     OW29481   4.513   7.824   9.160  0.2495 -0.0015 -0.0641
 7712SOL    HW129482   4.603   7.805   9.134  0.1978 -0.2773 -0.0513
 7712SOL    HW229483   4.462   7.750   9.126  0.1407 -0.2354  0.5825
 7713SOL     OW29484   1.163   1.323   0.008  0.2307  0.0139 -0.1296
 7713SOL    HW129485   1.093   1.273   0.050  1.9139 -1.0519  1.5390
 7713SOL    HW229486   1.117   1.396  -0.035 -1.9067 -0.7103  0.7646
 7714SOL     OW29487   5.735   6.157   6.315 -0.0673 -0.5308  0.2304
 7714SOL    HW129488   5.753   6.246   6.287  3.4780 -0.4429  2.2058
 7714SOL    HW229489   5.744   6.159   6.411  2.6884 -3.3583  0.1936
 7715SOL     OW29490   0.455   5.592   0.751 -0.3286 -0.0703 -0.0135
 7715SOL    HW129491   0.384   5.614   0.811  1.2811  0.0203  1.9669
 7715SOL    HW229492   0.528   5.648   0.778  0.7322 -0.6460 -1.5276
 7716SOL     OW29493   3.630   7.943   3.605 -0.1032 -0.3181 -0.4079
 7716SOL    HW129494   3.555   7.974   3.655  1.6119  3.8687  0.0177
 7716SOL    HW229495   3.622   7.986   3.520  1.4168 -0.3224 -0.5863
 7717SOL     OW29496   6.677   6.747   1.676 -0.3416 -0.3511 -0.6043
 7717SOL    HW129497   6.728   6.790   1.745  1.4310 -1.2503 -1.2868
 7717SOL    HW229498   6.614   6.814   1.648  3.3143  2.5980 -2.7565
 7718SOL     OW29499   6.738   4.841   2.140 -0.1573  0.6313 -0.5671
 7718SOL    HW129500   6.780   4.907   2.086 -0.3791  0.0066 -1.5307
 7718SOL    HW229501   6.644   4.855   2.128 -0.2168  0.7247 -0.0364
 7719SOL     OW29502   3.230   9.160   8.205 -0.0929  0.3329 -0.4078
 7719SOL    HW129503   3.257   9.070   8.223 -2.5114 -0.7317 -1.5735
 7719SOL    HW229504   3.234   9.168   8.109 -1.2188  0.9688 -0.4219
 7720SOL     OW29505   2.090   5.347   4.693 -0.3796 -0.3507  0.2207
 7720SOL    HW129506   2.029   5.286   4.650 -0.2395  0.7302 -1.6270
 7720SOL    HW229507   2.038   5.426   4.706  0.2205  0.0808 -0.0025
 7721SOL     OW29508   6.291   2.669   3.068 -0.7405 -0.1806  0.1667
 7721SOL    HW129509   6.369   2.618   3.044 -1.1585 -0.8409  0.1902
 7721SOL    HW229510   6.237   2.667   2.989 -1.2183 -0.6475  0.5020
 7722SOL     OW29511   0.349   5.075   0.170  0.0997  0.7300 -0.1926
 7722SOL    HW129512   0.368   4.999   0.115  1.6777  1.3187 -0.5344
 7722SOL    HW229513   0.352   5.041   0.260  5.6867  1.0334  0.0879
 7723SOL     OW29514   6.098   0.157   0.705  0.3496  0.6807 -0.1277
 7723SOL    HW129515   6.103   0.209   0.786 -1.6609  0.4909  0.1591
 7723SOL    HW229516   6.147   0.077   0.725 -0.3467  0.5134  1.0241
 7724SOL     OW29517   8.790   1.498   2.420  0.0698  0.1229 -0.0338
 7724SOL    HW129518   8.719   1.436   2.405 -0.0692  0.1228  0.5876
 7724SOL    HW229519   8.751   1.583   2.401  0.6257 -0.0403 -2.1847
 7725SOL     OW29520   3.596   4.923   8.824 -0.2939 -0.1309 -0.0854
 7725SOL    HW129521   3.586   5.014   8.797  1.4216 -0.2405 -1.2032
 7725SOL    HW229522   3.690   4.908   8.826 -0.5220 -2.3340 -1.6339
 7726SOL     OW29523   2.458   5.184   0.069  0.3854  0.1113  0.2187
 7726SOL    HW129524   2.442   5.112   0.007  2.3898 -0.3475  0.1795
 7726SOL    HW229525   2.551   5.178   0.089  0.2130  1.5992  1.6344
 7727SOL     OW29526   5.393   8.758   5.438 -0.0216  0.1362  0.5859
 7727SOL    HW129527   5.408   8.814   5.514  0.1132 -0.2302  0.8315
 7727SOL    HW229528   5.301   8.731   5.446 -0.7107  1.9194 -0.6111
 7728SOL     OW29529   9.227   6.152   0.513 -0.9654 -0.2606 -0.0103
 7728SOL    HW129530   9.197   6.214   0.446 -2.7471 -2.0703 -0.9736
 7728SOL    HW229531   9.283   6.205   0.571 -3.1933  2.5003 -0.1749
 7729SOL     OW29532   1.149   8.705   7.066  0.2002  0.2940 -0.1092
 7729SOL    HW129533   1.140   8.697   7.161 -0.8581 -0.7456 -0.2753
 7729SOL    HW229534   1.201   8.784   7.054  1.5109 -0.2913  1.3734
 7730SOL     OW29535   4.014   7.032   0.583  0.1471  0.4578 -0.1869
 7730SOL    HW129536   4.035   7.125   0.572 -1.7208  0.8998 -0.4657
 7730SOL    HW229537   4.014   6.997   0.494  0.7897  0.2004 -0.0874
 7731SOL     OW29538   8.347   8.281   0.654  0.1065 -0.0405 -0.0760
 7731SOL    HW129539   8.293   8.330   0.592  0.8675 -0.8515 -1.4102
 7731SOL    HW229540   8.434   8.322   0.647  0.1217  0.0797  0.7225
 7732SOL     OW29541   3.424   8.324   5.638 -0.1516 -0.2698  0.2686
 7732SOL    HW129542   3.476   8.244   5.642  1.7812  0.8935 -0.2244
 7732SOL    HW229543   3.342   8.298   5.597  0.3738 -2.0053  0.2475
 7733SOL     OW29544   6.259   8.262   8.072  0.3222 -0.4776  0.7411
 7733SOL    HW129545   6.192   8.253   8.140 -1.2105 -2.1401 -0.8652
 7733SOL    HW229546   6.321   8.191   8.090  0.2032 -0.5900  0.7101
 7734SOL     OW29547   4.724   1.442   4.581 -0.2098 -0.5724  0.3862
 7734SOL    HW129548   4.629   1.435   4.575 -0.2652 -0.1108  0.6408
 7734SOL    HW229549   4.750   1.369   4.637  0.0080 -3.0810 -2.6857
 7735SOL     OW29550   6.162   2.724   6.202  0.1767 -0.9116 -0.0241
 7735SOL    HW129551   6.071   2.743   6.227  0.4701 -0.3341  0.6426
 7735SOL    HW229552   6.212   2.797   6.237  0.9996 -1.5972  0.2697
 7736SOL     OW29553   6.250   4.159   2.400 -0.1641 -0.3906  0.5174
 7736SOL    HW129554   6.244   4.209   2.318 -1.6161 -0.3475  0.6277
 7736SOL    HW229555   6.318   4.203   2.451  1.1612 -0.7359 -0.8634
 7737SOL     OW29556   5.743   4.351   2.047  0.9583  0.0515 -0.1614
 7737SOL    HW129557   5.649   4.336   2.046  0.8439  0.0286  2.6074
 7737SOL    HW229558   5.780   4.276   1.999 -0.4336  1.1183 -3.1095
 7738SOL     OW29559   6.755   3.682   1.795  0.0464  0.3608 -0.4193
 7738SOL    HW129560   6.803   3.765   1.797  1.1116 -0.2218 -0.9095
 7738SOL    HW229561   6.768   3.649   1.707  0.5441 -0.8283  0.0789
 7739SOL     OW29562   1.727   2.516   7.150  0.6170 -0.5128 -0.1440
 7739SOL    HW129563   1.634   2.521   7.130  0.6470 -1.0281 -0.4245
 7739SOL    HW229564   1.742   2.424   7.170  1.3549 -0.7152 -1.5338
 7740SOL     OW29565   4.931   7.312   7.215 -0.1550 -0.0221 -0.3281
 7740SOL    HW129566   4.961   7.401   7.200 -0.4107  0.1392  0.1168
 7740SOL    HW229567   4.929   7.272   7.128  0.2431  0.3138 -0.4910
 7741SOL     OW29568   3.669   2.202   7.195 -0.0179 -0.6479  0.6208
 7741SOL    HW129569   3.747   2.152   7.170  0.7347 -0.0665  1.7325
 7741SOL    HW229570   3.596   2.152   7.158  0.9707  0.9377 -4.1557
 7742SOL     OW29571   2.746   6.131   4.783  0.2920 -0.8730 -1.0430
 7742SOL    HW129572   2.671   6.072   4.789 -0.4174 -0.0214 -1.2610
 7742SOL    HW229573   2.807   6.086   4.724 -0.5933 -1.0293 -1.8715
 7743SOL     OW29574   8.371   8.091   5.869 -0.5934  0.2630 -0.0743
 7743SOL    HW129575   8.446   8.139   5.832 -1.0105  0.8736 -0.1304
 7743SOL    HW229576   8.411   8.014   5.909  0.2164  1.1564  0.9245
 7744SOL     OW29577   6.291   5.404   8.057 -0.2476  0.2587 -0.2529
 7744SOL    HW129578   6.323   5.488   8.024  1.6804  0.3718  1.6929
 7744SOL    HW229579   6.240   5.426   8.134  3.1121 -0.3812  2.3745
 7745SOL     OW29580   8.889   1.269   5.053 -0.0668 -0.3047 -0.0698
 7745SOL    HW129581   8.951   1.244   5.122 -0.6079 -1.5124  0.0191
 7745SOL    HW229582   8.808   1.288   5.100  0.0454  0.5974 -0.2380
 7746SOL     OW29583   7.589   0.916   2.109  0.0360  0.5012 -0.2768
 7746SOL    HW129584   7.549   0.855   2.047 -0.2395 -0.4359  0.7870
 7746SOL    HW229585   7.681   0.890   2.112 -0.3654 -0.8247  1.2472
 7747SOL     OW29586   3.863   7.367   2.922  0.1394  0.5265 -0.5476
 7747SOL    HW129587   3.864   7.390   3.015  0.2372  2.6084 -1.0080
 7747SOL    HW229588   3.909   7.284   2.917 -1.1229 -0.3703  1.4195
 7748SOL     OW29589   0.054   2.707   2.446 -0.3028 -0.2932  0.2615
 7748SOL    HW129590   0.070   2.691   2.539 -0.7187 -0.5338  0.2945
 7748SOL    HW229591   0.141   2.716   2.407 -0.1319  0.1425  0.7326
 7749SOL     OW29592   4.624   1.005   1.970 -0.2539 -0.2538  0.2396
 7749SOL    HW129593   4.659   1.089   1.941  1.5232 -0.1444  2.4716
 7749SOL    HW229594   4.538   1.027   2.008 -0.8137  0.1574 -1.1760
 7750SOL     OW29595   3.904   8.185   3.250 -0.0444 -0.4041 -0.2394
 7750SOL    HW129596   3.955   8.232   3.317 -0.7147 -0.5720  0.4014
 7750SOL    HW229597   3.826   8.239   3.237  0.7856  0.4612 -2.0587
 7751SOL     OW29598   1.297   3.155   6.451 -0.0614 -0.6094  0.0277
 7751SOL    HW129599   1.281   3.232   6.396 -0.0333 -1.1250 -0.7255
 7751SOL    HW229600   1.228   3.094   6.427 -0.1462 -0.7843  0.6998
 7752SOL     OW29601   0.457   1.116   1.525 -1.1619 -0.2261  0.4165
 7752SOL    HW129602   0.427   1.184   1.585  2.0668  0.6488  1.2669
 7752SOL    HW229603   0.440   1.034   1.570 -2.5978  0.1559  0.6091
 7753SOL     OW29604   3.052   3.963   7.111  0.2460  0.7674  0.1659
 7753SOL    HW129605   3.018   3.908   7.182  1.6356  2.9934  2.7599
 7753SOL    HW229606   2.974   3.998   7.067 -0.6602 -0.4873  0.7231
 7754SOL     OW29607   8.840   4.280   3.635  0.4021  0.3946 -0.4264
 7754SOL    HW129608   8.791   4.272   3.716 -1.7492  0.0393 -1.6817
 7754SOL    HW229609   8.917   4.224   3.646 -0.6566 -0.8526  0.7747
 7755SOL     OW29610   2.953   6.716   6.267  0.5477  0.0887  0.2140
 7755SOL    HW129611   2.862   6.743   6.279  0.7909  0.7055  0.7717
 7755SOL    HW229612   2.974   6.743   6.177  0.1468 -0.1586  0.0454
 7756SOL     OW29613   5.964   3.165   2.228 -0.3965  0.0819 -0.0009
 7756SOL    HW129614   5.974   3.113   2.308  2.4925  0.2465 -0.1365
 7756SOL    HW229615   6.013   3.245   2.245 -1.5924  1.1233 -1.1805
 7757SOL     OW29616   2.266   1.845   3.040 -0.4390 -0.3475 -0.0236
 7757SOL    HW129617   2.254   1.750   3.044 -0.4015 -0.3686 -0.3361
 7757SOL    HW229618   2.235   1.869   2.952  0.0547 -0.1519 -0.1495
 7758SOL     OW29619   0.003   1.943   2.730 -0.6359 -0.5026  0.0483
 7758SOL    HW129620   0.063   1.900   2.670 -0.7602 -1.1333  0.3697
 7758SOL    HW229621  -0.067   1.879   2.746 -0.2052 -0.6684  1.4729
 7759SOL     OW29622   3.272   0.372   6.491 -0.2500 -0.5957 -0.0183
 7759SOL    HW129623   3.261   0.327   6.574 -0.9767 -0.4199 -0.0053
 7759SOL    HW229624   3.274   0.465   6.514  2.2311 -0.6257  0.0560
 7760SOL     OW29625   1.165   3.075   4.048 -0.2326 -0.2316 -0.0519
 7760SOL    HW129626   1.116   3.015   3.991 -0.6623 -0.9547  1.0441
 7760SOL    HW229627   1.139   3.162   4.018 -0.5350 -0.5964 -0.8879
 7761SOL     OW29628   9.004   0.372   4.760 -0.0990  0.0530  0.0891
 7761SOL    HW129629   8.984   0.451   4.710  0.4548 -0.8946 -1.7399
 7761SOL    HW229630   8.920   0.329   4.771 -0.2455  0.3383  0.1084
 7762SOL     OW29631   6.220   0.635   5.691 -0.4321  0.1138  0.2691
 7762SOL    HW129632   6.285   0.703   5.708 -1.7322  1.5651 -0.2674
 7762SOL    HW229633   6.138   0.671   5.725 -1.3757 -0.6815 -1.0546
 7763SOL     OW29634   8.255   1.543   0.091  0.4162  0.1253  0.1458
 7763SOL    HW129635   8.196   1.475   0.124  1.4774 -0.5217  0.7466
 7763SOL    HW229636   8.288   1.508   0.008 -0.5409  0.7914 -0.5479
 7764SOL     OW29637   1.619   8.811   7.563  0.2968 -0.0404 -0.1399
 7764SOL    HW129638   1.689   8.753   7.594  0.9799  0.7583 -0.1443
 7764SOL    HW229639   1.645   8.834   7.474  1.6582  2.6036  0.8011
 7765SOL     OW29640   2.134   3.437   4.278 -0.3660 -0.7689  0.4693
 7765SOL    HW129641   2.196   3.407   4.344 -0.2132 -0.4487  0.4736
 7765SOL    HW229642   2.185   3.495   4.221 -0.6611 -0.4878  0.4813
 7766SOL     OW29643   2.356   2.507   4.313 -0.0408  0.7611 -0.0594
 7766SOL    HW129644   2.298   2.438   4.346 -0.0534  1.2220  0.9141
 7766SOL    HW229645   2.369   2.485   4.221 -0.5845 -0.1657  0.0716
 7767SOL     OW29646   1.661   2.279   8.021  0.3757 -0.2212 -0.7063
 7767SOL    HW129647   1.613   2.236   7.950  0.8950  0.0574 -1.2397
 7767SOL    HW229648   1.623   2.367   8.026 -1.1480 -0.9231  0.8363
 7768SOL     OW29649   8.239   7.053   8.267 -0.3874  0.5934 -0.3902
 7768SOL    HW129650   8.151   7.064   8.231 -1.0333  3.6162  1.6549
 7768SOL    HW229651   8.271   7.143   8.279  2.5128 -0.3960  0.0910
 7769SOL     OW29652   0.705   0.325   5.544  0.7059  0.1534 -0.0051
 7769SOL    HW129653   0.713   0.270   5.623  1.1895  1.6079  0.9943
 7769SOL    HW229654   0.784   0.379   5.545  0.0137  1.1984 -0.7030
 7770SOL     OW29655   3.288   6.785   5.210 -0.1563 -0.0913 -0.2660
 7770SOL    HW129656   3.279   6.865   5.159  0.2820  1.5942  2.1298
 7770SOL    HW229657   3.381   6.778   5.228  0.2199 -2.6509 -2.5616
 7771SOL     OW29658   8.894   7.838   0.895 -0.1178  0.2292  0.3194
 7771SOL    HW129659   8.937   7.860   0.812 -0.3903  1.1290  0.4013
 7771SOL    HW229660   8.965   7.838   0.959  0.3399 -1.9141 -0.1221
 7772SOL     OW29661   8.264   8.041   7.452  0.1185 -0.4531 -0.5614
 7772SOL    HW129662   8.183   8.069   7.495  0.1381 -1.9923  0.5483
 7772SOL    HW229663   8.332   8.055   7.518  0.3531 -1.5583 -0.5510
 7773SOL     OW29664   5.367   7.488   0.228  0.4374 -0.6529  0.9538
 7773SOL    HW129665   5.434   7.541   0.186  0.6993 -0.8943  1.0641
 7773SOL    HW229666   5.286   7.512   0.183  0.5807 -0.2958  0.8804
 7774SOL     OW29667   6.248   6.466   4.557  0.1620  0.2170  0.0169
 7774SOL    HW129668   6.256   6.418   4.639 -1.1131  0.3521  0.2478
 7774SOL    HW229669   6.237   6.398   4.490  0.1289  0.1380  0.1026
 7775SOL     OW29670   0.718   7.191   0.455 -0.7183  0.1585  0.1193
 7775SOL    HW129671   0.655   7.211   0.525 -0.8208 -1.4788  0.5245
 7775SOL    HW229672   0.780   7.264   0.458 -0.2303 -0.2582  2.5225
 7776SOL     OW29673   8.227   8.563   1.881  0.1966  0.0753 -0.0243
 7776SOL    HW129674   8.189   8.499   1.941 -0.3300 -0.5839 -1.0360
 7776SOL    HW229675   8.153   8.594   1.829  0.8829 -0.6573 -1.5025
 7777SOL     OW29676   7.332   7.219   2.036 -0.1533 -0.3074 -0.2781
 7777SOL    HW129677   7.397   7.149   2.036  0.5918  0.3590 -0.8267
 7777SOL    HW229678   7.376   7.292   2.080 -0.6377  0.0669 -0.4059
 7778SOL     OW29679   6.713   6.951   6.160 -0.0066  0.2817  0.1368
 7778SOL    HW129680   6.698   7.032   6.111  0.8200 -0.2718 -1.0952
 7778SOL    HW229681   6.804   6.957   6.190 -0.0179 -0.0668  0.2507
 7779SOL     OW29682   1.025   3.499   3.706 -0.1222  0.0054 -0.1528
 7779SOL    HW129683   1.017   3.404   3.716  0.4308 -0.0627 -0.3566
 7779SOL    HW229684   1.068   3.511   3.621 -0.5185  0.4498 -0.2966
 7780SOL     OW29685   1.630   3.300   4.626 -0.5357 -0.2803  0.0544
 7780SOL    HW129686   1.700   3.345   4.579 -0.6231 -0.4012 -0.1894
 7780SOL    HW229687   1.555   3.303   4.567 -0.4607 -1.0101 -0.0929
 7781SOL     OW29688   4.440   7.183   2.468 -0.0966  0.6008  0.3411
 7781SOL    HW129689   4.371   7.186   2.402 -0.5756  1.6672  0.8549
 7781SOL    HW229690   4.440   7.271   2.505 -0.4062 -0.1961  2.3362
 7782SOL     OW29691   9.101   6.954   3.396  0.0289 -0.2281 -0.0107
 7782SOL    HW129692   9.031   6.937   3.460 -0.4048  1.3778 -0.0220
 7782SOL    HW229693   9.107   6.873   3.346 -1.9653 -0.3554 -0.1363
 7783SOL     OW29694   2.345   1.565   8.162  0.1303  0.3837  0.0169
 7783SOL    HW129695   2.378   1.499   8.224  1.0690  0.4518 -0.3896
 7783SOL    HW229696   2.330   1.516   8.081 -2.0874  0.0865  0.5416
 7784SOL     OW29697   3.439   6.161   8.339 -0.0960 -0.3607 -0.2707
 7784SOL    HW129698   3.452   6.243   8.291  0.6398 -0.1753  0.2213
 7784SOL    HW229699   3.480   6.177   8.424  1.5010 -1.7732 -0.7240
 7785SOL     OW29700   2.159   8.329   3.621  0.0941 -0.0361 -0.5453
 7785SOL    HW129701   2.214   8.294   3.551  0.9974  0.1386  0.0725
 7785SOL    HW229702   2.192   8.418   3.636  1.0367 -0.6533  1.2647
 7786SOL     OW29703   8.954   4.098   6.597 -0.3514 -0.4426 -0.6249
 7786SOL    HW129704   8.972   4.151   6.675 -0.2828  0.5048 -1.2734
 7786SOL    HW229705   8.997   4.014   6.615 -1.4705 -0.7345  0.9336
 7787SOL     OW29706   5.418   4.008   8.562 -0.2696  0.1804 -0.7845
 7787SOL    HW129707   5.397   3.930   8.509  0.8453 -0.3283 -0.4982
 7787SOL    HW229708   5.332   4.043   8.587 -0.7957 -0.6552 -1.3601
 7788SOL     OW29709   8.760   6.494   6.341  0.0540  0.1794 -0.3807
 7788SOL    HW129710   8.677   6.469   6.299  1.5681 -0.6423 -3.1620
 7788SOL    HW229711   8.820   6.423   6.319  2.1541  1.9220 -0.6301
 7789SOL     OW29712   6.900   8.717   1.967 -0.0430  0.0894 -0.5089
 7789SOL    HW129713   6.871   8.798   2.010 -0.1659  0.2051 -0.8097
 7789SOL    HW229714   6.995   8.726   1.959  0.2566 -0.7441  1.4430
 7790SOL     OW29715   0.408   3.249   0.009 -0.8034 -0.2183  0.4201
 7790SOL    HW129716   0.338   3.305   0.041 -0.8830 -0.9584  1.6339
 7790SOL    HW229717   0.365   3.165  -0.009 -1.0324  0.5067 -3.0420
 7791SOL     OW29718   9.200   8.488   2.544  0.0055 -0.2002  0.3975
 7791SOL    HW129719   9.247   8.571   2.547 -0.2328 -0.0936  1.5016
 7791SOL    HW229720   9.141   8.491   2.619 -2.0682 -0.1582 -1.1399
 7792SOL     OW29721   4.111   0.686   8.276 -0.0539  0.0932 -0.1121
 7792SOL    HW129722   4.192   0.726   8.307  0.5552 -1.9875  1.1758
 7792SOL    HW229723   4.090   0.620   8.342 -1.8306 -0.6417 -1.3416
 7793SOL     OW29724   0.921   8.113   7.617  0.1899  0.0791  0.4824
 7793SOL    HW129725   0.938   8.058   7.693 -0.4761 -0.4114  0.2805
 7793SOL    HW229726   0.882   8.193   7.653  0.9220  0.3246  0.7505
 7794SOL     OW29727   3.532   5.382   7.708  0.2097 -0.6436 -0.2316
 7794SOL    HW129728   3.528   5.407   7.800 -0.8797 -1.5968 -0.0017
 7794SOL    HW229729   3.529   5.466   7.661 -0.2808 -0.1879  0.5811
 7795SOL     OW29730   5.658   3.964   0.051  0.5924 -0.3465  0.4507
 7795SOL    HW129731   5.681   3.881   0.093  1.9677 -0.2622 -0.0963
 7795SOL    HW229732   5.577   3.945   0.003  1.3013 -1.5955 -0.3053
 7796SOL     OW29733   5.541   3.068   5.329 -0.3333  0.1330  0.3089
 7796SOL    HW129734   5.487   3.042   5.254  0.1379 -0.2436  0.0995
 7796SOL    HW229735   5.605   3.129   5.292 -1.6180  1.8988  0.8447
 7797SOL     OW29736   3.276   0.045   0.608  0.4916 -0.5964 -0.1805
 7797SOL    HW129737   3.212  -0.011   0.650 -0.0005  0.7303  0.9250
 7797SOL    HW229738   3.360  -0.000   0.621  0.1079 -1.0832  0.6675
 7798SOL     OW29739   7.919   4.329   0.583 -0.3661 -0.1363  0.1018
 7798SOL    HW129740   7.893   4.391   0.652 -2.5235  0.0032 -0.7578
 7798SOL    HW229741   7.928   4.245   0.628 -0.2477  0.2454  0.7982
 7799SOL     OW29742   6.810   0.817   7.988 -0.4470 -0.3226 -0.0502
 7799SOL    HW129743   6.743   0.758   8.024 -1.2735  1.0202  0.6877
 7799SOL    HW229744   6.833   0.874   8.061  0.8686 -0.1907 -0.5560
 7800SOL     OW29745   3.396   4.772   3.994 -0.3477 -0.1639  0.1317
 7800SOL    HW129746   3.361   4.697   3.947 -1.0017  0.7579 -0.8944
 7800SOL    HW229747   3.320   4.827   4.011  0.2412  0.6779  0.0957
 7801SOL     OW29748   1.210   7.167   0.070  0.1045  0.0703  0.5316
 7801SOL    HW129749   1.237   7.099   0.007  0.4547 -0.0055  0.7585
 7801SOL    HW229750   1.135   7.210   0.028  0.4123  0.1093  0.0027
 7802SOL     OW29751   2.394   6.670   7.514  0.3110 -0.5241 -0.6106
 7802SOL    HW129752   2.402   6.732   7.442 -0.2995  0.7005  0.3341
 7802SOL    HW229753   2.301   6.652   7.521  0.2588  0.0950  0.4468
 7803SOL     OW29754   6.465   1.727   2.161  0.0086  0.5664 -0.3123
 7803SOL    HW129755   6.505   1.721   2.247 -1.1169 -0.0380  0.1846
 7803SOL    HW229756   6.418   1.810   2.162 -1.2998 -0.1474  0.2554
 7804SOL     OW29757   2.195   3.588   6.644  0.1352  0.0573  0.1415
 7804SOL    HW129758   2.148   3.663   6.681  0.1459  1.2109 -2.0281
 7804SOL    HW229759   2.278   3.585   6.692 -0.3895  0.6241  1.1153
 7805SOL     OW29760   0.538   4.802   3.936  0.1474 -0.4661 -0.1494
 7805SOL    HW129761   0.509   4.760   3.855  1.8508 -0.1333 -0.9931
 7805SOL    HW229762   0.490   4.757   4.005 -1.8490 -0.3294 -1.3573
 7806SOL     OW29763   2.683   4.535   7.141  0.2230  0.4957  0.2567
 7806SOL    HW129764   2.634   4.616   7.157  1.0997  1.0131  0.4016
 7806SOL    HW229765   2.759   4.541   7.199  0.0169 -0.6935  0.6697
 7807SOL     OW29766   3.397   4.526   7.091 -0.0872 -0.4720  0.1612
 7807SOL    HW129767   3.427   4.470   7.162  0.0589 -0.6073 -0.0065
 7807SOL    HW229768   3.450   4.605   7.099  0.2705 -0.6821 -0.0903
 7808SOL     OW29769   5.620   0.315   0.822 -0.2316 -0.1337 -0.0796
 7808SOL    HW129770   5.703   0.339   0.863 -0.5448  0.3027  0.3147
 7808SOL    HW229771   5.616   0.220   0.831  1.2603 -0.4441 -2.1031
 7809SOL     OW29772   9.079   1.938   9.243 -0.0601 -0.3854  0.7979
 7809SOL    HW129773   9.052   2.027   9.220  1.3112  0.2817  1.6558
 7809SOL    HW229774   9.062   1.932   9.337 -1.0619 -1.3905  0.5700
 7810SOL     OW29775   4.056   1.318   5.442 -0.0179  0.5430  0.1967
 7810SOL    HW129776   4.095   1.240   5.404  1.0082  0.6960  0.8882
 7810SOL    HW229777   4.027   1.290   5.530  0.3428  0.9348  0.4406
 7811SOL     OW29778   5.177   6.682   7.711  0.3965 -0.3697  0.0873
 7811SOL    HW129779   5.267   6.662   7.688 -0.4486 -0.4083 -3.9545
 7811SOL    HW229780   5.127   6.605   7.684 -1.1381  0.8871 -0.9138
 7812SOL     OW29781   0.655   8.465   5.209 -0.3304 -0.1451 -0.3809
 7812SOL    HW129782   0.564   8.494   5.220 -0.6130 -1.4807  1.3168
 7812SOL    HW229783   0.704   8.512   5.277  0.2654  0.5341 -1.2588
 7813SOL     OW29784   7.831   7.819   2.962  0.0236 -0.1808  0.4056
 7813SOL    HW129785   7.854   7.843   2.873 -1.7378  2.4142  0.5455
 7813SOL    HW229786   7.752   7.765   2.953 -0.8546  1.0671  0.3901
 7814SOL     OW29787   8.832   6.829   0.747  0.1470  0.1248 -0.3490
 7814SOL    HW129788   8.842   6.887   0.822 -1.2058 -1.1785  0.9253
 7814SOL    HW229789   8.742   6.841   0.719 -0.9958 -2.8706  1.4404
 7815SOL     OW29790   1.865   2.604   8.981  0.0944  0.0057 -0.4308
 7815SOL    HW129791   1.892   2.544   9.050 -0.3117 -0.5891 -0.7835
 7815SOL    HW229792   1.898   2.690   9.010 -0.1939 -0.2080  0.5669
 7816SOL     OW29793   1.032   8.361   2.700 -0.7504 -0.6782  0.1083
 7816SOL    HW129794   1.040   8.285   2.758  0.3265 -1.0251 -0.4642
 7816SOL    HW229795   1.008   8.323   2.615 -3.9645 -0.0555  0.6207
 7817SOL     OW29796   8.704   2.246   3.214  0.3286 -0.0753 -0.2008
 7817SOL    HW129797   8.620   2.291   3.219 -0.9968 -2.4588  2.1850
 7817SOL    HW229798   8.756   2.282   3.286 -0.6170 -1.9225  1.5112
 7818SOL     OW29799   4.269   2.038   4.109  0.7617  0.0396  0.0029
 7818SOL    HW129800   4.296   2.081   4.190  1.5442  1.3193 -0.8856
 7818SOL    HW229801   4.263   1.946   4.131  2.3593  0.1677  1.1826
 7819SOL     OW29802   5.830   7.732   7.919 -0.1788 -0.2771  0.4491
 7819SOL    HW129803   5.787   7.655   7.880  0.9207 -0.9034  0.4431
 7819SOL    HW229804   5.923   7.711   7.917  0.3769  1.9576 -1.5591
 7820SOL     OW29805   6.124   3.236   4.433 -0.1289  0.2208 -0.1274
 7820SOL    HW129806   6.154   3.323   4.460  0.9577 -0.6724  1.7515
 7820SOL    HW229807   6.201   3.180   4.443 -1.2547 -1.2903  0.4565
 7821SOL     OW29808   7.927   4.419   7.950  0.1243  0.4478 -0.6615
 7821SOL    HW129809   7.909   4.490   8.013  0.6111 -0.5103  0.5935
 7821SOL    HW229810   7.919   4.461   7.864 -2.2265  1.4342 -0.0396
 7822SOL     OW29811   4.092   7.709   2.397  0.6280 -0.1665  0.5969
 7822SOL    HW129812   4.137   7.663   2.327 -0.3854 -0.7940  0.3376
 7822SOL    HW229813   4.068   7.793   2.360  1.5009  0.1405  0.7129
 7823SOL     OW29814   0.215   1.145   3.789 -0.5545  0.7306  0.2669
 7823SOL    HW129815   0.235   1.081   3.858  0.2759  0.6275 -0.0571
 7823SOL    HW229816   0.129   1.119   3.756 -0.1506 -0.3363  0.0196
 7824SOL     OW29817   0.331   2.724   2.404  0.2076 -0.3397  0.0177
 7824SOL    HW129818   0.351   2.759   2.317  1.0075  0.5178  0.5269
 7824SOL    HW229819   0.409   2.675   2.429  0.1877 -0.1556  0.4565
 7825SOL     OW29820   8.900   3.287   4.607 -0.1862 -0.1813 -0.1686
 7825SOL    HW129821   8.848   3.364   4.632 -0.3808 -0.6780  1.0112
 7825SOL    HW229822   8.922   3.302   4.515  0.6106  1.7639  0.2854
 7826SOL     OW29823   9.244   8.910   7.483  0.4092  0.0653  0.0865
 7826SOL    HW129824   9.184   8.888   7.554  0.6914 -0.4498  0.1733
 7826SOL    HW229825   9.328   8.926   7.526  0.4375  0.3603 -0.0747
 7827SOL     OW29826   1.769   0.096   1.808 -0.5703  0.0876 -0.2925
 7827SOL    HW129827   1.732   0.168   1.756 -0.8384 -0.2640 -0.5969
 7827SOL    HW229828   1.807   0.139   1.884  0.4750  0.6949 -1.1231
 7828SOL     OW29829   1.536   0.362   2.993  0.0687 -0.8478 -0.0324
 7828SOL    HW129830   1.474   0.301   2.953 -1.0652 -0.0079  0.3616
 7828SOL    HW229831   1.622   0.333   2.964 -0.5149 -2.0493 -0.6088
 7829SOL     OW29832   3.071   3.631   8.779  0.1788  0.1073  0.1829
 7829SOL    HW129833   3.102   3.600   8.694 -0.5937 -1.3325  0.3862
 7829SOL    HW229834   3.009   3.564   8.808  0.5420  0.4763  1.9589
 7830SOL     OW29835   8.738   3.355   1.079  0.8969 -0.2946  0.1075
 7830SOL    HW129836   8.734   3.268   1.039  1.3431  0.0650 -0.7501
 7830SOL    HW229837   8.786   3.408   1.015 -1.4902  1.2201 -0.5356
 7831SOL     OW29838   6.592   3.089   9.029  0.1169 -0.6126  0.0395
 7831SOL    HW129839   6.644   3.150   8.976  1.4555 -1.3901  0.4010
 7831SOL    HW229840   6.556   3.143   9.100  0.1424  0.0084 -0.4136
 7832SOL     OW29841   7.413   3.632   4.058 -0.4021  0.2695 -0.3158
 7832SOL    HW129842   7.354   3.566   4.093  0.2223 -1.1211 -1.7803
 7832SOL    HW229843   7.355   3.697   4.018 -0.9983  0.3173  0.5930
 7833SOL     OW29844   2.752   3.879   2.582 -0.4133  0.4027  0.1953
 7833SOL    HW129845   2.769   3.796   2.627 -0.2859  0.1061 -0.3887
 7833SOL    HW229846   2.679   3.918   2.631  0.1260  0.3915  1.0396
 7834SOL     OW29847   3.976   4.960   4.133  0.1249 -0.3802 -0.1776
 7834SOL    HW129848   3.890   4.999   4.116  0.2665  0.0998  0.1838
 7834SOL    HW229849   4.012   4.943   4.046  0.2185  0.6682 -0.3636
 7835SOL     OW29850   2.432   3.869   1.636  0.4285 -0.1791  0.6007
 7835SOL    HW129851   2.525   3.854   1.618 -0.0607 -0.9324 -1.5646
 7835SOL    HW229852   2.391   3.782   1.628 -0.6024  0.2988  0.4790
 7836SOL     OW29853   5.343   6.312   0.362 -0.1279 -0.1704  0.1353
 7836SOL    HW129854   5.400   6.375   0.407 -1.9093  2.5709 -1.1330
 7836SOL    HW229855   5.261   6.315   0.410 -1.3069  1.0818 -1.8234
 7837SOL     OW29856   1.194   7.078   0.714 -0.0377  0.2967 -0.1392
 7837SOL    HW129857   1.162   7.167   0.695  1.6870  0.8831 -0.4721
 7837SOL    HW229858   1.228   7.084   0.804 -1.8613 -0.6277  0.6521
 7838SOL     OW29859   1.078   0.893   1.844 -0.2208 -0.1908  0.2660
 7838SOL    HW129860   1.139   0.877   1.773 -0.2420 -1.0724  0.4381
 7838SOL    HW229861   1.095   0.823   1.907 -0.7971  0.0708  0.7230
 7839SOL     OW29862   3.831   8.117   0.011  0.6650  0.2526  0.6908
 7839SOL    HW129863   3.853   8.210   0.009 -1.6654  0.8655  0.8636
 7839SOL    HW229864   3.760   8.107  -0.052  0.7872 -1.3943  0.7674
 7840SOL     OW29865   6.079   3.263   1.432 -0.6898  0.0283  0.0100
 7840SOL    HW129866   5.993   3.239   1.466 -1.3855  0.2853 -1.4735
 7840SOL    HW229867   6.128   3.293   1.509 -1.6511 -0.8606  1.0026
 7841SOL     OW29868   4.607   6.430   6.166 -0.7062 -0.1725 -0.0259
 7841SOL    HW129869   4.568   6.348   6.195 -0.4562 -0.1736  0.3195
 7841SOL    HW229870   4.699   6.422   6.189 -0.0612 -0.9529 -2.4971
 7842SOL     OW29871   2.153   4.865   2.033 -0.5894  0.1902 -0.4088
 7842SOL    HW129872   2.098   4.791   2.058 -0.8342 -0.0381 -1.5531
 7842SOL    HW229873   2.096   4.920   1.980  0.1184  0.2432 -1.1317
 7843SOL     OW29874   6.454   7.671   0.590 -0.2219 -1.0544 -0.2986
 7843SOL    HW129875   6.459   7.655   0.496 -1.2713 -1.3288 -0.3251
 7843SOL    HW229876   6.486   7.590   0.630  0.1588 -0.9631 -0.4127
 7844SOL     OW29877   2.966   2.329   6.245  0.1796  0.0618 -0.2367
 7844SOL    HW129878   3.011   2.245   6.234 -0.4450 -0.0674 -2.2577
 7844SOL    HW229879   3.011   2.387   6.184 -0.9578  0.5125 -0.6700
 7845SOL     OW29880   1.216   3.746   1.442 -0.0949  0.4438 -0.1907
 7845SOL    HW129881   1.236   3.803   1.368 -0.0740  1.0401  0.2676
 7845SOL    HW229882   1.277   3.673   1.433 -1.6961 -0.7585 -2.1330
 7846SOL     OW29883   1.287   7.197   0.951 -0.3040 -0.3977 -0.3335
 7846SOL    HW129884   1.328   7.284   0.945 -0.4760 -0.3739 -1.4859
 7846SOL    HW229885   1.224   7.205   1.023  1.0169 -0.1526  0.8304
 7847SOL     OW29886   1.233   7.376   8.556 -0.0451  0.2091  0.4619
 7847SOL    HW129887   1.183   7.439   8.609  0.7226  0.6344  0.6890
 7847SOL    HW229888   1.279   7.430   8.492 -0.9033 -0.2922 -0.6154
 7848SOL     OW29889   0.114   3.338   4.315 -0.1952  0.2984  0.0904
 7848SOL    HW129890   0.157   3.298   4.390  0.3786  0.2194 -0.2811
 7848SOL    HW229891   0.032   3.290   4.306 -0.1714  0.1697  0.5349
 7849SOL     OW29892   5.421   7.525   5.814  0.1737  0.2586 -0.1351
 7849SOL    HW129893   5.455   7.564   5.895  1.3900 -0.8675 -0.0688
 7849SOL    HW229894   5.442   7.432   5.821  0.4185  0.1497 -1.7940
 7850SOL     OW29895   1.807   6.914   2.814 -0.3306  0.2970 -0.1872
 7850SOL    HW129896   1.735   6.904   2.877  0.0412 -0.5587  0.1243
 7850SOL    HW229897   1.793   7.000   2.775 -0.2451  1.1046  1.4780
 7851SOL     OW29898   7.888   2.539   0.148 -0.1534  0.1372 -0.5239
 7851SOL    HW129899   7.963   2.542   0.089 -0.1873  0.7837 -0.5335
 7851SOL    HW229900   7.825   2.482   0.103  0.7320 -1.2983 -0.0293
 7852SOL     OW29901   0.907   1.313   6.029 -0.7290 -0.3632  0.2523
 7852SOL    HW129902   0.989   1.269   6.007 -1.7073 -2.5205  0.6092
 7852SOL    HW229903   0.934   1.389   6.081  1.0071 -1.5302  1.1580
 7853SOL     OW29904   9.231   4.241   4.218 -0.0253  0.1233  0.5452
 7853SOL    HW129905   9.201   4.228   4.128 -1.9896 -0.7828  1.2974
 7853SOL    HW229906   9.214   4.334   4.235  1.5084  0.6219 -0.3682
 7854SOL     OW29907   6.770   4.783   6.719 -0.1290 -0.2159 -0.2240
 7854SOL    HW129908   6.746   4.709   6.663  1.6952 -3.0232  2.4089
 7854SOL    HW229909   6.846   4.822   6.675 -1.3770  0.4948 -1.8726
 7855SOL     OW29910   8.169   6.207   5.473  0.2182  0.2950  0.0243
 7855SOL    HW129911   8.249   6.229   5.521  0.4353 -0.4672  0.0235
 7855SOL    HW229912   8.201   6.164   5.393 -0.2126 -1.0318  0.5466
 7856SOL     OW29913   3.016   4.332   2.294 -0.2452  0.0787  0.2343
 7856SOL    HW129914   2.942   4.273   2.286  0.9627 -1.2951 -1.9452
 7856SOL    HW229915   2.992   4.409   2.243 -1.3745  1.0598  2.1554
 7857SOL     OW29916   4.062   8.363   8.829  0.4082  0.3223 -0.0527
 7857SOL    HW129917   4.114   8.313   8.892  0.0457  1.5462  1.2769
 7857SOL    HW229918   3.971   8.338   8.847  0.3706 -0.3441 -1.0529
 7858SOL     OW29919   0.300   0.923   8.855 -0.1870  0.4400  0.7168
 7858SOL    HW129920   0.333   0.965   8.935  0.2943  1.1220  0.1830
 7858SOL    HW229921   0.374   0.929   8.794  0.3578 -2.3229  0.9765
 7859SOL     OW29922   1.996   8.286   8.659 -0.9260  0.0989  0.0680
 7859SOL    HW129923   2.032   8.371   8.632  0.0332 -0.4495 -0.4077
 7859SOL    HW229924   1.934   8.263   8.589 -0.1031 -0.2690 -0.5487
 7860SOL     OW29925   8.632   5.133   0.475  0.4942 -0.2489 -0.4019
 7860SOL    HW129926   8.587   5.217   0.462  0.0300 -0.4891 -0.3426
 7860SOL    HW229927   8.719   5.147   0.438  0.2688  0.1183 -0.7952
 7861SOL     OW29928   6.735   8.471   4.698 -0.7603 -0.1421 -0.3221
 7861SOL    HW129929   6.699   8.478   4.787  0.9403  0.7746  0.3426
 7861SOL    HW229930   6.662   8.437   4.646 -1.7947 -0.7701  1.4224
 7862SOL     OW29931   9.031   0.803   2.721 -0.1329  0.2577  0.0274
 7862SOL    HW129932   8.983   0.885   2.733 -0.5214 -0.2186  2.2114
 7862SOL    HW229933   8.963   0.735   2.725  0.5745 -0.4246  3.1019
 7863SOL     OW29934   8.849   1.499   7.297  0.0032  0.0570  0.2183
 7863SOL    HW129935   8.866   1.447   7.218  2.8741 -1.2982  1.5664
 7863SOL    HW229936   8.893   1.582   7.281 -0.4052  0.2316 -0.0237
 7864SOL     OW29937   2.766   2.514   6.331 -0.4788  0.6839  0.5403
 7864SOL    HW129938   2.814   2.434   6.312  1.3073  1.6827  0.6991
 7864SOL    HW229939   2.715   2.530   6.252  0.4322  0.2875 -0.1471
 7865SOL     OW29940   2.585   2.600   7.968  0.1805  0.0404 -0.4406
 7865SOL    HW129941   2.493   2.609   7.944  0.0914 -0.5120 -0.3187
 7865SOL    HW229942   2.631   2.587   7.884  0.1803  0.5383 -0.5216
 7866SOL     OW29943   1.483   6.537   0.807 -0.5517 -0.1070 -0.0947
 7866SOL    HW129944   1.543   6.480   0.760 -0.6159  0.4026 -0.8137
 7866SOL    HW229945   1.539   6.597   0.855 -0.4190  1.3984 -2.0069
 7867SOL     OW29946   0.820   0.960   4.931 -0.6364 -0.2930  0.0300
 7867SOL    HW129947   0.848   0.872   4.955  0.5806 -0.0628 -0.4658
 7867SOL    HW229948   0.897   1.015   4.944 -0.9632  0.4534 -1.0021
 7868SOL     OW29949   2.777   6.038   7.552  0.2966 -0.1799  0.1847
 7868SOL    HW129950   2.718   6.066   7.621  1.9070  1.4039  1.0203
 7868SOL    HW229951   2.729   5.971   7.504 -2.3148  1.3151  0.5271
 7869SOL     OW29952   2.611   6.517   8.847  0.6718  0.6821 -0.0795
 7869SOL    HW129953   2.628   6.433   8.891 -1.4628 -0.8272 -1.8765
 7869SOL    HW229954   2.686   6.529   8.789  1.5647  0.6507  1.0318
 7870SOL     OW29955   6.091   3.721   6.886  0.4849 -0.0171 -0.2248
 7870SOL    HW129956   6.163   3.695   6.830  2.0975  1.8586  0.8668
 7870SOL    HW229957   6.119   3.698   6.975 -1.4902 -1.8031  0.0303
 7871SOL     OW29958   3.063   2.271   3.098 -0.2274  0.2317  0.7193
 7871SOL    HW129959   2.974   2.237   3.087 -1.3560  2.7789  1.2670
 7871SOL    HW229960   3.057   2.330   3.173  2.2468 -0.3721  1.5083
 7872SOL     OW29961   2.832   1.600   0.494 -0.0511 -0.2937 -0.2919
 7872SOL    HW129962   2.926   1.597   0.515 -0.0195 -0.4618 -0.4535
 7872SOL    HW229963   2.791   1.631   0.575  0.1159 -0.5050 -0.1223
 7873SOL     OW29964   3.270   6.694   7.500  0.0090  0.2328  0.3123
 7873SOL    HW129965   3.219   6.627   7.545 -1.1229  1.5806  1.0971
 7873SOL    HW229966   3.292   6.654   7.415 -1.8181 -0.6380  0.2005
 7874SOL     OW29967   8.944   2.893   5.586  0.3731  0.3519  0.4913
 7874SOL    HW129968   8.921   2.838   5.511  2.3188  0.7524 -0.4445
 7874SOL    HW229969   8.926   2.839   5.662  0.9923 -1.1099 -0.3639
 7875SOL     OW29970   1.101   6.362   7.904  0.5804 -0.3346 -0.5687
 7875SOL    HW129971   1.020   6.326   7.866  0.3490 -0.5426  0.1192
 7875SOL    HW229972   1.124   6.301   7.974  0.9689  0.0868 -0.3282
 7876SOL     OW29973   6.082   3.874   4.538 -0.3956 -0.5595  0.6010
 7876SOL    HW129974   6.094   3.780   4.552 -1.1482 -1.1518 -2.2416
 7876SOL    HW229975   6.064   3.883   4.445  2.6124  2.7332  0.1340
 7877SOL     OW29976   6.390   7.307   1.048 -0.7039  0.1403 -0.3593
 7877SOL    HW129977   6.350   7.288   1.133 -0.2878 -0.5175 -0.3003
 7877SOL    HW229978   6.416   7.398   1.054 -1.6007  0.3968 -0.1608
 7878SOL     OW29979   1.898   2.991   2.931  0.3375  0.4391 -0.3449
 7878SOL    HW129980   1.975   3.048   2.933  1.2047 -0.7009  0.5940
 7878SOL    HW229981   1.841   3.025   3.001  1.2784 -0.3619  0.8583
 7879SOL     OW29982   3.448   8.938   4.266 -0.5275 -0.4936 -0.1619
 7879SOL    HW129983   3.505   8.987   4.325 -0.2327 -0.2430 -0.6494
 7879SOL    HW229984   3.362   8.978   4.277 -0.2987  0.1193 -0.5300
 7880SOL     OW29985   8.418   7.333   8.064  0.4886  0.1895  0.5068
 7880SOL    HW129986   8.460   7.247   8.059  0.0403 -0.0650  1.0246
 7880SOL    HW229987   8.488   7.394   8.041  0.7608 -0.3190 -0.0537
 7881SOL     OW29988   1.631   7.326   4.812 -0.1206  0.1180  0.1568
 7881SOL    HW129989   1.709   7.360   4.855  0.2289  0.8112 -0.9678
 7881SOL    HW229990   1.560   7.342   4.874  0.7324 -1.3798  1.5987
 7882SOL     OW29991   6.805   0.759   6.744 -0.0952 -0.7681 -0.5366
 7882SOL    HW129992   6.721   0.761   6.698 -0.5577 -0.3802  0.3034
 7882SOL    HW229993   6.838   0.848   6.736  0.1488 -0.8722 -0.6953
 7883SOL     OW29994   2.231   1.343   0.047  0.8625  0.7559 -0.1471
 7883SOL    HW129995   2.289   1.332   0.123 -0.2207  2.1105  0.9358
 7883SOL    HW229996   2.289   1.372  -0.023  1.8833 -0.4837  0.1403
 7884SOL     OW29997   2.347   7.070   1.100 -0.3424  0.1968 -0.6746
 7884SOL    HW129998   2.271   7.117   1.065 -0.4008 -0.0476 -0.8781
 7884SOL    HW229999   2.313   7.027   1.179 -0.6705 -0.7004 -1.2884
 7885SOL     OW30000   8.919   6.177   7.009 -0.2653 -0.0950  0.0051
 7885SOL    HW130001   8.828   6.198   7.032  0.1160  1.8272 -0.0600
 7885SOL    HW230002   8.965   6.261   7.017  1.5547 -1.0773  0.2332
 7886SOL     OW30003   8.220   2.068   5.361 -0.0716 -0.0284  0.2852
 7886SOL    HW130004   8.206   2.075   5.266  0.4883  0.0186  0.2016
 7886SOL    HW230005   8.306   2.028   5.369 -0.1103 -0.0120  0.7785
 7887SOL     OW30006   4.766   5.204   6.216 -0.7281  0.2292 -0.5307
 7887SOL    HW130007   4.784   5.258   6.140  0.6440 -1.3793 -1.4286
 7887SOL    HW230008   4.851   5.193   6.259 -1.4857  1.1977  1.3452
 7888SOL     OW30009   5.217   8.138   9.081 -0.0127  0.3578  0.5170
 7888SOL    HW130010   5.260   8.158   8.998 -2.2616  1.0606 -0.5471
 7888SOL    HW230011   5.259   8.197   9.144  1.3827  0.1628 -0.1766
 7889SOL     OW30012   2.449   8.677   4.072  0.3089  0.1157  0.1211
 7889SOL    HW130013   2.525   8.696   4.127 -0.2688 -0.4090  1.1389
 7889SOL    HW230014   2.376   8.720   4.117 -0.1162  0.0246 -0.4666
 7890SOL     OW30015   7.763   0.133   8.220  0.2139 -0.0871  0.1264
 7890SOL    HW130016   7.805   0.188   8.154  0.1491 -0.7443 -0.4674
 7890SOL    HW230017   7.816   0.054   8.223 -0.5763 -0.6442 -0.1460
 7891SOL     OW30018   7.206   7.347   6.534  0.0422 -0.1815 -0.3329
 7891SOL    HW130019   7.216   7.407   6.460 -0.9664 -1.8003 -1.8686
 7891SOL    HW230020   7.211   7.403   6.611  0.6404  1.6472 -1.6290
 7892SOL     OW30021   1.313   5.163   6.125 -0.3968 -0.7097  0.5195
 7892SOL    HW130022   1.289   5.246   6.084  1.6470 -1.0683 -1.5623
 7892SOL    HW230023   1.385   5.185   6.184 -0.7028 -0.8214  0.9401
 7893SOL     OW30024   2.239   1.212   3.305 -0.1501  0.9906 -0.1009
 7893SOL    HW130025   2.208   1.287   3.253 -0.6102  0.2861 -0.8693
 7893SOL    HW230026   2.194   1.137   3.267  1.4187  0.1183 -0.3181
 7894SOL     OW30027   8.570   7.151   4.971  0.4546 -0.0692 -0.2756
 7894SOL    HW130028   8.636   7.082   4.967  0.3444 -0.1949 -3.8413
 7894SOL    HW230029   8.619   7.232   4.957  0.1455  0.0759 -0.5499
 7895SOL     OW30030   5.265   0.914   3.874  0.4039  0.2672 -0.2740
 7895SOL    HW130031   5.180   0.943   3.842 -1.0448 -3.6254 -0.4537
 7895SOL    HW230032   5.268   0.945   3.964 -0.7716  1.2384 -0.5352
 7896SOL     OW30033   7.055   3.256   7.711 -0.2146  0.4879 -0.0506
 7896SOL    HW130034   6.979   3.207   7.677  0.5487  0.0443 -1.1902
 7896SOL    HW230035   7.129   3.222   7.661  0.7100  1.0677  0.8988
 7897SOL     OW30036   3.943   5.919   5.688  0.1778  0.1353  0.7118
 7897SOL    HW130037   3.984   5.847   5.641  1.3312  0.9031  0.5058
 7897SOL    HW230038   3.852   5.892   5.698  0.2435 -0.6922 -0.6569
 7898SOL     OW30039   0.588   0.621   7.656 -0.2424 -0.4861  0.1654
 7898SOL    HW130040   0.659   0.686   7.653  0.9107 -1.6803  0.4497
 7898SOL    HW230041   0.562   0.619   7.748  0.9124 -1.6180  0.4959
 7899SOL     OW30042   1.936   7.229   1.613  0.4754  0.1121  0.1452
 7899SOL    HW130043   1.911   7.136   1.605  1.8317 -0.4081  1.4343
 7899SOL    HW230044   1.945   7.243   1.707 -0.2178  1.7337  0.0068
 7900SOL     OW30045   1.985   3.125   6.453  0.3352  0.1903 -0.2420
 7900SOL    HW130046   1.952   3.185   6.386  3.2885  0.1000 -1.9538
 7900SOL    HW230047   2.031   3.181   6.515  0.1762 -0.0112  0.0619
 7901SOL     OW30048   2.935   4.757   2.358  0.4638 -0.5553 -0.0928
 7901SOL    HW130049   2.983   4.773   2.276  0.8382 -0.5468  0.1225
 7901SOL    HW230050   3.003   4.725   2.418  0.6670  1.6492  0.9303
 7902SOL     OW30051   3.773   0.466   1.380  0.5745 -0.0250  0.2692
 7902SOL    HW130052   3.849   0.513   1.414  2.0101 -1.0911 -1.3097
 7902SOL    HW230053   3.779   0.477   1.285  0.1609 -2.2056 -0.0499
 7903SOL     OW30054   5.608   1.127   0.161 -0.2202  0.2442 -0.4284
 7903SOL    HW130055   5.661   1.203   0.183  1.5963 -1.1642  0.3622
 7903SOL    HW230056   5.662   1.077   0.100 -0.9679 -0.8595 -0.2226
 7904SOL     OW30057   5.266   5.430   1.052 -0.3398 -0.1548  0.2733
 7904SOL    HW130058   5.172   5.418   1.039 -0.3297  1.7791 -2.7299
 7904SOL    HW230059   5.287   5.509   1.003  2.5507  0.7113  2.6046
 7905SOL     OW30060   0.912   6.095   2.632  0.2693 -0.0519 -0.2511
 7905SOL    HW130061   0.983   6.042   2.667  0.9378 -0.3371 -1.9235
 7905SOL    HW230062   0.853   6.032   2.591 -1.3305  0.1184  1.6233
 7906SOL     OW30063   9.072   8.400   3.723 -0.2365 -0.0797  0.1648
 7906SOL    HW130064   9.099   8.414   3.633  0.0741 -0.7048  0.1584
 7906SOL    HW230065   9.128   8.459   3.774  0.2201 -0.3985  0.0310
 7907SOL     OW30066   3.920   4.978   0.240  0.1265  0.5233  0.0411
 7907SOL    HW130067   3.943   4.899   0.191  0.1052 -0.2021  1.1626
 7907SOL    HW230068   3.920   4.950   0.331 -1.0213  1.5435  0.3776
 7908SOL     OW30069   4.163   3.006   2.824 -0.2048  0.2308  0.4140
 7908SOL    HW130070   4.134   2.918   2.847  1.3899  0.0338  1.8714
 7908SOL    HW230071   4.118   3.063   2.886 -0.0258  0.2786  0.4987
 7909SOL     OW30072   5.618   3.279   0.625  0.6656 -0.1067  0.0335
 7909SOL    HW130073   5.663   3.348   0.674 -0.5477 -0.1297  1.2336
 7909SOL    HW230074   5.564   3.326   0.562  0.5808  0.0071  0.1903
 7910SOL     OW30075   1.546   2.399   4.838 -0.8284 -0.4107  0.1749
 7910SOL    HW130076   1.462   2.397   4.793 -1.2501 -2.5741  0.9299
 7910SOL    HW230077   1.527   2.437   4.924 -0.2265  2.6989 -0.9393
 7911SOL     OW30078   4.621   6.633   7.080 -0.1308 -0.1939 -0.1723
 7911SOL    HW130079   4.616   6.662   7.171  0.2045 -0.1177 -0.1764
 7911SOL    HW230080   4.530   6.636   7.049 -0.2757 -0.4339  0.2242
 7912SOL     OW30081   5.915   1.681   2.418 -0.5371 -0.1435  0.1625
 7912SOL    HW130082   5.857   1.628   2.472 -0.9406 -0.5096 -0.6181
 7912SOL    HW230083   5.858   1.722   2.353  0.0812 -0.6190 -0.7061
 7913SOL     OW30084   6.123   3.630   7.137  0.2556  0.0360  0.1420
 7913SOL    HW130085   6.065   3.671   7.201  0.8167  1.2346 -0.0708
 7913SOL    HW230086   6.134   3.540   7.168 -3.0123 -0.7991 -0.7104
 7914SOL     OW30087   4.537   4.290   9.098  0.0649  0.0899  0.4560
 7914SOL    HW130088   4.604   4.223   9.107  0.9386  0.9352  0.4510
 7914SOL    HW230089   4.571   4.350   9.032 -1.6605 -0.5738 -1.1140
 7915SOL     OW30090   6.139   0.412   1.576  0.8830 -0.3567 -0.6106
 7915SOL    HW130091   6.086   0.449   1.505 -1.2178  1.9689  1.9897
 7915SOL    HW230092   6.079   0.404   1.650  2.9920 -2.6120  1.0401
 7916SOL     OW30093   7.193   3.922   0.293  0.4537 -0.0258 -0.1401
 7916SOL    HW130094   7.114   3.911   0.346 -1.4156  0.5586 -2.6208
 7916SOL    HW230095   7.263   3.936   0.357 -1.4391 -0.4384  2.1642
 7917SOL     OW30096   2.961   8.450   0.172  0.3760  0.0249 -0.4809
 7917SOL    HW130097   2.992   8.363   0.147 -0.5417 -0.8331  1.1767
 7917SOL    HW230098   2.867   8.438   0.190  0.2109  1.3894 -0.2998
 7918SOL     OW30099   5.284   3.000   5.604 -0.0021  0.0942 -0.1334
 7918SOL    HW130100   5.211   3.051   5.569  1.1470  2.4854  0.7064
 7918SOL    HW230101   5.362   3.046   5.573  1.1653 -1.9559 -0.3944
 7919SOL     OW30102   1.413   7.045   0.475 -0.3523  0.2846 -0.0759
 7919SOL    HW130103   1.426   7.097   0.554 -1.7217  1.1396 -0.3883
 7919SOL    HW230104   1.332   7.078   0.437 -0.0311 -0.5171 -1.5335
 7920SOL     OW30105   4.586   5.828   3.085  0.0020 -0.0542 -0.7304
 7920SOL    HW130106   4.627   5.884   3.020  0.5332  0.3563 -0.0591
 7920SOL    HW230107   4.573   5.885   3.161 -1.8943 -0.1552 -0.9341
 7921SOL     OW30108   2.318   1.626   6.422 -0.1644  0.6721 -0.0939
 7921SOL    HW130109   2.266   1.555   6.460 -1.7220  2.1068  0.5779
 7921SOL    HW230110   2.392   1.636   6.482 -0.7471  0.5948  0.6524
 7922SOL     OW30111   3.422   0.997   5.768 -0.0381  0.1886  0.5929
 7922SOL    HW130112   3.393   1.031   5.684 -2.1135 -0.7544  0.8735
 7922SOL    HW230113   3.370   0.917   5.781  1.7314 -0.8406  1.8183
 7923SOL     OW30114   6.362   0.924   7.029 -0.1556 -0.2441 -0.6184
 7923SOL    HW130115   6.362   0.986   7.102 -0.0892 -0.4554 -0.4384
 7923SOL    HW230116   6.455   0.912   7.008 -0.0500 -1.7398  0.5893
 7924SOL     OW30117   5.864   1.031   0.012  0.2494 -0.2091 -0.2904
 7924SOL    HW130118   5.914   1.102   0.051  0.5031 -0.4932 -0.0960
 7924SOL    HW230119   5.923   0.955   0.014  1.0519  0.2391 -3.0559
 7925SOL     OW30120   5.837   2.648   1.517 -0.6537  0.6154 -0.2919
 7925SOL    HW130121   5.754   2.687   1.489 -1.1576 -0.4201 -0.2985
 7925SOL    HW230122   5.829   2.556   1.493  0.9872  0.7183 -1.3788
 7926SOL     OW30123   1.871   7.136   4.758 -0.2583  0.8144  0.2570
 7926SOL    HW130124   1.814   7.202   4.799 -1.3615  0.4696 -0.6710
 7926SOL    HW230125   1.894   7.078   4.830  0.0513  1.7261  0.9237
 7927SOL     OW30126   4.541   1.860   4.811 -0.4836  0.3699  0.0790
 7927SOL    HW130127   4.595   1.788   4.778 -0.2984  0.5223  0.0476
 7927SOL    HW230128   4.600   1.913   4.864 -0.8219  0.0333  0.7994
 7928SOL     OW30129   6.310   3.043   5.307  0.0017 -0.0018 -0.0254
 7928SOL    HW130130   6.245   3.111   5.322  0.3557  0.2810  0.2440
 7928SOL    HW230131   6.329   3.008   5.394  3.5045  2.9586  0.6460
 7929SOL     OW30132   7.615   7.696   2.589 -0.2722  0.6554  0.2080
 7929SOL    HW130133   7.599   7.759   2.659  1.3672  1.0521  0.2743
 7929SOL    HW230134   7.597   7.611   2.629 -2.2457  1.0393  0.1918
 7930SOL     OW30135   7.349   7.838   9.088 -0.2929 -0.1414  0.0354
 7930SOL    HW130136   7.315   7.749   9.094 -0.0924 -0.4615 -2.4795
 7930SOL    HW230137   7.329   7.866   8.998  1.5053  1.5523  0.0838
 7931SOL     OW30138   7.770   2.177   0.007 -0.5476  0.5189  0.3289
 7931SOL    HW130139   7.813   2.102   0.050  0.3941  1.4144  1.0004
 7931SOL    HW230140   7.837   2.211  -0.053 -0.7368  1.2203  0.5180
 7932SOL     OW30141   1.301   6.139   8.153  0.1071 -0.1574  0.1083
 7932SOL    HW130142   1.357   6.216   8.169 -0.1320 -0.0998  0.6724
 7932SOL    HW230143   1.212   6.174   8.155  0.0324 -0.2959 -0.5416
 7933SOL     OW30144   8.532   1.624   0.724 -0.4917 -0.0650 -0.3130
 7933SOL    HW130145   8.555   1.554   0.785  0.7235 -0.4881 -1.2349
 7933SOL    HW230146   8.498   1.693   0.781  0.3329 -0.5588  0.8393
 7934SOL     OW30147   1.485   8.720   8.601  0.6920 -0.4671 -0.3848
 7934SOL    HW130148   1.528   8.693   8.682  0.9236  2.0869  0.4283
 7934SOL    HW230149   1.392   8.702   8.616  0.6141  0.7785  0.8709
 7935SOL     OW30150   8.254   3.241   8.491 -0.2729  0.2541  0.2705
 7935SOL    HW130151   8.211   3.207   8.570  0.7401  0.2532  0.8362
 7935SOL    HW230152   8.341   3.267   8.520 -0.5179  2.0404 -0.4540
 7936SOL     OW30153   4.055   4.347   6.197  0.9048 -0.0592 -0.0877
 7936SOL    HW130154   3.965   4.376   6.210  0.7300 -1.1842  1.5077
 7936SOL    HW230155   4.080   4.383   6.112 -1.1772 -0.0798 -0.7599
 7937SOL     OW30156   3.643   4.560   7.492 -0.5553 -0.0006  0.3503
 7937SOL    HW130157   3.626   4.497   7.422  1.7831 -1.7851  1.2557
 7937SOL    HW230158   3.600   4.523   7.569 -0.5805  0.3807  0.5237
 7938SOL     OW30159   6.008   8.569   2.440 -0.9631  0.5064 -0.1850
 7938SOL    HW130160   5.975   8.559   2.529  0.0727  2.5947  0.5184
 7938SOL    HW230161   5.930   8.568   2.384 -1.5432 -1.9205  0.5815
 7939SOL     OW30162   3.808   0.664   7.599 -0.3063  0.3424 -0.0980
 7939SOL    HW130163   3.897   0.676   7.633 -0.3980  0.8549 -0.0227
 7939SOL    HW230164   3.768   0.601   7.659 -0.8012  2.0058  1.4304
 7940SOL     OW30165   2.015   1.077   8.886 -0.3438  0.4454 -0.2489
 7940SOL    HW130166   1.976   1.156   8.847 -1.4517  0.6610  1.1765
 7940SOL    HW230167   2.045   1.026   8.812  0.5779  2.2844 -1.2239
 7941SOL     OW30168   8.507   0.201   4.706  0.0166 -0.1154  0.2168
 7941SOL    HW130169   8.514   0.276   4.648  3.2530 -1.7197 -1.7378
 7941SOL    HW230170   8.430   0.154   4.675 -0.0627  0.6464 -0.7845
 7942SOL     OW30171   9.101   3.930   1.095 -0.1005  0.7814  0.5693
 7942SOL    HW130172   9.174   3.891   1.046 -1.4519  0.6431 -1.4966
 7942SOL    HW230173   9.138   4.007   1.137  1.7683 -0.6313  1.6281
 7943SOL     OW30174   2.270   7.749   7.677  0.5717  0.0181 -0.0514
 7943SOL    HW130175   2.211   7.682   7.709 -1.0473  1.1328 -0.5653
 7943SOL    HW230176   2.342   7.750   7.740  0.3787 -1.7875  0.2578
 7944SOL     OW30177   0.430   7.752   6.555  0.4081 -0.1504  0.1281
 7944SOL    HW130178   0.344   7.755   6.596  1.1128  0.9306  1.5869
 7944SOL    HW230179   0.437   7.663   6.520  0.3252 -1.6623  3.6158
 7945SOL     OW30180   3.197   3.857   1.748 -0.9922  0.4089  0.2111
 7945SOL    HW130181   3.136   3.783   1.748 -0.0415 -0.4656 -1.6806
 7945SOL    HW230182   3.147   3.928   1.707 -1.5607  0.4913  1.0346
 7946SOL     OW30183   4.721   4.534   8.230  0.3790 -0.2440 -0.6062
 7946SOL    HW130184   4.740   4.441   8.215 -0.9963 -0.1862 -3.2194
 7946SOL    HW230185   4.632   4.535   8.265  0.6784  0.0815  0.1723
 7947SOL     OW30186   9.091   4.854   7.009 -0.1137 -0.2746 -0.1138
 7947SOL    HW130187   9.099   4.759   7.003  0.1062 -0.2858  0.3445
 7947SOL    HW230188   9.053   4.880   6.925 -0.3340 -0.7818 -0.1751
 7948SOL     OW30189   7.863   1.432   7.099  0.5622  0.2328  0.0403
 7948SOL    HW130190   7.779   1.424   7.144 -0.3576  0.1577 -1.6158
 7948SOL    HW230191   7.912   1.497   7.151 -1.3281  1.8674 -0.1048
 7949SOL     OW30192   8.930   8.000   6.051 -0.6486 -0.3311  0.2203
 7949SOL    HW130193   8.896   7.945   6.122 -1.3218  0.9365  0.9187
 7949SOL    HW230194   8.933   8.088   6.088 -1.1585  0.3984 -1.3707
 7950SOL     OW30195   5.918   6.359   7.784  0.1709  0.1923  0.1740
 7950SOL    HW130196   5.943   6.353   7.692 -0.3919 -1.1208  0.0833
 7950SOL    HW230197   5.999   6.340   7.832  0.1098 -0.7462 -0.0777
 7951SOL     OW30198   7.428   6.293   5.402  0.2006  0.6396  0.0003
 7951SOL    HW130199   7.452   6.310   5.311  2.3650  0.3544  0.4850
 7951SOL    HW230200   7.510   6.269   5.445 -1.0496 -0.9478  1.6478
 7952SOL     OW30201   1.693   2.092   8.227 -0.2192 -0.5883 -0.2527
 7952SOL    HW130202   1.667   2.112   8.317 -1.3359 -0.0813 -0.6645
 7952SOL    HW230203   1.683   2.176   8.181 -1.2809 -1.2104 -1.1971
 7953SOL     OW30204   6.610   7.481   8.400  0.5076 -0.4260  0.1431
 7953SOL    HW130205   6.692   7.437   8.379  1.6447  1.3833  0.5807
 7953SOL    HW230206   6.615   7.498   8.494 -0.2753 -0.1309  0.1371
 7954SOL     OW30207   1.878   7.621   1.808  0.2830 -0.2220 -0.1135
 7954SOL    HW130208   1.809   7.554   1.803 -0.4733  0.5709 -0.8698
 7954SOL    HW230209   1.957   7.577   1.780  0.3962 -1.5155  2.0372
 7955SOL     OW30210   8.439   8.894   1.398  0.0667  0.2555 -0.1117
 7955SOL    HW130211   8.466   8.907   1.307 -0.0010 -0.7280 -0.2818
 7955SOL    HW230212   8.346   8.915   1.398  0.2100  0.9167 -0.1183
 7956SOL     OW30213   7.423   2.092   0.612 -0.0884  0.5641 -0.3918
 7956SOL    HW130214   7.497   2.128   0.563 -0.4428  1.5833 -0.2003
 7956SOL    HW230215   7.404   2.158   0.678  1.0433 -1.2016  1.8573
 7957SOL     OW30216   1.212   7.817   6.906  0.0979  0.1287  0.1532
 7957SOL    HW130217   1.280   7.880   6.928  0.9340  0.0839 -2.0019
 7957SOL    HW230218   1.143   7.870   6.865  1.1525 -0.3306 -2.4106
 7958SOL     OW30219   1.259   8.481   3.557 -0.1639 -0.3953  0.4485
 7958SOL    HW130220   1.214   8.553   3.602  0.2914 -1.0323  2.0007
 7958SOL    HW230221   1.221   8.481   3.469 -1.6988  0.4071  1.0598
 7959SOL     OW30222   3.157   3.042   7.843 -0.0703 -0.0776  0.2716
 7959SOL    HW130223   3.141   3.066   7.934 -0.0923 -0.3516  0.3410
 7959SOL    HW230224   3.136   2.949   7.839  0.2307 -0.1386  0.0579
 7960SOL     OW30225   3.412   3.285   7.882 -0.2920 -0.5075 -0.3714
 7960SOL    HW130226   3.324   3.312   7.857  0.0648  0.0758 -1.0560
 7960SOL    HW230227   3.426   3.324   7.968 -1.1822 -1.7220  0.3455
 7961SOL     OW30228   7.479   0.699   1.371 -0.1716  0.3249  0.0415
 7961SOL    HW130229   7.490   0.627   1.432 -2.2559  0.7428  0.9881
 7961SOL    HW230230   7.555   0.755   1.386  1.5749 -1.6658 -0.8202
 7962SOL     OW30231   7.640   4.714   7.551  0.0397  0.6547 -0.0703
 7962SOL    HW130232   7.690   4.734   7.472  1.8630 -0.6542  0.6970
 7962SOL    HW230233   7.593   4.633   7.530  1.2819 -0.2389  0.4478
 7963SOL     OW30234   3.704   3.889   6.354 -0.2840  0.0537 -0.0251
 7963SOL    HW130235   3.674   3.945   6.426 -1.1093  0.1163 -0.4077
 7963SOL    HW230236   3.799   3.879   6.369 -0.4798 -0.1348  1.2021
 7964SOL     OW30237   3.581   3.713   6.725  0.1015  0.2615 -0.1508
 7964SOL    HW130238   3.530   3.645   6.680 -0.9742  0.5194  0.6391
 7964SOL    HW230239   3.565   3.793   6.674 -1.6914  0.7111  1.0077
 7965SOL     OW30240   2.596   0.641   9.066  0.0923  0.6746 -0.1189
 7965SOL    HW130241   2.675   0.605   9.106 -1.0059 -1.2616  0.4451
 7965SOL    HW230242   2.563   0.705   9.130  1.1085  1.3934 -0.3005
 7966SOL     OW30243   3.098   2.697   7.446 -0.3189  0.1380  0.0931
 7966SOL    HW130244   3.134   2.753   7.514 -0.4042  0.6270 -0.2551
 7966SOL    HW230245   3.003   2.706   7.456 -0.3322  0.0722  0.0246
 7967SOL     OW30246   6.640   2.029   0.129  0.2892  0.0173 -0.1153
 7967SOL    HW130247   6.709   1.964   0.142 -0.2309 -0.4527  0.3718
 7967SOL    HW230248   6.671   2.107   0.173 -0.8778 -1.1574  3.0602
 7968SOL     OW30249   0.397   8.860   8.776 -0.2827 -0.5588  0.1396
 7968SOL    HW130250   0.490   8.837   8.779 -0.6557 -2.2041  0.2476
 7968SOL    HW230251   0.367   8.823   8.693 -0.8225  0.0573  0.0567
 7969SOL     OW30252   6.144   3.685   3.638  0.7653 -0.4525 -0.1255
 7969SOL    HW130253   6.055   3.651   3.642  0.6552 -0.2643 -0.8902
 7969SOL    HW230254   6.164   3.708   3.729 -0.3806  0.5446 -0.0952
 7970SOL     OW30255   9.164   7.247   5.740 -0.2666  0.0647  0.7672
 7970SOL    HW130256   9.107   7.178   5.772 -0.9264 -0.0951 -0.6587
 7970SOL    HW230257   9.232   7.201   5.690 -0.4796  0.3962  0.1535
 7971SOL     OW30258   4.784   1.118   8.775  0.1699 -0.3337 -0.1637
 7971SOL    HW130259   4.696   1.127   8.738 -0.1227 -0.1909  0.5566
 7971SOL    HW230260   4.774   1.141   8.867  1.3236  1.5625 -0.4504
 7972SOL     OW30261   3.564   3.591   5.415 -0.1197  0.5753  0.0752
 7972SOL    HW130262   3.558   3.685   5.433 -0.8632  0.2606  1.6522
 7972SOL    HW230263   3.655   3.569   5.432 -0.2026  0.8125  0.8840
 7973SOL     OW30264   1.911   7.378   6.530  0.1166  0.0202 -0.3067
 7973SOL    HW130265   1.959   7.437   6.473 -1.4499 -0.7176 -2.5593
 7973SOL    HW230266   1.967   7.300   6.537 -0.7769 -1.0506 -3.3358
 7974SOL     OW30267   7.936   1.182   7.902 -0.0359  0.2198 -0.0797
 7974SOL    HW130268   7.918   1.265   7.944 -0.0858 -0.4765  1.3216
 7974SOL    HW230269   7.996   1.204   7.830 -0.9078  1.5853 -0.4178
 7975SOL     OW30270   1.673   8.977   4.089 -0.6277 -0.4285  0.0448
 7975SOL    HW130271   1.587   8.988   4.131 -0.2080  1.9163  0.4408
 7975SOL    HW230272   1.736   9.003   4.156  0.2631 -0.0317 -0.9243
 7976SOL     OW30273   0.382   1.404   0.967 -0.4328 -0.1228 -0.0256
 7976SOL    HW130274   0.342   1.328   0.926 -0.4690 -0.7657  1.1472
 7976SOL    HW230275   0.342   1.408   1.054 -0.0271  0.9138  0.1372
 7977SOL     OW30276   5.731   5.814   3.299  0.3484  0.1483  0.5392
 7977SOL    HW130277   5.783   5.736   3.281 -0.0881 -0.1496  0.5534
 7977SOL    HW230278   5.640   5.783   3.299  0.0808  0.8883 -0.7173
 7978SOL     OW30279   3.410   6.207   5.563  0.0996  0.3364  0.7088
 7978SOL    HW130280   3.363   6.247   5.490  0.5978 -1.3203 -0.5717
 7978SOL    HW230281   3.449   6.281   5.609 -2.3311  1.6491  0.8713
 7979SOL     OW30282   5.549   4.995   7.720  0.0488  0.2484  0.3399
 7979SOL    HW130283   5.527   5.085   7.745 -2.8839  0.1319 -1.2794
 7979SOL    HW230284   5.580   5.003   7.630  3.5389 -0.0773  1.3632
 7980SOL     OW30285   3.015   7.236   0.552  0.8538  0.2143 -0.2486
 7980SOL    HW130286   2.991   7.238   0.644 -0.0929  0.9672 -0.4884
 7980SOL    HW230287   3.062   7.154   0.540 -1.0307 -1.0195  0.4310
 7981SOL     OW30288   1.177   9.081   2.321  0.5061 -0.7985  0.5640
 7981SOL    HW130289   1.200   9.010   2.262  2.9932  0.1537  0.2654
 7981SOL    HW230290   1.182   9.160   2.267 -1.1361 -0.2581  1.1373
 7982SOL     OW30291   0.695   7.430   6.868 -0.3521  0.0718 -0.0053
 7982SOL    HW130292   0.759   7.439   6.939 -0.2279  0.1220 -0.1225
 7982SOL    HW230293   0.614   7.465   6.905 -0.1023  0.8090 -0.1410
 7983SOL     OW30294   0.245   8.667   6.546  0.1627 -0.1123  0.0715
 7983SOL    HW130295   0.176   8.651   6.610  0.1943  0.3477  0.2256
 7983SOL    HW230296   0.246   8.588   6.491  0.1880 -0.5473  0.6853
 7984SOL     OW30297   4.932   2.491   3.237 -0.2870 -0.2218  0.4027
 7984SOL    HW130298   5.019   2.470   3.204 -0.7126 -0.3972 -0.6439
 7984SOL    HW230299   4.947   2.563   3.299  0.6092 -0.3072  0.2961
 7985SOL     OW30300   6.554   5.766   7.846 -0.3264  0.3902  0.4140
 7985SOL    HW130301   6.629   5.735   7.897 -0.8341 -0.6018  0.5823
 7985SOL    HW230302   6.478   5.732   7.893 -0.8059 -1.5098 -1.5784
 7986SOL     OW30303   6.793   7.399   2.150 -0.0925  0.0275  0.4641
 7986SOL    HW130304   6.862   7.362   2.096  0.6248  0.9132  0.7499
 7986SOL    HW230305   6.762   7.475   2.100 -0.9740 -0.4504  0.2656
 7987SOL     OW30306   6.584   0.827   0.326 -0.0919  0.0872  0.5972
 7987SOL    HW130307   6.665   0.803   0.371  0.3017 -0.5204 -0.4001
 7987SOL    HW230308   6.528   0.864   0.395  0.9196  0.2599  1.3478
 7988SOL     OW30309   2.766   0.401   5.164  0.1511 -0.1056  0.1389
 7988SOL    HW130310   2.690   0.444   5.204 -0.5172 -2.1509  1.2134
 7988SOL    HW230311   2.735   0.374   5.077 -1.0207 -2.4499  1.1942
 7989SOL     OW30312   3.535   8.180   8.614 -0.4009  0.2936 -0.2340
 7989SOL    HW130313   3.609   8.237   8.634  0.3726 -1.0354  0.8912
 7989SOL    HW230314   3.460   8.221   8.658  0.2090  0.2752  0.8524
 7990SOL     OW30315   8.844   0.584   6.673 -0.1146  0.2682  0.6242
 7990SOL    HW130316   8.939   0.590   6.665 -0.1142  1.5401  1.2521
 7990SOL    HW230317   8.818   0.520   6.607  1.3055 -1.1579  1.3604
 7991SOL     OW30318   6.283   7.771   4.127  0.0880  0.0873  0.4341
 7991SOL    HW130319   6.356   7.806   4.076 -0.5881  0.8451 -0.0406
 7991SOL    HW230320   6.304   7.678   4.137 -0.3048 -0.3892 -2.3072
 7992SOL     OW30321   8.112   3.985   3.601 -0.2611 -0.2423 -0.7817
 7992SOL    HW130322   8.143   3.898   3.625 -0.5486 -0.2579 -0.4755
 7992SOL    HW230323   8.028   3.995   3.645 -0.7389 -0.2279 -1.6727
 7993SOL     OW30324   8.803   9.089   6.630 -0.6161 -0.0386  0.1495
 7993SOL    HW130325   8.728   9.137   6.666 -1.1691 -1.1421  0.5120
 7993SOL    HW230326   8.813   9.122   6.541 -1.6104  0.0465  0.0602
 7994SOL     OW30327   7.108   5.484   9.198  0.0985 -0.0541 -0.0427
 7994SOL    HW130328   7.143   5.568   9.167  0.4028  0.1801  0.8962
 7994SOL    HW230329   7.108   5.492   9.293  1.3712 -1.6091  0.1292
 7995SOL     OW30330   6.776   3.883   8.895 -0.3055  0.5931  0.5711
 7995SOL    HW130331   6.706   3.867   8.832 -0.6084 -1.6805  1.3766
 7995SOL    HW230332   6.838   3.939   8.849 -1.7681  1.1533 -0.7970
 7996SOL     OW30333   0.053   6.887   3.660 -0.8868  0.1014 -0.1165
 7996SOL    HW130334   0.055   6.843   3.575 -0.7902  0.3961 -0.2666
 7996SOL    HW230335   0.113   6.836   3.714 -0.4926  0.2639 -0.3955
 7997SOL     OW30336   6.159   5.969   4.035  0.2773  0.5348 -0.1217
 7997SOL    HW130337   6.145   5.926   3.950 -0.9680 -1.0767  0.8431
 7997SOL    HW230338   6.229   6.032   4.018  1.2356 -0.8998 -1.9683
 7998SOL     OW30339   0.042   1.611   7.176 -0.7817 -0.6317  0.0055
 7998SOL    HW130340   0.079   1.527   7.151 -0.4458 -0.3891 -0.3237
 7998SOL    HW230341  -0.018   1.632   7.104  0.6113  0.3390 -0.9244
 7999SOL     OW30342   6.891   8.105   7.101  0.0854  0.1239  0.3205
 7999SOL    HW130343   6.852   8.179   7.054  1.3734  1.8883  1.8848
 7999SOL    HW230344   6.816   8.058   7.138 -0.7341  1.4872  0.4608
 8000SOL     OW30345   0.570   2.217   0.078 -0.4201  0.4000  0.1564
 8000SOL    HW130346   0.662   2.191   0.074 -0.0120  1.8288 -0.1169
 8000SOL    HW230347   0.566   2.277   0.153 -1.9791 -2.7491  2.8911
 8001SOL     OW30348   2.948   3.898   1.484  0.2466  0.0686  0.1323
 8001SOL    HW130349   2.866   3.907   1.533  0.5286  1.7206  0.3497
 8001SOL    HW230350   2.934   3.948   1.404  1.5432  1.6643  0.8560
 8002SOL     OW30351   6.027   2.828   3.076 -0.6244  0.0163  0.0245
 8002SOL    HW130352   6.068   2.794   2.997  1.2703  0.8964  0.5711
 8002SOL    HW230353   5.938   2.852   3.049 -0.8572 -2.0211 -1.1819
 8003SOL     OW30354   1.633   3.641   7.170  0.2065 -0.2947  0.2568
 8003SOL    HW130355   1.632   3.579   7.242 -1.0391 -0.8683 -0.2231
 8003SOL    HW230356   1.634   3.727   7.212  1.0812 -0.6213  0.9294
 8004SOL     OW30357   9.182   9.009   0.044  0.1155 -0.0878 -0.1914
 8004SOL    HW130358   9.267   9.035   0.009  0.1652  1.4886  1.0136
 8004SOL    HW230359   9.177   9.052   0.129 -1.5777 -0.7717  0.0891
 8005SOL     OW30360   2.098   4.821   7.794  0.0880 -0.5824  0.3985
 8005SOL    HW130361   2.058   4.802   7.709  1.8075 -1.5956 -0.2475
 8005SOL    HW230362   2.032   4.795   7.858 -1.6115  1.0853 -0.5938
 8006SOL     OW30363   5.484   3.659   6.435 -0.8500  0.2657 -0.0803
 8006SOL    HW130364   5.497   3.671   6.341 -2.1677 -1.1617 -0.4781
 8006SOL    HW230365   5.390   3.672   6.448 -0.7463  0.0381  0.9745
 8007SOL     OW30366   4.842   5.883   3.706  0.0378 -0.4036  0.0420
 8007SOL    HW130367   4.819   5.954   3.645 -1.3064  0.0038  0.9788
 8007SOL    HW230368   4.807   5.804   3.666  0.2126 -0.3190 -0.2820
 8008SOL     OW30369   5.202   4.765   3.017  0.1837  1.1271  0.3832
 8008SOL    HW130370   5.161   4.850   3.031  0.9684  1.8091 -1.2636
 8008SOL    HW230371   5.296   4.781   3.027  0.3351  0.4293  0.1173
 8009SOL     OW30372   1.643   3.433   6.303 -0.1127 -0.2726  0.0430
 8009SOL    HW130373   1.582   3.480   6.246  0.6955 -0.7279 -1.2412
 8009SOL    HW230374   1.603   3.347   6.314  0.8393 -1.0064 -1.8259
 8010SOL     OW30375   0.494   7.493   6.435  0.0666 -0.0903  0.2080
 8010SOL    HW130376   0.563   7.523   6.495  3.2203 -3.6099 -1.2750
 8010SOL    HW230377   0.442   7.431   6.487 -1.1737  1.4439  0.8921
 8011SOL     OW30378   4.979   0.690   9.180  0.5160 -0.2699  0.0253
 8011SOL    HW130379   4.917   0.741   9.129  0.3789 -0.3654  0.0968
 8011SOL    HW230380   5.027   0.638   9.116  0.1508 -0.6001  0.0208
 8012SOL     OW30381   1.734   3.675   4.300  0.5667 -0.2255  0.0322
 8012SOL    HW130382   1.759   3.593   4.258  0.2146  0.0222 -0.6789
 8012SOL    HW230383   1.726   3.738   4.228 -1.6066 -0.1790  0.2247
 8013SOL     OW30384   0.757   4.686   3.000  0.0772 -0.2276  0.0893
 8013SOL    HW130385   0.774   4.677   3.094  1.0843  0.4305 -0.0177
 8013SOL    HW230386   0.784   4.776   2.980 -1.0992 -0.0216 -0.6306
 8014SOL     OW30387   1.156   4.455   6.143  0.2980  0.0242  0.3511
 8014SOL    HW130388   1.176   4.457   6.236 -1.3281 -1.1768  0.7474
 8014SOL    HW230389   1.215   4.388   6.107  2.5645  2.0127  0.0153
 8015SOL     OW30390   4.110   7.182   7.562 -0.1372  0.0290  0.3758
 8015SOL    HW130391   4.062   7.172   7.480 -1.5901  1.9817  0.9174
 8015SOL    HW230392   4.058   7.244   7.613  2.0026  0.8001  1.7739
 8016SOL     OW30393   6.401   5.357   4.092 -0.0391  0.4172 -0.2241
 8016SOL    HW130394   6.465   5.309   4.143 -1.6920 -1.4947  0.1973
 8016SOL    HW230395   6.374   5.429   4.148 -1.2006 -1.1564  1.3418
 8017SOL     OW30396   2.162   6.666   5.205  0.5701  0.7975  0.2054
 8017SOL    HW130397   2.170   6.603   5.133  0.4569  3.3783 -2.2421
 8017SOL    HW230398   2.077   6.646   5.244 -0.5933  0.8910 -2.0908
 8018SOL     OW30399   5.114   6.454   2.418  0.0109  0.3074 -0.3962
 8018SOL    HW130400   5.137   6.371   2.459  0.5823  1.0087  0.7453
 8018SOL    HW230401   5.172   6.459   2.341 -1.4244 -1.2451 -1.6516
 8019SOL     OW30402   7.154   2.314   4.761 -0.2196  0.2944  0.1283
 8019SOL    HW130403   7.065   2.302   4.728  0.4238 -0.6324 -1.3492
 8019SOL    HW230404   7.210   2.308   4.684  1.1395  0.9853  1.0092
 8020SOL     OW30405   2.812   5.562   2.798 -0.5335 -0.1901  0.0837
 8020SOL    HW130406   2.858   5.548   2.716  0.4331  0.0430  0.5765
 8020SOL    HW230407   2.776   5.650   2.791 -0.1027 -0.0149  0.0694
 8021SOL     OW30408   7.978   7.671   1.197  0.6521  0.0733  0.0754
 8021SOL    HW130409   7.988   7.576   1.198  3.9912  0.2878 -0.6348
 8021SOL    HW230410   8.012   7.700   1.281 -0.1588  0.6888  0.2088
 8022SOL     OW30411   3.254   8.100   7.883  0.0779  0.1987  0.4302
 8022SOL    HW130412   3.247   8.071   7.792  0.8174 -0.1444  0.4742
 8022SOL    HW230413   3.320   8.170   7.882  2.3482 -1.7739  1.0865
 8023SOL     OW30414   2.197   3.525   8.752 -0.0516 -0.1996 -0.5179
 8023SOL    HW130415   2.160   3.437   8.752 -2.2135  0.6335 -0.1535
 8023SOL    HW230416   2.174   3.560   8.838  0.8246  0.7087 -0.6356
 8024SOL     OW30417   6.562   3.425   4.493 -0.0382 -0.1643 -0.1464
 8024SOL    HW130418   6.490   3.435   4.555 -0.6396 -1.7205 -0.5511
 8024SOL    HW230419   6.602   3.341   4.516  0.1464 -0.4508 -1.4213
 8025SOL     OW30420   5.376   6.435   0.135 -0.5197 -0.1876  0.0230
 8025SOL    HW130421   5.313   6.506   0.149 -0.8230 -0.3175 -0.6458
 8025SOL    HW230422   5.348   6.366   0.195 -1.2365 -0.3816 -0.5174
 8026SOL     OW30423   4.115   7.416   4.752  0.2637  0.1357 -0.5908
 8026SOL    HW130424   4.083   7.400   4.841  1.5909  0.6308  0.0026
 8026SOL    HW230425   4.037   7.442   4.703 -0.4400  0.1699  0.5093
 8027SOL     OW30426   4.657   3.442   0.697  0.0932  0.0398 -0.5996
 8027SOL    HW130427   4.736   3.452   0.643 -0.6746  0.2140 -1.7202
 8027SOL    HW230428   4.616   3.362   0.664  1.1285 -1.6079  1.7593
 8028SOL     OW30429   4.119   7.441   2.538  0.1751 -0.2715 -0.2471
 8028SOL    HW130430   4.031   7.447   2.574  0.0501 -0.1607 -0.5689
 8028SOL    HW230431   4.111   7.476   2.449  0.5589 -0.1834 -0.2474
 8029SOL     OW30432   3.303   4.108   2.973  0.4162  0.4302 -0.8094
 8029SOL    HW130433   3.375   4.045   2.972 -0.1311 -0.4144  2.7853
 8029SOL    HW230434   3.347   4.194   2.970  1.4688 -0.0716 -0.3533
 8030SOL     OW30435   1.544   3.497   6.939  0.9543  0.1662 -0.5674
 8030SOL    HW130436   1.478   3.534   6.881  1.5959  1.2717 -0.6368
 8030SOL    HW230437   1.515   3.407   6.955 -0.3943  0.5351 -0.8164
 8031SOL     OW30438   4.104   2.812   4.818  0.3909  0.6141 -0.0800
 8031SOL    HW130439   4.138   2.734   4.775  1.4611 -0.6576  2.7925
 8031SOL    HW230440   4.034   2.779   4.875 -0.1042  1.9734  0.1354
 8032SOL     OW30441   6.953   6.018   9.012  0.0058  0.2565 -0.1109
 8032SOL    HW130442   6.917   5.932   9.031  0.2252 -0.2485 -1.7586
 8032SOL    HW230443   6.993   6.008   8.925  1.8607  1.4606  0.5355
 8033SOL     OW30444   7.116   7.971   2.130 -0.3060  0.5117 -0.3467
 8033SOL    HW130445   7.075   8.041   2.180 -2.8355 -0.2171 -1.2368
 8033SOL    HW230446   7.155   8.014   2.054 -0.0380  1.1472  0.1443
 8034SOL     OW30447   0.728   0.031   2.059 -0.2806 -0.0372 -0.3156
 8034SOL    HW130448   0.781   0.057   2.135 -1.5234 -0.3279  0.6958
 8034SOL    HW230449   0.676  -0.043   2.091 -1.3965  0.3264 -1.2158
 8035SOL     OW30450   5.436   4.966   5.689 -0.0212 -0.0530 -0.1374
 8035SOL    HW130451   5.380   4.998   5.760  1.4114  0.0665  0.9794
 8035SOL    HW230452   5.398   4.881   5.665 -0.8391  0.1504  0.4049
 8036SOL     OW30453   0.797   4.711   3.945 -0.3150  0.2936  0.1459
 8036SOL    HW130454   0.705   4.733   3.963 -0.9099 -1.1917 -0.9510
 8036SOL    HW230455   0.801   4.701   3.850  1.0038  0.3635  0.1803
 8037SOL     OW30456   2.662   3.366   1.407 -0.4417  0.0660 -0.2413
 8037SOL    HW130457   2.738   3.363   1.350 -0.5162  0.2344 -0.3510
 8037SOL    HW230458   2.623   3.279   1.401 -1.3419  0.5279 -1.6685
 8038SOL     OW30459   0.453   4.891   5.994  0.2838  0.1301  0.0523
 8038SOL    HW130460   0.403   4.972   5.988 -2.1801 -1.3751 -1.0759
 8038SOL    HW230461   0.387   4.822   5.999  2.2614 -1.7759  2.7666
 8039SOL     OW30462   4.655   3.341   6.929  0.8237 -0.1735  0.4514
 8039SOL    HW130463   4.631   3.252   6.903  0.1411  0.2644 -0.4908
 8039SOL    HW230464   4.593   3.397   6.881  1.9877  0.8613  0.1097
 8040SOL     OW30465   7.066   5.606   6.385 -0.2880 -0.0178 -0.2883
 8040SOL    HW130466   7.057   5.529   6.440  1.1785 -0.4229 -0.5780
 8040SOL    HW230467   7.152   5.597   6.344 -0.8007  0.9152 -1.6535
 8041SOL     OW30468   3.574   3.436   1.503 -0.3550  0.4241  0.1576
 8041SOL    HW130469   3.581   3.357   1.449  0.5070  0.2544  0.4986
 8041SOL    HW230470   3.560   3.403   1.591  0.2441  0.6366  0.3375
 8042SOL     OW30471   2.800   3.753   6.477  0.2255 -0.5660  0.5502
 8042SOL    HW130472   2.869   3.710   6.426 -0.0590 -0.6161  0.2075
 8042SOL    HW230473   2.832   3.749   6.568  1.8527  1.6007  0.1562
 8043SOL     OW30474   4.240   8.741   6.126  0.1991 -0.4075  0.1111
 8043SOL    HW130475   4.181   8.692   6.183 -0.3384 -1.2197 -1.0879
 8043SOL    HW230476   4.237   8.831   6.158 -1.8748 -0.3889 -0.0554
 8044SOL     OW30477   6.757   2.347   9.238 -0.5064 -0.0440  0.6188
 8044SOL    HW130478   6.765   2.317   9.328  1.4148  0.2519  0.5913
 8044SOL    HW230479   6.684   2.408   9.239 -1.0589 -0.7038  1.7788
 8045SOL     OW30480   5.183   7.561   5.944 -0.3498 -0.2360 -0.5760
 8045SOL    HW130481   5.205   7.654   5.954 -1.9226  0.2434 -1.2796
 8045SOL    HW230482   5.251   7.527   5.886  1.2670  0.0202  1.0731
 8046SOL     OW30483   7.090   7.849   0.428  0.1415  0.3202  0.0009
 8046SOL    HW130484   7.082   7.907   0.352  0.8504 -1.2545 -1.3339
 8046SOL    HW230485   7.184   7.849   0.448  0.1989 -0.6426 -0.2418
 8047SOL     OW30486   4.429   1.088   7.670  0.2054  0.8245  0.2016
 8047SOL    HW130487   4.521   1.092   7.695 -0.1861  1.0438  1.7123
 8047SOL    HW230488   4.409   1.176   7.636  0.2669  1.1479  0.9813
 8048SOL     OW30489   4.130   5.092   8.618  0.2613 -0.3112 -0.0396
 8048SOL    HW130490   4.191   5.023   8.591 -0.1207 -0.0584 -1.5909
 8048SOL    HW230491   4.044   5.049   8.620  0.2492 -0.2789  0.6510
 8049SOL     OW30492   7.660   6.178   4.637  0.5438  0.6004 -0.4421
 8049SOL    HW130493   7.627   6.219   4.717  1.6595 -0.1899  0.4699
 8049SOL    HW230494   7.735   6.126   4.666 -1.0302 -2.4674 -1.4160
 8050SOL     OW30495   4.430   5.885   0.806 -0.3823  0.1174  0.0323
 8050SOL    HW130496   4.398   5.803   0.768 -1.1079  0.6730 -0.5911
 8050SOL    HW230497   4.469   5.859   0.889  1.0034 -1.0899 -0.9406
 8051SOL     OW30498   3.418   8.146   3.454  0.1483  0.8619  0.1229
 8051SOL    HW130499   3.493   8.096   3.422 -1.2681 -0.4758 -1.2449
 8051SOL    HW230500   3.453   8.195   3.529  1.5933 -2.3857  1.7905
 8052SOL     OW30501   7.706   8.918   7.736  0.0116 -0.1730  0.7145
 8052SOL    HW130502   7.775   8.953   7.680  0.4499 -0.0327  1.3263
 8052SOL    HW230503   7.751   8.895   7.817 -0.1978 -2.4576  0.2455
 8053SOL     OW30504   2.045   2.154   8.961 -0.2273 -0.3411 -0.1364
 8053SOL    HW130505   2.025   2.174   8.870  0.1828  0.1556 -0.1185
 8053SOL    HW230506   2.058   2.059   8.962 -0.4269 -0.3779 -0.5516
 8054SOL     OW30507   7.368   3.984   3.516  0.0649 -0.3596  0.0423
 8054SOL    HW130508   7.278   3.956   3.499  0.4486 -1.2766 -0.5503
 8054SOL    HW230509   7.368   4.077   3.494 -0.8170 -0.2606  0.3950
 8055SOL     OW30510   6.834   4.101   3.592 -0.9507 -0.2972 -0.1643
 8055SOL    HW130511   6.741   4.115   3.577 -0.5970 -0.1284 -2.4561
 8055SOL    HW230512   6.867   4.067   3.509  1.0879 -0.1003  0.5146
 8056SOL     OW30513   4.181   3.350   6.676  0.5958 -0.4504  0.2308
 8056SOL    HW130514   4.158   3.264   6.712  0.8795 -0.0425  1.4161
 8056SOL    HW230515   4.134   3.413   6.731  2.1153  0.2507  0.7781
 8057SOL     OW30516   7.751   4.008   6.460 -0.7180  0.1085  0.1883
 8057SOL    HW130517   7.752   3.914   6.444 -1.1749  0.0384  0.5746
 8057SOL    HW230518   7.702   4.019   6.541 -0.9929  0.7110 -0.0486
 8058SOL     OW30519   9.211   7.138   2.023 -0.1265  0.1402  0.0779
 8058SOL    HW130520   9.158   7.092   1.958  1.9780 -1.3763 -0.6958
 8058SOL    HW230521   9.159   7.136   2.103 -1.7906 -0.0308 -0.9665
 8059SOL     OW30522   4.106   6.085   4.571  0.1200 -0.0195 -0.1175
 8059SOL    HW130523   4.167   6.030   4.521  1.1361  0.3276  0.7098
 8059SOL    HW230524   4.124   6.064   4.663  0.0156  1.1554  0.1846
 8060SOL     OW30525   3.458   2.944   7.386  0.4733  0.5269  0.3473
 8060SOL    HW130526   3.403   3.003   7.438  0.7343  0.7598  0.3653
 8060SOL    HW230527   3.471   2.991   7.303 -0.5479 -0.1683 -0.2154
 8061SOL     OW30528   5.437   5.458   0.418  0.5037  0.0893  0.4143
 8061SOL    HW130529   5.459   5.465   0.511  0.5735 -1.5626  0.5409
 8061SOL    HW230530   5.475   5.375   0.390 -1.0433 -0.2901 -0.6597
 8062SOL     OW30531   9.027   1.166   2.829 -1.0429  0.6373 -0.4606
 8062SOL    HW130532   9.077   1.247   2.831 -2.2748  1.5407 -2.5572
 8062SOL    HW230533   8.936   1.194   2.818 -1.5263 -1.0142 -0.9776
 8063SOL     OW30534   8.009   7.594   0.830  0.4377 -0.0053 -0.1790
 8063SOL    HW130535   8.017   7.524   0.895  0.1064 -0.1912 -0.3360
 8063SOL    HW230536   8.054   7.669   0.870 -2.3546  0.8531  1.6612
 8064SOL     OW30537   7.968   4.680   2.595  0.1538  0.0779 -0.2655
 8064SOL    HW130538   7.924   4.658   2.677 -0.5503  0.0741 -0.6317
 8064SOL    HW230539   8.060   4.657   2.609 -0.1904 -1.1526  0.0707
 8065SOL     OW30540   5.636   0.504   5.880  0.3853  0.3957  0.5779
 8065SOL    HW130541   5.676   0.541   5.958  1.3837  1.0749 -0.2372
 8065SOL    HW230542   5.697   0.524   5.809  1.0447 -2.8777  0.0725
 8066SOL     OW30543   5.371   1.565   5.710  0.1812 -0.1232  0.7012
 8066SOL    HW130544   5.335   1.653   5.701  0.3767 -0.0768  0.3544
 8066SOL    HW230545   5.301   1.506   5.681  0.4932 -0.0189 -0.3090
 8067SOL     OW30546   7.698   7.735   7.613  0.0089  0.0017 -0.1268
 8067SOL    HW130547   7.723   7.818   7.572 -2.2726  0.7997 -0.0354
 8067SOL    HW230548   7.654   7.686   7.543  1.5630 -1.3182 -0.2577
 8068SOL     OW30549   3.414   1.516   2.100 -0.0966 -0.4744  0.5972
 8068SOL    HW130550   3.496   1.565   2.092  0.7073 -1.8863 -0.3436
 8068SOL    HW230551   3.390   1.525   2.192 -0.0933  1.7827  0.4197
 8069SOL     OW30552   2.216   3.674   7.370 -0.0825 -0.0084 -0.2776
 8069SOL    HW130553   2.229   3.762   7.333 -0.4717 -0.1400 -0.7452
 8069SOL    HW230554   2.121   3.660   7.365 -0.0045 -0.5279 -0.3876
 8070SOL     OW30555   7.687   6.485   3.123  0.4075 -0.2063  0.5901
 8070SOL    HW130556   7.694   6.563   3.067  2.5217 -1.0731 -0.4530
 8070SOL    HW230557   7.761   6.431   3.098 -1.5355 -3.0604  0.5816
 8071SOL     OW30558   7.190   8.035   6.031  0.4246  0.2886  0.3718
 8071SOL    HW130559   7.162   8.126   6.033  0.3256  0.2475  1.2308
 8071SOL    HW230560   7.286   8.039   6.028  0.4342  0.4241  0.7941
 8072SOL     OW30561   2.975   7.798   2.240 -0.1215  0.2557  0.7703
 8072SOL    HW130562   2.982   7.773   2.148 -1.2728 -0.6289  0.9111
 8072SOL    HW230563   2.898   7.855   2.243 -1.8589 -2.0278  1.6278
 8073SOL     OW30564   1.366   6.198   0.273  0.3067  0.1368  0.0635
 8073SOL    HW130565   1.445   6.239   0.310 -0.0018  1.1997 -0.4263
 8073SOL    HW230566   1.399   6.137   0.207  0.7945 -0.8149  1.1381
 8074SOL     OW30567   0.057   1.786   2.080  0.1052  0.8514 -0.9325
 8074SOL    HW130568  -0.034   1.792   2.052 -0.3857  1.1357  0.6300
 8074SOL    HW230569   0.064   1.846   2.154  0.7073 -1.4798  1.0596
 8075SOL     OW30570   2.575   0.676   7.588  0.4458  0.5952 -0.1442
 8075SOL    HW130571   2.586   0.761   7.630 -0.0026  1.4439 -1.6670
 8075SOL    HW230572   2.484   0.652   7.604  0.8519 -0.1730  1.2347
 8076SOL     OW30573   4.152   1.815   5.262 -0.0643  0.1811  0.1488
 8076SOL    HW130574   4.107   1.773   5.335 -0.2458  0.9891  0.5045
 8076SOL    HW230575   4.243   1.783   5.268  0.4340  1.7943  1.9544
 8077SOL     OW30576   6.219   8.529   8.413  0.2769  0.0098  0.2034
 8077SOL    HW130577   6.237   8.469   8.484  1.6613  1.2005  0.9133
 8077SOL    HW230578   6.157   8.592   8.449 -0.0512 -0.1536 -0.0714
 8078SOL     OW30579   1.887   5.101   5.170 -0.5819 -0.1249 -0.3035
 8078SOL    HW130580   1.817   5.036   5.164 -0.0471 -0.8429  0.8089
 8078SOL    HW230581   1.895   5.136   5.082 -0.1124 -2.4055 -1.2442
 8079SOL     OW30582   5.751   4.392   8.266  0.1754 -0.3520 -0.1033
 8079SOL    HW130583   5.695   4.342   8.325  0.2890 -1.3112 -0.7719
 8079SOL    HW230584   5.743   4.483   8.295 -0.5338 -0.6755  0.7519
 8080SOL     OW30585   7.079   2.297   8.133  0.0821 -0.0971  0.4468
 8080SOL    HW130586   7.054   2.205   8.135 -0.4978  0.0202 -0.5247
 8080SOL    HW230587   6.996   2.344   8.141 -0.3286  0.3069 -3.7016
 8081SOL     OW30588   4.893   5.648   7.251  0.3852 -0.5542 -0.0431
 8081SOL    HW130589   4.907   5.742   7.263  1.8665 -0.8719  0.9984
 8081SOL    HW230590   4.889   5.636   7.156 -2.5403  0.8730 -0.2112
 8082SOL     OW30591   2.613   4.156   4.308  0.2905 -0.5019  0.4844
 8082SOL    HW130592   2.603   4.165   4.214 -2.0249  0.7491  0.7705
 8082SOL    HW230593   2.540   4.101   4.335 -0.0398  0.4771  1.7004
 8083SOL     OW30594   5.217   2.730   5.572 -0.1693 -0.3845 -0.0746
 8083SOL    HW130595   5.261   2.807   5.606 -0.5092 -0.4605  0.5545
 8083SOL    HW230596   5.138   2.763   5.530 -0.2541 -0.3788  0.0894
 8084SOL     OW30597   6.528   8.306   6.578 -0.6740  0.3745 -0.0024
 8084SOL    HW130598   6.536   8.341   6.667  0.9583 -0.0893  0.0586
 8084SOL    HW230599   6.605   8.340   6.531 -1.8928  1.2387 -1.4810
 8085SOL     OW30600   0.963   4.038   1.280 -0.2520 -0.0626  0.4838
 8085SOL    HW130601   0.965   4.038   1.375  2.4317  0.4272  0.4900
 8085SOL    HW230602   0.970   4.131   1.256  0.2245 -0.2609 -0.1759
 8086SOL     OW30603   9.186   9.164   7.018  0.0282  0.3087  1.0326
 8086SOL    HW130604   9.145   9.231   6.963 -2.4038 -0.2903  1.9479
 8086SOL    HW230605   9.151   9.082   6.984 -2.1652 -0.0491  3.7730
 8087SOL     OW30606   3.545   8.826   2.923  0.1046 -0.4378  0.4775
 8087SOL    HW130607   3.594   8.831   3.005 -0.1641  1.5681  0.5672
 8087SOL    HW230608   3.610   8.844   2.855 -0.1156  0.2590  0.4448
 8088SOL     OW30609   6.104   4.729   8.528  0.5749 -0.1208  0.2769
 8088SOL    HW130610   6.024   4.702   8.483  1.4345 -0.4274 -1.1331
 8088SOL    HW230611   6.097   4.689   8.614 -0.4188 -0.8073 -0.0957
 8089SOL     OW30612   3.638   5.333   2.785 -0.3891  0.1386  0.0157
 8089SOL    HW130613   3.544   5.342   2.772 -0.1362 -0.4742 -3.2828
 8089SOL    HW230614   3.648   5.249   2.830 -1.4211 -0.8142 -1.4118
 8090SOL     OW30615   1.832   0.306   8.754 -0.3418  0.5760 -0.2772
 8090SOL    HW130616   1.904   0.340   8.701 -0.4965 -0.5428 -1.2460
 8090SOL    HW230617   1.787   0.245   8.696 -1.5469  0.5992  0.6098
 8091SOL     OW30618   1.392   3.483   8.240 -0.8638 -0.3254 -0.0378
 8091SOL    HW130619   1.410   3.479   8.334 -0.6005 -0.4998 -0.0948
 8091SOL    HW230620   1.469   3.445   8.199 -1.8099 -2.1759 -0.2284
 8092SOL     OW30621   7.832   7.828   2.428 -0.0045 -0.4198  0.3682
 8092SOL    HW130622   7.905   7.771   2.406 -0.4511  0.0253 -2.7172
 8092SOL    HW230623   7.767   7.770   2.468 -0.0272 -1.9617 -1.7347
 8093SOL     OW30624   8.604   1.652   2.891 -0.2093  0.1337 -0.3838
 8093SOL    HW130625   8.594   1.557   2.900 -1.4151  0.4094  2.0049
 8093SOL    HW230626   8.526   1.681   2.844 -1.9588  0.2869  2.3835
 8094SOL     OW30627   9.174   0.051   8.659  0.8667  0.2724  0.5879
 8094SOL    HW130628   9.118   0.061   8.736  0.4623 -1.1847  0.5276
 8094SOL    HW230629   9.246  -0.006   8.689  1.0195  0.1745  0.0477
 8095SOL     OW30630   4.162   8.219   9.000  0.8745  0.3180 -0.3071
 8095SOL    HW130631   4.145   8.204   9.093  2.4689  0.4946  0.0393
 8095SOL    HW230632   4.236   8.162   8.979  1.2787  1.1212 -1.1724
 8096SOL     OW30633   2.634   4.829   4.685  0.2325 -0.2806 -0.0019
 8096SOL    HW130634   2.563   4.890   4.703 -1.0026 -1.7858  0.4796
 8096SOL    HW230635   2.605   4.746   4.722  0.8369 -1.7327 -2.4844
 8097SOL     OW30636   7.527   0.620   6.361  0.0197  0.0130  0.0599
 8097SOL    HW130637   7.491   0.623   6.272 -1.9448 -3.1683  0.5807
 8097SOL    HW230638   7.592   0.550   6.358 -0.1609 -0.2224  1.1293
 8098SOL     OW30639   1.808   5.975   3.810  0.0112 -0.1910 -0.2705
 8098SOL    HW130640   1.831   6.034   3.738  1.0541 -0.9618 -0.5880
 8098SOL    HW230641   1.744   6.024   3.861 -1.3153  0.1189 -2.1134
 8099SOL     OW30642   6.348   4.718   7.198 -0.3222 -0.6359 -0.5409
 8099SOL    HW130643   6.336   4.747   7.108  0.6341 -2.2503 -1.2304
 8099SOL    HW230644   6.319   4.793   7.251 -1.6699  0.0427 -2.1451
 8100SOL     OW30645   6.291   2.028   3.029 -0.2164 -0.6624  0.0645
 8100SOL    HW130646   6.224   2.012   2.963  1.4189 -0.8872 -1.5976
 8100SOL    HW230647   6.242   2.065   3.103 -2.0589 -0.0618 -1.3666
 8101SOL     OW30648   6.282   8.955   0.326 -0.0046  0.3609 -0.1355
 8101SOL    HW130649   6.367   8.953   0.283 -0.8130 -0.2717 -1.7604
 8101SOL    HW230650   6.252   9.046   0.316  0.3175  0.5000  0.1395
 8102SOL     OW30651   0.373   5.062   8.407  0.1533  0.4768  0.3947
 8102SOL    HW130652   0.316   5.004   8.355 -0.6378  2.6829 -1.3645
 8102SOL    HW230653   0.460   5.048   8.371 -0.1471  0.8911 -0.5091
 8103SOL     OW30654   3.263   0.678   1.529 -0.6594 -0.2600  0.2093
 8103SOL    HW130655   3.261   0.645   1.439 -3.0914 -0.2501  0.2047
 8103SOL    HW230656   3.305   0.764   1.522 -1.4999  0.0738 -1.0544
 8104SOL     OW30657   5.563   7.281   0.541 -0.4382  0.4895 -0.6029
 8104SOL    HW130658   5.553   7.231   0.623  0.4599 -1.8989 -1.8537
 8104SOL    HW230659   5.655   7.308   0.541 -0.4367  0.4824 -0.8173
 8105SOL     OW30660   6.676   5.773   8.638 -0.2573 -0.1633  0.7744
 8105SOL    HW130661   6.685   5.812   8.551 -1.2164 -0.3268  0.5925
 8105SOL    HW230662   6.766   5.760   8.668  0.0820 -0.4633 -0.3483
 8106SOL     OW30663   3.336   7.093   0.390 -0.3501 -0.4885 -0.6234
 8106SOL    HW130664   3.379   7.034   0.329 -1.0165 -2.0935  0.3872
 8106SOL    HW230665   3.285   7.036   0.447  0.6479  0.8377  1.7891
 8107SOL     OW30666   6.294   4.719   4.373  0.5163  0.0755  0.0709
 8107SOL    HW130667   6.287   4.633   4.414  0.7608 -0.0550 -0.1555
 8107SOL    HW230668   6.268   4.704   4.282  0.9238  0.1605 -0.0622
 8108SOL     OW30669   9.132   1.147   1.319  0.3694  0.9307  0.4535
 8108SOL    HW130670   9.203   1.191   1.366 -0.7846  2.6931  0.6672
 8108SOL    HW230671   9.052   1.189   1.352 -0.9283 -1.9107  1.2187
 8109SOL     OW30672   0.675   0.686   3.708 -0.0031 -0.2714 -0.0503
 8109SOL    HW130673   0.694   0.675   3.615 -0.3899  0.2072 -0.1933
 8109SOL    HW230674   0.591   0.732   3.709  0.9960  1.6292  0.5146
 8110SOL     OW30675   0.974   1.813   4.154 -0.3120 -0.3538  0.8559
 8110SOL    HW130676   0.960   1.858   4.237  0.0818  2.5893 -0.5519
 8110SOL    HW230677   0.889   1.818   4.110  0.7404  3.1194 -1.0929
 8111SOL     OW30678   6.727   1.827   5.311  0.0021 -0.6407  0.0823
 8111SOL    HW130679   6.715   1.759   5.245 -1.0993 -0.0553 -0.3364
 8111SOL    HW230680   6.818   1.856   5.298 -0.2987 -0.2794 -1.4500
 8112SOL     OW30681   6.407   6.809   5.698 -0.1057  0.5104  0.1972
 8112SOL    HW130682   6.364   6.763   5.626 -0.0619  0.5632  0.1379
 8112SOL    HW230683   6.342   6.809   5.768 -0.4251  1.1096 -0.0921
 8113SOL     OW30684   9.243   0.194   5.633 -0.0434 -0.2643  0.0864
 8113SOL    HW130685   9.283   0.278   5.654 -2.5145  1.4034 -1.2791
 8113SOL    HW230686   9.257   0.140   5.711  2.3388  1.0692  0.6867
 8114SOL     OW30687   1.284   8.109   6.792  0.1037 -0.7816 -0.0620
 8114SOL    HW130688   1.283   8.084   6.700  2.6234  0.7767 -0.6043
 8114SOL    HW230689   1.194   8.096   6.821 -1.0499 -0.2882 -3.0321
 8115SOL     OW30690   1.873   8.362   2.015  0.5613 -0.1788 -0.5659
 8115SOL    HW130691   1.853   8.414   1.937  1.3452 -1.5457 -1.7235
 8115SOL    HW230692   1.960   8.326   1.998  0.7080 -0.6030  0.9092
 8116SOL     OW30693   3.641   4.830   5.434 -0.1143 -1.1266  0.1210
 8116SOL    HW130694   3.583   4.770   5.480 -2.2286 -0.1924 -1.1405
 8116SOL    HW230695   3.691   4.774   5.375 -0.0181 -1.9194  0.9348
 8117SOL     OW30696   4.659   0.576   5.433  0.0300  0.0115 -0.0506
 8117SOL    HW130697   4.718   0.650   5.442  0.3257  0.2616 -3.1795
 8117SOL    HW230698   4.577   0.606   5.473  0.9781  0.8860  1.3363
 8118SOL     OW30699   5.893   0.147   1.233  0.0198 -0.1589  0.3128
 8118SOL    HW130700   5.945   0.199   1.295 -0.4602 -1.2011  1.6552
 8118SOL    HW230701   5.802   0.172   1.251 -0.1058 -0.2375 -0.2089
 8119SOL     OW30702   8.353   6.503   1.010  0.3224 -0.1531 -0.2516
 8119SOL    HW130703   8.430   6.516   1.065  0.5624  1.8100 -0.9695
 8119SOL    HW230704   8.387   6.501   0.921 -0.5193  2.4777 -0.7267
 8120SOL     OW30705   0.437   6.898   2.756 -0.4812  0.1529  0.5785
 8120SOL    HW130706   0.387   6.863   2.683 -1.9205  1.1367  1.0527
 8120SOL    HW230707   0.504   6.953   2.715 -0.9057  0.2342 -0.0181
 8121SOL     OW30708   1.423   4.143   2.018  0.2545 -0.2683  0.0824
 8121SOL    HW130709   1.501   4.088   2.023  0.4584  0.0568  0.5494
 8121SOL    HW230710   1.352   4.081   1.999  0.4446 -0.7398  0.8268
 8122SOL     OW30711   7.296   1.281   3.837  0.0410  0.0162  0.7239
 8122SOL    HW130712   7.319   1.339   3.764 -0.1934  1.2666  1.6059
 8122SOL    HW230713   7.376   1.277   3.890  0.5725 -1.7813 -0.1348
 8123SOL     OW30714   5.523   8.517   0.603  0.5382  0.2215  0.0832
 8123SOL    HW130715   5.579   8.499   0.678  1.2708  0.0359 -0.4992
 8123SOL    HW230716   5.579   8.503   0.527 -0.2562  0.1818 -0.5092
 8124SOL     OW30717   3.805   4.548   6.188  0.4689 -0.4017 -0.0192
 8124SOL    HW130718   3.807   4.598   6.269 -1.1890 -0.2606 -0.0278
 8124SOL    HW230719   3.721   4.571   6.147  1.7092  0.3726 -2.3335
 8125SOL     OW30720   1.200   5.875   3.826 -0.2799  0.4167  0.1068
 8125SOL    HW130721   1.114   5.890   3.867 -1.4083 -1.4171 -1.4083
 8125SOL    HW230722   1.245   5.816   3.886 -0.8625 -0.1564 -0.0108
 8126SOL     OW30723   3.586   8.514   9.009  0.0537  0.4370 -0.8614
 8126SOL    HW130724   3.663   8.570   9.002 -0.7018  1.4567 -1.2637
 8126SOL    HW230725   3.568   8.510   9.103  1.7322 -1.4494 -0.5412
 8127SOL     OW30726   6.875   9.084   6.160 -0.1136 -0.3895 -0.8925
 8127SOL    HW130727   6.929   9.157   6.189 -3.0403  1.8144 -0.5627
 8127SOL    HW230728   6.883   9.085   6.064  0.0703  0.1701 -0.8747
 8128SOL     OW30729   4.556   3.092   7.927  0.0586 -0.1089 -0.1495
 8128SOL    HW130730   4.527   3.176   7.965  0.0518  0.0415 -0.4785
 8128SOL    HW230731   4.596   3.045   8.000 -0.3235  0.0045  0.1390
 8129SOL     OW30732   1.663   2.066   0.983 -0.0436 -0.4781 -0.3906
 8129SOL    HW130733   1.718   2.001   0.940 -0.6418 -0.5271 -1.1129
 8129SOL    HW230734   1.708   2.149   0.970 -1.3221 -0.1084 -3.2487
 8130SOL     OW30735   1.647   9.007   3.653  0.0668  0.6583  0.2395
 8130SOL    HW130736   1.621   8.936   3.594 -0.5151  1.8503 -1.0032
 8130SOL    HW230737   1.716   8.969   3.708  0.3766 -0.6071 -0.9684
 8131SOL     OW30738   7.064   3.422   1.741 -0.0416 -0.0649 -0.2504
 8131SOL    HW130739   7.087   3.433   1.649 -0.6706  0.8938 -0.3089
 8131SOL    HW230740   7.066   3.511   1.776 -1.6958 -0.1846  0.2089
 8132SOL     OW30741   5.131   7.666   6.213  0.0976 -0.4197  0.2183
 8132SOL    HW130742   5.058   7.706   6.166  0.6687 -0.3167 -0.6015
 8132SOL    HW230743   5.210   7.702   6.172  0.6424  0.7335  2.1697
 8133SOL     OW30744   0.071   9.246   0.996 -0.3685  0.1012  0.3301
 8133SOL    HW130745   0.043   9.170   0.945  3.3645 -1.3080  0.0511
 8133SOL    HW230746   0.039   9.321   0.947 -2.5370 -1.2389 -0.4341
 8134SOL     OW30747   7.561   0.738   8.951 -1.1828  0.0319  0.2465
 8134SOL    HW130748   7.577   0.645   8.971  0.6196 -0.2599 -2.1644
 8134SOL    HW230749   7.643   0.782   8.971 -1.6784  0.9519  0.3202
 8135SOL     OW30750   5.108   2.402   2.989 -0.5394  0.3664  0.4766
 8135SOL    HW130751   5.081   2.425   2.900 -1.1494 -0.4458  0.4273
 8135SOL    HW230752   5.120   2.485   3.034 -2.1179  0.7949  0.1693
 8136SOL     OW30753   3.866   2.661   1.324  0.3037 -0.5297 -0.4807
 8136SOL    HW130754   3.779   2.624   1.338  1.2266 -2.8755 -0.5937
 8136SOL    HW230755   3.924   2.585   1.318  2.3925  0.9722 -0.2915
 8137SOL     OW30756   7.637   8.149   2.074 -0.3259 -0.4764 -0.7365
 8137SOL    HW130757   7.678   8.145   1.987  0.3092  1.3558 -0.5686
 8137SOL    HW230758   7.555   8.197   2.059 -0.7810 -1.1747 -0.5065
 8138SOL     OW30759   0.570   1.122   8.181  0.4423 -0.6971  0.0401
 8138SOL    HW130760   0.549   1.193   8.242  0.2998 -0.5707 -0.1511
 8138SOL    HW230761   0.640   1.158   8.126  0.4061 -0.7227 -0.0234
 8139SOL     OW30762   4.891   2.942   8.799  0.4351 -0.0136 -0.0983
 8139SOL    HW130763   4.888   2.882   8.725 -0.2709  0.8317 -0.7859
 8139SOL    HW230764   4.870   2.888   8.875  0.4718 -0.7585 -0.6041
 8140SOL     OW30765   8.705   5.452   8.540 -0.1225  0.2922 -1.2245
 8140SOL    HW130766   8.793   5.488   8.545 -0.0581 -0.0601  1.8108
 8140SOL    HW230767   8.647   5.528   8.544  0.0601  0.3705  1.0893
 8141SOL     OW30768   2.966   7.284   0.825 -0.3742 -0.1898 -0.4404
 8141SOL    HW130769   3.041   7.317   0.876 -0.6168  0.6983 -0.6358
 8141SOL    HW230770   2.922   7.223   0.884  0.2409 -0.3682 -0.1570
 8142SOL     OW30771   3.247   2.688   2.116 -0.1925 -0.2540  0.3826
 8142SOL    HW130772   3.296   2.747   2.173  3.1242 -1.0781 -1.3289
 8142SOL    HW230773   3.257   2.602   2.156  0.9109 -0.6081 -0.5733
 8143SOL     OW30774   3.783   2.881   6.341 -0.1417  0.2647 -0.1993
 8143SOL    HW130775   3.846   2.943   6.378  2.1635 -0.2026 -3.0002
 8143SOL    HW230776   3.728   2.934   6.284  0.5683  0.0633 -1.0907
 8144SOL     OW30777   1.202   5.142   8.251  0.0356 -0.4700 -0.0364
 8144SOL    HW130778   1.170   5.060   8.289  3.6650 -2.1084 -0.0654
 8144SOL    HW230779   1.191   5.206   8.321  0.3528 -1.8295  1.3271
 8145SOL     OW30780   1.647   9.108   5.225 -0.3617 -0.3171  0.0745
 8145SOL    HW130781   1.688   9.080   5.307 -1.1155 -2.8259 -0.3168
 8145SOL    HW230782   1.718   9.102   5.160  0.1402  1.3200  0.4190
 8146SOL     OW30783   1.917   3.191   2.448  0.1575  0.3704  0.3411
 8146SOL    HW130784   1.851   3.175   2.515  1.1629  0.3997  1.3615
 8146SOL    HW230785   1.901   3.281   2.420 -1.6823 -0.3278 -1.1099
 8147SOL     OW30786   8.386   0.860   4.064  0.1363  0.1436  0.6534
 8147SOL    HW130787   8.389   0.956   4.072 -2.0245  0.2753  0.3650
 8147SOL    HW230788   8.387   0.829   4.154  1.2760  0.3845  0.7452
 8148SOL     OW30789   3.040   2.805   8.603 -0.4433 -0.1307 -0.5259
 8148SOL    HW130790   3.124   2.760   8.596 -0.4325 -0.8886  2.7604
 8148SOL    HW230791   3.064   2.897   8.618 -0.1256 -0.3829  0.6467
 8149SOL     OW30792   5.929   5.706   1.541  0.2008  0.1522 -0.2622
 8149SOL    HW130793   5.928   5.612   1.526 -2.6145  0.4757 -3.3118
 8149SOL    HW230794   5.887   5.717   1.627 -0.1092 -1.3379 -0.1988
 8150SOL     OW30795   4.677   3.266   7.758 -0.3641  0.3606  0.9596
 8150SOL    HW130796   4.640   3.186   7.797 -0.5184 -0.0591 -0.0132
 8150SOL    HW230797   4.736   3.234   7.689  1.6881  1.0275  2.3191
 8151SOL     OW30798   8.970   1.750   4.607  0.4803  0.4538  0.3560
 8151SOL    HW130799   9.026   1.745   4.684  1.0162  0.1237 -0.0479
 8151SOL    HW230800   8.965   1.660   4.574 -0.5317  0.4229  0.5499
 8152SOL     OW30801   6.234   6.157   1.790 -0.0027 -0.2320  0.0908
 8152SOL    HW130802   6.261   6.070   1.760  2.3435  0.7071 -0.7705
 8152SOL    HW230803   6.170   6.186   1.725  0.2750 -0.7734 -0.4354
 8153SOL     OW30804   5.988   1.335   8.438 -0.3016 -0.0925 -0.3298
 8153SOL    HW130805   6.007   1.415   8.488  0.3083 -0.5020  0.1009
 8153SOL    HW230806   6.013   1.264   8.496 -2.0487 -0.6560 -0.1930
 8154SOL     OW30807   3.832   4.671   7.875  0.4819 -0.5866  0.5126
 8154SOL    HW130808   3.830   4.767   7.876  1.7063 -0.5506  0.9087
 8154SOL    HW230809   3.740   4.645   7.880  0.1047  0.5686 -0.0539
 8155SOL     OW30810   2.863   5.170   5.851  0.5451 -0.7549 -0.1048
 8155SOL    HW130811   2.920   5.101   5.816 -0.7472 -1.6326 -0.5527
 8155SOL    HW230812   2.852   5.148   5.944  0.7622 -0.6998 -0.0657
 8156SOL     OW30813   0.462   3.125   5.019 -0.1167  0.0792  0.4120
 8156SOL    HW130814   0.499   3.045   4.982  2.5249  0.4688  1.9536
 8156SOL    HW230815   0.508   3.196   4.973  0.0603  0.6193  1.3911
 8157SOL     OW30816   8.068   3.807   1.888 -0.2424  0.4334  0.0196
 8157SOL    HW130817   8.038   3.758   1.812  1.1054 -1.7046  0.7849
 8157SOL    HW230818   7.993   3.861   1.913 -1.0999  0.2942 -2.0732
 8158SOL     OW30819   7.668   8.120   8.968  0.0869  0.8212 -0.0558
 8158SOL    HW130820   7.730   8.085   9.032 -1.2791  0.7317  1.3072
 8158SOL    HW230821   7.695   8.211   8.955  0.2888  0.9012  0.8304
 8159SOL     OW30822   2.776   6.709   2.389  0.2735  0.1663 -0.2957
 8159SOL    HW130823   2.823   6.791   2.380  1.6031 -0.0023  3.4135
 8159SOL    HW230824   2.687   6.735   2.413  0.6546  0.5810  0.7345
 8160SOL     OW30825   7.369   6.418   7.730  0.8304  0.1701  0.1919
 8160SOL    HW130826   7.301   6.442   7.668 -1.3316 -1.4095  1.7943
 8160SOL    HW230827   7.335   6.448   7.815  2.8917  0.7563  0.8707
 8161SOL     OW30828   3.756   1.738   1.796 -0.1295 -0.4143  0.4200
 8161SOL    HW130829   3.679   1.702   1.751  0.3577  0.5308 -1.2769
 8161SOL    HW230830   3.822   1.670   1.788 -0.1125 -0.3390 -0.1589
 8162SOL     OW30831   1.450   5.965   4.906 -0.7984 -0.2047  0.2602
 8162SOL    HW130832   1.452   6.023   4.830  1.9904  0.0700  0.4289
 8162SOL    HW230833   1.402   5.888   4.876 -2.4486  1.1334 -0.7444
 8163SOL     OW30834   3.067   8.456   6.043 -0.6899  0.0091  0.1185
 8163SOL    HW130835   3.138   8.500   6.090 -0.8533 -0.2675  0.6365
 8163SOL    HW230836   3.065   8.499   5.957  0.4369 -0.3300 -0.0971
 8164SOL     OW30837   2.674   7.223   6.305 -0.0428  0.1295  0.2503
 8164SOL    HW130838   2.721   7.245   6.385  1.5630  0.0275 -0.6049
 8164SOL    HW230839   2.732   7.161   6.260 -1.0599 -0.0782 -0.8378
 8165SOL     OW30840   7.511   9.164   5.076 -0.0525  0.9400  0.3290
 8165SOL    HW130841   7.445   9.096   5.087  1.6913 -1.0351 -0.8186
 8165SOL    HW230842   7.465   9.237   5.034 -1.7798  0.1925  0.8715
 8166SOL     OW30843   3.117   5.233   7.592  0.2086  0.5222 -0.5168
 8166SOL    HW130844   3.203   5.199   7.618  0.0970  0.5667 -0.0713
 8166SOL    HW230845   3.057   5.160   7.610  0.3188 -0.0030 -2.0962
 8167SOL     OW30846   1.804   5.550   0.681  0.2143 -0.0858  0.1455
 8167SOL    HW130847   1.774   5.640   0.666 -0.1992  0.0705  1.7259
 8167SOL    HW230848   1.836   5.550   0.771 -0.7507 -1.7735  0.5426
 8168SOL     OW30849   8.443   0.261   4.973 -0.6846  0.2445 -0.1491
 8168SOL    HW130850   8.459   0.236   4.882  0.4217  2.7694 -0.7321
 8168SOL    HW230851   8.521   0.231   5.021 -0.9860 -0.5249 -0.1204
 8169SOL     OW30852   5.606   6.305   6.598  0.1685  0.4049 -0.5443
 8169SOL    HW130853   5.547   6.317   6.673  1.0348 -0.9320  0.4017
 8169SOL    HW230854   5.583   6.219   6.563  2.0144 -0.4943  0.3145
 8170SOL     OW30855   6.281   0.926   5.031 -0.1322 -0.3538  0.2004
 8170SOL    HW130856   6.339   0.999   5.050 -0.5085 -0.2516  1.0564
 8170SOL    HW230857   6.271   0.925   4.936 -1.2358  1.5952  0.2505
 8171SOL     OW30858   8.860   6.001   1.885 -0.2082  0.0608  0.6978
 8171SOL    HW130859   8.823   6.072   1.938 -0.5982 -1.3898  2.4687
 8171SOL    HW230860   8.952   6.024   1.876 -0.5786  1.4309  0.1122
 8172SOL     OW30861   5.893   5.788   2.282 -0.4486  0.4939  0.5349
 8172SOL    HW130862   5.917   5.727   2.352 -2.1292  1.0927  1.7054
 8172SOL    HW230863   5.882   5.872   2.327  0.3039  1.3290 -0.7877
 8173SOL     OW30864   5.649   0.706   8.192  0.3455  0.0435 -0.3562
 8173SOL    HW130865   5.570   0.759   8.185  0.4944  0.3843  0.4166
 8173SOL    HW230866   5.687   0.730   8.277 -0.4281 -2.4348  0.7909
 8174SOL     OW30867   2.204   1.053   8.302  0.3195  0.4571  0.2554
 8174SOL    HW130868   2.168   0.984   8.247  0.8469 -0.0201  0.5053
 8174SOL    HW230869   2.165   1.038   8.388  1.7230 -0.5756  0.7474
 8175SOL     OW30870   3.155   2.405   2.183 -0.1007 -0.2604  0.2898
 8175SOL    HW130871   3.069   2.396   2.226  0.2780  0.5359  1.2688
 8175SOL    HW230872   3.215   2.359   2.241 -0.1967 -3.2563 -1.7856
 8176SOL     OW30873   3.021   2.297   0.356  0.2025  0.0522 -0.0927
 8176SOL    HW130874   2.965   2.298   0.279 -0.0264 -1.3574  0.0377
 8176SOL    HW230875   3.099   2.347   0.330 -1.5204  3.0408  0.0979
 8177SOL     OW30876   4.455   6.320   1.029  0.3038 -0.2128  0.0703
 8177SOL    HW130877   4.396   6.371   1.083 -1.6405 -0.8028 -1.3658
 8177SOL    HW230878   4.542   6.338   1.064 -0.7000  0.7467  2.2332
 8178SOL     OW30879   0.436   6.499   3.804  0.2911 -0.7464  0.1449
 8178SOL    HW130880   0.455   6.446   3.882 -0.0959 -1.0051  0.0685
 8178SOL    HW230881   0.521   6.531   3.776  0.4709 -0.8991  0.4998
 8179SOL     OW30882   6.209   5.363   7.796  0.3870  0.0614  0.1804
 8179SOL    HW130883   6.206   5.269   7.779 -1.1642  0.2954 -0.9700
 8179SOL    HW230884   6.231   5.370   7.889  2.5260 -1.3697 -0.1436
 8180SOL     OW30885   3.230   0.824   0.953  0.5213 -0.5965  0.1024
 8180SOL    HW130886   3.304   0.884   0.964  0.8510 -1.0914  0.6783
 8180SOL    HW230887   3.260   0.762   0.886  1.1214 -1.5099  1.1753
 8181SOL     OW30888   3.890   6.444   3.768  0.0207 -0.5642  0.1332
 8181SOL    HW130889   3.838   6.471   3.844 -0.5985  1.3412 -0.8964
 8181SOL    HW230890   3.975   6.487   3.781  0.4705 -1.5320  0.5027
 8182SOL     OW30891   1.486   4.392   4.701  0.5716  0.0274 -0.0610
 8182SOL    HW130892   1.398   4.360   4.719  0.7393 -0.7908 -0.6286
 8182SOL    HW230893   1.486   4.413   4.607  0.3069  2.2674  0.3984
 8183SOL     OW30894   3.838   7.895   6.229 -0.5983  0.0539  0.2020
 8183SOL    HW130895   3.759   7.842   6.232 -0.9245  0.5385  0.2517
 8183SOL    HW230896   3.809   7.980   6.196  0.2546 -0.4059 -1.8521
 8184SOL     OW30897   4.020   1.167   5.675  0.2839  0.2831  0.3821
 8184SOL    HW130898   3.970   1.150   5.755  3.2524 -1.4250  2.0694
 8184SOL    HW230899   4.107   1.191   5.706  1.8664 -1.4400 -2.2836
 8185SOL     OW30900   0.108   1.379   7.873  0.0409  0.4904 -0.1032
 8185SOL    HW130901   0.054   1.458   7.879 -1.8472 -0.7583  0.0409
 8185SOL    HW230902   0.122   1.367   7.779  1.0887  1.4424 -0.0957
 8186SOL     OW30903   1.785   1.270   8.310  0.3892  0.0646 -0.4059
 8186SOL    HW130904   1.828   1.195   8.351  2.1356  1.1567 -0.1163
 8186SOL    HW230905   1.712   1.233   8.260 -1.3003 -1.4661  2.8626
 8187SOL     OW30906   0.366   7.262   1.802  0.5000  0.5125  0.1416
 8187SOL    HW130907   0.439   7.213   1.764  0.2774 -0.8032  1.3558
 8187SOL    HW230908   0.320   7.199   1.857 -2.3917  0.9445 -1.6193
 8188SOL     OW30909   7.003   0.650   1.050  0.1278 -0.2159 -0.0722
 8188SOL    HW130910   7.019   0.559   1.072 -2.2619 -0.7288 -0.1355
 8188SOL    HW230911   6.907   0.657   1.045  0.2843  1.7770 -2.2344
 8189SOL     OW30912   3.169   5.530   9.024 -0.0133  0.1342 -0.1704
 8189SOL    HW130913   3.226   5.507   9.097 -1.6120 -0.8641  0.7905
 8189SOL    HW230914   3.120   5.451   9.005  0.5949  0.2474 -2.5937
 8190SOL     OW30915   0.474   3.696   4.489 -0.2551  0.4585 -0.5989
 8190SOL    HW130916   0.381   3.702   4.514 -0.6476 -1.0774 -1.5277
 8190SOL    HW230917   0.517   3.659   4.566 -0.6439  0.0753 -0.5561
 8191SOL     OW30918   4.280   5.604   2.913 -0.3234  0.6188  0.0356
 8191SOL    HW130919   4.315   5.524   2.953  1.7485  1.4797  0.0855
 8191SOL    HW230920   4.294   5.672   2.979  0.0156  1.4308 -0.8522
 8192SOL     OW30921   6.916   5.764   6.780  0.3251 -0.0685 -0.0270
 8192SOL    HW130922   6.982   5.750   6.847  0.8747  0.2702 -0.4902
 8192SOL    HW230923   6.891   5.856   6.789  0.8142  0.1341 -0.6426
 8193SOL     OW30924   3.077   7.438   6.730 -0.1373 -0.1755  0.2133
 8193SOL    HW130925   3.146   7.403   6.673 -0.8335 -1.2613  0.0021
 8193SOL    HW230926   3.028   7.361   6.757 -0.1733  0.3875  1.8350
 8194SOL     OW30927   5.409   1.379   3.363  0.2069 -0.0914 -0.5247
 8194SOL    HW130928   5.399   1.440   3.290  1.9885 -0.9852 -1.5892
 8194SOL    HW230929   5.321   1.345   3.378 -0.5733  1.6958 -0.8001
 8195SOL     OW30930   5.576   0.928   1.574  0.7568 -0.3187 -0.6736
 8195SOL    HW130931   5.482   0.930   1.556  0.6226 -2.2387 -0.3745
 8195SOL    HW230932   5.584   0.953   1.666  0.4796 -0.5975 -0.5717
 8196SOL     OW30933   3.530   1.310   4.858  0.1511  0.1286  0.7007
 8196SOL    HW130934   3.510   1.399   4.828  0.3976  0.6452  2.0230
 8196SOL    HW230935   3.597   1.322   4.925  1.4489 -1.1979 -0.2943
 8197SOL     OW30936   0.948   6.276   0.976 -0.3443  0.1477  0.4935
 8197SOL    HW130937   0.967   6.332   1.052  0.3110  1.7271 -0.7730
 8197SOL    HW230938   1.032   6.268   0.931 -0.9621  0.2510 -0.7104
 8198SOL     OW30939   0.732   4.558   2.191 -0.5834  0.2683 -0.1427
 8198SOL    HW130940   0.770   4.472   2.173  0.4560  0.7928 -0.5031
 8198SOL    HW230941   0.642   4.539   2.216 -0.2539 -0.9608  0.1758
 8199SOL     OW30942   3.742   4.533   6.646 -0.3281 -0.1286  0.1021
 8199SOL    HW130943   3.832   4.501   6.643 -1.1975 -2.7337 -0.7347
 8199SOL    HW230944   3.729   4.578   6.562 -1.0998 -3.9557 -2.0748
 8200SOL     OW30945   3.489   1.347   6.080  0.1890  1.0675 -0.8034
 8200SOL    HW130946   3.494   1.433   6.040  2.2303  1.4539  0.1639
 8200SOL    HW230947   3.549   1.351   6.155  0.5211 -1.2523 -0.8557
 8201SOL     OW30948   3.391   6.216   4.202 -0.5458  0.0246 -0.0360
 8201SOL    HW130949   3.328   6.246   4.136  0.2767 -0.3781 -1.0366
 8201SOL    HW230950   3.435   6.142   4.160 -0.0500 -0.2864  1.0054
 8202SOL     OW30951   4.660   8.163   5.018  0.0845 -0.0910  0.4164
 8202SOL    HW130952   4.695   8.213   4.945  1.7322 -0.0493  1.1789
 8202SOL    HW230953   4.728   8.098   5.037 -0.0676  0.2081  2.1941
 8203SOL     OW30954   7.217   0.680   0.239  0.0549 -0.2319 -0.0996
 8203SOL    HW130955   7.181   0.659   0.153 -1.5895 -0.0440  0.4987
 8203SOL    HW230956   7.238   0.774   0.233 -1.9501  0.3034  0.2618
 8204SOL     OW30957   7.244   3.949   7.760 -0.5852  0.0022  0.4707
 8204SOL    HW130958   7.167   3.892   7.760 -1.3485  0.9887  1.6928
 8204SOL    HW230959   7.209   4.038   7.766  0.6089  0.5717 -0.5172
 8205SOL     OW30960   9.155   4.972   3.542  0.1122  0.2709 -0.3203
 8205SOL    HW130961   9.149   4.915   3.466  0.4999 -0.2720  0.0529
 8205SOL    HW230962   9.073   5.022   3.540  0.0061  0.0825 -0.9479
 8206SOL     OW30963   2.974   2.349   2.720 -0.0128  0.2206 -0.4403
 8206SOL    HW130964   3.017   2.433   2.736  1.1224 -0.2557 -0.8656
 8206SOL    HW230965   2.881   2.366   2.734  0.1995  1.5458 -0.5353
 8207SOL     OW30966   6.581   9.154   5.832 -0.1150  0.0971  0.0002
 8207SOL    HW130967   6.514   9.085   5.835 -1.0838  1.0119  0.4788
 8207SOL    HW230968   6.568   9.202   5.914  0.0102  1.3113 -0.6680
 8208SOL     OW30969   1.418   7.724   0.451 -0.1539  0.4595 -0.6903
 8208SOL    HW130970   1.450   7.810   0.421 -0.0578  0.2328 -1.2474
 8208SOL    HW230971   1.485   7.663   0.422  0.1524  0.2723  0.3632
 8209SOL     OW30972   4.905   5.836   2.314  0.0008 -0.1035  0.0288
 8209SOL    HW130973   4.933   5.867   2.400  0.0259  1.0791 -0.3858
 8209SOL    HW230974   4.977   5.859   2.255  1.0266 -2.9460  0.0122
 8210SOL     OW30975   6.879   0.094   2.358  0.2757 -0.1834  0.0479
 8210SOL    HW130976   6.868   0.105   2.452  0.8276 -0.2979  0.1282
 8210SOL    HW230977   6.974   0.093   2.345  0.2016  0.4766 -0.5847
 8211SOL     OW30978   0.971   5.018   6.426  0.2305 -0.2552 -0.2570
 8211SOL    HW130979   0.915   4.941   6.435 -2.2695  1.2452 -1.6843
 8211SOL    HW230980   0.958   5.067   6.507 -1.0996  0.3913 -0.8360
 8212SOL     OW30981   5.388   3.970   0.991 -0.4109  0.1481  0.5897
 8212SOL    HW130982   5.429   4.047   1.031  0.8124 -0.6185  0.8712
 8212SOL    HW230983   5.304   3.962   1.037 -0.0148  0.6003  1.4291
 8213SOL     OW30984   2.453   5.580   2.835  0.3015 -0.3221  0.0608
 8213SOL    HW130985   2.371   5.628   2.842  1.9443  3.0696 -1.5674
 8213SOL    HW230986   2.451   5.519   2.909 -2.0172  2.2784  2.4130
 8214SOL     OW30987   0.651   1.210   4.998 -0.3755  0.2905  0.5625
 8214SOL    HW130988   0.656   1.229   5.092  0.9583  0.3241  0.5068
 8214SOL    HW230989   0.708   1.133   4.986 -0.7452  0.1203 -0.1779
 8215SOL     OW30990   2.771   0.522   0.001 -0.0292  0.1064  0.0058
 8215SOL    HW130991   2.803   0.432  -0.004  2.8599  0.9946  0.6464
 8215SOL    HW230992   2.701   0.519   0.066  0.2232 -1.5922  0.2442
 8216SOL     OW30993   6.252   5.971   5.548 -0.0987 -0.5807  0.1202
 8216SOL    HW130994   6.210   5.903   5.494 -0.0068  1.2995 -2.5018
 8216SOL    HW230995   6.190   6.043   5.548  0.1830 -0.2891  2.1338
 8217SOL     OW30996   8.590   8.538   3.310 -0.4805  0.0280 -0.2907
 8217SOL    HW130997   8.583   8.495   3.395  1.7650 -0.0500 -0.0773
 8217SOL    HW230998   8.648   8.612   3.325 -0.3670  0.2467 -1.6597
 8218SOL     OW30999   1.388   3.972   2.422 -0.5678 -0.6610 -0.5554
 8218SOL    HW131000   1.456   3.910   2.449  1.4778  1.1112 -1.3325
 8218SOL    HW231001   1.355   4.009   2.504  2.5027  1.5125 -0.1182
 8219SOL     OW31002   1.415   2.303   0.041 -0.2199 -0.1254  0.1828
 8219SOL    HW131003   1.350   2.256   0.092  0.4629 -1.5668 -0.2151
 8219SOL    HW231004   1.415   2.392   0.077 -2.1046 -0.1959  0.4404
 8220SOL     OW31005   2.041   3.350   5.979 -0.9103  0.5384 -0.1733
 8220SOL    HW131006   2.119   3.405   5.990  0.3366 -1.1131 -0.3516
 8220SOL    HW231007   1.968   3.412   5.977  0.4458  2.1985 -0.6653
 8221SOL     OW31008   2.192   9.154   8.569  0.2135  0.0121 -0.1754
 8221SOL    HW131009   2.241   9.234   8.591  0.3892 -0.5905  1.8057
 8221SOL    HW231010   2.113   9.187   8.526  1.2988  1.1175 -1.4171
 8222SOL     OW31011   3.649   0.534   3.580 -0.1344 -0.3340  0.2315
 8222SOL    HW131012   3.641   0.476   3.656  1.8936 -0.5662  0.3435
 8222SOL    HW231013   3.618   0.619   3.611 -0.6243 -0.7483  0.8999
 8223SOL     OW31014   6.062   0.734   1.582 -0.2582 -0.2459 -0.0884
 8223SOL    HW131015   6.067   0.714   1.676 -0.0094 -2.1441 -0.4667
 8223SOL    HW231016   5.988   0.795   1.575  0.6171  1.1073  1.4862
 8224SOL     OW31017   8.661   3.491   3.783 -0.1656  0.4797  0.3845
 8224SOL    HW131018   8.724   3.501   3.712  0.8162 -1.0642  0.9800
 8224SOL    HW231019   8.579   3.467   3.740  0.1923  0.4307 -0.2789
 8225SOL     OW31020   1.341   5.221   4.365 -0.3673  0.0279 -0.6689
 8225SOL    HW131021   1.325   5.255   4.453  0.0606 -1.4762  0.0231
 8225SOL    HW231022   1.318   5.294   4.306  0.3269  1.4014  0.7066
 8226SOL     OW31023   2.839   5.352   8.229 -0.1398 -0.2250  0.0520
 8226SOL    HW131024   2.792   5.356   8.312 -0.8033 -1.1528 -0.2709
 8226SOL    HW231025   2.850   5.444   8.203 -1.2609  0.0249  0.4245
 8227SOL     OW31026   4.866   8.451   8.854 -0.0169  0.0513  0.0663
 8227SOL    HW131027   4.808   8.414   8.789 -1.9296 -0.0950  1.7613
 8227SOL    HW231028   4.817   8.446   8.936  1.3790  2.2838  1.1357
 8228SOL     OW31029   0.755   0.965   1.629  0.1601  0.0560 -0.0258
 8228SOL    HW131030   0.789   1.005   1.708  0.9706 -0.9522  0.1725
 8228SOL    HW231031   0.732   1.038   1.572 -2.4130  0.8751  1.8734
 8229SOL     OW31032   6.210   0.486   0.067  0.1604  0.2642 -0.2238
 8229SOL    HW131033   6.213   0.581   0.079  0.8236  0.3417 -0.9087
 8229SOL    HW231034   6.117   0.466   0.056 -0.0291  0.7600  0.4299
 8230SOL     OW31035   2.586   7.360   7.999 -0.1037  0.7118  0.2553
 8230SOL    HW131036   2.523   7.301   7.957 -0.3669  0.8357  0.4761
 8230SOL    HW231037   2.653   7.302   8.035  0.9968  0.6731 -1.7279
 8231SOL     OW31038   8.037   4.743   3.343 -0.1965 -0.2859 -0.2846
 8231SOL    HW131039   8.026   4.649   3.361  0.6787 -0.1986  0.8149
 8231SOL    HW231040   7.951   4.781   3.360 -0.6991 -0.9478 -1.2367
 8232SOL     OW31041   7.928   7.038   1.181 -0.5880  0.3100  0.2536
 8232SOL    HW131042   7.996   7.062   1.119 -0.2371 -0.3638  0.3633
 8232SOL    HW231043   7.903   6.949   1.156 -1.1535  0.4086  0.4554
 8233SOL     OW31044   4.710   3.606   8.211 -0.0469  0.4350  0.0245
 8233SOL    HW131045   4.765   3.648   8.146 -1.0832  0.9518 -0.5550
 8233SOL    HW231046   4.661   3.540   8.161  0.5957 -0.5611  0.6694
 8234SOL     OW31047   5.878   7.667   6.670 -0.2047 -0.2844 -0.5811
 8234SOL    HW131048   5.963   7.677   6.713 -1.2799  2.4942  1.2312
 8234SOL    HW231049   5.874   7.575   6.645  2.5544 -0.9451  0.9496
 8235SOL     OW31050   9.227   6.307   1.112 -0.3988  0.5357 -0.4507
 8235SOL    HW131051   9.212   6.399   1.133 -1.5555  0.4218 -0.7053
 8235SOL    HW231052   9.258   6.268   1.194  1.8992  1.4980 -0.8001
 8236SOL     OW31053   5.135   1.898   2.218 -0.5264  0.1785  0.4485
 8236SOL    HW131054   5.075   1.824   2.215 -0.9463  0.4427  1.6175
 8236SOL    HW231055   5.216   1.862   2.256 -0.0135 -0.1214 -0.8914
 8237SOL     OW31056   7.372   8.895   8.063 -0.2011 -0.2011  0.0887
 8237SOL    HW131057   7.344   8.987   8.067 -1.5177 -0.5801  0.1947
 8237SOL    HW231058   7.393   8.880   7.971 -1.3062 -0.1405 -0.1930
 8238SOL     OW31059   7.211   7.491   5.449  0.5202 -0.2124  0.1736
 8238SOL    HW131060   7.159   7.541   5.511  0.5823  1.8126 -1.2681
 8238SOL    HW231061   7.301   7.501   5.479  0.3813 -0.9147  0.8334
 8239SOL     OW31062   7.150   0.361   4.366 -0.1333 -0.0890 -0.0167
 8239SOL    HW131063   7.059   0.390   4.354  0.3551  1.2644 -0.6006
 8239SOL    HW231064   7.200   0.442   4.375  1.2152 -0.7813 -1.0157
 8240SOL     OW31065   2.417   4.983   5.696  0.0235 -0.8580 -0.4920
 8240SOL    HW131066   2.426   5.077   5.678  0.2064 -0.4819  1.3486
 8240SOL    HW231067   2.495   4.944   5.658  1.1667  0.0991  0.7652
 8241SOL     OW31068   3.419   4.215   1.601  0.8194 -0.2388 -0.2661
 8241SOL    HW131069   3.339   4.259   1.629  0.5456 -0.9717  0.1061
 8241SOL    HW231070   3.392   4.159   1.529  0.7839 -1.2550  0.5090
 8242SOL     OW31071   5.743   6.857   6.428  0.3424  0.2816 -0.2246
 8242SOL    HW131072   5.790   6.774   6.436 -0.3199 -0.0226  0.6558
 8242SOL    HW231073   5.761   6.903   6.510 -1.8666 -0.3816  0.7024
 8243SOL     OW31074   6.471   2.996   6.461 -0.5284 -0.0633  0.0351
 8243SOL    HW131075   6.561   3.023   6.480 -0.4538 -0.2047 -0.1098
 8243SOL    HW231076   6.417   3.067   6.495 -0.4103 -0.3685  0.8862
 8244SOL     OW31077   1.266   3.396   5.692 -0.0883 -0.3427 -0.1585
 8244SOL    HW131078   1.205   3.336   5.649  0.1417 -0.7676  0.1130
 8244SOL    HW231079   1.254   3.479   5.644 -2.2864  0.1585  1.0845
 8245SOL     OW31080   8.055   2.062   3.185 -0.6953  0.2781  0.2778
 8245SOL    HW131081   8.058   1.997   3.115  2.9395 -0.0545  0.5746
 8245SOL    HW231082   8.110   2.134   3.154  2.4099 -0.5707  3.2313
 8246SOL     OW31083   7.733   7.470   1.160 -0.6426 -0.4116 -0.1151
 8246SOL    HW131084   7.688   7.409   1.101 -0.9621 -0.6357  0.3548
 8246SOL    HW231085   7.818   7.484   1.118 -1.5168  0.8596 -1.5796
 8247SOL     OW31086   5.985   3.761   7.333  0.1004  0.5971 -0.0751
 8247SOL    HW131087   6.016   3.727   7.417 -0.2378  2.5697  0.8959
 8247SOL    HW231088   6.033   3.842   7.320 -1.3897  1.4116 -0.7419
 8248SOL     OW31089   1.851   5.628   2.404  0.0701  0.2217 -0.8026
 8248SOL    HW131090   1.877   5.615   2.313  0.7660  0.5519 -0.6554
 8248SOL    HW231091   1.920   5.585   2.455 -0.7922 -0.7694 -0.4447
 8249SOL     OW31092   7.552   2.516   3.331 -0.2195 -0.4931 -0.3271
 8249SOL    HW131093   7.537   2.424   3.311 -0.5632 -0.3849 -0.5884
 8249SOL    HW231094   7.483   2.562   3.283  0.3850 -0.0476 -0.7952
 8250SOL     OW31095   4.585   9.175   2.927 -0.0525 -0.0560 -0.3013
 8250SOL    HW131096   4.531   9.195   2.850 -1.0247 -2.2760 -0.2608
 8250SOL    HW231097   4.673   9.165   2.891 -0.4059 -0.5779 -1.0684
 8251SOL     OW31098   1.701   8.798   7.275  0.3953  0.0465 -0.5625
 8251SOL    HW131099   1.636   8.767   7.211  0.2576 -1.4179  0.2347
 8251SOL    HW231100   1.762   8.850   7.223 -0.5756  0.2010 -1.6034
 8252SOL     OW31101   6.854   6.027   6.723  0.5755 -0.0412  0.1953
 8252SOL    HW131102   6.899   6.062   6.800 -0.8045 -1.1812  1.5800
 8252SOL    HW231103   6.774   6.079   6.717  0.7141  0.0946 -0.5474
 8253SOL     OW31104   4.571   5.056   5.847  0.6049  0.2126 -0.1184
 8253SOL    HW131105   4.661   5.052   5.880  0.8138  0.2052 -0.6675
 8253SOL    HW231106   4.575   5.121   5.777  0.4627 -0.7252 -1.0120
 8254SOL     OW31107   5.063   0.615   5.446  0.0138 -0.3366  0.0380
 8254SOL    HW131108   5.095   0.587   5.532 -1.1622 -0.2502  0.5331
 8254SOL    HW231109   4.974   0.647   5.464 -0.0276  0.2289 -1.1224
 8255SOL     OW31110   3.968   7.738   0.112  0.1059 -0.4664 -0.0360
 8255SOL    HW131111   3.876   7.753   0.135 -0.0506  0.9528 -1.4310
 8255SOL    HW231112   3.995   7.819   0.068  2.4814 -0.2273  1.6696
 8256SOL     OW31113   4.756   0.537   0.517 -0.1626  0.6907  0.2739
 8256SOL    HW131114   4.852   0.532   0.511 -0.2080  0.5900 -0.3944
 8256SOL    HW231115   4.739   0.626   0.547  0.0324  1.8266 -2.6562
 8257SOL     OW31116   2.272   0.192   5.057 -0.3433 -0.3809  0.4088
 8257SOL    HW131117   2.281   0.279   5.019 -1.6557 -0.1744  0.5518
 8257SOL    HW231118   2.354   0.148   5.034  0.6703  1.1115  0.9633
 8258SOL     OW31119   2.356   1.923   6.917  0.3344  0.0894 -0.5534
 8258SOL    HW131120   2.420   1.970   6.864 -0.8207  2.3414 -0.0626
 8258SOL    HW231121   2.296   1.884   6.853  1.0825 -0.4462 -0.9540
 8259SOL     OW31122   6.337   5.672   9.081  0.0352  0.6774  0.5889
 8259SOL    HW131123   6.257   5.634   9.044  0.9345 -0.7253 -0.0383
 8259SOL    HW231124   6.307   5.736   9.145 -1.6102 -1.0525  1.6509
 8260SOL     OW31125   7.881   0.551   0.057  0.2373 -0.4722  0.2078
 8260SOL    HW131126   7.963   0.547   0.007 -0.5513 -0.9962 -1.0872
 8260SOL    HW231127   7.817   0.505   0.003 -1.3091  1.3006  0.4162
 8261SOL     OW31128   1.675   1.431   5.263 -0.3552 -0.1163  0.2219
 8261SOL    HW131129   1.637   1.518   5.271 -2.5894 -1.0039  0.1750
 8261SOL    HW231130   1.673   1.396   5.352  0.6810 -0.0838  0.2689
 8262SOL     OW31131   1.854   7.272   4.252  0.1177  0.1025  0.3183
 8262SOL    HW131132   1.827   7.262   4.161  2.0065 -0.1947 -0.2447
 8262SOL    HW231133   1.840   7.186   4.291  1.7837 -0.5428 -0.4266
 8263SOL     OW31134   6.906   9.086   5.664  0.4550 -0.4137 -0.6092
 8263SOL    HW131135   6.973   9.150   5.692 -0.4270 -0.0512  0.7823
 8263SOL    HW231136   6.895   9.029   5.740 -1.5137  0.1361 -0.4462
 8264SOL     OW31137   4.723   3.887   7.105  0.5238  0.2304 -0.7654
 8264SOL    HW131138   4.715   3.934   7.022 -0.0879  1.0255 -0.2685
 8264SOL    HW231139   4.638   3.898   7.147  1.4734  1.6858  0.9136
 8265SOL     OW31140   3.957   2.314   0.602 -0.7558 -0.1332  0.2233
 8265SOL    HW131141   4.031   2.371   0.625 -0.8969  0.1999 -0.1335
 8265SOL    HW231142   3.880   2.367   0.622 -0.8815  0.2862 -1.2707
 8266SOL     OW31143   3.251   2.490   3.327  0.3237 -0.9272 -0.0080
 8266SOL    HW131144   3.274   2.566   3.381 -2.3863 -0.6105  0.8321
 8266SOL    HW231145   3.200   2.434   3.385  1.5375 -3.0631 -0.8651
 8267SOL     OW31146   0.803   4.745   0.386 -0.1467 -0.0178  0.7343
 8267SOL    HW131147   0.890   4.727   0.420 -0.3819  1.5795  2.3497
 8267SOL    HW231148   0.808   4.834   0.352 -1.0561 -0.0324  0.5286
 8268SOL     OW31149   0.800   3.754   1.623 -0.6327 -0.7153  0.4753
 8268SOL    HW131150   0.880   3.784   1.666 -1.0580  0.1465  0.6936
 8268SOL    HW231151   0.828   3.684   1.565  0.1524 -1.0028  1.1880
 8269SOL     OW31152   8.923   7.673   9.171  0.0500  0.8826  0.3745
 8269SOL    HW131153   8.950   7.731   9.243 -1.7617  1.7627  0.3888
 8269SOL    HW231154   9.003   7.660   9.120  1.0752  1.2883  1.8246
 8270SOL     OW31155   3.914   5.953   0.230  0.1198  0.1514  0.1506
 8270SOL    HW131156   3.930   5.887   0.163  1.8889  1.4100 -0.7674
 8270SOL    HW231157   3.993   5.952   0.284  0.9978  2.5804 -0.9151
 8271SOL     OW31158   0.783   0.077   3.832  0.4216  0.0953 -0.2970
 8271SOL    HW131159   0.709   0.086   3.892  0.2549 -2.1882 -0.0567
 8271SOL    HW231160   0.790   0.162   3.789 -1.4009  0.8279  0.7434
 8272SOL     OW31161   2.361   3.522   6.961  0.0320  0.0247 -0.3309
 8272SOL    HW131162   2.441   3.504   7.011 -0.4490 -1.2943  0.0008
 8272SOL    HW231163   2.392   3.543   6.873  0.7241 -0.8606 -0.3078
 8273SOL     OW31164   8.687   8.898   5.155  0.3210  0.2938  0.3735
 8273SOL    HW131165   8.699   8.836   5.227 -0.9635 -1.2422 -0.6492
 8273SOL    HW231166   8.628   8.965   5.189 -1.6835 -1.3343  0.3291
 8274SOL     OW31167   1.216   3.385   6.319  0.7347  0.5408  0.2376
 8274SOL    HW131168   1.202   3.368   6.225 -3.1229 -1.8090  1.0159
 8274SOL    HW231169   1.155   3.456   6.339  2.2698  1.7377  0.8833
 8275SOL     OW31170   6.106   0.113   0.302 -0.2837 -0.0144 -0.0472
 8275SOL    HW131171   6.179   0.150   0.252  0.2002  0.4027  0.9569
 8275SOL    HW231172   6.086   0.178   0.368 -0.9184 -0.5637  0.3120
 8276SOL     OW31173   1.935   0.676   4.684 -0.5194 -0.0256  0.1043
 8276SOL    HW131174   1.884   0.749   4.720  1.4583  1.3651  0.2486
 8276SOL    HW231175   1.897   0.661   4.598 -1.7524  0.3410  0.5524
 8277SOL     OW31176   7.837   3.570   6.720 -0.0867 -0.0835 -0.2356
 8277SOL    HW131177   7.872   3.638   6.777 -0.4643 -0.0943  0.0145
 8277SOL    HW231178   7.808   3.617   6.642 -1.1169  0.1738  0.2773
 8278SOL     OW31179   7.125   4.775   2.089  0.1487  0.5507 -0.7475
 8278SOL    HW131180   7.092   4.837   2.154 -1.1460  0.4219 -1.2627
 8278SOL    HW231181   7.197   4.822   2.046  1.1757  0.5681  0.8690
 8279SOL     OW31182   1.469   1.016   6.362  0.1952  0.4062 -0.1188
 8279SOL    HW131183   1.451   0.926   6.335 -0.6860 -0.1858  2.2116
 8279SOL    HW231184   1.384   1.052   6.385  0.7640  1.1708  0.8658
 8280SOL     OW31185   3.873   0.833   6.448  0.0707 -0.0653 -0.1167
 8280SOL    HW131186   3.968   0.824   6.444  0.2831 -0.4763  3.1858
 8280SOL    HW231187   3.858   0.887   6.526 -2.4397 -1.0166  0.1314
 8281SOL     OW31188   6.024   8.785   4.108 -0.0758 -0.0218 -0.1020
 8281SOL    HW131189   5.982   8.702   4.083  0.7407 -0.4777 -0.0005
 8281SOL    HW231190   6.056   8.821   4.025  0.5356 -0.3602 -0.0223
 8282SOL     OW31191   7.741   7.051   2.962 -0.0059 -0.1626  0.2696
 8282SOL    HW131192   7.836   7.058   2.954  0.1179 -2.0351 -0.3983
 8282SOL    HW231193   7.707   7.117   2.901  0.9120 -0.9049 -1.1240
 8283SOL     OW31194   2.297   3.351   6.314 -0.4500  0.4547  0.3007
 8283SOL    HW131195   2.240   3.312   6.380 -1.7566 -0.6439 -1.3863
 8283SOL    HW231196   2.253   3.434   6.292  0.0851  0.9102  0.9189
 8284SOL     OW31197   1.034   5.893   7.045  0.1976 -0.0933 -0.6417
 8284SOL    HW131198   1.068   5.973   7.083 -2.6668  0.5911  0.7476
 8284SOL    HW231199   0.939   5.907   7.039 -0.3159 -3.0578 -1.1236
 8285SOL     OW31200   5.551   6.657   1.304  0.2769 -0.0726  0.4348
 8285SOL    HW131201   5.637   6.631   1.335 -0.3850 -1.9012  0.8565
 8285SOL    HW231202   5.507   6.693   1.381  0.5725  0.6462  0.2729
 8286SOL     OW31203   6.548   8.094   1.474 -0.4419  0.6817  0.5024
 8286SOL    HW131204   6.609   8.108   1.546  0.1136  0.0435  0.1654
 8286SOL    HW231205   6.508   8.180   1.459 -0.5142  0.8304  1.5207
 8287SOL     OW31206   5.038   2.819   1.101 -0.2689 -0.5917  0.0106
 8287SOL    HW131207   5.052   2.724   1.106  0.1111 -0.4956  1.4638
 8287SOL    HW231208   4.952   2.828   1.062  0.4733 -1.4522 -1.9889
 8288SOL     OW31209   8.097   5.059   7.007 -0.1098  0.6297 -0.0681
 8288SOL    HW131210   8.036   5.068   6.934 -1.3897 -1.4037  0.6667
 8288SOL    HW231211   8.075   5.131   7.066 -1.5155  0.2222 -0.0556
 8289SOL     OW31212   2.493   2.188   4.999 -0.0162 -0.0265  0.0770
 8289SOL    HW131213   2.465   2.126   5.066 -0.0446  1.3675  1.4142
 8289SOL    HW231214   2.419   2.247   4.989  0.0857 -0.0650 -1.0260
 8290SOL     OW31215   2.563   7.015   2.273 -0.7011  0.6509 -0.1031
 8290SOL    HW131216   2.567   7.043   2.364  2.5837 -0.1255  0.1192
 8290SOL    HW231217   2.579   7.096   2.223 -2.2048  1.0210 -0.0368
 8291SOL     OW31218   7.998   8.092   0.065  0.4447  0.2038  0.0924
 8291SOL    HW131219   7.973   8.177   0.099 -1.1366  0.8650 -2.4160
 8291SOL    HW231220   8.059   8.111  -0.006  0.3890 -0.7685 -0.2372
 8292SOL     OW31221   3.620   5.723   0.536 -0.6873  0.4196 -0.4353
 8292SOL    HW131222   3.660   5.810   0.534 -0.5692  0.4690  1.6048
 8292SOL    HW231223   3.526   5.740   0.536 -0.6648  0.5510 -0.1827
 8293SOL     OW31224   6.318   1.109   2.812 -0.5960 -0.1273  0.1883
 8293SOL    HW131225   6.248   1.115   2.747 -0.5123 -0.0192  0.1093
 8293SOL    HW231226   6.399   1.120   2.762 -0.3332 -2.9931 -0.1872
 8294SOL     OW31227   3.765   1.857   3.934  0.8900  0.1967 -0.0164
 8294SOL    HW131228   3.735   1.933   3.884 -0.6885 -1.4484 -1.7619
 8294SOL    HW231229   3.855   1.843   3.905  1.2808  1.4972  0.5057
 8295SOL     OW31230   6.756   5.110   1.402 -0.0222 -0.2118  0.2735
 8295SOL    HW131231   6.799   5.081   1.321 -0.4941 -0.2990  0.0507
 8295SOL    HW231232   6.820   5.167   1.444  0.3934 -0.5059  0.0479
 8296SOL     OW31233   5.745   1.368   0.269 -0.6700 -0.5121 -0.0921
 8296SOL    HW131234   5.792   1.433   0.216  2.2174 -1.6502  0.8756
 8296SOL    HW231235   5.687   1.420   0.325 -0.2509  1.0239 -1.0235
 8297SOL     OW31236   4.305   0.389   2.964 -0.4181 -0.5161 -0.3851
 8297SOL    HW131237   4.273   0.299   2.961  0.2631 -0.7522 -0.9721
 8297SOL    HW231238   4.386   0.387   2.912 -0.6192  0.5246 -0.7499
 8298SOL     OW31239   2.807   6.428   4.122  0.2111 -0.0457 -0.3544
 8298SOL    HW131240   2.811   6.451   4.215  1.5709 -2.4097  0.2556
 8298SOL    HW231241   2.715   6.405   4.108 -0.8802  3.8137 -0.6416
 8299SOL     OW31242   4.432   8.164   2.085 -1.0123  0.6436 -0.8056
 8299SOL    HW131243   4.379   8.243   2.068 -1.7282 -0.0106 -1.7153
 8299SOL    HW231244   4.450   8.129   1.998 -0.0053  0.2375 -0.4396
 8300SOL     OW31245   6.868   7.502   0.045 -0.0382  0.1824 -0.0172
 8300SOL    HW131246   6.858   7.586   0.090 -0.6228  0.7569 -1.1751
 8300SOL    HW231247   6.784   7.490  -0.000 -0.4333 -1.6374  1.1188
 8301SOL     OW31248   7.199   3.788   6.824  0.4619  0.1981  0.2217
 8301SOL    HW131249   7.117   3.784   6.873 -0.2989 -1.8160 -1.0870
 8301SOL    HW231250   7.176   3.762   6.735  2.0925  2.1422 -0.8424
 8302SOL     OW31251   1.685   6.174   8.439 -0.2738  0.3957  0.0347
 8302SOL    HW131252   1.642   6.151   8.357 -1.0117  0.7191  0.3288
 8302SOL    HW231253   1.730   6.257   8.419 -1.4505  1.1151  0.2847
 8303SOL     OW31254   6.640   1.434   0.528 -0.0688  0.3896  0.0929
 8303SOL    HW131255   6.558   1.458   0.571 -0.7215  1.2876 -1.5459
 8303SOL    HW231256   6.612   1.395   0.445  1.1373 -1.1602  0.3662
 8304SOL     OW31257   2.988   7.681   4.300 -0.4336  0.0166  0.4146
 8304SOL    HW131258   3.081   7.662   4.297  0.0961  1.5673  3.3930
 8304SOL    HW231259   2.976   7.754   4.239  0.4889  0.4855  0.7820
 8305SOL     OW31260   1.650   8.025   2.517  0.7070 -0.1882  0.1414
 8305SOL    HW131261   1.611   8.085   2.581  0.7198  0.6347 -0.6067
 8305SOL    HW231262   1.688   8.082   2.451 -1.0251 -0.9928 -1.6484
 8306SOL     OW31263   2.999   1.124   6.381 -0.3197 -0.3410  0.8546
 8306SOL    HW131264   3.052   1.092   6.308  0.1528 -1.1951  1.5516
 8306SOL    HW231265   3.053   1.192   6.421 -0.9239  0.7098 -0.0586
 8307SOL     OW31266   5.178   5.914   7.056  0.2731  0.2690  0.2005
 8307SOL    HW131267   5.147   5.879   6.973  0.0145  0.9421  0.0098
 8307SOL    HW231268   5.111   5.888   7.119  0.4181 -0.1523  0.1840
 8308SOL     OW31269   6.446   2.458   8.752 -0.5847 -0.1885  0.1080
 8308SOL    HW131270   6.362   2.472   8.709 -1.1434  2.5919  1.8606
 8308SOL    HW231271   6.424   2.436   8.842  0.4718  2.1200  1.0093
 8309SOL     OW31272   6.690   7.495   5.915  0.1753 -0.2749  0.2969
 8309SOL    HW131273   6.629   7.530   5.980 -1.9603  0.9327 -2.1766
 8309SOL    HW231274   6.714   7.408   5.948 -1.5204 -0.0808  2.2154
 8310SOL     OW31275   4.368   0.228   4.901 -0.4040 -0.5000 -0.3639
 8310SOL    HW131276   4.405   0.226   4.813 -0.1538 -0.3181 -0.2660
 8310SOL    HW231277   4.322   0.312   4.906  0.6291  0.0526  0.0904
 8311SOL     OW31278   0.220   8.202   3.150 -0.4123  0.0857 -0.5653
 8311SOL    HW131279   0.188   8.245   3.071  0.6070 -0.1222 -1.1070
 8311SOL    HW231280   0.141   8.170   3.194 -1.4247  3.8994  0.7707
 8312SOL     OW31281   2.577   3.632   3.898  0.0626 -0.3847  0.4949
 8312SOL    HW131282   2.548   3.625   3.807 -1.2927  1.4698  0.7301
 8312SOL    HW231283   2.663   3.675   3.893 -0.4278  0.5792  0.1067
 8313SOL     OW31284   2.376   1.787   7.515  0.2667 -0.0485 -0.6031
 8313SOL    HW131285   2.410   1.873   7.491  0.5616 -0.5914 -2.2413
 8313SOL    HW231286   2.430   1.761   7.589  0.4729  0.9774 -0.3723
 8314SOL     OW31287   5.200   1.133   7.522  0.0569  0.1832 -0.0328
 8314SOL    HW131288   5.194   1.118   7.428  0.2119 -0.3402  0.0369
 8314SOL    HW231289   5.289   1.166   7.535  0.1031  0.0666 -0.0481
 8315SOL     OW31290   8.935   7.748   7.303 -0.0498  0.2583 -0.0333
 8315SOL    HW131291   8.950   7.669   7.355 -1.9131  0.0366  0.2301
 8315SOL    HW231292   8.937   7.717   7.212  0.8513  0.2165 -0.0052
 8316SOL     OW31293   2.865   7.190   8.463  0.1759 -0.0208  0.1650
 8316SOL    HW131294   2.890   7.254   8.397 -2.1380  0.4899 -0.3312
 8316SOL    HW231295   2.944   7.139   8.479  1.6834  1.9702 -0.5405
 8317SOL     OW31296   4.024   7.962   9.227 -0.4245  0.1352 -0.1196
 8317SOL    HW131297   3.954   8.027   9.238 -1.2558 -0.8159  0.4149
 8317SOL    HW231298   3.996   7.908   9.153  0.1278  0.2180 -0.3912
 8318SOL     OW31299   1.033   3.644   2.294  0.6706 -0.5887 -0.8679
 8318SOL    HW131300   1.087   3.640   2.216  1.0896 -1.3136 -0.5428
 8318SOL    HW231301   1.091   3.621   2.366  0.1616 -0.4463 -0.3972
 8319SOL     OW31302   0.015   4.657   4.495  0.4308  0.2691  0.3315
 8319SOL    HW131303   0.076   4.684   4.563 -0.2550 -2.2715  2.0900
 8319SOL    HW231304   0.022   4.562   4.492 -2.5260 -0.0404 -0.2481
 8320SOL     OW31305   3.373   8.269   0.707  0.9941 -0.2177 -0.1714
 8320SOL    HW131306   3.359   8.235   0.618  1.9480  0.7238 -0.7003
 8320SOL    HW231307   3.366   8.192   0.763 -1.3393 -0.5909 -0.8511
 8321SOL     OW31308   4.158   3.063   2.220  0.3756 -0.1703  0.0107
 8321SOL    HW131309   4.157   2.997   2.289  0.0708  0.5174  0.6792
 8321SOL    HW231310   4.070   3.102   2.223 -0.0790 -0.9846 -1.6103
 8322SOL     OW31311   6.549   2.310   7.832  0.1842  0.4184  0.4285
 8322SOL    HW131312   6.511   2.235   7.878  0.0596 -0.4753 -1.0459
 8322SOL    HW231313   6.540   2.383   7.893 -1.6364 -0.2994  1.0961
 8323SOL     OW31314   7.198   3.002   8.774 -0.1041 -0.6512  0.0154
 8323SOL    HW131315   7.182   2.970   8.863  0.4146 -0.9492  0.0121
 8323SOL    HW231316   7.185   2.925   8.719 -0.6834 -0.4037 -0.1968
 8324SOL     OW31317   2.692   1.569   9.170  0.4293  0.7818  0.5580
 8324SOL    HW131318   2.775   1.616   9.168  0.3152  0.9436 -0.6829
 8324SOL    HW231319   2.630   1.633   9.206  0.6974  0.8772  0.8586
 8325SOL     OW31320   3.234   0.644   8.314  0.0307  0.2099  0.0872
 8325SOL    HW131321   3.222   0.717   8.375 -0.7151  1.5182 -1.5369
 8325SOL    HW231322   3.147   0.628   8.278  0.3912 -0.7641 -0.3865
 8326SOL     OW31323   1.996   2.162   8.191  0.5339  0.3006 -0.4535
 8326SOL    HW131324   1.920   2.216   8.213 -0.2571 -1.1760  0.5662
 8326SOL    HW231325   1.998   2.161   8.096 -0.0127  1.3071 -0.4919
 8327SOL     OW31326   1.976   8.215   9.128  0.0189  0.0044 -0.0368
 8327SOL    HW131327   1.976   8.309   9.110 -0.2329 -0.2691 -1.6915
 8327SOL    HW231328   1.989   8.208   9.222  1.8958  1.6392 -0.1119
 8328SOL     OW31329   3.025   2.175   2.065 -0.0288 -0.0978 -0.1550
 8328SOL    HW131330   2.987   2.244   2.011 -0.5664  0.4371  0.8822
 8328SOL    HW231331   3.105   2.213   2.100 -0.2574 -0.0383  0.3120
 8329SOL     OW31332   4.251   6.109   5.965  0.0792  0.0146  0.0582
 8329SOL    HW131333   4.308   6.175   5.926 -1.1837  2.7752  2.4452
 8329SOL    HW231334   4.165   6.126   5.925 -0.0852 -0.7946  0.0562
 8330SOL     OW31335   8.653   1.841   4.490 -0.1852 -0.1825  0.1180
 8330SOL    HW131336   8.636   1.747   4.496  1.1610 -0.5239 -1.0104
 8330SOL    HW231337   8.735   1.853   4.538 -1.5469  0.8467  2.3680
 8331SOL     OW31338   4.209   5.687   0.017  0.5983  0.1953 -0.1867
 8331SOL    HW131339   4.219   5.771  -0.028 -0.6677  1.2456  1.3695
 8331SOL    HW231340   4.143   5.704   0.085  2.1924 -1.3511  1.8907
 8332SOL     OW31341   8.876   1.714   3.806  0.1290 -0.3734 -0.6209
 8332SOL    HW131342   8.855   1.706   3.899  0.4802  1.3924 -0.3575
 8332SOL    HW231343   8.845   1.801   3.781  1.7450 -0.0341 -1.6578
 8333SOL     OW31344   0.440   1.236   0.050  0.0034  0.5437  0.7427
 8333SOL    HW131345   0.441   1.319   0.003 -0.2525 -0.6971 -1.6017
 8333SOL    HW231346   0.422   1.260   0.141 -0.3550  3.0107  0.0934
 8334SOL     OW31347   7.594   1.524   2.069 -0.4290 -0.4513  0.0560
 8334SOL    HW131348   7.586   1.496   2.160  0.6825  0.8970  0.5980
 8334SOL    HW231349   7.665   1.470   2.034  0.3872  0.2799  0.5384
 8335SOL     OW31350   0.635   2.542   5.404  1.0623  0.6957 -0.0123
 8335SOL    HW131351   0.684   2.463   5.384 -0.6467 -0.6219  0.7479
 8335SOL    HW231352   0.640   2.550   5.499 -1.0360 -0.1039  0.2149
 8336SOL     OW31353   4.069   0.147   0.437 -0.1620 -1.1084  0.3136
 8336SOL    HW131354   3.980   0.130   0.408  1.2593 -3.5215 -3.4524
 8336SOL    HW231355   4.073   0.241   0.451 -2.5196 -0.3791 -2.8110
 8337SOL     OW31356   8.691   0.120   7.016 -0.4575 -0.0051 -0.0850
 8337SOL    HW131357   8.780   0.141   6.988 -0.5147  0.0328 -0.2372
 8337SOL    HW231358   8.638   0.130   6.938 -0.4016 -1.2396 -0.2958
 8338SOL     OW31359   2.717   7.619   3.140 -0.3470  0.2398  0.4629
 8338SOL    HW131360   2.638   7.653   3.099 -1.1101 -0.6585  1.1201
 8338SOL    HW231361   2.699   7.526   3.153  1.0124 -0.0862  0.2127
 8339SOL     OW31362   6.310   7.531   1.863  0.5984  0.3282  0.3783
 8339SOL    HW131363   6.288   7.622   1.886  1.6338  0.2411  1.8929
 8339SOL    HW231364   6.312   7.485   1.947 -2.1502 -1.6840 -0.5134
 8340SOL     OW31365   6.232   7.883   3.742 -0.2779  0.1540 -0.0408
 8340SOL    HW131366   6.186   7.905   3.661 -1.6920  0.7285  0.8828
 8340SOL    HW231367   6.163   7.864   3.805  0.7153  1.2179  1.4510
 8341SOL     OW31368   0.996   8.657   2.366 -0.0416 -0.2728  0.8693
 8341SOL    HW131369   0.905   8.642   2.341 -0.6564  0.4131  2.5722
 8341SOL    HW231370   1.042   8.669   2.283 -1.9208  1.7189  0.0144
 8342SOL     OW31371   4.837   5.729   6.323 -0.8500 -0.5764 -0.6839
 8342SOL    HW131372   4.758   5.680   6.346  0.3788 -2.0675  0.6198
 8342SOL    HW231373   4.805   5.815   6.297 -2.8144 -0.6827  1.1237
 8343SOL     OW31374   4.071   3.670   8.658 -0.4962  0.0105  0.2264
 8343SOL    HW131375   4.105   3.729   8.726  2.3601 -0.7220 -0.4286
 8343SOL    HW231376   4.122   3.590   8.668 -1.8336 -1.0715 -1.1543
 8344SOL     OW31377   1.813   1.451   8.508 -0.3929 -0.0283 -0.4643
 8344SOL    HW131378   1.786   1.389   8.441 -1.1137 -0.4125  0.1644
 8344SOL    HW231379   1.802   1.537   8.468 -2.0610 -0.1863 -0.4336
 8345SOL     OW31380   8.116   9.148   1.761 -0.2547 -0.4087 -0.0221
 8345SOL    HW131381   8.176   9.218   1.788 -1.0200  0.1965  0.1544
 8345SOL    HW231382   8.145   9.125   1.673 -0.6427  0.8856 -0.5162
 8346SOL     OW31383   2.143   0.293   2.962 -0.1398 -0.1817  0.5915
 8346SOL    HW131384   2.238   0.300   2.969 -0.1779  1.2797  0.0352
 8346SOL    HW231385   2.126   0.200   2.951  1.2377 -0.4457  0.5440
 8347SOL     OW31386   6.928   4.628   1.993 -0.5113 -0.2248  0.0639
 8347SOL    HW131387   6.849   4.678   2.016 -0.4589  0.2294 -0.7080
 8347SOL    HW231388   7.000   4.689   2.007 -0.3521 -0.4321  0.1488
 8348SOL     OW31389   4.551   0.826   0.382  0.3623  0.3765 -0.5314
 8348SOL    HW131390   4.595   0.774   0.314 -0.3721  0.6061 -1.1958
 8348SOL    HW231391   4.487   0.767   0.420  1.1145  0.0860  0.3446
 8349SOL     OW31392   0.636   6.568   2.457  0.2065 -0.5848 -0.1563
 8349SOL    HW131393   0.650   6.655   2.421 -2.2036 -0.1523 -0.2315
 8349SOL    HW231394   0.704   6.557   2.523  1.9726  0.3873 -1.7377
 8350SOL     OW31395   9.175   3.018   0.443 -0.0744 -1.0499 -0.0063
 8350SOL    HW131396   9.139   3.105   0.433  1.9473 -0.2269 -0.6378
 8350SOL    HW231397   9.101   2.964   0.471 -0.9196  1.2813  2.6197
 8351SOL     OW31398   5.499   1.295   8.207  0.1324  0.3933 -0.0917
 8351SOL    HW131399   5.505   1.294   8.112  0.5875  0.7975 -0.0771
 8351SOL    HW231400   5.589   1.312   8.236  0.0249  0.1142  0.4106
 8352SOL     OW31401   2.704   3.170   7.401 -0.6919  0.4306 -0.5960
 8352SOL    HW131402   2.628   3.114   7.401 -1.7528  1.8099  0.0264
 8352SOL    HW231403   2.669   3.258   7.388  0.6038  1.3130  1.4228
 8353SOL     OW31404   0.224   7.062   5.881  0.4173  0.3805 -0.3239
 8353SOL    HW131405   0.149   7.025   5.928 -0.1320  2.7531  0.8939
 8353SOL    HW231406   0.299   7.038   5.935  0.6213 -1.9946 -1.5396
 8354SOL     OW31407   1.741   6.005   3.355  0.4469  0.5860  0.0407
 8354SOL    HW131408   1.720   6.098   3.355  2.2249  1.0918 -2.8330
 8354SOL    HW231409   1.802   5.995   3.428 -0.5040  1.4007  0.9987
 8355SOL     OW31410   6.345   0.844   2.311  0.2766 -0.3090  0.2380
 8355SOL    HW131411   6.345   0.788   2.233 -0.2321 -0.4710  0.3483
 8355SOL    HW231412   6.264   0.821   2.357 -0.0603  0.6816  0.1666
 8356SOL     OW31413   8.290   6.677   3.150  0.3836  0.0914 -0.0043
 8356SOL    HW131414   8.249   6.723   3.077  0.8262 -0.7090 -0.7793
 8356SOL    HW231415   8.239   6.597   3.160 -0.2676  0.6378  1.2122
 8357SOL     OW31416   6.026   1.541   6.571 -0.6667 -0.0306 -0.6352
 8357SOL    HW131417   6.045   1.487   6.494 -1.2320 -0.0028 -0.8009
 8357SOL    HW231418   6.041   1.482   6.645  1.3909  0.3852 -0.6715
 8358SOL     OW31419   2.341   1.423   0.868 -0.4366 -0.2444  1.3712
 8358SOL    HW131420   2.376   1.464   0.947 -0.8349  0.9680  0.9408
 8358SOL    HW231421   2.286   1.490   0.828 -2.6856 -1.8484  1.6375
 8359SOL     OW31422   2.854   7.034   6.177 -0.0074  0.2366 -0.3140
 8359SOL    HW131423   2.928   7.038   6.117  0.8442  1.8209  0.7899
 8359SOL    HW231424   2.893   7.013   6.262 -0.7004  1.7875  0.4268
 8360SOL     OW31425   8.827   7.452   1.588  0.7509  0.3826  0.1011
 8360SOL    HW131426   8.905   7.401   1.569  0.9241  0.6415  0.1132
 8360SOL    HW231427   8.755   7.403   1.548  1.0069  0.5027 -0.5182
 8361SOL     OW31428   7.916   0.807   3.499 -0.5030  0.8249 -0.0569
 8361SOL    HW131429   7.861   0.847   3.566  1.9370  1.4286  1.7180
 8361SOL    HW231430   8.004   0.839   3.517  0.8620 -1.8660 -1.3045
 8362SOL     OW31431   0.296   9.206   2.500  0.2070 -0.6973 -0.0297
 8362SOL    HW131432   0.283   9.273   2.432  0.4486 -0.9432 -0.3215
 8362SOL    HW231433   0.274   9.251   2.582  0.2046 -0.3083 -0.2400
 8363SOL     OW31434   3.824   4.788   7.506  0.1570  0.3465 -0.3389
 8363SOL    HW131435   3.749   4.729   7.500  0.0302  0.5944 -1.5037
 8363SOL    HW231436   3.836   4.820   7.416  2.2057 -0.3784 -0.3616
 8364SOL     OW31437   1.471   9.088   8.782  0.1885  0.3614  0.4643
 8364SOL    HW131438   1.391   9.061   8.737  0.4384 -0.9356  0.7554
 8364SOL    HW231439   1.474   9.033   8.860  1.4012  0.3307  0.4146
 8365SOL     OW31440   6.819   2.206   6.212 -0.1241  0.1995  0.0994
 8365SOL    HW131441   6.871   2.194   6.133 -0.5012  1.5117 -0.3716
 8365SOL    HW231442   6.880   2.245   6.275 -0.6270  2.2896 -0.6398
 8366SOL     OW31443   7.577   6.368   3.569  0.2897  0.1454 -0.5519
 8366SOL    HW131444   7.631   6.299   3.530  3.1440  0.6377  2.1318
 8366SOL    HW231445   7.607   6.448   3.526 -0.8650  0.0967 -1.5036
 8367SOL     OW31446   5.152   2.910   3.617  0.2466 -0.0218  0.6390
 8367SOL    HW131447   5.121   2.821   3.629 -0.8053  0.1051 -0.7882
 8367SOL    HW231448   5.085   2.952   3.563  1.5275  1.1243 -0.1671
 8368SOL     OW31449   8.719   5.057   6.974  0.4420  0.0286 -0.5710
 8368SOL    HW131450   8.712   5.152   6.982  2.0861  0.3220 -2.0079
 8368SOL    HW231451   8.676   5.023   7.052  0.0065  1.9566  0.0810
 8369SOL     OW31452   6.701   5.254   8.932  0.4824 -0.4508 -0.1118
 8369SOL    HW131453   6.699   5.158   8.926  1.1052 -0.6228  1.7099
 8369SOL    HW231454   6.789   5.273   8.965 -0.5086  0.5161  2.1667
 8370SOL     OW31455   3.197   2.831   8.198  1.0011 -0.5921 -0.2306
 8370SOL    HW131456   3.131   2.900   8.208 -0.0442 -1.3874 -1.3009
 8370SOL    HW231457   3.264   2.853   8.262  0.6050  1.2986 -0.3925
 8371SOL     OW31458   3.349   8.061   1.578  0.8065  0.6291 -0.3523
 8371SOL    HW131459   3.267   8.012   1.573  0.5193  1.0527  0.1032
 8371SOL    HW231460   3.409   8.014   1.521  1.0500 -1.2358  1.3211
 8372SOL     OW31461   2.551   2.205   7.705 -0.2958 -0.1110 -0.3692
 8372SOL    HW131462   2.494   2.245   7.770  1.1188  0.3155  0.6577
 8372SOL    HW231463   2.555   2.270   7.634 -0.0522  0.4559  0.1508
 8373SOL     OW31464   0.041   1.285   7.639 -0.2363  0.8349 -0.1438
 8373SOL    HW131465   0.094   1.255   7.565  0.4560  0.3783  0.5229
 8373SOL    HW231466  -0.049   1.286   7.605 -0.1680 -1.0645 -0.5051
 8374SOL     OW31467   2.304   0.039   4.786  0.4489 -0.7919  0.2664
 8374SOL    HW131468   2.267   0.119   4.748  1.9121  0.0242  0.4518
 8374SOL    HW231469   2.264  -0.032   4.737 -0.3498  0.0784 -0.3947
 8375SOL     OW31470   2.000   5.276   7.994  0.2490 -0.3646  0.1074
 8375SOL    HW131471   2.049   5.358   7.984  0.0056 -0.1342  0.8052
 8375SOL    HW231472   1.938   5.276   7.921  0.7848 -0.3101 -0.3567
 8376SOL     OW31473   3.096   2.682   0.751 -0.6682  0.5547 -0.0739
 8376SOL    HW131474   3.116   2.592   0.777  1.2158  0.3754 -1.8456
 8376SOL    HW231475   3.016   2.675   0.698 -1.4498  0.1866  1.1222
 8377SOL     OW31476   8.402   4.167   2.134 -0.5514 -0.2909 -0.3189
 8377SOL    HW131477   8.431   4.076   2.141  2.4686  0.6564  2.7485
 8377SOL    HW231478   8.317   4.168   2.178  0.5676 -1.3180  2.0680
 8378SOL     OW31479   1.219   2.171   1.510  0.3565 -0.7524 -0.6188
 8378SOL    HW131480   1.223   2.118   1.590 -1.7397  2.3981  1.7870
 8378SOL    HW231481   1.311   2.187   1.488  1.0009 -2.2578  0.7465
 8379SOL     OW31482   4.679   5.624   4.008  0.5505  0.1470 -0.0250
 8379SOL    HW131483   4.730   5.703   3.990 -0.2982  0.7041 -0.0393
 8379SOL    HW231484   4.646   5.636   4.097 -0.7470  0.4880 -0.5193
 8380SOL     OW31485   8.027   3.505   2.598 -0.2611  0.3994  0.1270
 8380SOL    HW131486   7.955   3.479   2.541  0.6238 -0.9231 -0.4333
 8380SOL    HW231487   8.103   3.458   2.564  0.9226  1.9124  0.5776
 8381SOL     OW31488   2.019   3.828   4.303 -0.0339  0.0163  0.6978
 8381SOL    HW131489   1.953   3.757   4.305 -1.4710  1.3094  1.3277
 8381SOL    HW231490   2.097   3.788   4.340 -1.0665 -1.0143  1.8823
 8382SOL     OW31491   3.720   0.004   8.125  0.1014 -0.2367  0.4110
 8382SOL    HW131492   3.809  -0.031   8.116 -0.1083 -0.5445 -0.6666
 8382SOL    HW231493   3.674  -0.059   8.180 -0.2787 -1.7497 -1.5181
 8383SOL     OW31494   6.557   4.813   6.439 -0.0086  0.1875  0.1597
 8383SOL    HW131495   6.527   4.723   6.454 -1.8286  0.7579  0.1493
 8383SOL    HW231496   6.640   4.803   6.394 -0.4605 -1.4989 -0.3724
 8384SOL     OW31497   4.372   5.803   7.663  0.7850  1.0343  0.4447
 8384SOL    HW131498   4.387   5.836   7.752  0.2971 -0.0944  0.9603
 8384SOL    HW231499   4.298   5.743   7.672  1.3050  0.2207 -0.5570
 8385SOL     OW31500   5.855   4.867   8.303  0.0418 -0.7764 -0.2102
 8385SOL    HW131501   5.871   4.800   8.236  0.3268 -0.4940 -0.4319
 8385SOL    HW231502   5.940   4.909   8.316  0.0007 -0.8709  0.3807
 8386SOL     OW31503   6.514   1.896   4.926 -0.1785  0.1066  0.4194
 8386SOL    HW131504   6.482   1.931   5.009  0.3598  0.7015  0.3821
 8386SOL    HW231505   6.598   1.854   4.947 -0.6867 -0.9543  0.4158
 8387SOL     OW31506   0.722   3.308   0.634 -0.3694 -0.1891 -0.0637
 8387SOL    HW131507   0.641   3.289   0.586  0.1211  0.8289 -1.3398
 8387SOL    HW231508   0.727   3.238   0.700 -2.4066 -0.1304  0.2283
 8388SOL     OW31509   4.898   2.591   4.794  0.2411  0.2367  0.3319
 8388SOL    HW131510   4.855   2.676   4.792 -0.1353  0.0416 -0.0281
 8388SOL    HW231511   4.881   2.557   4.882 -0.8206 -0.0772  0.0213
 8389SOL     OW31512   6.200   8.636   6.647  0.0289  0.2074 -0.0683
 8389SOL    HW131513   6.244   8.708   6.692  2.9148 -2.2538  1.4195
 8389SOL    HW231514   6.132   8.607   6.708  1.6211 -0.8820  1.2761
 8390SOL     OW31515   8.499   7.254   6.182 -0.3446  0.3854  0.3886
 8390SOL    HW131516   8.533   7.339   6.208 -2.2342  1.2625  0.1970
 8390SOL    HW231517   8.471   7.213   6.264 -0.5073  0.4485  0.3646
 8391SOL     OW31518   6.976   1.035   6.305  0.0292  0.3945  0.1640
 8391SOL    HW131519   6.899   1.089   6.319 -0.9808 -0.4360 -1.8509
 8391SOL    HW231520   7.047   1.097   6.291  0.2293  1.2159  3.7911
 8392SOL     OW31521   1.923   6.666   5.346 -0.0418 -0.5953  0.2195
 8392SOL    HW131522   1.870   6.707   5.277 -1.4998 -2.3144  0.2486
 8392SOL    HW231523   1.965   6.739   5.391 -2.7829  0.9292  0.5088
 8393SOL     OW31524   0.911   2.245   4.103  0.5383 -0.3666 -0.0790
 8393SOL    HW131525   0.815   2.240   4.101  0.4765  0.1012 -3.1700
 8393SOL    HW231526   0.937   2.244   4.011  3.5257 -0.3061  0.6653
 8394SOL     OW31527   8.733   2.879   2.723  0.7035  0.1600 -0.1257
 8394SOL    HW131528   8.642   2.880   2.752  1.0284  0.2089  0.9336
 8394SOL    HW231529   8.728   2.899   2.629 -0.3079  1.1709  0.1157
 8395SOL     OW31530   1.645   5.567   5.314  0.0107 -0.5998 -0.6358
 8395SOL    HW131531   1.623   5.481   5.279 -1.7833 -0.9424  1.1457
 8395SOL    HW231532   1.602   5.629   5.256 -0.5520 -1.0092 -0.6617
 8396SOL     OW31533   7.681   6.608   5.365 -0.0717 -0.0276 -0.5420
 8396SOL    HW131534   7.666   6.521   5.401 -0.1542 -0.1197 -0.7914
 8396SOL    HW231535   7.627   6.609   5.285 -1.5097  0.8720  0.3853
 8397SOL     OW31536   3.002   4.346   0.450  0.5537  0.2203 -0.2428
 8397SOL    HW131537   3.030   4.430   0.484  0.1927  0.0845  0.4004
 8397SOL    HW231538   2.920   4.328   0.495  0.8412 -0.6699 -0.0485
 8398SOL     OW31539   3.897   5.697   7.295  0.3459 -0.0952 -0.0835
 8398SOL    HW131540   3.945   5.655   7.366  1.1532 -0.3906 -0.7825
 8398SOL    HW231541   3.916   5.790   7.303 -0.4708  0.0202  0.7425
 8399SOL     OW31542   7.796   6.768   1.833  0.0793 -0.2898  0.8882
 8399SOL    HW131543   7.840   6.683   1.835 -0.8220 -0.7931 -0.1784
 8399SOL    HW231544   7.793   6.792   1.741 -2.2499 -0.4846  0.8645
 8400SOL     OW31545   2.113   7.165   0.965 -0.2710  0.1797 -0.2391
 8400SOL    HW131546   2.121   7.163   0.870  1.5366  2.0174 -0.2107
 8400SOL    HW231547   2.036   7.112   0.984 -1.1748  0.4375 -2.7651
 8401SOL     OW31548   3.342   0.305   8.983  0.1024 -0.1797 -0.0700
 8401SOL    HW131549   3.341   0.230   8.924  1.1996  0.5964 -1.1433
 8401SOL    HW231550   3.301   0.375   8.932  0.4519  0.3268  0.3371
 8402SOL     OW31551   0.141   6.684   3.465 -0.3444  0.4079  1.2115
 8402SOL    HW131552   0.199   6.612   3.488  0.3453  1.0043  1.3970
 8402SOL    HW231553   0.073   6.645   3.410  0.9001 -0.0967  0.0024
 8403SOL     OW31554   1.335   0.018   4.928 -0.5330 -0.0889  0.5978
 8403SOL    HW131555   1.349   0.077   5.003 -0.6759 -2.1866  2.3615
 8403SOL    HW231556   1.243  -0.008   4.935 -0.3845 -0.7847  0.0168
 8404SOL     OW31557   3.931   5.859   0.645 -0.0666  0.2959 -0.0128
 8404SOL    HW131558   3.964   5.932   0.697 -2.8785  0.3050  2.0536
 8404SOL    HW231559   3.995   5.847   0.576  2.2680  2.4521  1.5866
 8405SOL     OW31560   8.348   4.195   8.295 -0.5200  0.3278 -0.1606
 8405SOL    HW131561   8.422   4.254   8.278 -0.3719  0.7039  1.6234
 8405SOL    HW231562   8.276   4.254   8.319 -0.8955 -0.1374 -0.1263
 8406SOL     OW31563   6.318   8.788   0.541 -0.2820 -0.7375  0.1376
 8406SOL    HW131564   6.297   8.844   0.466 -1.5965 -2.0201 -0.5077
 8406SOL    HW231565   6.238   8.789   0.594 -0.2837 -1.8766  0.1755
 8407SOL     OW31566   2.186   4.249   1.206  0.2509 -0.1379 -0.6319
 8407SOL    HW131567   2.208   4.155   1.206  1.7372  0.1251 -3.1276
 8407SOL    HW231568   2.235   4.284   1.281 -0.3118 -1.3116  0.3359
 8408SOL     OW31569   2.588   7.720   1.368  0.1690  0.2170  0.3646
 8408SOL    HW131570   2.555   7.751   1.452 -1.3453  2.0475 -0.8280
 8408SOL    HW231571   2.541   7.638   1.352 -0.7419  0.6910  0.5746
 8409SOL     OW31572   4.574   3.992   5.533 -0.1658 -0.1945 -0.0588
 8409SOL    HW131573   4.518   3.915   5.537  0.1674 -0.3834  1.1612
 8409SOL    HW231574   4.517   4.065   5.558 -0.1058 -0.2608  0.2781
 8410SOL     OW31575   6.635   5.355   9.174  0.3458 -0.3564  0.0168
 8410SOL    HW131576   6.609   5.446   9.160  0.0111  0.0688  2.8165
 8410SOL    HW231577   6.685   5.332   9.095 -0.7055  1.7655 -1.3769
 8411SOL     OW31578   7.170   1.180   2.756  0.1012 -0.3796  0.3818
 8411SOL    HW131579   7.085   1.195   2.716  0.9100  1.8193 -0.6696
 8411SOL    HW231580   7.197   1.094   2.725 -0.7058 -0.0688 -1.2434
 8412SOL     OW31581   2.364   4.289   3.254 -0.1335 -0.4778  0.2538
 8412SOL    HW131582   2.309   4.249   3.321  0.1686 -0.6451  0.4014
 8412SOL    HW231583   2.338   4.381   3.253 -0.7879 -0.6544 -0.0435
 8413SOL     OW31584   0.031   7.930   5.266 -0.4457  0.1678  0.5488
 8413SOL    HW131585   0.026   7.886   5.351  0.9859 -1.1074  0.0117
 8413SOL    HW231586   0.050   7.860   5.203  1.0123  1.4059 -0.4670
 8414SOL     OW31587   5.065   2.066   4.064 -0.2284  0.1662 -0.1795
 8414SOL    HW131588   5.034   2.137   4.120  0.7159 -0.5872  1.3538
 8414SOL    HW231589   4.985   2.025   4.031 -0.8984 -0.4738  2.0572
 8415SOL     OW31590   1.653   6.370   3.916  0.7541 -0.1460 -0.0006
 8415SOL    HW131591   1.717   6.439   3.897  1.0353 -0.7086 -1.1847
 8415SOL    HW231592   1.588   6.413   3.971  0.8402  1.1070 -0.8204
 8416SOL     OW31593   5.280   5.847   7.490  0.3026 -0.5854  0.0216
 8416SOL    HW131594   5.306   5.860   7.399 -1.5766 -2.1528 -0.8095
 8416SOL    HW231595   5.259   5.754   7.497 -2.2373 -0.0272  1.2698
 8417SOL     OW31596   8.416   7.400   9.218  0.1000 -0.0082 -0.1186
 8417SOL    HW131597   8.446   7.490   9.205  0.5461 -0.1578 -0.1534
 8417SOL    HW231598   8.387   7.397   9.309  1.4475 -0.1946  0.3392
 8418SOL     OW31599   7.792   4.341   6.361 -0.5617 -1.0800 -0.5776
 8418SOL    HW131600   7.717   4.284   6.346 -1.7148  0.1289  0.3766
 8418SOL    HW231601   7.856   4.285   6.406 -0.5538 -2.3192 -2.0602
 8419SOL     OW31602   7.815   8.911   5.623  0.1566  0.1007 -0.0908
 8419SOL    HW131603   7.730   8.935   5.586 -0.1695  0.0162  0.5758
 8419SOL    HW231604   7.823   8.965   5.701  0.8190  0.2632 -0.2634
 8420SOL     OW31605   0.535   5.637   8.691  0.0526  0.4874 -0.7926
 8420SOL    HW131606   0.558   5.660   8.601 -1.5073  1.2321 -1.0219
 8420SOL    HW231607   0.477   5.562   8.682 -1.1584  1.3705 -0.4948
 8421SOL     OW31608   7.143   0.824   5.374 -0.4642 -0.0608  0.7173
 8421SOL    HW131609   7.162   0.839   5.467  2.9327  2.6171 -0.2011
 8421SOL    HW231610   7.123   0.911   5.340  0.5466 -0.6032 -1.4400
 8422SOL     OW31611   7.343   0.940   0.247 -0.5487  0.5834 -0.0254
 8422SOL    HW131612   7.417   0.894   0.207 -1.0334 -0.1100 -0.1360
 8422SOL    HW231613   7.371   0.956   0.337  0.4614  1.9698 -0.5525
 8423SOL     OW31614   8.674   8.318   3.120 -0.0805  0.4235 -0.0358
 8423SOL    HW131615   8.636   8.384   3.178 -0.7848  0.9188 -1.0175
 8423SOL    HW231616   8.624   8.327   3.038  1.2114  0.0969 -0.8900
 8424SOL     OW31617   4.876   1.923   2.311  0.3281 -0.2375  0.1742
 8424SOL    HW131618   4.865   1.896   2.402  0.5619  0.1387  0.3148
 8424SOL    HW231619   4.877   1.840   2.262 -1.3046 -0.3788  0.3407
 8425SOL     OW31620   2.550   2.402   5.261  0.1642 -0.2846 -0.6786
 8425SOL    HW131621   2.493   2.369   5.191  0.1195 -0.5263 -0.5293
 8425SOL    HW231622   2.576   2.489   5.232 -2.2391  0.8594  0.3610
 8426SOL     OW31623   6.497   6.465   7.482 -0.6573  0.0215  0.2573
 8426SOL    HW131624   6.523   6.436   7.395 -0.6881  0.6504  0.0350
 8426SOL    HW231625   6.498   6.385   7.535 -0.2239 -0.2920 -0.2141
 8427SOL     OW31626   7.612   0.770   0.814 -0.3248 -0.1139 -0.2985
 8427SOL    HW131627   7.607   0.737   0.904 -0.2547  0.7364  0.0346
 8427SOL    HW231628   7.591   0.695   0.759  0.4278 -0.8638  0.3978
 8428SOL     OW31629   2.635   5.271   2.925  0.0311  0.2995  0.0836
 8428SOL    HW131630   2.566   5.256   2.862  0.0251 -1.5779  0.4746
 8428SOL    HW231631   2.596   5.329   2.991 -0.4527  1.0029 -0.8114
 8429SOL     OW31632   4.967   2.534   2.178 -0.0768 -0.3954  0.4843
 8429SOL    HW131633   4.880   2.572   2.193  0.1577  0.0661  0.6911
 8429SOL    HW231634   4.949   2.452   2.133 -0.5196  0.5399 -1.1167
 8430SOL     OW31635   2.834   6.002   0.305 -0.4023  0.0222 -0.4662
 8430SOL    HW131636   2.893   6.016   0.231 -0.3603 -0.2785 -0.4923
 8430SOL    HW231637   2.818   5.907   0.304 -0.1704 -0.0257  0.0836
 8431SOL     OW31638   6.637   3.281   0.026  0.5117  0.8041 -0.1672
 8431SOL    HW131639   6.623   3.368  -0.011 -1.4066  0.0920 -1.2452
 8431SOL    HW231640   6.551   3.253   0.055  0.3446 -2.0439 -2.8841
 8432SOL     OW31641   4.448   0.989   8.085  0.1055 -0.0725  0.1804
 8432SOL    HW131642   4.380   1.022   8.026  0.6031  1.0238  0.1824
 8432SOL    HW231643   4.427   1.027   8.170  0.9178  0.6164  0.0933
 8433SOL     OW31644   7.200   2.553   8.235  0.4997  0.3588 -0.3009
 8433SOL    HW131645   7.145   2.585   8.306  0.6802  1.8363 -0.7983
 8433SOL    HW231646   7.249   2.629   8.206  2.4009 -0.7998 -0.2605
 8434SOL     OW31647   0.780   5.886   0.055 -0.7159  0.2406 -0.2736
 8434SOL    HW131648   0.741   5.972   0.066  0.5716  0.7772  0.3445
 8434SOL    HW231649   0.871   5.903   0.031 -0.0002 -0.8794  1.3632
 8435SOL     OW31650   6.437   5.311   6.551  0.2044 -0.8511 -0.5166
 8435SOL    HW131651   6.456   5.312   6.645  0.4081  1.7533 -0.5239
 8435SOL    HW231652   6.392   5.393   6.535 -0.9577 -1.8073 -2.5302
 8436SOL     OW31653   0.839   3.134   4.518 -0.3142  0.7359  0.7423
 8436SOL    HW131654   0.914   3.187   4.544 -0.3351 -0.2209  3.1035
 8436SOL    HW231655   0.877   3.061   4.469  0.0365  1.3794  0.0451
 8437SOL     OW31656   2.834   8.874   6.165  0.6090 -0.5986 -0.3881
 8437SOL    HW131657   2.798   8.874   6.077 -0.5818  0.2406  0.0734
 8437SOL    HW231658   2.875   8.960   6.175  0.0526 -0.3809  0.1225
 8438SOL     OW31659   7.510   2.272   2.180  0.6497  0.0880  0.0277
 8438SOL    HW131660   7.550   2.216   2.113 -0.9313 -1.0098 -0.0393
 8438SOL    HW231661   7.443   2.217   2.220 -0.4308  1.6902  0.5016
 8439SOL     OW31662   0.682   1.264   0.918  0.7240  0.2487 -0.5535
 8439SOL    HW131663   0.775   1.253   0.897  1.0452 -0.2883  1.0118
 8439SOL    HW231664   0.649   1.174   0.928  0.1672  0.4495 -0.5685
 8440SOL     OW31665   2.986   6.708   5.060  0.1839  0.1464  0.4795
 8440SOL    HW131666   2.956   6.680   4.974  2.4136 -2.8743  0.5110
 8440SOL    HW231667   2.922   6.673   5.121 -0.8708  1.4460  0.1598
 8441SOL     OW31668   2.755   2.665   1.238  0.5268 -0.5339  0.8353
 8441SOL    HW131669   2.825   2.607   1.209  0.7106  0.5419 -1.0295
 8441SOL    HW231670   2.794   2.717   1.308  1.8227  0.4365 -0.5439
 8442SOL     OW31671   1.864   5.009   8.396  0.3658  0.6357 -0.5588
 8442SOL    HW131672   1.780   5.005   8.440  0.7143 -0.5722  0.0398
 8442SOL    HW231673   1.908   5.084   8.436  0.3655  0.0348  0.6093
 8443SOL     OW31674   8.356   0.098   8.155  0.3755  0.1303 -0.2197
 8443SOL    HW131675   8.393   0.186   8.157  1.2056 -0.2190  0.5856
 8443SOL    HW231676   8.381   0.059   8.239  1.1842 -1.3213 -1.0905
 8444SOL     OW31677   4.570   7.674   0.197  0.4005  0.0410  0.1116
 8444SOL    HW131678   4.593   7.655   0.288 -0.2375 -2.4891 -0.1725
 8444SOL    HW231679   4.482   7.639   0.187 -0.1972  1.7598 -1.0927
 8445SOL     OW31680   6.758   3.071   2.313 -0.1516 -0.4596 -0.3796
 8445SOL    HW131681   6.709   3.012   2.371 -0.3996 -0.5622 -0.6924
 8445SOL    HW231682   6.696   3.140   2.291 -0.1216 -0.5327 -0.6903
 8446SOL     OW31683   7.725   4.269   7.215  0.0625  0.0093 -0.7671
 8446SOL    HW131684   7.796   4.215   7.181  1.1582  1.0424 -0.2132
 8446SOL    HW231685   7.651   4.254   7.156 -0.6158 -4.1383  0.8154
 8447SOL     OW31686   7.032   5.696   0.264  0.0365 -0.0451  0.1755
 8447SOL    HW131687   6.958   5.642   0.239 -0.5520  0.2651  1.1929
 8447SOL    HW231688   7.037   5.688   0.360  1.9354 -0.8493  0.0497
 8448SOL     OW31689   6.596   4.242   9.024  0.4886 -0.4130 -0.5117
 8448SOL    HW131690   6.691   4.247   9.018  0.6101 -0.1948  1.1893
 8448SOL    HW231691   6.569   4.197   8.944  1.9385  0.2413 -1.4017
 8449SOL     OW31692   3.349   9.149   5.303 -0.7309  0.3738 -0.2822
 8449SOL    HW131693   3.434   9.119   5.269 -1.1549 -0.7425 -0.3904
 8449SOL    HW231694   3.354   9.134   5.397 -1.4327 -1.3993 -0.4787
 8450SOL     OW31695   6.134   4.621   2.474 -0.1861  0.1573  0.3247
 8450SOL    HW131696   6.099   4.676   2.544 -0.6357 -0.8150  0.8814
 8450SOL    HW231697   6.062   4.613   2.412 -0.0311  0.4033  0.1085
 8451SOL     OW31698   4.528   8.866   2.360  0.2548  0.7421 -0.2575
 8451SOL    HW131699   4.478   8.871   2.441  0.0155  0.1404 -0.3605
 8451SOL    HW231700   4.608   8.915   2.377  0.4846  0.1122  0.5510
 8452SOL     OW31701   0.462   7.990   2.804 -0.4918  0.0668 -0.4096
 8452SOL    HW131702   0.366   7.991   2.810 -0.5482 -2.0017 -0.0955
 8452SOL    HW231703   0.490   7.941   2.881  0.7971  0.2185 -0.7676
 8453SOL     OW31704   3.473   7.347   9.162 -0.0851 -0.2937  0.1850
 8453SOL    HW131705   3.384   7.312   9.153 -1.5354  3.1548 -0.3117
 8453SOL    HW231706   3.504   7.356   9.072 -0.4542  1.2618  0.1922
 8454SOL     OW31707   4.081   6.072   0.749 -0.6010  0.0972 -0.2026
 8454SOL    HW131708   4.102   6.132   0.677 -1.0670  0.5165  0.0036
 8454SOL    HW231709   4.154   6.083   0.810  0.5128 -1.2911 -1.2275
 8455SOL     OW31710   4.067   1.106   6.447  0.3873  0.8206  0.7918
 8455SOL    HW131711   4.105   1.144   6.368 -1.9527  1.0151 -0.3514
 8455SOL    HW231712   4.109   1.021   6.456  0.9617  0.9449 -0.4775
 8456SOL     OW31713   2.341   7.281   3.770 -0.6575  0.3554 -0.1766
 8456SOL    HW131714   2.413   7.229   3.735 -1.3866 -0.4714 -0.5002
 8456SOL    HW231715   2.317   7.340   3.698 -0.4324  0.5017 -0.1338
 8457SOL     OW31716   6.395   1.771   6.656 -0.0278 -0.7819  0.2168
 8457SOL    HW131717   6.361   1.766   6.567 -1.8139  1.0940  0.7019
 8457SOL    HW231718   6.378   1.685   6.694 -2.6704 -0.5088 -0.1697
 8458SOL     OW31719   3.410   5.982   5.388 -0.2352 -0.6372 -0.3092
 8458SOL    HW131720   3.401   6.025   5.303 -0.7545 -0.0565  0.0337
 8458SOL    HW231721   3.420   6.053   5.451 -0.1088 -1.0499  0.1512
 8459SOL     OW31722   6.003   4.105   6.348 -0.3661  0.4984 -0.2195
 8459SOL    HW131723   6.024   4.013   6.333 -0.7470  0.1485  1.2468
 8459SOL    HW231724   5.943   4.128   6.276 -2.0717 -1.0607  0.6130
 8460SOL     OW31725   1.330   5.273   3.154  0.2415  0.2353 -0.4214
 8460SOL    HW131726   1.281   5.238   3.228  1.7768  0.0456  0.5584
 8460SOL    HW231727   1.314   5.367   3.157 -1.0232  0.0497 -0.8772
 8461SOL     OW31728   7.267   4.141   7.105 -0.1087 -0.6812 -0.3686
 8461SOL    HW131729   7.184   4.187   7.089 -0.0065 -0.8005 -1.3297
 8461SOL    HW231730   7.302   4.181   7.184 -0.0256  0.9272 -1.1775
 8462SOL     OW31731   4.836   2.055   7.830  0.0616  0.5894 -0.3116
 8462SOL    HW131732   4.751   2.011   7.836  1.1657 -1.7913 -0.9017
 8462SOL    HW231733   4.831   2.126   7.895 -2.1507  0.1877  0.0456
 8463SOL     OW31734   7.821   0.678   8.318  0.4067  0.6222 -0.6488
 8463SOL    HW131735   7.745   0.693   8.262  0.4831 -1.4066 -1.3434
 8463SOL    HW231736   7.785   0.666   8.406  0.0339  0.7333 -0.7867
 8464SOL     OW31737   2.131   4.342   5.395 -0.6402  0.2776 -0.2696
 8464SOL    HW131738   2.056   4.308   5.444  0.3887 -0.4030  0.8997
 8464SOL    HW231739   2.126   4.298   5.310 -1.3631 -0.0340 -0.0734
 8465SOL     OW31740   4.112   1.971   9.146  0.1965 -0.2755  0.4294
 8465SOL    HW131741   4.112   1.944   9.238 -1.0685  0.0122  0.5319
 8465SOL    HW231742   4.021   1.996   9.128  0.1427 -1.4594 -1.2257
 8466SOL     OW31743   5.127   7.506   8.630  0.3753  0.1178 -0.0417
 8466SOL    HW131744   5.115   7.505   8.725 -0.2071  0.6931 -0.1016
 8466SOL    HW231745   5.215   7.542   8.618 -0.1553  1.6026  0.2514
 8467SOL     OW31746   9.227   1.680   0.293 -0.1918 -0.0129 -0.4556
 8467SOL    HW131747   9.267   1.593   0.296 -0.3205 -0.1909 -2.4081
 8467SOL    HW231748   9.146   1.672   0.344 -0.7749 -1.3900 -1.5393
 8468SOL     OW31749   6.044   1.528   2.148  0.2215 -0.2920  0.4265
 8468SOL    HW131750   6.013   1.566   2.230 -0.3306  1.3050 -0.4734
 8468SOL    HW231751   5.965   1.503   2.101  0.4203  0.3794 -0.3093
 8469SOL     OW31752   4.075   4.027   8.142 -0.0634  0.1521  0.6601
 8469SOL    HW131753   3.993   4.038   8.190  0.7521 -0.4762  2.2709
 8469SOL    HW231754   4.118   4.112   8.148 -0.3085  0.2962  0.3746
 8470SOL     OW31755   3.838   3.585   5.475 -0.5840  0.2544 -0.6903
 8470SOL    HW131756   3.902   3.652   5.454  0.3678 -0.2610  0.4414
 8470SOL    HW231757   3.886   3.520   5.527 -1.8037 -0.5927 -0.5560
 8471SOL     OW31758   0.384   2.094   4.174 -0.0969  0.3509 -0.0032
 8471SOL    HW131759   0.296   2.075   4.139 -0.0175  1.0854 -0.6462
 8471SOL    HW231760   0.379   2.070   4.266 -0.3274 -1.6389 -0.4936
 8472SOL     OW31761   7.554   5.359   2.160 -0.0614 -0.2086  0.0997
 8472SOL    HW131762   7.535   5.441   2.204  0.1732 -0.2080  0.2061
 8472SOL    HW231763   7.623   5.319   2.213 -0.6254 -0.7802  0.4171
 8473SOL     OW31764   0.014   2.143   1.578 -0.2452  0.3417 -0.2217
 8473SOL    HW131765  -0.077   2.135   1.608 -0.0792  1.0547  0.5233
 8473SOL    HW231766   0.013   2.216   1.516 -0.0447  0.9180  0.4358
 8474SOL     OW31767   6.394   5.820   8.312 -0.0819  0.2317  0.0258
 8474SOL    HW131768   6.438   5.753   8.363  0.4766 -0.6361 -1.5248
 8474SOL    HW231769   6.443   5.900   8.329 -0.9648  0.3723  2.1667
 8475SOL     OW31770   5.349   0.389   3.419 -0.0582 -0.0243 -0.1376
 8475SOL    HW131771   5.366   0.483   3.423  0.9775 -0.0498 -2.3279
 8475SOL    HW231772   5.260   0.383   3.384 -0.5411  0.1215  1.0370
 8476SOL     OW31773   3.077   1.739   7.127 -0.2501  0.0508 -0.4965
 8476SOL    HW131774   3.047   1.653   7.156  1.2578  0.5187  2.8768
 8476SOL    HW231775   3.163   1.723   7.090 -0.2279  0.0320 -0.4366
 8477SOL     OW31776   2.371   3.203   8.805 -0.5539  0.1273  0.8465
 8477SOL    HW131777   2.397   3.210   8.897 -1.5252 -0.2045  1.1569
 8477SOL    HW231778   2.277   3.185   8.808 -0.9520  1.7892 -0.2356
 8478SOL     OW31779   5.167   4.572   1.319 -0.5322  0.7073  0.3571
 8478SOL    HW131780   5.208   4.522   1.247 -2.1167  0.5334 -0.4708
 8478SOL    HW231781   5.221   4.552   1.395 -1.1578 -2.4325  0.1074
 8479SOL     OW31782   1.287   1.503   1.638  0.4623  0.0085  0.2237
 8479SOL    HW131783   1.244   1.562   1.700  0.7182 -1.0037  1.4075
 8479SOL    HW231784   1.378   1.532   1.637 -0.0376  1.7246 -1.7720
 8480SOL     OW31785   6.760   9.035   7.326 -0.1344 -0.7124 -0.6109
 8480SOL    HW131786   6.761   9.081   7.410 -1.4460 -0.6127 -0.6332
 8480SOL    HW231787   6.849   9.001   7.316  0.3642  0.2883  0.2514
 8481SOL     OW31788   3.882   3.566   1.473  0.1079  0.0330 -0.5248
 8481SOL    HW131789   3.809   3.628   1.484  1.4097  1.8682 -1.6450
 8481SOL    HW231790   3.862   3.495   1.534 -1.5706  1.4485  0.6926
 8482SOL     OW31791   6.795   1.673   3.002  0.5450  0.3777 -0.4848
 8482SOL    HW131792   6.743   1.628   2.935 -0.6765  1.6178 -0.4283
 8482SOL    HW231793   6.730   1.718   3.056  1.5478 -0.0265  1.1378
 8483SOL     OW31794   8.693   2.668   8.046  0.6461 -0.0169  0.2352
 8483SOL    HW131795   8.780   2.703   8.067  0.9111 -0.7606  0.3994
 8483SOL    HW231796   8.662   2.723   7.974  0.9089  0.7679  0.7006
 8484SOL     OW31797   4.551   5.314   5.351 -0.2166 -0.4380  0.1797
 8484SOL    HW131798   4.470   5.353   5.318 -0.6472 -2.4001 -1.2023
 8484SOL    HW231799   4.567   5.239   5.295  1.6801 -1.0860  1.4842
 8485SOL     OW31800   0.497   1.854   8.375 -0.0357  0.3834  0.0579
 8485SOL    HW131801   0.480   1.916   8.305 -0.8744  0.6078  0.4546
 8485SOL    HW231802   0.556   1.900   8.435  0.0506  0.4771 -0.1006
 8486SOL     OW31803   5.732   7.843   9.029  0.1212 -0.7432  0.0386
 8486SOL    HW131804   5.685   7.763   9.005  1.5455 -1.4566 -0.4793
 8486SOL    HW231805   5.786   7.863   8.953 -0.7982  1.2024 -0.1503
 8487SOL     OW31806   2.092   6.016   3.503  0.3635  0.2628  0.3482
 8487SOL    HW131807   2.018   6.064   3.540  0.1838 -0.4777  0.9617
 8487SOL    HW231808   2.091   5.931   3.547  0.4055 -0.4916 -1.0608
 8488SOL     OW31809   2.400   2.656   0.231  0.2344 -0.2233 -0.5458
 8488SOL    HW131810   2.430   2.664   0.141 -0.3238  0.8517 -0.6549
 8488SOL    HW231811   2.306   2.641   0.224 -0.4788  3.1542 -0.1783
 8489SOL     OW31812   4.968   4.883   3.191 -0.5506  0.3040  0.2975
 8489SOL    HW131813   4.924   4.818   3.246 -0.7276  1.5885  1.7353
 8489SOL    HW231814   4.901   4.950   3.176  0.1777  1.0589  0.4117
 8490SOL     OW31815   8.205   8.504   4.676 -0.4789 -0.2233  0.9345
 8490SOL    HW131816   8.131   8.564   4.687 -2.4098 -1.9750 -1.4209
 8490SOL    HW231817   8.264   8.525   4.749 -1.8730  3.2149  1.2648
 8491SOL     OW31818   8.976   5.055   4.794  0.2399  0.3525  0.4097
 8491SOL    HW131819   8.926   5.129   4.759 -1.1329 -1.6033 -2.1734
 8491SOL    HW231820   8.942   5.042   4.882 -0.8733  1.6006  0.1915
 8492SOL     OW31821   6.611   3.761   8.701  0.1255  0.0236  0.6100
 8492SOL    HW131822   6.533   3.761   8.646  0.4155  0.4182  0.1969
 8492SOL    HW231823   6.682   3.738   8.641  0.2755 -0.7605  1.0659
 8493SOL     OW31824   7.043   2.627   3.997  0.1850 -0.3837 -0.2586
 8493SOL    HW131825   7.098   2.560   4.037  0.3128  0.0507  0.3161
 8493SOL    HW231826   7.063   2.707   4.046 -1.9915 -0.4914  0.9424
 8494SOL     OW31827   8.810   8.265   9.217 -0.6166  0.6419 -0.2532
 8494SOL    HW131828   8.807   8.177   9.179 -0.4506  0.9025 -0.8699
 8494SOL    HW231829   8.828   8.323   9.143  0.3738  1.0891  0.3121
 8495SOL     OW31830   4.184   2.010   6.230 -0.1461 -0.2896  0.2708
 8495SOL    HW131831   4.195   1.932   6.284  0.3494 -0.5456 -0.1964
 8495SOL    HW231832   4.137   1.980   6.153 -1.4585  0.2104  0.8520
 8496SOL     OW31833   0.036   8.812   1.330  0.2820  0.0403  0.0055
 8496SOL    HW131834   0.015   8.726   1.293  0.8059 -0.3616  0.6341
 8496SOL    HW231835   0.026   8.872   1.256  0.3308 -0.6170 -0.5455
 8497SOL     OW31836   7.139   6.840   1.328 -0.1250  0.0489 -0.0392
 8497SOL    HW131837   7.161   6.782   1.401 -0.7644  1.1269  1.0360
 8497SOL    HW231838   7.138   6.782   1.251 -1.1089 -1.4572  1.0480
 8498SOL     OW31839   2.648   6.742   3.045  0.9122  0.2137 -0.2668
 8498SOL    HW131840   2.554   6.738   3.027  1.1200  1.2275 -1.8047
 8498SOL    HW231841   2.659   6.819   3.099  0.7025 -0.8205  1.3072
 8499SOL     OW31842   7.192   2.953   0.116 -0.6208 -0.0783 -0.1912
 8499SOL    HW131843   7.165   2.862   0.117 -2.8783  0.5375  0.1655
 8499SOL    HW231844   7.112   3.002   0.133  0.8626  1.9032  1.6413
 8500SOL     OW31845   6.897   8.557   7.599 -0.2212  0.3455 -0.0682
 8500SOL    HW131846   6.986   8.587   7.617 -0.4924  1.1518 -0.0284
 8500SOL    HW231847   6.844   8.594   7.670 -0.2588 -2.0503  1.2494
 8501SOL     OW31848   7.638   1.427   5.244 -1.0336 -0.4927  0.0913
 8501SOL    HW131849   7.731   1.423   5.270 -0.7806  0.2072 -0.6923
 8501SOL    HW231850   7.631   1.507   5.193 -2.2316 -0.1799  0.7167
 8502SOL     OW31851   4.075   2.710   8.479 -0.0026  0.8877  0.2737
 8502SOL    HW131852   3.993   2.759   8.468 -0.1950  0.1617 -2.0313
 8502SOL    HW231853   4.048   2.627   8.517 -0.5424  0.2802 -1.3216
 8503SOL     OW31854   7.179   8.137   6.488 -0.1526 -0.2491 -0.2878
 8503SOL    HW131855   7.147   8.066   6.431 -1.3698  0.3987 -0.4509
 8503SOL    HW231856   7.200   8.208   6.427  1.7788 -0.6779 -0.1954
 8504SOL     OW31857   1.504   0.032   2.067 -0.0147  0.2895  0.1745
 8504SOL    HW131858   1.534  -0.059   2.074 -0.8643  0.1116  2.1560
 8504SOL    HW231859   1.450   0.033   1.988 -0.2502 -1.0357  0.2906
 8505SOL     OW31860   2.349   0.120   0.285 -0.0431  0.4049 -0.0691
 8505SOL    HW131861   2.357   0.194   0.225 -0.7057  0.0863 -0.5714
 8505SOL    HW231862   2.432   0.073   0.277 -0.4785 -0.1885 -1.5190
 8506SOL     OW31863   6.869   4.980   3.153 -0.7481  0.3924  0.1155
 8506SOL    HW131864   6.849   4.952   3.063  0.0386 -1.3055  0.4297
 8506SOL    HW231865   6.895   4.900   3.198  0.0375  1.4061  1.5533
 8507SOL     OW31866   0.798   7.190   6.748  0.1709  0.2882  0.0672
 8507SOL    HW131867   0.768   7.247   6.819 -0.8234  0.2066 -0.2778
 8507SOL    HW231868   0.838   7.115   6.792 -2.0472 -0.6548  0.6246
 8508SOL     OW31869   8.719   2.745   2.435  0.3207  0.4506 -0.0811
 8508SOL    HW131870   8.662   2.670   2.454  2.0320 -0.1530  3.5290
 8508SOL    HW231871   8.808   2.711   2.447  1.2622  2.4682 -0.9056
 8509SOL     OW31872   5.375   0.116   8.111  0.2470 -0.5442 -0.1767
 8509SOL    HW131873   5.372   0.187   8.174  0.9492 -0.3425 -0.3653
 8509SOL    HW231874   5.467   0.108   8.088  0.5639 -2.9441  1.4740
 8510SOL     OW31875   1.458   3.543   4.817  0.2793 -0.3080 -0.1276
 8510SOL    HW131876   1.440   3.508   4.729  0.2450 -1.6134  0.3796
 8510SOL    HW231877   1.456   3.467   4.874 -0.1826  0.5870  1.0984
 8511SOL     OW31878   5.063   0.229   2.984 -0.6347 -0.0434  0.2418
 8511SOL    HW131879   5.029   0.142   3.007  0.9685 -1.2355 -1.5707
 8511SOL    HW231880   5.158   0.220   2.992 -0.2522  0.6681 -2.5391
 8512SOL     OW31881   6.505   7.469   4.459 -0.0870 -0.3921  0.1976
 8512SOL    HW131882   6.474   7.392   4.412 -0.3919  1.0230 -2.0806
 8512SOL    HW231883   6.600   7.459   4.462 -0.1268 -0.8662 -0.0652
 8513SOL     OW31884   5.644   2.140   3.268  0.2960 -0.1517 -0.4108
 8513SOL    HW131885   5.735   2.154   3.294 -0.0449 -0.5716  1.0816
 8513SOL    HW231886   5.625   2.214   3.209  1.2319  0.6256  0.2248
 8514SOL     OW31887   7.379   9.068   2.161 -0.2606 -0.6680 -0.2084
 8514SOL    HW131888   7.313   9.079   2.093 -1.2951  1.0925  1.0085
 8514SOL    HW231889   7.412   9.156   2.178  1.9749 -1.4185 -0.3119
 8515SOL     OW31890   2.532   7.983   8.459 -0.0407  0.3399 -0.0666
 8515SOL    HW131891   2.570   7.980   8.547  1.6110  1.1554 -0.7140
 8515SOL    HW231892   2.462   8.048   8.466  0.0382  0.3576  0.6568
 8516SOL     OW31893   5.418   7.158   8.050  0.0713 -0.3519 -0.1680
 8516SOL    HW131894   5.435   7.064   8.039  0.9318 -0.2924  0.5304
 8516SOL    HW231895   5.322   7.165   8.051 -0.0028 -1.2094 -0.2986
 8517SOL     OW31896   4.638   4.987   3.716 -0.0451  0.1760  0.0473
 8517SOL    HW131897   4.640   4.951   3.628 -0.5914  1.1204 -0.3617
 8517SOL    HW231898   4.657   5.080   3.705  1.8345 -0.0111  1.1328
 8518SOL     OW31899   2.970   7.072   7.728 -0.4452  0.0177  0.6063
 8518SOL    HW131900   3.066   7.075   7.738 -0.5068  1.0997  1.0354
 8518SOL    HW231901   2.949   7.152   7.679 -1.2613  0.4825  1.6945
 8519SOL     OW31902   7.441   7.243   9.192 -0.0238  0.1243 -0.2533
 8519SOL    HW131903   7.461   7.184   9.264 -1.0264  0.8711  0.6811
 8519SOL    HW231904   7.429   7.186   9.116  0.4907 -0.7235  0.2948
 8520SOL     OW31905   3.878   2.793   6.635  0.1791 -0.6128 -0.2911
 8520SOL    HW131906   3.816   2.772   6.565  0.1074 -0.7617 -0.1819
 8520SOL    HW231907   3.948   2.843   6.591 -0.2657 -0.0099 -0.3271
 8521SOL     OW31908   8.021   0.905   1.569  0.3639 -0.3707  0.0336
 8521SOL    HW131909   8.107   0.904   1.610  0.7576 -1.5379 -0.7738
 8521SOL    HW231910   7.960   0.925   1.641  1.3979  2.0911  0.3404
 8522SOL     OW31911   1.336   3.228   1.957  0.0375 -0.1774  0.0604
 8522SOL    HW131912   1.250   3.217   1.998 -0.1168 -0.0777 -0.2299
 8522SOL    HW231913   1.393   3.168   2.005 -0.4218 -1.0232 -0.4133
 8523SOL     OW31914   5.502   0.276   5.839  0.1897  0.2583 -0.1171
 8523SOL    HW131915   5.559   0.233   5.774 -0.2261 -0.1743 -0.2019
 8523SOL    HW231916   5.556   0.347   5.875  0.8328 -0.2215 -0.1077
 8524SOL     OW31917   7.863   4.117   0.324  0.3311  0.3839 -0.0155
 8524SOL    HW131918   7.931   4.070   0.373  0.0622 -1.0827 -1.0127
 8524SOL    HW231919   7.809   4.049   0.285 -0.3403  1.5200 -1.1587
 8525SOL     OW31920   6.157   1.578   1.428 -0.0679  0.6122 -0.1791
 8525SOL    HW131921   6.205   1.555   1.349  0.3870 -0.4950  0.3906
 8525SOL    HW231922   6.065   1.580   1.400  0.0820  0.1629 -0.7280
 8526SOL     OW31923   7.739   7.879   8.765 -0.2064  0.1259  0.2224
 8526SOL    HW131924   7.780   7.922   8.840  0.2654 -0.0275  0.0586
 8526SOL    HW231925   7.671   7.824   8.803  0.8991 -0.9965  0.6902
 8527SOL     OW31926   0.337   1.599   1.176 -0.1849 -0.8319  0.6285
 8527SOL    HW131927   0.359   1.649   1.097 -0.9784 -2.3270 -0.6037
 8527SOL    HW231928   0.366   1.654   1.248 -3.0740  2.5120 -0.4721
 8528SOL     OW31929   8.432   3.359   8.117  0.0512 -0.3176 -0.8011
 8528SOL    HW131930   8.462   3.324   8.033  1.6535 -2.8567  0.6836
 8528SOL    HW231931   8.379   3.289   8.155  2.5389 -0.9407  1.8868
 8529SOL     OW31932   5.366   2.154   9.219 -0.0280 -0.0259 -0.1265
 8529SOL    HW131933   5.311   2.227   9.193  0.9617  0.5935 -0.5315
 8529SOL    HW231934   5.310   2.077   9.207 -0.7656  0.5685 -0.6241
 8530SOL     OW31935   6.618   6.448   2.902  0.5930  0.2316  0.1253
 8530SOL    HW131936   6.534   6.484   2.872  1.2078 -0.0556 -2.1267
 8530SOL    HW231937   6.604   6.430   2.995 -1.0680  2.3900  0.3914
 8531SOL     OW31938   8.996   8.596   7.211 -0.1356  0.0237 -0.3080
 8531SOL    HW131939   9.000   8.567   7.120 -0.3922 -1.3905  0.1214
 8531SOL    HW231940   9.078   8.566   7.250 -0.8559 -1.1099  0.4048
 8532SOL     OW31941   1.817   0.535   4.424 -0.0948 -0.5130  0.0689
 8532SOL    HW131942   1.757   0.609   4.414  2.1792  1.2480 -2.0462
 8532SOL    HW231943   1.803   0.483   4.345 -0.0856 -1.1047  0.4520
 8533SOL     OW31944   8.363   6.254   2.659 -0.1099 -0.6784 -0.0026
 8533SOL    HW131945   8.303   6.291   2.595 -0.8354 -2.0025 -0.1307
 8533SOL    HW231946   8.342   6.298   2.741 -0.7157 -0.5644 -0.2152
 8534SOL     OW31947   7.050   6.896   3.855 -0.0995  0.5133  0.4157
 8534SOL    HW131948   7.124   6.854   3.898  0.4559  0.3246 -0.7025
 8534SOL    HW231949   6.994   6.824   3.828  0.8185  0.4351 -1.4390
 8535SOL     OW31950   3.847   6.827   7.757 -0.2182 -0.2518 -0.2914
 8535SOL    HW131951   3.803   6.872   7.685  2.0529  0.8154 -1.0993
 8535SOL    HW231952   3.920   6.780   7.715  1.2099  0.4477  1.2735
 8536SOL     OW31953   2.598   8.644   0.799 -0.5985 -0.2119 -1.0641
 8536SOL    HW131954   2.646   8.724   0.778 -1.8587  0.6214 -0.8625
 8536SOL    HW231955   2.600   8.638   0.894 -1.9773  0.5346 -0.9739
 8537SOL     OW31956   3.673   7.151   2.607 -0.4717 -0.2250 -0.0390
 8537SOL    HW131957   3.656   7.109   2.691 -0.4245 -0.9544 -0.3815
 8537SOL    HW231958   3.589   7.184   2.578 -0.3424  0.7457  0.6676
 8538SOL     OW31959   7.299   7.219   7.555 -0.0646  0.5195 -0.4090
 8538SOL    HW131960   7.338   7.306   7.552 -0.6373  0.8561  1.1031
 8538SOL    HW231961   7.208   7.235   7.579 -0.1377 -0.5117  0.0210
 8539SOL     OW31962   5.221   0.631   7.664 -0.1530  0.0366 -0.0063
 8539SOL    HW131963   5.314   0.649   7.655  0.1442 -1.2490  0.3681
 8539SOL    HW231964   5.195   0.679   7.743 -0.1714  1.6182 -0.9174
 8540SOL     OW31965   0.770   8.948   0.425  0.1998  0.0103  0.0978
 8540SOL    HW131966   0.757   8.991   0.509 -0.3083  0.3873 -0.1650
 8540SOL    HW231967   0.703   8.986   0.368  0.8825  0.1592 -0.6239
 8541SOL     OW31968   8.361   3.548   2.576  0.1616  0.0815  0.0624
 8541SOL    HW131969   8.307   3.619   2.541 -0.8435 -0.9779 -0.5960
 8541SOL    HW231970   8.313   3.468   2.555  0.5810 -0.7297  2.0335
 8542SOL     OW31971   7.432   8.232   8.740 -0.3777  0.2285 -0.4318
 8542SOL    HW131972   7.395   8.208   8.825  2.2710 -2.1165  0.2259
 8542SOL    HW231973   7.476   8.315   8.755  0.4789 -0.3964  0.6924
 8543SOL     OW31974   3.203   1.063   2.184  0.2118  0.4547  0.2369
 8543SOL    HW131975   3.209   0.982   2.132 -1.7006  0.0888  0.5122
 8543SOL    HW231976   3.254   1.045   2.263 -0.1523 -0.4656  0.2713
 8544SOL     OW31977   3.070   8.877   4.229  0.1603  0.4461 -0.5570
 8544SOL    HW131978   3.103   8.803   4.177  0.5434  0.8029 -0.8214
 8544SOL    HW231979   2.988   8.901   4.187  0.0722  0.2261 -0.5162
 8545SOL     OW31980   4.467   2.263   5.129 -0.3247 -0.8125  0.1752
 8545SOL    HW131981   4.414   2.327   5.176  0.8974  0.3681 -0.0200
 8545SOL    HW231982   4.501   2.310   5.053  0.6631 -1.6601  0.0683
 8546SOL     OW31983   0.941   4.846   9.036  0.3048 -0.6055 -0.1751
 8546SOL    HW131984   0.894   4.772   8.998  0.4919 -0.6714 -0.2779
 8546SOL    HW231985   1.032   4.818   9.040 -0.0256 -1.5631  2.5834
 8547SOL     OW31986   6.612   6.398   0.512 -0.0740  0.3185  0.7143
 8547SOL    HW131987   6.655   6.418   0.429 -1.9700 -0.4691 -0.5279
 8547SOL    HW231988   6.660   6.449   0.577  1.2372  1.2563 -0.9113
 8548SOL     OW31989   1.199   3.067   7.835  0.1602 -0.0442 -0.3740
 8548SOL    HW131990   1.161   3.108   7.912  0.9309  1.8981 -0.9642
 8548SOL    HW231991   1.249   2.993   7.869  1.0869  1.2043  1.0853
 8549SOL     OW31992   2.721   8.580   7.129  0.5037  0.4710  0.2358
 8549SOL    HW131993   2.774   8.557   7.053  0.5803 -0.9654  0.6931
 8549SOL    HW231994   2.631   8.582   7.096  0.2976 -2.0429  0.4280
 8550SOL     OW31995   7.639   8.970   2.186 -0.2834  0.2860  0.7266
 8550SOL    HW131996   7.546   8.983   2.204 -1.0213 -0.2036 -2.1192
 8550SOL    HW231997   7.656   9.026   2.110  2.1542  1.4526  2.0337
 8551SOL     OW31998   5.054   3.420   1.426  0.2232 -0.3197 -0.1483
 8551SOL    HW131999   4.974   3.440   1.475  0.7785  0.7300  0.3669
 8551SOL    HW232000   5.105   3.501   1.430  0.7941 -0.5886 -1.4925
 8552SOL     OW32001   3.013   3.189   3.776  0.0538  0.1286 -0.4746
 8552SOL    HW132002   3.026   3.282   3.757 -0.6283  0.5690  1.0122
 8552SOL    HW232003   2.967   3.155   3.699  0.6326  0.9326 -1.1921
 8553SOL     OW32004   5.563   5.850   5.008  0.0741 -0.0715  0.4506
 8553SOL    HW132005   5.607   5.932   5.030  1.3633 -0.7929  0.6284
 8553SOL    HW232006   5.582   5.792   5.081 -1.9652 -0.1549  0.9909
 8554SOL     OW32007   6.097   1.159   2.654  0.3275 -0.1526 -0.4449
 8554SOL    HW132008   6.065   1.221   2.588 -0.3623 -1.1048 -1.0450
 8554SOL    HW232009   6.019   1.136   2.705  0.6659 -0.1687  0.0706
 8555SOL     OW32010   8.892   7.443   6.330  0.6249  0.0709  0.3694
 8555SOL    HW132011   8.926   7.508   6.391  0.2411  0.8000 -0.1656
 8555SOL    HW232012   8.831   7.391   6.382  1.4294 -0.2837  0.9616
 8556SOL     OW32013   0.484   3.154   5.295 -0.2782 -0.7364 -0.3431
 8556SOL    HW132014   0.543   3.084   5.324 -0.3583 -1.0467 -0.9192
 8556SOL    HW232015   0.467   3.135   5.203 -1.1505 -0.5558 -0.2296
 8557SOL     OW32016   0.387   7.744   2.066  0.3801  0.6834  0.1949
 8557SOL    HW132017   0.391   7.797   2.146  1.1907 -0.3768  0.8943
 8557SOL    HW232018   0.474   7.705   2.060 -0.9281 -2.6860  1.2010
 8558SOL     OW32019   2.204   1.562   3.004 -0.3323  0.2102  0.0475
 8558SOL    HW132020   2.293   1.527   3.003 -0.6186 -0.5457  0.4506
 8558SOL    HW232021   2.163   1.523   3.081 -0.6309  1.5620  0.6094
 8559SOL     OW32022   1.560   5.464   1.867 -0.6295  0.5279 -0.6519
 8559SOL    HW132023   1.497   5.400   1.900 -1.4016  2.1454  1.2270
 8559SOL    HW232024   1.542   5.469   1.773 -1.3212 -1.1436 -0.6398
 8560SOL     OW32025   4.409   0.509   8.059 -0.1067  0.2627  0.2634
 8560SOL    HW132026   4.436   0.594   8.094  0.9978  0.1415 -0.2398
 8560SOL    HW232027   4.458   0.445   8.110  0.9300  0.0544 -0.9176
 8561SOL     OW32028   8.020   3.495   3.282  0.2211 -0.4031 -0.5646
 8561SOL    HW132029   7.977   3.513   3.365 -0.0245 -1.2690 -0.5018
 8561SOL    HW232030   7.973   3.550   3.218  0.2162  0.0312 -0.1910
 8562SOL     OW32031   5.379   2.843   4.232  0.0317  0.3921 -0.0269
 8562SOL    HW132032   5.417   2.809   4.152  1.7889  1.3037  0.3660
 8562SOL    HW232033   5.306   2.898   4.203 -0.0785 -0.1896 -0.8993
 8563SOL     OW32034   0.951   5.094   2.631 -0.1886 -1.0077 -0.2590
 8563SOL    HW132035   0.953   5.149   2.552 -0.5680  0.1063  0.4808
 8563SOL    HW232036   1.035   5.110   2.672  0.0637 -1.6973 -0.5060
 8564SOL     OW32037   6.021   6.162   4.237 -0.2884 -0.1165 -0.3213
 8564SOL    HW132038   6.050   6.165   4.145 -0.8660 -0.6904 -0.5330
 8564SOL    HW232039   6.086   6.213   4.284 -0.6124  1.1912 -1.2186
 8565SOL     OW32040   6.544   2.132   6.254 -0.2630 -0.2149 -0.1703
 8565SOL    HW132041   6.497   2.194   6.310 -0.3081  1.9564 -2.4114
 8565SOL    HW232042   6.637   2.153   6.269 -0.2659  0.1737 -0.6907
 8566SOL     OW32043   2.446   1.661   2.131 -0.5448  0.0922 -0.1116
 8566SOL    HW132044   2.476   1.583   2.177 -2.4747 -0.2284  0.7170
 8566SOL    HW232045   2.470   1.647   2.040 -1.2488 -1.6949 -0.0488
 8567SOL     OW32046   9.142   0.485   5.022 -0.5506  0.2790 -0.1066
 8567SOL    HW132047   9.154   0.400   4.980 -1.6775  0.5236 -0.9743
 8567SOL    HW232048   9.047   0.494   5.030 -0.4662  1.6889 -0.5229
 8568SOL     OW32049   1.919   3.665   7.847 -0.0232  0.0502 -0.0324
 8568SOL    HW132050   1.947   3.756   7.851  0.9452 -0.2521  0.7080
 8568SOL    HW232051   1.942   3.629   7.933 -0.0298 -0.9825 -0.4383
 8569SOL     OW32052   2.505   8.508   3.857  0.0286 -0.1327 -0.3748
 8569SOL    HW132053   2.483   8.558   3.936  0.1901 -0.1576 -0.3140
 8569SOL    HW232054   2.470   8.421   3.873 -2.2917  0.5153 -1.4059
 8570SOL     OW32055   3.376   3.633   6.540  0.2348  0.1057 -0.2254
 8570SOL    HW132056   3.291   3.610   6.576  1.5273  2.2911  5.1497
 8570SOL    HW232057   3.363   3.717   6.496 -0.3801  0.6338  0.9354
 8571SOL     OW32058   1.222   4.330   7.237  0.4343 -0.1088  0.8481
 8571SOL    HW132059   1.194   4.411   7.280 -1.1144  1.0332 -2.0563
 8571SOL    HW232060   1.141   4.280   7.226  0.7902 -0.3974 -0.5904
 8572SOL     OW32061   2.351   1.189   7.539 -0.0634 -0.0939 -0.1557
 8572SOL    HW132062   2.390   1.237   7.612  0.7536 -0.7045 -0.1707
 8572SOL    HW232063   2.318   1.257   7.480 -0.0715  0.4170  0.4240
 8573SOL     OW32064   3.024   4.667   5.625 -0.6234 -0.2180  0.4451
 8573SOL    HW132065   2.999   4.711   5.545 -2.4873  0.1071  1.1569
 8573SOL    HW232066   3.073   4.732   5.675 -0.8220  0.0826  0.2471
 8574SOL     OW32067   9.077   1.530   6.136  0.5691  0.3381 -0.3746
 8574SOL    HW132068   9.040   1.606   6.092 -0.6694  0.2500  0.4590
 8574SOL    HW232069   9.097   1.468   6.066  0.1608  0.8371 -0.9355
 8575SOL     OW32070   8.507   7.193   0.439 -0.2898 -0.2936 -0.2277
 8575SOL    HW132071   8.466   7.106   0.442 -2.5097  0.6768 -0.4354
 8575SOL    HW232072   8.455   7.242   0.376  1.8653  0.7905 -1.2792
 8576SOL     OW32073   6.225   4.775   3.097 -0.2881  0.1971  0.0967
 8576SOL    HW132074   6.297   4.837   3.089 -0.3863  0.4593  1.1056
 8576SOL    HW232075   6.261   4.691   3.069 -0.1427  0.6841 -1.2473
 8577SOL     OW32076   3.353   8.204   5.124 -0.0316  0.2732  0.2737
 8577SOL    HW132077   3.438   8.244   5.106 -0.4897  0.3372 -2.0307
 8577SOL    HW232078   3.331   8.157   5.044 -1.8961 -0.2478  1.0429
 8578SOL     OW32079   3.459   8.630   2.429 -0.4015 -0.0495 -0.6339
 8578SOL    HW132080   3.402   8.568   2.383  1.0933 -1.8691 -0.1884
 8578SOL    HW232081   3.472   8.590   2.515  2.3503 -0.3105 -1.0726
 8579SOL     OW32082   0.521   4.990   6.478 -0.3314  0.2706 -0.2020
 8579SOL    HW132083   0.466   4.978   6.556  1.1365 -2.8426  0.5044
 8579SOL    HW232084   0.584   4.918   6.481  0.1827  0.3403 -3.9923
 8580SOL     OW32085   7.485   4.487   7.523 -0.7475  0.5100  0.2791
 8580SOL    HW132086   7.394   4.476   7.495 -0.3870 -1.4841 -0.3061
 8580SOL    HW232087   7.534   4.428   7.466  0.8442  1.0830  1.0035
 8581SOL     OW32088   0.805   2.347   3.272  0.3160 -0.1607  0.1741
 8581SOL    HW132089   0.719   2.339   3.231  0.2504  1.0422  0.0275
 8581SOL    HW232090   0.823   2.261   3.310  0.5739 -1.4909 -2.7422
 8582SOL     OW32091   2.579   5.031   5.073  0.2455  0.1575  0.1358
 8582SOL    HW132092   2.564   5.121   5.102  2.2916  0.3078  0.8959
 8582SOL    HW232093   2.524   4.978   5.132 -0.6754  0.8634 -0.0684
 8583SOL     OW32094   1.612   4.037   3.546  0.2842  0.5812 -1.0247
 8583SOL    HW132095   1.643   4.020   3.635  1.9359  0.1913 -1.6322
 8583SOL    HW232096   1.533   4.090   3.557 -0.1650 -0.3733  0.6934
 8584SOL     OW32097   3.339   4.036   8.709  0.6625  0.1337  0.0749
 8584SOL    HW132098   3.381   3.950   8.706 -0.8217 -0.5851 -1.3215
 8584SOL    HW232099   3.349   4.063   8.800  3.4460 -0.2983 -0.0080
 8585SOL     OW32100   1.630   8.542   2.275  0.4212  0.1082 -0.4206
 8585SOL    HW132101   1.627   8.606   2.346 -1.3811 -0.2783 -0.0854
 8585SOL    HW232102   1.722   8.538   2.250  0.8642  1.4008  0.8358
 8586SOL     OW32103   0.648   2.138   1.980  0.5259  0.4496 -0.5506
 8586SOL    HW132104   0.579   2.178   2.032  2.1311 -0.9145  2.9651
 8586SOL    HW232105   0.605   2.066   1.934 -0.5613 -0.0136  1.1106
 8587SOL     OW32106   3.480   7.781   5.028  0.2872 -0.0573 -0.0697
 8587SOL    HW132107   3.489   7.692   5.061  0.2172 -0.6922 -1.7043
 8587SOL    HW232108   3.391   7.786   4.993  1.9741 -1.4010 -5.4956
 8588SOL     OW32109   4.487   9.190   2.253 -0.2447 -0.4046  0.0490
 8588SOL    HW132110   4.419   9.143   2.205 -0.7004 -0.1381  0.4219
 8588SOL    HW232111   4.533   9.121   2.301 -0.1247 -0.6106 -0.3624
 8589SOL     OW32112   7.426   2.201   7.048  0.0938 -0.1270 -0.5255
 8589SOL    HW132113   7.363   2.242   6.989 -1.4208 -1.0255  0.3851
 8589SOL    HW232114   7.511   2.211   7.005 -0.5672  1.7221 -1.4792
 8590SOL     OW32115   6.056   8.489   4.034  0.2257  0.2548  0.1556
 8590SOL    HW132116   6.137   8.529   4.003 -0.2091  1.5637  0.6261
 8590SOL    HW232117   5.987   8.531   3.983 -0.4032  1.6365  2.0065
 8591SOL     OW32118   0.832   0.565   8.835  0.0206 -0.5994  0.0348
 8591SOL    HW132119   0.753   0.555   8.782  0.2776 -0.6933 -0.3350
 8591SOL    HW232120   0.890   0.618   8.781 -0.3890  0.8435  0.9627
 8592SOL     OW32121   6.686   8.550   9.214  0.4439 -0.0623 -0.4739
 8592SOL    HW132122   6.672   8.505   9.297 -4.0466  1.4743 -0.1367
 8592SOL    HW232123   6.626   8.507   9.153  1.7160  0.5457 -2.2395
 8593SOL     OW32124   0.808   0.679   1.773 -0.2423 -0.4475 -0.0522
 8593SOL    HW132125   0.881   0.736   1.753  0.2091 -0.8359  0.4626
 8593SOL    HW232126   0.730   0.734   1.764  0.0911 -0.1117 -0.8844
 8594SOL     OW32127   1.347   8.251   3.662 -0.1603  0.1171  0.1280
 8594SOL    HW132128   1.443   8.244   3.653 -0.2493 -1.5361  0.1651
 8594SOL    HW232129   1.324   8.324   3.604  1.1519  0.8596  0.4704
 8595SOL     OW32130   6.017   5.640   5.635 -0.0660 -0.0675 -0.0231
 8595SOL    HW132131   5.969   5.559   5.624  0.3587 -0.3974  0.4876
 8595SOL    HW232132   5.969   5.704   5.583 -0.9029 -0.4429  0.2741
 8596SOL     OW32133   0.825   1.033   0.559 -1.1457 -0.3931  0.9006
 8596SOL    HW132134   0.867   1.089   0.625 -1.4001  0.4717  0.3578
 8596SOL    HW232135   0.866   1.059   0.477 -3.3906  1.2354  0.1826
 8597SOL     OW32136   2.946   7.222   2.525  0.0781 -0.3290  0.0468
 8597SOL    HW132137   2.972   7.249   2.437 -2.0064  0.1737 -0.4696
 8597SOL    HW232138   2.971   7.296   2.581  1.5434 -0.7099 -0.0485
 8598SOL     OW32139   6.039   8.424   1.103  0.6259  0.2618  0.5039
 8598SOL    HW132140   6.063   8.498   1.047  7.2185 -3.0740 -2.2620
 8598SOL    HW232141   6.083   8.442   1.186 -1.6470  1.1987  1.6034
 8599SOL     OW32142   8.755   5.255   2.018  0.1917  0.3735  0.3910
 8599SOL    HW132143   8.730   5.170   2.055 -0.4645  0.3110 -0.1684
 8599SOL    HW232144   8.672   5.297   1.998  0.5309  0.5842 -0.6028
 8600SOL     OW32145   2.882   0.045   2.531 -0.5165 -0.4617  0.6217
 8600SOL    HW132146   2.922   0.026   2.616 -2.1612 -0.3747  1.4470
 8600SOL    HW232147   2.790   0.062   2.551 -0.4031  2.5007 -0.7964
 8601SOL     OW32148   5.822   6.057   3.723 -0.0846  0.1054 -0.1436
 8601SOL    HW132149   5.782   6.015   3.798 -1.8403 -0.5721 -1.3963
 8601SOL    HW232150   5.916   6.058   3.743 -0.4737 -0.3252  1.8806
 8602SOL     OW32151   0.952   7.785   6.753  0.2445  0.4282  0.5124
 8602SOL    HW132152   0.922   7.748   6.670 -2.9801  3.4074  0.1055
 8602SOL    HW232153   0.897   7.744   6.819 -1.0455  1.9099  0.4277
 8603SOL     OW32154   5.401   2.837   9.109 -0.6966  0.2055 -0.0562
 8603SOL    HW132155   5.387   2.930   9.090 -0.9761 -0.2835 -2.5519
 8603SOL    HW232156   5.496   2.827   9.116 -0.6616  0.6456  0.1083
 8604SOL     OW32157   5.920   3.322   4.914  0.6187 -0.3513 -0.0409
 8604SOL    HW132158   5.914   3.233   4.878  2.7640  0.0628 -1.6151
 8604SOL    HW232159   5.873   3.376   4.851 -0.7510 -0.3293  0.9562
 8605SOL     OW32160   1.266   2.769   2.410  0.3984  0.0157 -0.4749
 8605SOL    HW132161   1.255   2.762   2.504 -1.4537 -2.6113 -0.7926
 8605SOL    HW232162   1.189   2.816   2.380 -0.2422 -1.2485 -0.8721
 8606SOL     OW32163   2.439   3.185   4.100 -0.5992 -0.0397 -0.7651
 8606SOL    HW132164   2.444   3.278   4.120 -3.6720 -0.0002  0.3475
 8606SOL    HW232165   2.499   3.144   4.163  2.3514  1.1956 -2.5673
 8607SOL     OW32166   1.405   5.846   2.895  0.1674  0.3249 -0.3293
 8607SOL    HW132167   1.340   5.794   2.847 -0.6030  0.7874  0.2010
 8607SOL    HW232168   1.358   5.878   2.972  1.5903 -1.0916  1.2156
 8608SOL     OW32169   5.117   1.803   6.693 -0.2528 -0.0869  0.2272
 8608SOL    HW132170   5.086   1.776   6.780  2.0067 -1.5194  0.7017
 8608SOL    HW232171   5.038   1.823   6.644 -1.6327  0.4021  2.4964
 8609SOL     OW32172   7.127   6.508   4.442  0.0664  0.2782 -0.4396
 8609SOL    HW132173   7.033   6.504   4.426 -0.4898  0.3469  2.2163
 8609SOL    HW232174   7.153   6.594   4.411 -0.5999  0.0330 -1.7460
 8610SOL     OW32175   7.578   2.920   4.810 -0.2651  0.2369 -0.4231
 8610SOL    HW132176   7.517   2.921   4.885  1.6493 -0.0987  1.2369
 8610SOL    HW232177   7.602   2.828   4.801  1.7227  0.6235  0.4943
 8611SOL     OW32178   7.502   3.548   9.049 -0.0604 -0.3487  0.4853
 8611SOL    HW132179   7.570   3.517   9.110  1.1646 -0.9052 -1.1010
 8611SOL    HW232180   7.438   3.477   9.047 -0.1936 -0.2619  1.2206
 8612SOL     OW32181   7.570   0.694   1.072  0.2392 -0.3735  0.1504
 8612SOL    HW132182   7.507   0.623   1.085  0.7706 -0.7995  0.4332
 8612SOL    HW232183   7.543   0.762   1.134 -1.2538  0.3714 -1.2425
 8613SOL     OW32184   8.611   8.691   1.817 -0.3427  0.2053  0.4792
 8613SOL    HW132185   8.691   8.731   1.783 -0.4050 -0.5800 -0.6328
 8613SOL    HW232186   8.558   8.673   1.740 -2.1039  1.6864  1.2607
 8614SOL     OW32187   4.386   8.410   3.311  0.0642 -0.0541 -0.2587
 8614SOL    HW132188   4.424   8.330   3.347  0.7407 -0.1373 -1.1159
 8614SOL    HW232189   4.330   8.444   3.381  0.0086 -1.1078  0.2241
 8615SOL     OW32190   5.860   6.289   2.238  0.0566 -0.0245  0.6208
 8615SOL    HW132191   5.917   6.234   2.292  1.3527  0.5310 -0.1185
 8615SOL    HW232192   5.822   6.228   2.174  0.5862 -0.2659  0.5239
 8616SOL     OW32193   1.969   0.423   0.235 -0.1903 -0.5850 -0.1783
 8616SOL    HW132194   1.917   0.346   0.256 -2.9709  0.8250 -1.3176
 8616SOL    HW232195   1.912   0.497   0.257  0.4916  1.0311 -3.2886
 8617SOL     OW32196   3.740   5.198   7.703 -0.2498 -0.1379  0.5048
 8617SOL    HW132197   3.686   5.119   7.706  0.6979 -0.7865  2.6514
 8617SOL    HW232198   3.677   5.270   7.707 -1.0624 -0.8280  0.4617
 8618SOL     OW32199   4.394   6.217   4.800  0.3734  0.1959  0.0528
 8618SOL    HW132200   4.424   6.307   4.811  0.4120  0.2081 -0.1478
 8618SOL    HW232201   4.301   6.220   4.824 -0.3819  0.8837 -2.5581
 8619SOL     OW32202   9.117   6.689   8.028 -0.2651  0.8986  0.3220
 8619SOL    HW132203   9.131   6.747   8.103 -2.4692  0.8121  0.8871
 8619SOL    HW232204   9.035   6.720   7.989 -0.2306 -0.3533 -0.8072
 8620SOL     OW32205   7.052   0.633   2.619 -0.6594  0.3366  0.0567
 8620SOL    HW132206   6.989   0.577   2.662 -0.0437  0.4534  1.1535
 8620SOL    HW232207   7.137   0.605   2.653 -0.0610 -0.0624 -1.6509
 8621SOL     OW32208   7.762   7.833   1.352 -0.2952  0.0475 -0.1479
 8621SOL    HW132209   7.823   7.894   1.311 -0.3103  1.4538  1.8019
 8621SOL    HW232210   7.751   7.866   1.441 -3.0303 -0.8069 -0.0732
 8622SOL     OW32211   8.804   2.851   5.819 -0.1356 -0.3775 -0.0314
 8622SOL    HW132212   8.826   2.916   5.885  1.4899 -0.0793 -0.8031
 8622SOL    HW232213   8.781   2.773   5.869  2.8103 -0.7371  1.0098
 8623SOL     OW32214   4.954   6.107   5.115  0.3490 -0.1842  0.3090
 8623SOL    HW132215   4.980   6.198   5.124  0.6315 -0.3137  0.8970
 8623SOL    HW232216   4.859   6.108   5.123  0.0803  0.3429 -2.2888
 8624SOL     OW32217   1.994   6.267   7.003 -0.2239 -0.2623  0.3683
 8624SOL    HW132218   2.009   6.264   6.908  0.6342  0.1501  0.4797
 8624SOL    HW232219   1.899   6.262   7.012 -0.2567 -1.7083 -0.4435
 8625SOL     OW32220   6.316   0.363   0.306 -0.4273 -0.5178 -0.6546
 8625SOL    HW132221   6.267   0.402   0.233 -0.1780  2.4232  0.6188
 8625SOL    HW232222   6.406   0.394   0.294 -0.1682 -0.8547  0.3334
 8626SOL     OW32223   8.725   0.946   8.973 -0.0053  0.0870 -0.6908
 8626SOL    HW132224   8.698   1.038   8.972 -0.8805 -0.1220  0.8725
 8626SOL    HW232225   8.643   0.897   8.965  0.2600 -0.5383  0.2182
 8627SOL     OW32226   4.596   6.430   2.225  0.2129  0.0993  0.2018
 8627SOL    HW132227   4.544   6.350   2.236 -0.3433  0.5530  1.0474
 8627SOL    HW232228   4.596   6.446   2.131 -0.8889 -0.1283  0.1438
 8628SOL     OW32229   4.180   4.265   5.028  0.1207 -0.2242  0.2073
 8628SOL    HW132230   4.097   4.308   5.007 -0.0953 -1.5904 -1.9790
 8628SOL    HW232231   4.156   4.178   5.057  0.7996 -1.3137 -2.2821
 8629SOL     OW32232   0.041   1.500   8.747  0.4715 -0.4592  0.5499
 8629SOL    HW132233   0.039   1.587   8.786  1.9096 -0.4974  0.7636
 8629SOL    HW232234   0.094   1.510   8.668  0.7036 -1.1561  0.6103
 8630SOL     OW32235   6.056   6.159   5.507 -0.2677 -0.0339 -0.2031
 8630SOL    HW132236   6.138   6.193   5.470 -0.3819  0.3804 -0.0874
 8630SOL    HW232237   5.989   6.182   5.442 -0.4932  0.8301  0.3028
 8631SOL     OW32238   0.565   0.172   5.047 -0.0902 -0.3766  0.0568
 8631SOL    HW132239   0.476   0.208   5.051 -0.5148 -1.3836  0.0021
 8631SOL    HW232240   0.578   0.150   4.955  0.6351  0.7572 -0.1273
 8632SOL     OW32241   8.576   7.152   0.041  0.0990 -0.4450 -0.1917
 8632SOL    HW132242   8.582   7.230  -0.013 -2.8660 -0.7770 -1.1803
 8632SOL    HW232243   8.655   7.154   0.095 -0.0355  3.4432  0.1530
 8633SOL     OW32244   0.445   3.640   0.050  0.2108 -0.2031  0.6641
 8633SOL    HW132245   0.422   3.548   0.062 -0.6920 -0.2454 -1.1003
 8633SOL    HW232246   0.411   3.684   0.129 -0.9149 -1.1221  0.7106
 8634SOL     OW32247   0.715   9.128   1.232  0.3838 -0.2967  0.2228
 8634SOL    HW132248   0.720   9.056   1.295  0.8628 -0.3478  0.1288
 8634SOL    HW232249   0.687   9.203   1.284  2.2993  0.0539  0.8527
 8635SOL     OW32250   5.216   4.838   1.683  0.2527 -0.0814 -0.4150
 8635SOL    HW132251   5.292   4.785   1.660  0.3678  0.1997 -0.6920
 8635SOL    HW232252   5.244   4.887   1.760  0.5261  0.3798 -0.7986
 8636SOL     OW32253   4.805   3.344   1.017 -1.1843 -0.4738  0.7626
 8636SOL    HW132254   4.866   3.312   1.083 -0.3989  2.9604  1.9014
 8636SOL    HW232255   4.750   3.406   1.064  0.3758  3.2873 -1.8849
 8637SOL     OW32256   5.144   8.926   3.472  0.3339  0.0439  0.2544
 8637SOL    HW132257   5.073   8.890   3.420  0.1155 -0.6822  1.0298
 8637SOL    HW232258   5.136   9.021   3.462 -0.0698 -0.0646 -0.5294
 8638SOL     OW32259   7.125   6.960   8.094  0.1325  0.0695 -0.0302
 8638SOL    HW132260   7.143   6.878   8.049  1.5314  0.6984 -0.6512
 8638SOL    HW232261   7.052   6.939   8.153 -0.6510 -1.1713 -1.3891
 8639SOL     OW32262   4.630   3.995   6.855 -0.7137  0.7165  0.0021
 8639SOL    HW132263   4.593   3.939   6.787 -2.6223  0.9318  0.7989
 8639SOL    HW232264   4.674   4.066   6.807 -0.7292  0.0712 -0.9905
 8640SOL     OW32265   1.771   3.689   1.876 -0.0120  0.5043 -0.5499
 8640SOL    HW132266   1.737   3.602   1.897  0.5358  0.5444  0.5826
 8640SOL    HW232267   1.797   3.725   1.961  1.7083  0.9459 -1.2231
 8641SOL     OW32268   0.423   5.283   7.110  0.3342  0.0043  0.2612
 8641SOL    HW132269   0.355   5.348   7.131  0.0047 -0.4027  0.4588
 8641SOL    HW232270   0.489   5.295   7.179  1.4121  1.6900 -0.9583
 8642SOL     OW32271   1.736   7.482   5.467 -0.3842  0.1578 -0.3293
 8642SOL    HW132272   1.681   7.520   5.535 -0.8736  0.9156 -1.1214
 8642SOL    HW232273   1.723   7.387   5.475 -1.0066  0.2795  0.1466
 8643SOL     OW32274   6.897   2.575   6.376 -0.1435  0.1005  0.7319
 8643SOL    HW132275   6.913   2.481   6.374  0.2128  0.0382  3.3601
 8643SOL    HW232276   6.805   2.584   6.351  0.3327 -0.6921 -1.5998
 8644SOL     OW32277   7.151   7.645   6.389 -0.2822 -0.0623 -0.1601
 8644SOL    HW132278   7.215   7.716   6.377  0.6855 -0.6891  1.0940
 8644SOL    HW232279   7.085   7.683   6.447  1.1075 -0.6296  1.9209
 8645SOL     OW32280   2.484   0.154   4.488 -0.4612 -0.3000  0.1335
 8645SOL    HW132281   2.390   0.168   4.496 -0.1892  1.5674  0.4174
 8645SOL    HW232282   2.497   0.065   4.520 -2.1006 -0.5368  0.2513
 8646SOL     OW32283   1.906   3.963   1.229 -0.3237  0.4922 -0.0743
 8646SOL    HW132284   1.812   3.963   1.245 -0.7018 -0.1683 -2.0148
 8646SOL    HW232285   1.922   4.044   1.180  0.3462  1.1889  1.2418
 8647SOL     OW32286   7.022   5.384   1.259  0.1123  0.5054  0.2207
 8647SOL    HW132287   7.081   5.315   1.231 -0.0486 -0.4340  2.0289
 8647SOL    HW232288   6.996   5.359   1.348 -0.1293  2.7650  0.8571
 8648SOL     OW32289   2.637   8.357   6.269  0.6616 -0.2838  0.0099
 8648SOL    HW132290   2.620   8.331   6.178 -1.2843 -0.8476  0.4816
 8648SOL    HW232291   2.706   8.422   6.263  0.2604  0.0238 -1.9271
 8649SOL     OW32292   8.028   0.268   9.070  0.6213  0.4244 -0.4488
 8649SOL    HW132293   8.069   0.343   9.114  1.9024  0.3543 -1.4434
 8649SOL    HW232294   7.991   0.306   8.990 -0.0149  0.2342 -0.2474
 8650SOL     OW32295   4.493   0.407   7.179  0.2386 -0.4892 -0.3147
 8650SOL    HW132296   4.487   0.334   7.240 -1.7959 -0.0464  0.0936
 8650SOL    HW232297   4.432   0.473   7.214 -0.0090  0.3052 -2.1035
 8651SOL     OW32298   2.138   7.364   4.092 -0.6929  0.3580  0.2190
 8651SOL    HW132299   2.133   7.290   4.033  1.0641 -0.0587  0.5372
 8651SOL    HW232300   2.194   7.334   4.164  2.6793  2.8846 -1.1207
 8652SOL     OW32301   0.138   7.795   2.543  0.3467  0.3303  0.7290
 8652SOL    HW132302   0.134   7.859   2.614  1.1846 -1.3310  2.3574
 8652SOL    HW232303   0.184   7.720   2.581 -3.0048 -2.4171 -0.1506
 8653SOL     OW32304   0.785   2.511   9.240 -0.1186  0.0574  0.1837
 8653SOL    HW132305   0.741   2.564   9.308  2.1667  2.7553 -0.2568
 8653SOL    HW232306   0.839   2.449   9.289  0.5238  1.1180  0.8610
 8654SOL     OW32307   4.088   7.906   5.720  0.4545  0.2452 -0.0405
 8654SOL    HW132308   4.104   7.935   5.810 -0.9479  5.7569 -1.1991
 8654SOL    HW232309   3.994   7.916   5.708  0.5669 -0.5839 -2.1042
 8655SOL     OW32310   6.644   4.046   6.461 -0.3188  0.3469  0.1917
 8655SOL    HW132311   6.589   3.969   6.478 -1.8717  1.0067 -1.5122
 8655SOL    HW232312   6.584   4.121   6.469  0.3847  1.1251 -1.3143
 8656SOL     OW32313   1.574   3.267   4.047 -0.2180 -0.0424  0.1306
 8656SOL    HW132314   1.522   3.188   4.065 -1.7667  0.9711  0.2010
 8656SOL    HW232315   1.517   3.322   3.994  1.5289  0.2806 -1.5283
 8657SOL     OW32316   2.475   1.839   0.761  0.2504  0.5567 -0.2718
 8657SOL    HW132317   2.415   1.849   0.836 -1.9797  2.1943 -2.1104
 8657SOL    HW232318   2.542   1.906   0.775  1.9331 -1.4323  1.9269
 8658SOL     OW32319   0.401   1.781   6.908 -0.3564  0.5124  0.4098
 8658SOL    HW132320   0.374   1.837   6.981 -2.2343  0.2965 -0.0650
 8658SOL    HW232321   0.354   1.698   6.924 -0.7358  0.4381 -0.9711
 8659SOL     OW32322   1.535   6.222   0.813 -0.7607  0.3714 -0.3709
 8659SOL    HW132323   1.592   6.288   0.772  2.0241 -0.8783  1.1827
 8659SOL    HW232324   1.499   6.173   0.740 -0.3285  1.6095 -1.4576
 8660SOL     OW32325   3.309   7.549   5.949  0.1729 -0.2862 -0.0378
 8660SOL    HW132326   3.351   7.543   5.863 -1.3335 -1.9634 -0.7117
 8660SOL    HW232327   3.267   7.635   5.948 -2.0428 -1.2574 -2.1473
 8661SOL     OW32328   7.045   4.787   4.360  0.2056 -0.2966  0.1087
 8661SOL    HW132329   6.960   4.760   4.325 -0.8519  0.3047  2.0157
 8661SOL    HW232330   7.078   4.851   4.297 -0.8673 -0.3859 -0.5624
 8662SOL     OW32331   8.817   9.080   3.442 -0.0489 -0.1775  0.1460
 8662SOL    HW132332   8.784   9.162   3.407  1.5499  0.2818 -0.3935
 8662SOL    HW232333   8.825   9.095   3.536  2.0625  1.0425 -0.1542
 8663SOL     OW32334   0.603   8.158   5.871  0.0553 -0.4862  0.6543
 8663SOL    HW132335   0.552   8.220   5.922 -0.0753 -0.7094  0.7951
 8663SOL    HW232336   0.661   8.116   5.935  0.7951  0.1468  0.4118
 8664SOL     OW32337   3.278   5.989   6.131  0.6843  0.0064 -0.4143
 8664SOL    HW132338   3.366   5.986   6.167  1.0047  1.3553 -1.0243
 8664SOL    HW232339   3.258   6.082   6.123  0.1580 -0.2299 -2.5065
 8665SOL     OW32340   2.082   1.056   6.679 -0.0844  0.1863 -0.2124
 8665SOL    HW132341   2.070   1.031   6.771 -0.2311  0.0662 -0.2627
 8665SOL    HW232342   2.056   1.148   6.676  0.4730  0.3502 -0.0225
 8666SOL     OW32343   1.258   5.557   3.946  0.2216 -0.1066  0.2397
 8666SOL    HW132344   1.269   5.467   3.976 -0.8053 -0.8287 -1.4120
 8666SOL    HW232345   1.338   5.575   3.897  0.3548 -0.1907  0.4267
 8667SOL     OW32346   3.246   6.871   8.685 -0.0283  0.1747  0.1493
 8667SOL    HW132347   3.315   6.861   8.619 -1.4633 -1.4337 -1.1958
 8667SOL    HW232348   3.291   6.909   8.761  1.8180  1.4716 -1.4967
 8668SOL     OW32349   3.027   5.608   7.093 -0.1231  0.2731 -0.1750
 8668SOL    HW132350   2.985   5.568   7.170  1.1576  0.0446  0.4310
 8668SOL    HW232351   3.074   5.536   7.052  0.7444  0.7849 -0.0924
 8669SOL     OW32352   5.003   7.091   8.322 -0.3700 -0.1669 -0.2314
 8669SOL    HW132353   4.926   7.129   8.365 -0.2494 -0.3360  0.1417
 8669SOL    HW232354   4.967   7.043   8.247 -0.5085  0.7773 -0.7826
 8670SOL     OW32355   6.358   7.650   6.831 -0.0597  0.3510  0.1531
 8670SOL    HW132356   6.273   7.688   6.812 -0.6562 -0.4281  1.1298
 8670SOL    HW232357   6.398   7.709   6.894 -1.6118 -1.2679  2.8451
 8671SOL     OW32358   4.118   8.588   6.352  0.0606  0.0143 -0.0417
 8671SOL    HW132359   4.025   8.609   6.352 -0.3605 -1.6452  0.9233
 8671SOL    HW232360   4.125   8.505   6.304  0.3679 -2.0888  3.2629
 8672SOL     OW32361   2.534   4.227   4.060  0.0032  0.1880  0.1869
 8672SOL    HW132362   2.576   4.308   4.031  0.2814 -0.3968 -1.0834
 8672SOL    HW232363   2.452   4.225   4.011  1.1291 -1.5321 -1.7706
 8673SOL     OW32364   4.493   4.559   3.221 -0.3536 -0.6141  0.9119
 8673SOL    HW132365   4.461   4.574   3.132 -0.3204 -3.6576  0.2868
 8673SOL    HW232366   4.574   4.609   3.226  0.4319 -1.5655 -1.3265
 8674SOL     OW32367   3.720   8.621   6.796 -0.3218 -0.4647  0.5081
 8674SOL    HW132368   3.653   8.584   6.853 -0.5128  1.4531  1.5846
 8674SOL    HW232369   3.779   8.548   6.778 -1.1440 -1.4927  1.8369
 8675SOL     OW32370   4.201   3.347   0.548  0.2559 -0.4912  0.3096
 8675SOL    HW132371   4.258   3.383   0.480  0.6024 -2.3270 -0.4495
 8675SOL    HW232372   4.191   3.418   0.611  0.7789  0.9307 -1.1324
 8676SOL     OW32373   5.075   0.097   6.816 -0.0062 -0.0030 -0.2055
 8676SOL    HW132374   5.020   0.168   6.848  0.9826  1.7818 -2.1561
 8676SOL    HW232375   5.026   0.060   6.743 -0.4036 -1.2163  0.6452
 8677SOL     OW32376   2.054   7.439   5.909 -0.8163  0.1104  0.3556
 8677SOL    HW132377   1.970   7.482   5.924 -1.4359 -0.9356  0.0490
 8677SOL    HW232378   2.032   7.346   5.903  0.1863 -0.0688 -1.0085
 8678SOL     OW32379   7.105   7.130   9.197  0.2104  0.0535  0.1116
 8678SOL    HW132380   7.197   7.155   9.195 -0.0836  1.1613 -0.1623
 8678SOL    HW232381   7.103   7.041   9.162  1.1765  0.0341  0.1001
 8679SOL     OW32382   3.686   6.706   0.140  0.2299 -0.1383  0.4355
 8679SOL    HW132383   3.699   6.614   0.159 -1.5854 -0.5735 -0.2373
 8679SOL    HW232384   3.730   6.752   0.212  1.4695 -1.4921  0.5794
 8680SOL     OW32385   6.925   1.158   4.840 -0.0659  0.2776 -0.1327
 8680SOL    HW132386   6.928   1.222   4.912  1.5177 -0.0799  0.1519
 8680SOL    HW232387   6.877   1.203   4.770 -1.6623  0.6308  1.1144
 8681SOL     OW32388   2.542   7.575   5.481  0.0855 -0.3474 -0.4757
 8681SOL    HW132389   2.468   7.616   5.437 -0.7637 -1.3879 -0.0421
 8681SOL    HW232390   2.572   7.642   5.544  0.1392  0.4333 -1.3110
 8682SOL     OW32391   1.196   6.440   8.765 -0.2839 -0.4925 -0.0475
 8682SOL    HW132392   1.286   6.412   8.749 -0.6396 -0.4312 -2.5597
 8682SOL    HW232393   1.204   6.525   8.808  0.8966  0.3028 -1.7633
 8683SOL     OW32394   6.396   8.662   8.255  0.0450 -0.0260  0.0063
 8683SOL    HW132395   6.475   8.610   8.260 -1.1125 -2.2772 -2.4839
 8683SOL    HW232396   6.327   8.607   8.293 -0.9442  0.3185 -1.2001
 8684SOL     OW32397   5.917   2.255   5.617 -0.2352 -0.0712  0.3165
 8684SOL    HW132398   5.965   2.200   5.556  0.0919 -0.4599  0.9158
 8684SOL    HW232399   5.826   2.247   5.590  0.1538  1.9841 -1.8794
 8685SOL     OW32400   3.673   6.255   0.403  0.4694 -0.0006 -0.4454
 8685SOL    HW132401   3.682   6.183   0.466 -1.3024 -0.8241 -1.0515
 8685SOL    HW232402   3.582   6.249   0.373  1.0321  0.8433 -2.4991
 8686SOL     OW32403   9.044   6.402   7.041 -0.2779  0.0969 -0.1429
 8686SOL    HW132404   9.034   6.461   7.115  1.2573 -0.0378  0.2114
 8686SOL    HW232405   9.137   6.409   7.016 -0.1970 -1.6418 -0.5097
 8687SOL     OW32406   3.418   4.331   8.342 -0.0308 -0.6528 -0.0472
 8687SOL    HW132407   3.424   4.309   8.435  0.5499 -2.1819 -0.4162
 8687SOL    HW232408   3.437   4.249   8.296 -2.0118 -0.3644 -1.5270
 8688SOL     OW32409   4.804   5.337   7.155 -0.4383 -0.0252  0.0004
 8688SOL    HW132410   4.741   5.359   7.224 -0.5643  0.1134 -0.1580
 8688SOL    HW232411   4.835   5.250   7.178  2.2480  1.3744  2.2970
 8689SOL     OW32412   6.268   6.742   5.897 -0.2823  0.3339  0.1695
 8689SOL    HW132413   6.321   6.772   5.970 -1.8484  2.5804  0.4950
 8689SOL    HW232414   6.197   6.691   5.937 -1.1175  1.5298  0.2699
 8690SOL     OW32415   4.741   9.073   4.517 -0.1395 -0.0106 -0.4304
 8690SOL    HW132416   4.827   9.034   4.506 -0.1670  0.2165 -1.5763
 8690SOL    HW232417   4.690   9.043   4.441 -0.7450  0.6899 -0.3173
 8691SOL     OW32418   4.287   1.504   5.799  0.3534  0.9417 -0.0386
 8691SOL    HW132419   4.267   1.528   5.708 -2.0984  0.1572  0.2177
 8691SOL    HW232420   4.335   1.580   5.833  1.9396  0.9882 -2.1173
 8692SOL     OW32421   9.028   4.758   7.448  0.0051  0.6382  0.2806
 8692SOL    HW132422   8.969   4.682   7.447  0.5034  0.2286  1.0561
 8692SOL    HW232423   8.978   4.826   7.493 -0.4055  0.7533 -0.3302
 8693SOL     OW32424   8.174   2.411   5.030 -0.1468 -0.8348  0.0658
 8693SOL    HW132425   8.118   2.392   5.105  0.1803 -1.7081  0.1057
 8693SOL    HW232426   8.264   2.405   5.064 -0.0127  0.6562  0.0288
 8694SOL     OW32427   1.880   4.429   4.508  0.5705 -0.5325  0.0331
 8694SOL    HW132428   1.944   4.404   4.441  1.0543 -0.5553  0.4949
 8694SOL    HW232429   1.840   4.346   4.535 -2.3479 -0.2471 -2.8424
 8695SOL     OW32430   0.783   8.107   1.733 -0.5742  0.0183  0.2144
 8695SOL    HW132431   0.831   8.189   1.725  1.5725 -0.9073  2.4297
 8695SOL    HW232432   0.751   8.107   1.824 -1.7231 -1.0033 -0.1616
 8696SOL     OW32433   4.598   7.678   5.148  0.6058  0.3216  0.0537
 8696SOL    HW132434   4.684   7.675   5.190  0.4890  1.5980  0.4262
 8696SOL    HW232435   4.617   7.710   5.059  0.4439  1.4190  0.4013
 8697SOL     OW32436   5.374   3.654   1.073  0.2908 -1.0087  0.5707
 8697SOL    HW132437   5.432   3.704   1.129 -0.3472 -0.4916  0.7864
 8697SOL    HW232438   5.317   3.720   1.032 -0.9685 -1.5881  1.3320
 8698SOL     OW32439   5.406   1.347   0.820  0.1378 -0.0587  0.4223
 8698SOL    HW132440   5.357   1.306   0.749  0.9939  0.9925 -0.8075
 8698SOL    HW232441   5.358   1.427   0.839  0.2036 -0.0792  0.6818
 8699SOL     OW32442   0.720   2.986   5.953 -0.3326 -0.7066 -0.2344
 8699SOL    HW132443   0.659   3.057   5.973 -2.5539 -2.4994 -0.1825
 8699SOL    HW232444   0.663   2.912   5.933  1.8870 -2.3407 -0.8062
 8700SOL     OW32445   2.062   3.313   2.754  0.3770  0.0225 -0.0152
 8700SOL    HW132446   2.014   3.396   2.758 -0.1264 -0.2906  2.4170
 8700SOL    HW232447   2.003   3.254   2.708  0.8014  0.9984 -1.9151
 8701SOL     OW32448   4.209   4.255   5.415  0.0204  0.3530  0.4442
 8701SOL    HW132449   4.131   4.224   5.370  1.8885 -2.2408 -1.3280
 8701SOL    HW232450   4.235   4.334   5.367 -0.1292 -0.2461 -0.6568
 8702SOL     OW32451   8.970   5.503   3.113  0.1297  1.0964  0.0412
 8702SOL    HW132452   9.025   5.462   3.046 -1.3531  1.8698 -1.7599
 8702SOL    HW232453   9.011   5.588   3.130  1.3515  0.2996  1.3098
 8703SOL     OW32454   7.903   0.472   3.982 -0.0086 -0.5227 -0.5464
 8703SOL    HW132455   7.897   0.559   3.942  1.2002 -0.2086 -0.0906
 8703SOL    HW232456   7.900   0.489   4.076 -0.7963 -1.0805 -0.4584
 8704SOL     OW32457   7.246   0.530   6.925 -0.1758  0.2311  0.1017
 8704SOL    HW132458   7.273   0.517   6.833 -0.5926 -0.4194  0.0637
 8704SOL    HW232459   7.279   0.452   6.970 -0.6019  0.2047  0.3682
 8705SOL     OW32460   6.623   5.458   5.369  0.8370 -0.0960  0.2196
 8705SOL    HW132461   6.616   5.462   5.274 -0.4380 -0.8318  0.2496
 8705SOL    HW232462   6.618   5.550   5.397  0.7106  0.0954 -0.4054
 8706SOL     OW32463   6.779   2.645   5.920 -0.1266 -0.1827 -0.1977
 8706SOL    HW132464   6.750   2.703   5.850 -2.4718 -2.1994 -1.0568
 8706SOL    HW232465   6.698   2.619   5.964  0.8116 -2.6209  0.2480
 8707SOL     OW32466   4.289   7.312   2.285  0.4149 -0.5044 -0.2284
 8707SOL    HW132467   4.205   7.351   2.261 -0.2378 -1.8235 -0.2035
 8707SOL    HW232468   4.354   7.380   2.268 -0.4416 -0.0787 -2.0435
 8708SOL     OW32469   7.527   2.976   2.092  0.2084  0.8471 -1.0290
 8708SOL    HW132470   7.530   3.041   2.162 -0.1207  0.5267 -0.7128
 8708SOL    HW232471   7.491   3.023   2.017  1.3696  1.4251 -1.2463
 8709SOL     OW32472   4.063   4.665   6.277  0.7773 -0.4497  0.3998
 8709SOL    HW132473   4.067   4.665   6.182  2.9636  1.2476  0.4006
 8709SOL    HW232474   4.151   4.689   6.305  0.4092 -1.6298  2.8979
 8710SOL     OW32475   8.720   2.073   9.041  0.5695 -0.1747  0.1907
 8710SOL    HW132476   8.759   1.990   9.016 -1.1244 -0.5931 -1.2615
 8710SOL    HW232477   8.688   2.111   8.959 -1.1118  0.5920  1.1368
 8711SOL     OW32478   3.450   5.680   4.219  0.2973  0.0894 -0.2467
 8711SOL    HW132479   3.377   5.624   4.192  0.9531 -0.0645 -1.8635
 8711SOL    HW232480   3.410   5.751   4.268 -0.4954 -2.1262  2.5156
 8712SOL     OW32481   5.171   1.686   1.362 -0.4291 -0.1409 -0.1541
 8712SOL    HW132482   5.142   1.640   1.441 -2.4923 -0.4199 -1.0019
 8712SOL    HW232483   5.094   1.687   1.305  1.0986 -0.3005 -2.3468
 8713SOL     OW32484   8.302   3.135   8.237 -1.1134 -0.7301  0.7796
 8713SOL    HW132485   8.373   3.071   8.226 -0.2145  0.4739 -0.7984
 8713SOL    HW232486   8.321   3.176   8.322  0.3751 -0.1216  0.1889
 8714SOL     OW32487   7.894   7.258   7.562 -0.6057  0.3681  0.3179
 8714SOL    HW132488   7.948   7.221   7.632 -1.6102 -0.0515  0.9063
 8714SOL    HW232489   7.896   7.192   7.493 -0.3071  0.3877  0.3078
 8715SOL     OW32490   1.455   1.301   4.456 -0.3211 -0.1511 -0.1731
 8715SOL    HW132491   1.535   1.342   4.488 -0.3641 -0.4764  0.3615
 8715SOL    HW232492   1.385   1.354   4.494 -0.3768  0.7650 -1.4627
 8716SOL     OW32493   6.170   8.381   0.725  0.4066 -0.0596  0.7551
 8716SOL    HW132494   6.166   8.316   0.796 -0.0613 -0.3026  0.5114
 8716SOL    HW232495   6.127   8.338   0.651 -0.8110  0.9007  0.8776
 8717SOL     OW32496   4.948   0.926   2.133 -0.0802 -0.2266  0.2855
 8717SOL    HW132497   4.974   0.863   2.201 -0.4849  0.5032  1.1199
 8717SOL    HW232498   4.949   0.874   2.052  0.1907 -1.1605  0.8677
 8718SOL     OW32499   8.212   0.017   2.485  0.0343 -0.0083  0.5398
 8718SOL    HW132500   8.295   0.023   2.438  0.0901 -0.4021  0.5812
 8718SOL    HW232501   8.149  -0.014   2.420 -0.1743  0.6776  0.4063
 8719SOL     OW32502   4.755   8.346   7.987 -0.1703 -0.1853  0.3897
 8719SOL    HW132503   4.840   8.335   8.031 -1.0558 -1.0323  1.9606
 8719SOL    HW232504   4.706   8.268   8.010 -1.4484  0.3659 -0.3889
 8720SOL     OW32505   7.178   3.795   0.744 -0.5011  0.0097 -0.6125
 8720SOL    HW132506   7.229   3.871   0.717  0.7304 -0.8815 -0.8672
 8720SOL    HW232507   7.135   3.822   0.825  0.3492  0.7920 -0.4124
 8721SOL     OW32508   3.106   5.975   5.105  0.4706 -0.5583  0.3937
 8721SOL    HW132509   3.197   5.965   5.078  0.6911 -0.1179  0.9650
 8721SOL    HW232510   3.057   5.982   5.022  1.0202 -0.2125  0.0925
 8722SOL     OW32511   0.163   8.734   3.690  0.3348  0.3176 -0.3761
 8722SOL    HW132512   0.245   8.696   3.659  0.6901  1.5119 -0.9638
 8722SOL    HW232513   0.154   8.815   3.640 -1.1932  0.2264 -0.3023
 8723SOL     OW32514   3.236   3.844   6.698 -0.5688  0.5389  0.0378
 8723SOL    HW132515   3.247   3.821   6.790  0.2108 -1.1206 -0.4184
 8723SOL    HW232516   3.323   3.871   6.669 -0.6858  0.5307 -0.3296
 8724SOL     OW32517   2.752   7.370   9.011 -0.2656 -0.0045  0.3766
 8724SOL    HW132518   2.818   7.396   8.948 -0.6744 -0.2428 -0.1531
 8724SOL    HW232519   2.670   7.372   8.963 -1.2558  3.7828  1.8536
 8725SOL     OW32520   2.097   8.786   8.061  0.6145  0.2514 -0.3932
 8725SOL    HW132521   2.066   8.870   8.094  0.0689 -0.0209 -0.2013
 8725SOL    HW232522   2.191   8.787   8.076  0.4974  0.4986  0.3433
 8726SOL     OW32523   4.019   8.377   5.510  0.1166  0.4133  0.1532
 8726SOL    HW132524   4.060   8.335   5.434 -1.2255  0.1665 -0.4553
 8726SOL    HW232525   3.954   8.437   5.472 -1.2450 -0.4081  1.1033
 8727SOL     OW32526   4.869   3.188   7.550  0.0965 -0.1813 -0.1047
 8727SOL    HW132527   4.906   3.100   7.547  1.6584  0.4371 -0.2808
 8727SOL    HW232528   4.922   3.238   7.488  1.0610  1.5089  1.9508
 8728SOL     OW32529   3.597   5.268   2.172  0.0802 -0.8238 -0.4330
 8728SOL    HW132530   3.647   5.187   2.176  0.5162 -0.5247  2.1013
 8728SOL    HW232531   3.507   5.241   2.159  0.1134 -1.8237  1.1427
 8729SOL     OW32532   6.270   2.013   8.456 -0.5199  0.0525 -0.2673
 8729SOL    HW132533   6.285   2.094   8.506 -0.2425  0.8318 -1.5687
 8729SOL    HW232534   6.214   1.960   8.513 -0.1428  0.8657  0.9029
 8730SOL     OW32535   5.783   2.573   6.128  0.3842 -0.7732  0.5293
 8730SOL    HW132536   5.845   2.504   6.104  0.7270 -0.5686  0.8109
 8730SOL    HW232537   5.839   2.645   6.160  0.0189 -0.4688  0.4890
 8731SOL     OW32538   0.106   0.656   7.953 -0.3762  0.0969  0.1895
 8731SOL    HW132539   0.148   0.627   7.872  1.3477 -1.6936  1.6122
 8731SOL    HW232540   0.082   0.747   7.936  1.4788  0.3096 -1.7666
 8732SOL     OW32541   2.786   1.014   1.923  0.3227  0.4540 -0.0057
 8732SOL    HW132542   2.707   0.991   1.874  1.9452 -1.3147 -2.0156
 8732SOL    HW232543   2.822   1.090   1.877  1.0897 -0.3195 -0.7209
 8733SOL     OW32544   9.174   7.533   7.194 -0.0915  0.5369  0.1718
 8733SOL    HW132545   9.233   7.458   7.197 -0.7927 -0.1376 -1.6509
 8733SOL    HW232546   9.229   7.604   7.160 -0.0847  0.1446 -0.6575
 8734SOL     OW32547   1.525   0.604   1.676 -0.0541 -0.4969  0.3348
 8734SOL    HW132548   1.460   0.535   1.667 -0.1903 -0.4039  0.5904
 8734SOL    HW232549   1.568   0.587   1.760 -0.4432  0.0230  0.6419
 8735SOL     OW32550   3.499   3.939   6.564  0.0164  0.0346  0.0866
 8735SOL    HW132551   3.514   4.032   6.582  1.3783 -0.1783  0.1715
 8735SOL    HW232552   3.447   3.938   6.483 -1.3738  0.8838  0.9422
 8736SOL     OW32553   0.406   5.328   7.562  0.3437  0.6410 -0.2760
 8736SOL    HW132554   0.414   5.374   7.645 -0.9001  0.0572  0.1797
 8736SOL    HW232555   0.491   5.285   7.550  0.7383  1.2223  0.3737
 8737SOL     OW32556   9.123   2.988   8.599  0.4397 -0.8328  0.6422
 8737SOL    HW132557   9.124   2.995   8.695  1.3508  0.8483  0.5389
 8737SOL    HW232558   9.117   3.078   8.568  2.0224 -1.2011 -0.9002
 8738SOL     OW32559   9.024   6.888   0.481 -0.4035 -0.4814 -0.2429
 8738SOL    HW132560   8.969   6.851   0.413 -0.5284 -0.5570 -0.1021
 8738SOL    HW232561   8.967   6.894   0.558 -0.3857 -0.0075 -0.2613
 8739SOL     OW32562   0.042   4.862   6.168 -0.4834 -0.7404  0.2737
 8739SOL    HW132563   0.091   4.835   6.090 -1.7563 -1.6176 -0.2603
 8739SOL    HW232564   0.103   4.917   6.217  0.0946  0.4822 -1.7120
 8740SOL     OW32565   5.619   1.462   4.401 -0.0416  0.1185 -0.1489
 8740SOL    HW132566   5.710   1.478   4.427 -0.2681 -0.2651  0.9536
 8740SOL    HW232567   5.622   1.454   4.306  0.9898  0.6700 -0.1764
 8741SOL     OW32568   4.386   2.775   6.758  0.2510 -0.1039  0.1326
 8741SOL    HW132569   4.338   2.694   6.777 -0.5445  0.7563  2.0312
 8741SOL    HW232570   4.343   2.842   6.811 -0.0625  1.9264 -2.4893
 8742SOL     OW32571   0.597   9.235   0.551 -0.1119 -0.2888  0.1461
 8742SOL    HW132572   0.567   9.325   0.566  0.0750 -0.2103  0.0611
 8742SOL    HW232573   0.596   9.226   0.456 -1.0609 -0.7013  0.1836
 8743SOL     OW32574   3.675   8.035   1.775  0.3945 -0.3976  0.1652
 8743SOL    HW132575   3.588   8.073   1.764 -0.3555 -2.3073 -1.1705
 8743SOL    HW232576   3.671   7.989   1.859 -0.3864 -1.5584 -0.4711
 8744SOL     OW32577   7.042   1.162   3.604 -0.5250  0.5610 -0.1595
 8744SOL    HW132578   7.040   1.214   3.685  1.2310  2.0987 -1.0298
 8744SOL    HW232579   7.132   1.128   3.600 -0.2719  1.3545 -1.9431
 8745SOL     OW32580   0.950   7.110   5.680  0.3172 -0.4312  0.2540
 8745SOL    HW132581   1.004   7.075   5.751  1.0109 -0.8211 -0.4564
 8745SOL    HW232582   0.860   7.098   5.711  0.5297 -2.5002  0.2333
 8746SOL     OW32583   2.075   5.518   5.807  0.5929  0.3351  0.9240
 8746SOL    HW132584   2.101   5.448   5.867  0.3843 -1.1403 -0.6339
 8746SOL    HW232585   2.003   5.480   5.756 -1.1347  2.5144  1.5974
 8747SOL     OW32586   6.970   2.049   2.353 -0.0955  0.3072  0.4314
 8747SOL    HW132587   6.970   1.975   2.413 -0.9998 -0.6382 -0.7028
 8747SOL    HW232588   7.059   2.085   2.360  1.0652 -2.1640 -0.5152
 8748SOL     OW32589   5.200   2.047   6.792  0.1936 -0.3883 -0.3578
 8748SOL    HW132590   5.195   1.958   6.757 -0.4778 -1.5507  2.4869
 8748SOL    HW232591   5.240   2.038   6.878  0.9988  2.2109 -0.3680
 8749SOL     OW32592   6.118   3.471   0.931  0.5836 -0.5398 -0.3009
 8749SOL    HW132593   6.140   3.436   1.017 -0.0799 -1.1417 -0.3690
 8749SOL    HW232594   6.078   3.556   0.949 -0.1527 -0.9483  0.0359
 8750SOL     OW32595   5.180   5.315   0.567  0.3942 -0.3342 -0.2791
 8750SOL    HW132596   5.272   5.319   0.539  0.5665 -1.8566 -0.0433
 8750SOL    HW232597   5.130   5.336   0.488  0.9406  0.9779 -0.2971
 8751SOL     OW32598   4.605   4.193   4.292  0.0153 -0.2074  0.0189
 8751SOL    HW132599   4.533   4.185   4.354  0.7946 -0.3489  0.9201
 8751SOL    HW232600   4.625   4.104   4.265  0.9541 -0.3252  1.0632
 8752SOL     OW32601   6.954   0.336   1.128  0.3233  0.4536  0.0392
 8752SOL    HW132602   6.872   0.354   1.083  0.9072 -1.0787 -1.7629
 8752SOL    HW232603   7.002   0.278   1.069  2.4692  0.8311  1.2908
 8753SOL     OW32604   1.072   3.436   4.698 -0.2666  0.2107 -0.0794
 8753SOL    HW132605   1.021   3.435   4.617  0.0719 -1.3530 -0.3125
 8753SOL    HW232606   1.163   3.425   4.670  0.0447  1.2964  0.4354
 8754SOL     OW32607   0.667   3.254   0.970 -0.5078  0.3710  0.0251
 8754SOL    HW132608   0.593   3.245   0.909 -0.2219  1.9841 -0.6195
 8754SOL    HW232609   0.713   3.333   0.940  1.8622 -0.9267  0.0110
 8755SOL     OW32610   7.718   8.657   6.232 -0.3501  0.0490  0.1470
 8755SOL    HW132611   7.681   8.734   6.275  0.2385  1.0063 -0.9937
 8755SOL    HW232612   7.675   8.654   6.146  1.0769  0.2817 -0.5929
 8756SOL     OW32613   8.675   6.501   4.206 -0.0164 -0.1343  0.4529
 8756SOL    HW132614   8.758   6.535   4.172 -0.0067 -1.1766 -0.6279
 8756SOL    HW232615   8.685   6.506   4.301  1.1307  0.1259  0.3440
 8757SOL     OW32616   0.833   2.535   6.057 -0.0345  0.0897  0.2820
 8757SOL    HW132617   0.865   2.620   6.027 -1.2535  0.3445 -0.3864
 8757SOL    HW232618   0.869   2.525   6.145 -0.0189  1.3813  0.4462
 8758SOL     OW32619   4.922   1.643   0.170  0.5828 -0.0646  0.1719
 8758SOL    HW132620   4.909   1.548   0.178  1.4993 -0.1331  1.0596
 8758SOL    HW232621   4.843   1.682   0.208 -0.0143 -0.4614 -0.6314
 8759SOL     OW32622   8.990   3.334   4.357  0.2430  0.0859 -0.6425
 8759SOL    HW132623   9.045   3.412   4.355  1.2251 -0.5389  0.4535
 8759SOL    HW232624   9.017   3.283   4.281  0.3595  0.3260 -0.7628
 8760SOL     OW32625   3.182   7.936   5.185 -0.0865  0.0981 -0.0175
 8760SOL    HW132626   3.114   7.951   5.250 -0.2730  0.6235 -0.3259
 8760SOL    HW232627   3.223   8.021   5.172 -1.2805  0.4655 -1.9235
 8761SOL     OW32628   0.174   6.141   7.378  0.2610 -0.2944  0.1810
 8761SOL    HW132629   0.211   6.065   7.332  1.0505  0.0175  0.2792
 8761SOL    HW232630   0.204   6.216   7.327  0.0651 -0.0129  0.4775
 8762SOL     OW32631   4.011   6.147   5.835  0.0516  0.0510 -0.3917
 8762SOL    HW132632   3.926   6.191   5.843 -0.2857 -0.7633  0.8341
 8762SOL    HW232633   3.998   6.083   5.766 -0.2801  0.0726 -0.3550
 8763SOL     OW32634   5.987   5.881   2.022 -0.2932 -0.0104 -0.3135
 8763SOL    HW132635   5.957   5.845   2.105  1.3476  0.1610  0.3754
 8763SOL    HW232636   6.081   5.891   2.032 -0.0303 -0.1493 -2.2678
 8764SOL     OW32637   0.053   8.554   1.008  0.0563  0.0327  0.3420
 8764SOL    HW132638  -0.007   8.563   1.082  2.0413 -2.2905  2.4605
 8764SOL    HW232639   0.063   8.459   0.996  1.0368  0.3432 -1.8855
 8765SOL     OW32640   3.217   1.184   7.377  0.2800  0.0357  0.8911
 8765SOL    HW132641   3.289   1.125   7.401 -0.4558 -1.1084  0.3611
 8765SOL    HW232642   3.153   1.127   7.334  0.2043  1.4528 -1.0165
 8766SOL     OW32643   6.455   0.922   1.637 -0.1109 -0.3591  0.1587
 8766SOL    HW132644   6.522   0.987   1.618  0.4194 -1.2424 -1.1629
 8766SOL    HW232645   6.463   0.906   1.731  0.8237  0.3011  0.2034
 8767SOL     OW32646   0.085   0.664   4.663  0.1389  0.7089  0.2612
 8767SOL    HW132647   0.047   0.723   4.728 -2.9914 -0.6799 -0.1194
 8767SOL    HW232648   0.130   0.722   4.601 -0.4664  2.4295  1.3639
 8768SOL     OW32649   4.998   5.992   7.937 -0.1789  0.2997 -0.0122
 8768SOL    HW132650   5.020   5.946   8.018 -1.3545  0.5673  0.4766
 8768SOL    HW232651   4.911   5.960   7.915  0.7341 -1.0035 -2.0798
 8769SOL     OW32652   7.125   0.923   2.079  0.4059  0.0571 -0.2576
 8769SOL    HW132653   7.092   0.970   2.002 -0.1498 -0.0056 -0.0602
 8769SOL    HW232654   7.059   0.857   2.097 -0.8052  1.6948  1.8058
 8770SOL     OW32655   1.669   7.094   4.538  0.2381 -0.2535 -0.4453
 8770SOL    HW132656   1.758   7.093   4.572  0.4290  2.0662 -0.7172
 8770SOL    HW232657   1.678   7.071   4.445  0.4891 -0.4816 -0.3634
 8771SOL     OW32658   0.368   4.358   4.753 -0.0565 -0.1679 -0.3177
 8771SOL    HW132659   0.292   4.309   4.720 -0.0600  0.6119 -1.5470
 8771SOL    HW232660   0.332   4.443   4.777  0.7975  1.2755 -3.6378
 8772SOL     OW32661   3.566   3.518   0.053  0.1192  0.2763 -0.1463
 8772SOL    HW132662   3.475   3.540   0.034  0.4111  1.8264  0.1200
 8772SOL    HW232663   3.608   3.602   0.070  0.9428 -0.5814  2.6448
 8773SOL     OW32664   2.038   3.368   4.011  0.3102  0.1658 -0.1284
 8773SOL    HW132665   2.087   3.293   3.978  1.5122  0.2924  1.2923
 8773SOL    HW232666   2.104   3.427   4.048 -0.7743  1.0421  0.4985
 8774SOL     OW32667   7.252   4.253   7.828  0.5652  0.1198  0.6030
 8774SOL    HW132668   7.161   4.229   7.846  0.2688  0.6039 -0.2206
 8774SOL    HW232669   7.253   4.349   7.832  0.6455  0.2130 -1.1514
 8775SOL     OW32670   5.046   6.151   3.453 -0.2096  0.0016 -0.1757
 8775SOL    HW132671   4.968   6.097   3.466  0.9533 -1.5579  0.8335
 8775SOL    HW232672   5.062   6.148   3.359 -0.2048 -1.4535 -0.1563
 8776SOL     OW32673   4.619   1.412   6.426 -0.2938 -0.7550  0.3352
 8776SOL    HW132674   4.662   1.326   6.431 -1.0971 -1.2197 -0.4277
 8776SOL    HW232675   4.573   1.410   6.342  0.8061  0.9610 -0.3723
 8777SOL     OW32676   8.906   3.834   2.318 -0.1251  0.3877  0.1245
 8777SOL    HW132677   8.990   3.878   2.310 -0.0314  0.6517  2.1696
 8777SOL    HW232678   8.921   3.763   2.380 -0.3466 -2.4816 -2.8337
 8778SOL     OW32679   6.933   6.439   0.049  0.1539  0.4237  0.1102
 8778SOL    HW132680   6.974   6.386  -0.019 -1.9600 -1.6908  0.3708
 8778SOL    HW232681   6.952   6.530   0.023  0.8411 -0.3486 -2.3279
 8779SOL     OW32682   6.346   2.125   0.832 -0.0005 -0.3521 -0.4975
 8779SOL    HW132683   6.282   2.075   0.882 -1.2007 -0.0323 -1.6612
 8779SOL    HW232684   6.431   2.088   0.858 -0.6770 -1.1534  0.6582
 8780SOL     OW32685   1.904   0.897   4.863  0.1374 -0.3008  0.0643
 8780SOL    HW132686   1.897   0.962   4.932  1.7555  0.4777 -0.4577
 8780SOL    HW232687   1.998   0.878   4.857 -0.2760 -2.8419  0.3264
 8781SOL     OW32688   7.849   6.035   4.775 -0.9897  0.2553 -0.4379
 8781SOL    HW132689   7.860   5.946   4.740 -0.0424 -0.0119  0.4877
 8781SOL    HW232690   7.858   6.025   4.870  1.7001  1.6354 -0.4322
 8782SOL     OW32691   1.264   3.523   9.220 -0.2852 -0.3104  0.1683
 8782SOL    HW132692   1.305   3.518   9.307 -1.4011  0.0086  0.7388
 8782SOL    HW232693   1.215   3.442   9.212 -0.1097 -0.3816 -0.2196
 8783SOL     OW32694   2.563   4.651   4.226 -0.3858  0.4318 -0.6588
 8783SOL    HW132695   2.523   4.728   4.267  1.1522  0.7463  0.3221
 8783SOL    HW232696   2.509   4.578   4.255 -0.1646  0.8217  0.8150
 8784SOL     OW32697   4.130   5.245   1.707  0.1364 -0.1425  0.3089
 8784SOL    HW132698   4.186   5.222   1.633 -1.0085 -0.8823 -0.3590
 8784SOL    HW232699   4.151   5.179   1.774 -0.4393 -0.8601 -0.2061
 8785SOL     OW32700   2.713   2.246   2.135  0.1739 -0.1377  0.3333
 8785SOL    HW132701   2.721   2.152   2.152 -1.9272 -1.1060 -3.1326
 8785SOL    HW232702   2.774   2.263   2.063 -1.1423  0.6050 -0.6405
 8786SOL     OW32703   8.627   3.767   2.297  0.2462  0.0538 -0.4251
 8786SOL    HW132704   8.707   3.818   2.308  0.0821  0.1812  0.2408
 8786SOL    HW232705   8.636   3.695   2.360  0.2039 -0.4111 -0.9334
 8787SOL     OW32706   5.484   1.052   2.524 -0.4684 -0.4447 -0.3648
 8787SOL    HW132707   5.503   1.145   2.535 -0.0347 -0.5976  0.2070
 8787SOL    HW232708   5.389   1.046   2.529 -0.4556 -0.1174  0.2992
 8788SOL     OW32709   4.409   2.157   2.815  0.1703 -0.0275 -0.0481
 8788SOL    HW132710   4.400   2.252   2.804 -2.2463  0.0521  1.8227
 8788SOL    HW232711   4.498   2.145   2.847  0.6818  1.5313 -0.7692
 8789SOL     OW32712   3.644   5.243   4.993 -0.0958  0.1897 -0.3574
 8789SOL    HW132713   3.640   5.319   5.051 -0.5491  0.1167 -0.2920
 8789SOL    HW232714   3.620   5.276   4.907 -2.3139 -0.2344  0.0255
 8790SOL     OW32715   8.179   7.797   7.942 -0.0712 -0.4842  0.3580
 8790SOL    HW132716   8.224   7.876   7.911  0.6079 -0.7423  0.6608
 8790SOL    HW232717   8.115   7.830   8.006 -0.7684 -0.0538 -0.5391
 8791SOL     OW32718   8.834   6.878   2.670  0.1331 -0.0438  0.0814
 8791SOL    HW132719   8.815   6.968   2.697 -1.4599 -0.0730 -0.7790
 8791SOL    HW232720   8.859   6.886   2.578  0.2939 -0.4416  0.0894
 8792SOL     OW32721   0.826   0.597   2.627 -0.5624  0.2850 -0.1517
 8792SOL    HW132722   0.763   0.572   2.560  0.3205 -0.4720 -0.7328
 8792SOL    HW232723   0.891   0.650   2.581 -0.5202  0.6707  0.3367
 8793SOL     OW32724   3.468   0.085   8.361  0.3587 -0.0578  0.1894
 8793SOL    HW132725   3.470   0.037   8.444 -0.5354  2.1248  1.5497
 8793SOL    HW232726   3.427   0.024   8.299 -0.2600 -1.2371  1.7062
 8794SOL     OW32727   5.352   1.440   5.129  0.0677 -0.1077  0.2014
 8794SOL    HW132728   5.298   1.435   5.208 -0.2700  0.8448  0.0459
 8794SOL    HW232729   5.289   1.443   5.057  0.2898  1.3715  0.0389
 8795SOL     OW32730   8.262   5.211   4.170  0.7036  0.2323 -1.1213
 8795SOL    HW132731   8.315   5.132   4.157 -1.0857 -0.8033 -2.6878
 8795SOL    HW232732   8.173   5.184   4.145 -0.4169  2.1264  0.5642
 8796SOL     OW32733   1.987   4.493   1.312 -0.4649 -0.1684  0.4350
 8796SOL    HW132734   2.001   4.583   1.285 -1.1811  0.6570  2.6181
 8796SOL    HW232735   2.024   4.440   1.241 -0.2732  1.8130 -1.0107
 8797SOL     OW32736   4.004   7.675   7.091 -0.0054  0.7731 -0.1707
 8797SOL    HW132737   3.934   7.740   7.079 -0.6208  0.3530  0.9918
 8797SOL    HW232738   3.967   7.594   7.057 -0.2620  0.4568  0.8330
 8798SOL     OW32739   3.277   6.539   8.041 -0.2202  0.8919 -0.1888
 8798SOL    HW132740   3.188   6.568   8.063  0.1791 -0.4102  3.9917
 8798SOL    HW232741   3.270   6.506   7.952 -3.3596  2.9078 -0.8409
 8799SOL     OW32742   6.855   7.386   8.078  0.2187  0.4946 -0.0455
 8799SOL    HW132743   6.818   7.445   8.013  1.5297  1.4560  0.0488
 8799SOL    HW232744   6.828   7.299   8.049  0.4231  0.9277 -1.6335
 8800SOL     OW32745   5.337   0.851   9.162  0.1417  0.0403  0.1933
 8800SOL    HW132746   5.279   0.925   9.177 -0.9641 -0.6028 -0.6975
 8800SOL    HW232747   5.425   0.887   9.165 -0.3507  1.2404  0.5309
 8801SOL     OW32748   8.328   6.885   8.060  0.7951 -0.6240 -0.1421
 8801SOL    HW132749   8.360   6.798   8.083 -0.1311 -0.5042  1.7952
 8801SOL    HW232750   8.290   6.919   8.141 -2.5754 -0.0613 -1.7863
 8802SOL     OW32751   3.056   0.734   4.392  0.4588 -0.0650  0.3537
 8802SOL    HW132752   2.963   0.716   4.402  0.6807 -1.0640  0.7159
 8802SOL    HW232753   3.069   0.817   4.438 -0.1431 -0.2196  0.8233
 8803SOL     OW32754   7.025   0.898   4.816  0.1300 -0.1794  0.0365
 8803SOL    HW132755   6.978   0.980   4.836 -0.7476 -0.8645  0.8779
 8803SOL    HW232756   7.058   0.868   4.900 -0.4820 -1.2330 -0.0780
 8804SOL     OW32757   1.026   4.003   0.089  0.5448 -0.0619  0.2150
 8804SOL    HW132758   1.107   4.017   0.039  1.6254  0.1258  1.9307
 8804SOL    HW232759   1.030   3.911   0.116 -1.1197 -0.8094 -1.8000
 8805SOL     OW32760   7.323   1.104   7.095 -0.3249 -0.6087  0.4826
 8805SOL    HW132761   7.228   1.091   7.089 -0.5195  1.1678 -1.3028
 8805SOL    HW232762   7.335   1.156   7.175 -0.9424 -0.2357  0.3427
 8806SOL     OW32763   6.804   8.695   3.031  0.2472 -0.1196 -0.0208
 8806SOL    HW132764   6.775   8.618   3.080  0.8861 -0.7501 -0.6017
 8806SOL    HW232765   6.860   8.742   3.093 -0.0792 -0.1628  0.3126
 8807SOL     OW32766   8.742   2.405   6.565  0.2080  0.3106  0.0675
 8807SOL    HW132767   8.759   2.321   6.606  0.2739  2.1880  4.4146
 8807SOL    HW232768   8.829   2.438   6.541  0.0586 -1.7958 -4.4558
 8808SOL     OW32769   0.837   2.610   2.266 -0.2155 -0.4313 -0.2549
 8808SOL    HW132770   0.751   2.649   2.277 -0.2375 -0.9935  2.0988
 8808SOL    HW232771   0.820   2.517   2.254 -0.0098 -0.2261 -2.5172
 8809SOL     OW32772   4.099   0.289   9.174  0.3147  0.0746 -0.2452
 8809SOL    HW132773   4.179   0.236   9.174  1.5226  1.7860 -1.6360
 8809SOL    HW232774   4.106   0.343   9.253  0.3963  0.0172 -0.2132
 8810SOL     OW32775   7.833   5.592   8.527 -0.6002  0.6080 -0.1980
 8810SOL    HW132776   7.917   5.603   8.483 -0.4071  1.0332  0.2660
 8810SOL    HW232777   7.791   5.521   8.480  0.1547  0.1708 -0.2314
 8811SOL     OW32778   9.042   3.060   7.013  0.5847  0.3007  0.1976
 8811SOL    HW132779   9.009   2.985   7.064  1.2000 -0.4021 -0.4180
 8811SOL    HW232780   9.077   3.120   7.079  0.4837 -0.1562  0.6723
 8812SOL     OW32781   6.061   8.665   5.161 -0.3445  0.2116 -0.1472
 8812SOL    HW132782   6.026   8.699   5.078 -1.8085 -1.1042 -0.1044
 8812SOL    HW232783   6.084   8.744   5.211 -0.7181  1.0540 -1.2675
 8813SOL     OW32784   4.441   1.662   2.549  0.1569  0.1196 -0.7854
 8813SOL    HW132785   4.494   1.593   2.508  0.7238 -1.4567  2.2717
 8813SOL    HW232786   4.362   1.616   2.578 -0.2889  1.1961 -0.2693
 8814SOL     OW32787   4.934   5.817   5.836 -0.4894  0.4695  0.0466
 8814SOL    HW132788   4.895   5.824   5.749 -0.8484  0.2915  0.1948
 8814SOL    HW232789   4.860   5.808   5.895 -0.1917 -2.2959  0.1309
 8815SOL     OW32790   9.131   7.287   3.602  0.4785  0.3874 -0.1999
 8815SOL    HW132791   9.095   7.375   3.599  1.4210  0.7554 -1.0713
 8815SOL    HW232792   9.219   7.297   3.639  0.0527 -0.3986  1.1285
 8816SOL     OW32793   0.489   5.225   1.143  0.0036  0.6826 -0.2885
 8816SOL    HW132794   0.541   5.268   1.075  0.3711  0.8561  0.0985
 8816SOL    HW232795   0.469   5.295   1.206  0.0111  0.4408 -0.0123
 8817SOL     OW32796   4.158   5.044   6.633  0.6655  0.1934 -0.0260
 8817SOL    HW132797   4.127   5.108   6.697 -1.1045  0.2685 -0.8862
 8817SOL    HW232798   4.252   5.037   6.649  0.5088  1.2930  1.5909
 8818SOL     OW32799   6.557   1.031   7.771 -0.2610 -0.3739  0.6089
 8818SOL    HW132800   6.517   1.039   7.857  1.3643 -2.1377  1.6036
 8818SOL    HW232801   6.558   0.936   7.754 -0.5365 -0.0724 -1.3683
 8819SOL     OW32802   3.993   1.239   1.277 -0.1629 -0.2150  0.5339
 8819SOL    HW132803   4.024   1.179   1.209  2.5530  1.5334  0.0943
 8819SOL    HW232804   3.990   1.185   1.356  0.1691 -1.4057 -0.2326
 8820SOL     OW32805   7.780   2.283   0.373  0.0681 -0.3784 -0.3034
 8820SOL    HW132806   7.853   2.340   0.398 -0.9740 -0.1034  2.4320
 8820SOL    HW232807   7.716   2.343   0.334 -0.7492  0.3555  1.9725
 8821SOL     OW32808   0.798   3.085   6.698 -0.2184  0.2661 -0.4128
 8821SOL    HW132809   0.847   3.022   6.646  0.8159  1.0412 -0.4225
 8821SOL    HW232810   0.841   3.169   6.681 -2.6133  1.3394 -1.7995
 8822SOL     OW32811   4.758   4.002   5.295  0.0054 -0.1431  0.0756
 8822SOL    HW132812   4.676   3.977   5.338  0.0818  1.5839  1.2982
 8822SOL    HW232813   4.815   4.029   5.366  1.1164  0.1283 -0.8925
 8823SOL     OW32814   2.914   1.903   4.357  0.3100  0.7227 -0.1411
 8823SOL    HW132815   2.988   1.855   4.395  0.7392  2.2196  1.0290
 8823SOL    HW232816   2.856   1.921   4.432 -0.8041  0.3477 -0.8889
 8824SOL     OW32817   8.356   3.062   4.706  0.2767 -0.4212  0.4771
 8824SOL    HW132818   8.450   3.053   4.720  0.2281 -2.1248 -0.0691
 8824SOL    HW232819   8.327   2.975   4.679 -1.1095  0.5464 -1.4099
 8825SOL     OW32820   3.681   4.443   0.222 -0.5383 -0.7856  0.2853
 8825SOL    HW132821   3.742   4.385   0.268  0.1596 -1.1142 -1.0040
 8825SOL    HW232822   3.598   4.396   0.222 -0.5073 -0.8550  1.0333
 8826SOL     OW32823   6.282   1.965   5.533 -0.2055 -0.0290 -0.0975
 8826SOL    HW132824   6.347   1.913   5.486 -0.1145  0.7288 -0.8359
 8826SOL    HW232825   6.278   1.926   5.621  1.2511 -0.0634 -0.0355
 8827SOL     OW32826   1.827   8.862   8.854  0.3472 -0.1432 -0.5252
 8827SOL    HW132827   1.820   8.952   8.821 -2.3471 -0.8227 -2.0526
 8827SOL    HW232828   1.821   8.872   8.949  0.3650  1.3131 -0.6506
 8828SOL     OW32829   2.394   8.878   5.487  0.8695  0.2105 -0.0428
 8828SOL    HW132830   2.323   8.838   5.439  0.4295  1.8181 -0.7982
 8828SOL    HW232831   2.427   8.947   5.429 -0.0474  2.6056  2.0898
 8829SOL     OW32832   2.163   7.824   8.934  0.0478 -0.1875 -0.2398
 8829SOL    HW132833   2.177   7.745   8.987 -0.9485  0.3164  0.8348
 8829SOL    HW232834   2.249   7.844   8.898  0.8609 -0.3877  1.4660
 8830SOL     OW32835   9.158   5.930   1.758 -0.6414 -0.1753 -0.4669
 8830SOL    HW132836   9.236   5.924   1.813 -1.0102  0.7922  0.2082
 8830SOL    HW232837   9.165   5.856   1.697  0.6558 -0.2625 -0.2502
 8831SOL     OW32838   4.742   3.289   4.170  0.3240 -0.1554  0.2028
 8831SOL    HW132839   4.760   3.383   4.166  0.1490  0.0462  2.4868
 8831SOL    HW232840   4.657   3.279   4.129 -0.3856  0.9591  1.3379
 8832SOL     OW32841   8.054   0.076   6.009  0.9481  0.2536 -0.4321
 8832SOL    HW132842   8.059   0.120   5.924 -0.2889 -0.5213 -0.9364
 8832SOL    HW232843   8.123   0.010   6.006  0.1826 -0.5347 -1.3175
 8833SOL     OW32844   1.210   3.813   7.153  0.8110 -0.0157 -0.1960
 8833SOL    HW132845   1.116   3.795   7.156  0.9008 -0.4923  2.5500
 8833SOL    HW232846   1.219   3.880   7.085 -1.2477 -1.1674 -1.7313
 8834SOL     OW32847   5.192   5.959   7.729  0.3049 -0.0757 -0.0365
 8834SOL    HW132848   5.119   5.905   7.759 -0.1981  0.5998 -0.0289
 8834SOL    HW232849   5.224   5.913   7.651 -0.5071 -0.0673 -0.3825
 8835SOL     OW32850   5.333   7.349   8.835  0.2652  0.0255 -0.1208
 8835SOL    HW132851   5.256   7.372   8.886  0.9379  0.0877  0.8942
 8835SOL    HW232852   5.300   7.335   8.746 -1.3862 -2.6212  0.7838
 8836SOL     OW32853   0.955   1.560   6.141 -0.1836 -0.3978  0.2306
 8836SOL    HW132854   0.905   1.604   6.209 -1.4023 -0.1747 -0.7675
 8836SOL    HW232855   1.012   1.629   6.105 -1.3456  0.1426 -0.6332
 8837SOL     OW32856   0.460   5.668   3.213 -0.2287  0.0351 -0.0931
 8837SOL    HW132857   0.429   5.757   3.192  0.6293  0.1554 -0.8849
 8837SOL    HW232858   0.532   5.653   3.152 -0.2879 -1.1658  0.1249
 8838SOL     OW32859   1.911   6.252   0.109 -0.3404  0.1674 -0.1220
 8838SOL    HW132860   1.856   6.321   0.071  0.2760 -0.3810 -2.1195
 8838SOL    HW232861   1.992   6.297   0.133 -0.0790  0.2353 -1.0875
 8839SOL     OW32862   8.655   1.399   3.235 -0.5584 -0.0521  0.4374
 8839SOL    HW132863   8.745   1.418   3.206 -0.2831 -1.0847  0.5725
 8839SOL    HW232864   8.662   1.388   3.330 -1.2082  1.8991  0.7457
 8840SOL     OW32865   3.583   0.741   7.872 -0.0779 -0.7695  0.1291
 8840SOL    HW132866   3.659   0.692   7.904  0.6021 -1.1564 -1.9562
 8840SOL    HW232867   3.521   0.673   7.846 -0.0007 -0.5058 -0.7636
 8841SOL     OW32868   7.563   1.704   7.061 -0.3154 -0.1287 -0.2603
 8841SOL    HW132869   7.621   1.743   6.996  0.9786 -0.8369  0.4409
 8841SOL    HW232870   7.529   1.779   7.110  0.2427  0.2874 -0.4981
 8842SOL     OW32871   7.364   5.650   9.031  0.1995 -0.6205 -0.0744
 8842SOL    HW132872   7.411   5.677   8.953  1.6079 -0.2219  0.8775
 8842SOL    HW232873   7.274   5.680   9.017  0.2270 -1.3048 -1.8833
 8843SOL     OW32874   4.747   3.798   8.671 -0.1811 -0.6048 -0.0509
 8843SOL    HW132875   4.700   3.714   8.677 -0.9416 -0.1583  0.3790
 8843SOL    HW232876   4.837   3.773   8.648 -0.9647 -1.4022 -2.6571
 8844SOL     OW32877   3.511   1.687   6.361 -0.2777 -0.7897  0.0899
 8844SOL    HW132878   3.437   1.665   6.418  0.8639 -1.3308  1.4054
 8844SOL    HW232879   3.515   1.783   6.364 -0.3347 -0.8036  0.7881
 8845SOL     OW32880   2.311   2.955   2.689 -0.3765  1.0388 -0.0376
 8845SOL    HW132881   2.383   2.905   2.649  0.1940  1.9356 -0.1704
 8845SOL    HW232882   2.241   2.951   2.624 -1.0434 -1.1370  0.7388
 8846SOL     OW32883   4.121   6.739   4.855 -0.0538 -0.8014  0.0944
 8846SOL    HW132884   4.179   6.676   4.814 -0.3309 -0.2399 -1.2294
 8846SOL    HW232885   4.179   6.795   4.907  0.5272 -0.5868 -0.7646
 8847SOL     OW32886   8.108   7.097   0.980 -0.0776  0.1193  0.6125
 8847SOL    HW132887   8.201   7.087   0.998  0.0977  1.9442  0.9841
 8847SOL    HW232888   8.104   7.165   0.913 -1.0301 -2.3458 -2.0041
 8848SOL     OW32889   5.339   6.517   4.955  0.4408 -0.4874 -0.2042
 8848SOL    HW132890   5.244   6.521   4.967  0.6606 -0.6884  2.0155
 8848SOL    HW232891   5.356   6.427   4.927  0.0694 -0.8139  0.5951
 8849SOL     OW32892   0.747   4.178   5.344  0.4879 -0.1605  0.6832
 8849SOL    HW132893   0.793   4.130   5.275  0.1997 -0.2073  0.5207
 8849SOL    HW232894   0.807   4.248   5.369  0.2766  0.3256 -0.1575
 8850SOL     OW32895   2.038   4.340   4.316  0.4404  0.0919  0.0134
 8850SOL    HW132896   1.980   4.280   4.271 -0.1402  0.0657  0.7840
 8850SOL    HW232897   2.126   4.313   4.290  0.1184  0.1161 -1.1340
 8851SOL     OW32898   5.922   5.780   6.860  0.8348  0.2747  0.6146
 8851SOL    HW132899   5.901   5.723   6.934 -0.3087 -0.8529 -0.5284
 8851SOL    HW232900   5.986   5.842   6.895  0.4656 -0.3337  2.4874
 8852SOL     OW32901   8.411   4.812   5.327 -0.4579 -0.3410  0.2916
 8852SOL    HW132902   8.330   4.853   5.297 -1.7318 -2.0616  1.2107
 8852SOL    HW232903   8.478   4.846   5.268 -2.2446 -0.8153 -2.1594
 8853SOL     OW32904   4.015   6.633   1.613  0.2278  0.4967 -0.4026
 8853SOL    HW132905   4.071   6.565   1.650  0.7266  0.2449 -1.5645
 8853SOL    HW232906   4.009   6.699   1.681  2.0289  0.5746 -0.2790
 8854SOL     OW32907   1.042   1.354   2.590 -0.1013  0.4632  0.1548
 8854SOL    HW132908   0.973   1.420   2.605 -0.9900 -0.3773 -0.1076
 8854SOL    HW232909   0.995   1.278   2.556  0.8582 -0.4357  0.7750
 8855SOL     OW32910   5.403   0.536   8.463  0.5744  0.1700  0.3915
 8855SOL    HW132911   5.431   0.497   8.546  0.3507  0.0528  0.4144
 8855SOL    HW232912   5.470   0.601   8.442  0.7867 -0.0113  0.5125
 8856SOL     OW32913   1.794   8.926   3.857 -0.4485  0.0014  0.4638
 8856SOL    HW132914   1.748   8.913   3.940  1.7477 -1.0308  1.6187
 8856SOL    HW232915   1.865   8.986   3.878 -0.6863  0.8440 -1.0373
 8857SOL     OW32916   0.710   0.873   7.576  0.2023 -0.1205 -0.1695
 8857SOL    HW132917   0.668   0.912   7.653 -0.3570 -0.4289 -0.3107
 8857SOL    HW232918   0.782   0.932   7.555 -0.9406  1.1233 -0.6981
 8858SOL     OW32919   5.781   0.273   1.519 -0.1922 -0.5377  0.2608
 8858SOL    HW132920   5.760   0.355   1.474 -0.6435  0.0095  1.4374
 8858SOL    HW232921   5.817   0.300   1.603  2.2766 -1.5131 -0.3927
 8859SOL     OW32922   0.135   6.700   7.251 -0.4713  0.2308 -0.1598
 8859SOL    HW132923   0.218   6.741   7.276 -1.0828  1.7127 -0.4614
 8859SOL    HW232924   0.093   6.676   7.333 -0.3729  0.7676  0.0452
 8860SOL     OW32925   5.983   1.651   8.224  0.0097 -0.2976  0.0451
 8860SOL    HW132926   6.048   1.718   8.204  1.3918 -1.5795  0.0656
 8860SOL    HW232927   6.005   1.621   8.312 -0.7157 -0.6280  0.1235
 8861SOL     OW32928   4.227   3.366   5.883 -1.0827 -0.0146 -0.4268
 8861SOL    HW132929   4.134   3.366   5.861 -1.3891 -1.1320  0.7498
 8861SOL    HW232930   4.253   3.274   5.876 -0.1584  0.2344 -0.3802
 8862SOL     OW32931   8.891   0.814   3.630  0.0996  0.2192  0.5304
 8862SOL    HW132932   8.809   0.855   3.603  0.9571  1.0286 -0.9660
 8862SOL    HW232933   8.864   0.734   3.675 -1.4986  0.0116 -0.7100
 8863SOL     OW32934   4.073   9.002   7.550  0.0782  0.0106  0.0307
 8863SOL    HW132935   4.044   8.952   7.626  0.1338  1.9579  1.4138
 8863SOL    HW232936   4.026   9.085   7.556  0.0562  0.2175 -2.1216
 8864SOL     OW32937   5.948   5.697   7.563 -0.3903  0.4942 -0.4581
 8864SOL    HW132938   6.012   5.626   7.570 -2.5685 -1.4262  2.5345
 8864SOL    HW232939   5.901   5.680   7.481  2.0381  1.2922 -2.1129
 8865SOL     OW32940   4.708   6.492   6.874 -0.1030 -0.8104 -0.0810
 8865SOL    HW132941   4.649   6.419   6.891  1.2004 -1.6553  0.9606
 8865SOL    HW232942   4.692   6.553   6.946  0.6633 -1.2848  0.4943
 8866SOL     OW32943   1.087   1.824   7.463  0.1313 -0.5520  0.1441
 8866SOL    HW132944   1.154   1.759   7.444  0.5152 -0.2145  0.3058
 8866SOL    HW232945   1.131   1.908   7.448 -0.6196 -0.3243 -0.9768
 8867SOL     OW32946   6.990   2.036   8.228  0.4045 -0.5348 -0.4519
 8867SOL    HW132947   7.080   2.017   8.204  0.4406  0.1794 -0.9429
 8867SOL    HW232948   6.937   1.980   8.170  0.5269 -1.4123  0.2663
 8868SOL     OW32949   7.649   1.876   9.226 -0.5414 -0.0416 -0.5178
 8868SOL    HW132950   7.732   1.902   9.266 -0.8932  0.3305 -0.0210
 8868SOL    HW232951   7.672   1.802   9.171  0.0728 -0.1347 -0.1528
 8869SOL     OW32952   6.190   0.498   7.696  0.1464 -0.6160  0.3398
 8869SOL    HW132953   6.096   0.489   7.679 -0.2771  1.3475  1.2799
 8869SOL    HW232954   6.200   0.474   7.788  0.4917 -0.4308  0.3512
 8870SOL     OW32955   6.564   2.505   7.501  0.3524  0.2547  0.7140
 8870SOL    HW132956   6.617   2.585   7.503  1.5358 -0.4696  3.2723
 8870SOL    HW232957   6.479   2.534   7.469  1.2731  2.1607 -0.2103
 8871SOL     OW32958   6.202   7.746   6.478  0.5216 -0.8119 -0.9617
 8871SOL    HW132959   6.293   7.753   6.449  0.4994 -0.6121 -0.9884
 8871SOL    HW232960   6.203   7.774   6.570  0.6598 -1.8421 -0.6386
 8872SOL     OW32961   2.201   7.338   4.864 -0.3159  0.1796 -0.3907
 8872SOL    HW132962   2.194   7.258   4.915 -0.1442  0.5711  0.2609
 8872SOL    HW232963   2.166   7.315   4.778 -1.2025 -0.3242  0.0936
 8873SOL     OW32964   4.449   8.942   4.326 -0.2006  0.2991  0.6898
 8873SOL    HW132965   4.410   9.008   4.383 -0.3890  0.4062  0.4391
 8873SOL    HW232966   4.419   8.965   4.238 -0.8705 -0.5495  0.6826
 8874SOL     OW32967   6.480   3.707   7.479 -0.2374 -0.4541 -0.5812
 8874SOL    HW132968   6.567   3.707   7.439 -0.2013  0.0190 -0.5158
 8874SOL    HW232969   6.446   3.620   7.462  0.6584 -0.9894  0.2741
 8875SOL     OW32970   6.404   5.510   2.805  0.1579  0.4369 -0.5747
 8875SOL    HW132971   6.396   5.601   2.833 -0.1935  0.0185  0.7478
 8875SOL    HW232972   6.327   5.495   2.750 -1.2541  0.1962  1.3841
 8876SOL     OW32973   4.438   2.223   2.355  0.7392 -0.4646  0.0997
 8876SOL    HW132974   4.391   2.190   2.278  1.4842 -0.2492 -0.4632
 8876SOL    HW232975   4.430   2.154   2.420 -3.6509  1.0562  1.4837
 8877SOL     OW32976   6.967   4.696   7.089 -0.0464  0.4966  0.7246
 8877SOL    HW132977   6.916   4.777   7.093  1.1091  1.2123  1.7827
 8877SOL    HW232978   6.903   4.629   7.066 -1.2010  1.5679  0.6712
 8878SOL     OW32979   2.804   8.464   8.440 -0.6118  0.5937 -0.3857
 8878SOL    HW132980   2.856   8.430   8.512  0.4755  1.2619 -0.8219
 8878SOL    HW232981   2.851   8.436   8.361 -1.6708  0.0374 -0.8469
 8879SOL     OW32982   3.025   5.246   0.035  0.6414  0.4700  0.4783
 8879SOL    HW132983   2.943   5.200   0.018  1.4210 -0.9077  0.2792
 8879SOL    HW232984   3.038   5.237   0.130  0.3158  1.1406  0.5921
 8880SOL     OW32985   2.518   6.331   6.440  0.3652 -0.0805 -0.0349
 8880SOL    HW132986   2.478   6.355   6.356 -1.2896 -0.9024  0.4796
 8880SOL    HW232987   2.449   6.284   6.487  2.3048 -2.8138  0.3677
 8881SOL     OW32988   1.043   4.041   4.837  0.1111  0.2417 -0.3187
 8881SOL    HW132989   0.990   4.020   4.914  0.4172  2.5188  0.5802
 8881SOL    HW232990   0.981   4.040   4.764 -0.3100 -1.2813  0.0259
 8882SOL     OW32991   4.421   7.575   2.322 -0.3682  0.0276  0.2105
 8882SOL    HW132992   4.411   7.668   2.300 -0.1180 -0.0189 -0.1012
 8882SOL    HW232993   4.442   7.574   2.415  1.9478  0.4170 -0.2559
 8883SOL     OW32994   5.332   3.944   0.501  0.3647  0.1638 -0.2426
 8883SOL    HW132995   5.404   3.937   0.565 -0.0959 -0.0986  0.2632
 8883SOL    HW232996   5.339   4.032   0.467  0.0576  0.6344  0.8631
 8884SOL     OW32997   7.280   0.602   4.346 -0.0604  0.2357 -0.0271
 8884SOL    HW132998   7.319   0.671   4.292  1.2758  0.8875  1.6850
 8884SOL    HW232999   7.350   0.575   4.405 -1.6833  0.1552  1.9527
 8885SOL     OW33000   6.314   4.695   0.779  0.1337  0.3837 -0.0055
 8885SOL    HW133001   6.325   4.609   0.819 -1.0287 -0.0091 -0.4692
 8885SOL    HW233002   6.343   4.684   0.689 -1.4956  0.0027 -0.5282
 8886SOL     OW33003   6.668   4.760   8.413  0.2115 -0.4940  0.1946
 8886SOL    HW133004   6.638   4.833   8.359  0.3944  0.7048  1.6562
 8886SOL    HW233005   6.636   4.780   8.501  1.9234 -1.1449  1.0179
 8887SOL     OW33006   3.634   3.870   7.478 -0.2050  0.2882 -0.0241
 8887SOL    HW133007   3.711   3.823   7.511 -0.2624  0.2212  0.0169
 8887SOL    HW233008   3.583   3.803   7.433 -0.2554  0.3259 -0.0221
 8888SOL     OW33009   3.284   2.257   8.288 -0.2349  0.3539 -0.0122
 8888SOL    HW133010   3.218   2.247   8.219  1.1467 -0.6822 -1.2476
 8888SOL    HW233011   3.238   2.231   8.368 -1.8588  1.5265 -0.5129
 8889SOL     OW33012   2.078   5.270   5.364  0.0123  0.5228  0.0715
 8889SOL    HW133013   2.012   5.306   5.304  0.6352 -0.8825 -1.5373
 8889SOL    HW233014   2.027   5.229   5.434 -0.7950  0.3180 -0.6230
 8890SOL     OW33015   6.459   3.221   1.640  0.5236 -0.4826 -0.2239
 8890SOL    HW133016   6.516   3.160   1.686  0.7670 -0.2276 -0.1867
 8890SOL    HW233017   6.381   3.228   1.696  0.5137 -0.7242 -0.2076
 8891SOL     OW33018   7.527   4.199   8.480  0.5657 -0.1304  0.5065
 8891SOL    HW133019   7.524   4.287   8.443  2.3683  0.1461  0.9350
 8891SOL    HW233020   7.436   4.181   8.506 -0.0589  1.0959 -0.6956
 8892SOL     OW33021   3.701   7.757   0.192 -0.5987  0.0386 -0.5558
 8892SOL    HW133022   3.685   7.827   0.255 -0.9605  0.0779 -0.6930
 8892SOL    HW233023   3.638   7.689   0.214  1.3710 -1.3473  1.2065
 8893SOL     OW33024   8.231   4.991   6.586 -0.1830  0.2975 -0.6628
 8893SOL    HW133025   8.306   4.947   6.625  0.1714  0.5079 -1.0895
 8893SOL    HW233026   8.214   5.065   6.643 -1.3409 -0.8684  0.5553
 8894SOL     OW33027   4.100   8.656   3.730  0.1373 -0.1027 -0.6801
 8894SOL    HW133028   4.181   8.705   3.718 -0.4250  1.1788  0.4042
 8894SOL    HW233029   4.033   8.724   3.744 -0.8179 -1.1600  0.0866
 8895SOL     OW33030   2.877   2.970   5.724  0.0073 -0.1767 -0.0958
 8895SOL    HW133031   2.858   2.953   5.817 -1.8831 -1.4027 -0.6544
 8895SOL    HW233032   2.970   2.992   5.723 -0.3137  1.8537  2.3291
 8896SOL     OW33033   5.118   4.310   6.235  0.3099  0.0679 -0.9762
 8896SOL    HW133034   5.043   4.250   6.241 -0.7803  1.4167 -0.5628
 8896SOL    HW233035   5.195   4.254   6.244 -0.6711 -1.2588 -0.6085
 8897SOL     OW33036   1.977   1.999   6.487  0.2587 -0.2604 -0.0572
 8897SOL    HW133037   1.906   2.056   6.457 -0.8620 -1.9488 -0.8154
 8897SOL    HW233038   2.044   2.059   6.519 -0.6551  1.4864 -1.2085
 8898SOL     OW33039   8.850   6.342   7.686  0.0281  0.0346  0.1736
 8898SOL    HW133040   8.828   6.269   7.743 -0.8626  0.1655  0.0130
 8898SOL    HW233041   8.915   6.307   7.625  1.1623 -0.0510  1.3772
 8899SOL     OW33042   7.595   7.599   6.320  0.4740 -0.5432  0.0138
 8899SOL    HW133043   7.679   7.594   6.365  0.0458 -0.8590  0.7882
 8899SOL    HW233044   7.606   7.542   6.243  0.5562 -1.6065  0.7952
 8900SOL     OW33045   8.539   1.425   6.944  0.1257 -0.3491 -0.3112
 8900SOL    HW133046   8.525   1.332   6.930  0.1775 -0.0664 -2.5969
 8900SOL    HW233047   8.634   1.434   6.954  0.5210 -0.2634 -3.2833
 8901SOL     OW33048   4.591   6.410   9.039  0.4565  0.1714  0.3128
 8901SOL    HW133049   4.602   6.457   9.122 -0.2000  0.3846  0.2896
 8901SOL    HW233050   4.657   6.341   9.041 -1.2882 -1.5895  2.2601
 8902SOL     OW33051   6.831   9.048   5.226  0.0756 -0.0024  0.2197
 8902SOL    HW133052   6.898   9.015   5.287  0.1345 -0.4974 -0.1070
 8902SOL    HW233053   6.880   9.073   5.148 -0.1024 -0.2174  0.0386
 8903SOL     OW33054   0.829   8.279   4.104  0.3211  0.8703  0.4949
 8903SOL    HW133055   0.851   8.353   4.047  2.6601 -0.9127 -1.1075
 8903SOL    HW233056   0.812   8.207   4.044 -1.2251 -0.1257  2.0302
 8904SOL     OW33057   5.266   5.107   8.794 -0.4033  0.5095  0.1547
 8904SOL    HW133058   5.307   5.132   8.877  0.4744  1.0897 -0.4377
 8904SOL    HW233059   5.267   5.188   8.742 -1.7686  0.3876 -0.0966
 8905SOL     OW33060   3.572   7.025   6.540 -0.5186 -0.2612 -0.1644
 8905SOL    HW133061   3.488   7.030   6.585 -0.9153  2.5242 -1.0056
 8905SOL    HW233062   3.630   6.979   6.601 -2.5773 -2.2139  0.4593
 8906SOL     OW33063   6.089   2.765   7.192  0.7831 -0.2319  0.1755
 8906SOL    HW133064   6.173   2.806   7.174  1.0526  0.6885  3.0793
 8906SOL    HW233065   6.028   2.838   7.206 -0.0718 -0.8696 -0.1247
 8907SOL     OW33066   5.325   9.244   1.234 -0.0695  0.1068 -0.3233
 8907SOL    HW133067   5.236   9.209   1.236 -0.1353  0.2773 -0.3146
 8907SOL    HW233068   5.350   9.251   1.326 -0.7990  1.9990 -0.2314
 8908SOL     OW33069   6.993   1.557   5.559 -0.2599  0.1176 -0.3125
 8908SOL    HW133070   6.991   1.552   5.464 -0.3662  1.3524 -0.3870
 8908SOL    HW233071   6.907   1.526   5.587 -0.9255  1.5220 -0.7289
 8909SOL     OW33072   4.436   1.472   7.184  0.7305  0.0071 -0.3084
 8909SOL    HW133073   4.452   1.479   7.278  1.2026  1.9374 -0.4753
 8909SOL    HW233074   4.344   1.450   7.176  1.1210 -2.1109  0.6058
 8910SOL     OW33075   7.888   3.413   7.265 -0.9611  0.5222  0.1353
 8910SOL    HW133076   7.843   3.423   7.348 -1.4569 -1.1210  0.0854
 8910SOL    HW233077   7.917   3.322   7.263  1.7796  1.3037 -0.1440
 8911SOL     OW33078   6.190   2.732   2.577 -0.1746 -0.6001 -0.6853
 8911SOL    HW133079   6.276   2.714   2.615 -0.3554  0.0988  0.0867
 8911SOL    HW233080   6.168   2.652   2.529  1.8703 -0.0215 -2.8107
 8912SOL     OW33081   7.096   4.042   1.503 -0.1731  0.3701  0.1595
 8912SOL    HW133082   7.046   4.030   1.422 -1.0443  0.9690  0.5886
 8912SOL    HW233083   7.186   4.020   1.480 -0.6906 -1.1075 -0.5446
 8913SOL     OW33084   3.175   8.101   7.298 -0.2803 -0.3996  0.9780
 8913SOL    HW133085   3.170   8.028   7.236 -2.3138 -1.4042  2.2173
 8913SOL    HW233086   3.239   8.161   7.260 -2.1277 -0.4645 -2.6130
 8914SOL     OW33087   0.960   7.901   0.498  0.4949  0.8345 -0.9683
 8914SOL    HW133088   0.966   7.980   0.552  0.3927  0.5911 -0.5978
 8914SOL    HW233089   1.050   7.869   0.491  0.1281 -1.8791  3.1857
 8915SOL     OW33090   9.016   7.020   4.615 -0.2674  0.3397 -0.7792
 8915SOL    HW133091   9.030   6.963   4.691  0.4967 -0.8643 -1.7806
 8915SOL    HW233092   9.013   6.960   4.540  0.8373  1.6143 -1.9073
 8916SOL     OW33093   8.487   0.406   6.848 -0.6900 -0.1975  0.2692
 8916SOL    HW133094   8.506   0.437   6.937  2.6113  0.2776 -0.4645
 8916SOL    HW233095   8.544   0.459   6.791  0.9933 -3.6442 -1.5914
 8917SOL     OW33096   3.378   2.280   6.466  0.0293  0.2140  0.3744
 8917SOL    HW133097   3.416   2.214   6.524 -0.0959  1.4722  1.9665
 8917SOL    HW233098   3.362   2.356   6.523 -1.9821  0.8156 -0.8738
 8918SOL     OW33099   3.348   3.528   3.540  0.5955 -0.0810  0.2557
 8918SOL    HW133100   3.426   3.474   3.525  1.1917  1.2879 -1.9818
 8918SOL    HW233101   3.336   3.576   3.458 -1.6046  1.0405  1.1629
 8919SOL     OW33102   7.742   4.214   4.702  0.0500  0.3634  0.6248
 8919SOL    HW133103   7.736   4.186   4.611 -0.1221 -0.0227  0.7562
 8919SOL    HW233104   7.653   4.242   4.725 -0.1104 -0.3908  0.9489
 8920SOL     OW33105   2.390   1.046   8.620 -0.2757 -0.5322  0.1610
 8920SOL    HW133106   2.302   1.022   8.649 -0.2399 -0.0103  0.7258
 8920SOL    HW233107   2.420   1.109   8.685  0.7281 -1.1073  0.2847
 8921SOL     OW33108   5.344   2.368   6.830  0.1919 -0.3216 -0.0498
 8921SOL    HW133109   5.402   2.299   6.863 -0.2279 -0.8776 -0.4447
 8921SOL    HW233110   5.347   2.436   6.897  1.0826 -0.4612  0.0665
 8922SOL     OW33111   2.061   3.396   7.686  0.4051  0.2508  0.5380
 8922SOL    HW133112   2.110   3.338   7.627 -0.2446  0.4900 -0.2423
 8922SOL    HW233113   2.128   3.454   7.723  0.8796 -0.1808  0.3730
 8923SOL     OW33114   4.243   4.117   7.256  0.7822 -0.2978  0.7713
 8923SOL    HW133115   4.161   4.095   7.301  1.3686 -1.0149  1.5059
 8923SOL    HW233116   4.232   4.081   7.168 -0.8117  2.0416 -0.0903
 8924SOL     OW33117   8.161   5.969   1.832 -0.3458 -0.2669 -0.0554
 8924SOL    HW133118   8.190   5.979   1.923  0.8144  1.4188 -0.5658
 8924SOL    HW233119   8.194   6.047   1.788  1.5090 -2.3169 -2.5445
 8925SOL     OW33120   7.145   4.028   3.228 -0.3055  0.3457 -0.7203
 8925SOL    HW133121   7.100   4.010   3.311 -0.3063  0.0344 -0.7891
 8925SOL    HW233122   7.110   3.963   3.167 -1.1837  1.3118 -1.2773
 8926SOL     OW33123   6.165   6.703   3.873 -0.2117  0.0730  0.0869
 8926SOL    HW133124   6.158   6.607   3.873  0.5717  0.0027 -0.9707
 8926SOL    HW233125   6.096   6.731   3.813  2.0698 -0.0965 -2.8121
 8927SOL     OW33126   4.437   1.026   6.368  0.1100 -0.0762  0.7673
 8927SOL    HW133127   4.352   0.985   6.352  0.1454  0.9814 -3.4939
 8927SOL    HW233128   4.418   1.104   6.420 -1.3529 -0.4166  0.7697
 8928SOL     OW33129   5.004   8.316   2.416  0.2960 -0.1177  0.1583
 8928SOL    HW133130   4.977   8.403   2.387  0.0988 -0.5419 -0.9800
 8928SOL    HW233131   5.028   8.327   2.508 -0.1546  1.0419  0.1447
 8929SOL     OW33132   6.163   3.785   3.236 -0.2664 -0.3288 -0.1780
 8929SOL    HW133133   6.221   3.825   3.171  0.9415  0.1044  1.1396
 8929SOL    HW233134   6.150   3.695   3.204  1.7358 -0.6754 -0.1486
 8930SOL     OW33135   1.418   0.647   7.520 -0.2753 -0.4086  0.0649
 8930SOL    HW133136   1.462   0.724   7.485  0.1552 -1.4455 -1.8512
 8930SOL    HW233137   1.478   0.614   7.587  0.0358  0.3256  0.1640
 8931SOL     OW33138   4.969   3.538   4.585 -0.5551 -0.7380  0.5773
 8931SOL    HW133139   4.935   3.620   4.621  3.3439  1.6581 -0.5792
 8931SOL    HW233140   5.014   3.496   4.658 -0.2024 -0.3980  0.5602
 8932SOL     OW33141   0.283   6.993   0.327 -0.3692 -0.1041  0.0372
 8932SOL    HW133142   0.223   6.953   0.391 -2.0092  2.6813  0.4115
 8932SOL    HW233143   0.249   6.965   0.242 -1.6825  0.6420  0.2828
 8933SOL     OW33144   1.751   3.424   3.333  0.1761  0.0577 -0.0431
 8933SOL    HW133145   1.776   3.354   3.392 -0.8527 -0.8723 -0.6582
 8933SOL    HW233146   1.659   3.442   3.356  0.2259  0.7149 -0.3535
 8934SOL     OW33147   1.909   5.305   6.858 -0.3834  0.3446  0.0541
 8934SOL    HW133148   1.989   5.253   6.855 -0.0401  0.8493  0.2854
 8934SOL    HW233149   1.935   5.391   6.825 -0.7684  0.5842  0.3664
 8935SOL     OW33150   6.531   1.177   7.513  0.1779  0.1476  0.4248
 8935SOL    HW133151   6.626   1.172   7.526  0.0687 -1.2889  0.8521
 8935SOL    HW233152   6.494   1.117   7.578 -1.0184  0.4969  0.1026
 8936SOL     OW33153   3.243   3.730   8.508 -0.4800  0.5456 -0.2020
 8936SOL    HW133154   3.326   3.693   8.537 -0.3888  1.0986  0.2568
 8936SOL    HW233155   3.261   3.823   8.496 -0.6081  0.3985 -1.7158
 8937SOL     OW33156   6.632   4.929   4.120  0.4576  0.4842  0.2104
 8937SOL    HW133157   6.677   5.013   4.125  0.9246  0.2009  0.9895
 8937SOL    HW233158   6.693   4.867   4.162  0.6123 -0.4521 -1.3323
 8938SOL     OW33159   2.617   0.905   0.279  0.4817 -0.0084 -0.1156
 8938SOL    HW133160   2.572   0.881   0.359  0.4358 -0.8534 -0.3804
 8938SOL    HW233161   2.559   0.968   0.236 -0.4162 -0.9991 -0.4020
 8939SOL     OW33162   9.050   1.388   6.510 -0.0977 -0.4298  0.1235
 8939SOL    HW133163   9.136   1.351   6.492 -0.0103 -0.5059  0.7014
 8939SOL    HW233164   9.066   1.457   6.574 -0.4862 -0.5391  0.3395
 8940SOL     OW33165   4.193   3.875   8.773  0.8545 -0.2955  0.2496
 8940SOL    HW133166   4.250   3.913   8.840  1.0685  1.1143 -0.6849
 8940SOL    HW233167   4.229   3.908   8.691 -0.8427 -0.0383 -0.4119
 8941SOL     OW33168   0.962   5.216   2.370 -0.5038  0.4820 -0.6149
 8941SOL    HW133169   0.874   5.203   2.335 -0.6174  0.8915 -0.4846
 8941SOL    HW233170   1.014   5.146   2.330 -0.8909  0.2243 -0.6732
 8942SOL     OW33171   6.962   5.623   7.823  0.4243 -0.0705 -0.0248
 8942SOL    HW133172   7.055   5.604   7.807 -0.0739 -0.7041 -2.7195
 8942SOL    HW233173   6.916   5.547   7.788 -1.1663  0.7427  0.2086
 8943SOL     OW33174   4.629   3.065   8.602 -0.2496 -0.0191  0.0499
 8943SOL    HW133175   4.664   3.051   8.514  0.9219 -1.7402  0.7368
 8943SOL    HW233176   4.657   2.988   8.651 -2.0684  0.2435  1.5865
 8944SOL     OW33177   0.858   8.717   7.011  0.0950  0.2450  0.0049
 8944SOL    HW133178   0.875   8.726   6.917 -1.1588 -1.1596 -0.3937
 8944SOL    HW233179   0.945   8.715   7.050  0.7784 -1.7075 -1.4246
 8945SOL     OW33180   6.480   6.187   0.620  0.4938 -0.1661  0.2211
 8945SOL    HW133181   6.401   6.179   0.567  0.1667  1.2642  0.4511
 8945SOL    HW233182   6.525   6.264   0.585  0.9739 -0.0204  1.1195
 8946SOL     OW33183   4.354   6.666   3.798 -0.2318  0.0413  0.3800
 8946SOL    HW133184   4.379   6.613   3.722  0.0839 -0.2898  0.7076
 8946SOL    HW233185   4.435   6.673   3.849 -0.8724 -1.3993  1.6774
 8947SOL     OW33186   5.416   1.976   2.505 -0.1876 -0.0550 -0.3188
 8947SOL    HW133187   5.371   1.941   2.428 -0.0905 -2.2172  0.5362
 8947SOL    HW233188   5.505   1.943   2.497  0.1067  0.6099  0.1770
 8948SOL     OW33189   0.883   4.397   7.883  0.2669 -0.1681 -0.0054
 8948SOL    HW133190   0.874   4.491   7.868  1.2294  0.1337  1.1612
 8948SOL    HW233191   0.919   4.391   7.971 -0.0701 -1.6502  0.0498
 8949SOL     OW33192   7.208   1.329   7.324 -0.0819  0.2486 -0.1898
 8949SOL    HW133193   7.205   1.345   7.419 -0.7273 -0.0962 -0.1430
 8949SOL    HW233194   7.247   1.409   7.288  1.7283 -0.2759  0.4967
 8950SOL     OW33195   8.201   6.827   3.370  0.0565 -0.2760  0.5147
 8950SOL    HW133196   8.256   6.765   3.322  0.6802  0.6698 -0.0119
 8950SOL    HW233197   8.115   6.819   3.330  0.4101  0.0070 -0.3156
 8951SOL     OW33198   9.155   7.021   8.906  0.1018  0.5196  0.4559
 8951SOL    HW133199   9.242   6.990   8.929  0.6626  0.1839 -1.8942
 8951SOL    HW233200   9.095   6.962   8.951  1.1430 -2.0923 -1.3505
 8952SOL     OW33201   7.995   7.626   2.396  0.0610 -0.1920  0.2602
 8952SOL    HW133202   8.058   7.605   2.466 -2.9430 -0.4527  3.1350
 8952SOL    HW233203   7.934   7.552   2.396 -1.6156  1.1275 -0.7016
 8953SOL     OW33204   8.528   0.517   3.683 -0.6612 -0.1878  0.4354
 8953SOL    HW133205   8.589   0.585   3.712  1.2083 -1.4345 -0.4261
 8953SOL    HW233206   8.545   0.507   3.589 -2.4912 -0.3157  0.0719
 8954SOL     OW33207   8.829   4.339   2.724 -0.4610  0.0351 -0.0109
 8954SOL    HW133208   8.893   4.409   2.715 -1.1940  0.4793 -2.5305
 8954SOL    HW233209   8.747   4.377   2.694 -1.7831 -0.7848  2.2968
 8955SOL     OW33210   6.219   7.306   0.198 -0.0949 -0.6032 -0.0284
 8955SOL    HW133211   6.189   7.395   0.216 -1.0176 -0.7019 -0.9965
 8955SOL    HW233212   6.161   7.275   0.129 -0.6140 -2.4189  1.1582
 8956SOL     OW33213   1.637   7.160   1.798 -0.5228  0.0552  0.6725
 8956SOL    HW133214   1.701   7.216   1.756 -0.3965 -0.0407  0.7346
 8956SOL    HW233215   1.679   7.134   1.881  0.6790 -2.4775 -0.6051
 8957SOL     OW33216   4.461   7.705   2.584  0.1481  0.1827  0.1809
 8957SOL    HW133217   4.546   7.746   2.571  0.1889 -0.0673 -0.3620
 8957SOL    HW233218   4.428   7.744   2.665  2.4639 -2.4763  2.6479
 8958SOL     OW33219   6.970   6.637   7.957  0.2975 -0.3893 -0.3312
 8958SOL    HW133220   6.912   6.660   8.029 -0.8706  2.1690 -1.9602
 8958SOL    HW233221   6.961   6.542   7.949  0.3554 -0.7589  2.6951
 8959SOL     OW33222   0.511   2.342   2.702 -0.0988  0.2234  0.0766
 8959SOL    HW133223   0.527   2.285   2.777 -0.3889 -0.0086 -0.0345
 8959SOL    HW233224   0.447   2.294   2.649  0.8437 -0.0696 -0.8256
 8960SOL     OW33225   0.378   0.030   5.729 -0.0084  0.2532  0.2832
 8960SOL    HW133226   0.373  -0.052   5.680  2.0612 -0.3266  0.9115
 8960SOL    HW233227   0.381   0.002   5.821 -0.8213  1.1395  0.5892
 8961SOL     OW33228   6.491   1.286   4.487 -0.2014  0.0853  0.0858
 8961SOL    HW133229   6.501   1.375   4.520 -0.5796  0.5697 -1.0792
 8961SOL    HW233230   6.560   1.277   4.421 -0.3838 -0.3784 -0.0456
 8962SOL     OW33231   4.175   7.933   8.392  0.2708 -0.0341 -0.4006
 8962SOL    HW133232   4.144   7.929   8.482  1.0121  1.7421 -0.0192
 8962SOL    HW233233   4.099   7.907   8.339  0.2375 -2.4669  0.7479
 8963SOL     OW33234   4.866   2.533   9.115 -0.4660 -0.0663 -0.8947
 8963SOL    HW133235   4.852   2.624   9.090 -0.9172  0.0951 -0.0753
 8963SOL    HW233236   4.910   2.494   9.039 -1.5284  0.4773 -1.8183
 8964SOL     OW33237   6.801   3.025   2.759  0.1036  0.3262 -0.2733
 8964SOL    HW133238   6.728   3.006   2.819  0.2746  4.4222  1.5795
 8964SOL    HW233239   6.764   3.011   2.672 -1.4028 -2.0110  0.6232
 8965SOL     OW33240   9.000   7.405   8.228 -0.0178  0.0693  0.5659
 8965SOL    HW133241   9.062   7.367   8.291  1.6298  2.9673  0.8553
 8965SOL    HW233242   8.953   7.472   8.277 -0.6225  0.5663 -0.6506
 8966SOL     OW33243   2.191   7.259   1.540 -1.0637  0.0055  0.1795
 8966SOL    HW133244   2.190   7.295   1.452 -2.8127 -2.9599 -1.1926
 8966SOL    HW233245   2.099   7.251   1.564 -0.6832 -1.0109  1.4431
 8967SOL     OW33246   2.162   4.027   1.938 -0.1996  0.0929  0.4368
 8967SOL    HW133247   2.141   4.054   1.848 -2.0188 -0.7238  0.5636
 8967SOL    HW233248   2.256   4.041   1.946  0.1270 -0.4175 -1.8145
 8968SOL     OW33249   3.275   1.521   1.652  0.1230 -0.4196  0.2288
 8968SOL    HW133250   3.211   1.564   1.595 -0.0265 -1.3202 -0.3043
 8968SOL    HW233251   3.243   1.538   1.741 -0.1744  0.1813  0.0126
 8969SOL     OW33252   6.053   7.024   2.055  0.1130  0.1961 -0.0330
 8969SOL    HW133253   6.071   6.945   2.106 -1.3674 -1.0329 -1.3123
 8969SOL    HW233254   5.958   7.038   2.065  0.3664  1.9307  0.2951
 8970SOL     OW33255   5.573   2.620   4.568 -0.5377 -0.2293  0.5220
 8970SOL    HW133256   5.550   2.697   4.516 -0.6625 -0.5375  0.1263
 8970SOL    HW233257   5.501   2.559   4.555 -0.4023 -0.4454  0.7802
 8971SOL     OW33258   4.495   6.272   0.185 -0.3418 -0.0965 -0.1787
 8971SOL    HW133259   4.491   6.230   0.099 -2.2036  0.5847 -0.4693
 8971SOL    HW233260   4.451   6.356   0.173  0.1252  0.3814  1.2538
 8972SOL     OW33261   5.979   7.278   8.752 -0.1370 -0.3982  0.3556
 8972SOL    HW133262   5.972   7.306   8.660 -1.1055 -1.9105 -0.0719
 8972SOL    HW233263   6.014   7.355   8.798  0.8859  0.2094 -1.3557
 8973SOL     OW33264   0.218   0.431   4.728 -0.2574  0.0589 -0.3523
 8973SOL    HW133265   0.168   0.510   4.709 -0.4927 -0.2370 -0.9773
 8973SOL    HW233266   0.286   0.428   4.660  0.8470  0.6445  0.6890
 8974SOL     OW33267   0.383   7.064   0.708  0.0828 -0.2582  0.2901
 8974SOL    HW133268   0.427   7.149   0.711  1.3723 -0.9338  2.4510
 8974SOL    HW233269   0.438   7.011   0.649  0.2245 -0.0837  0.2640
 8975SOL     OW33270   1.516   4.587   1.100  0.2173 -0.0550  0.4027
 8975SOL    HW133271   1.586   4.630   1.150 -0.0124 -0.2828  0.9343
 8975SOL    HW233272   1.513   4.634   1.017  0.9897 -0.0353  0.3811
 8976SOL     OW33273   2.709   0.667   3.132  0.3153 -0.5995 -0.3499
 8976SOL    HW133274   2.691   0.692   3.042 -0.8826  0.8938  0.2515
 8976SOL    HW233275   2.622   0.652   3.170  0.6501  0.8572  1.0892
 8977SOL     OW33276   4.830   7.194   8.003 -0.5233 -0.2117  0.5781
 8977SOL    HW133277   4.780   7.271   8.030 -0.3537  0.7862 -1.7597
 8977SOL    HW233278   4.768   7.121   8.013 -2.4502  0.9520 -1.9251
 8978SOL     OW33279   1.165   6.315   4.731 -0.1736  0.3711  0.2678
 8978SOL    HW133280   1.159   6.335   4.824  0.2592  1.2816  0.1100
 8978SOL    HW233281   1.259   6.313   4.713 -0.2654  1.0973 -0.3306
 8979SOL     OW33282   3.836   6.114   4.539 -0.2364  0.0698  0.3385
 8979SOL    HW133283   3.812   6.045   4.602 -0.2999  0.9543  1.3187
 8979SOL    HW233284   3.931   6.122   4.548 -0.3198  0.6302  0.8056
 8980SOL     OW33285   1.000   6.394   4.961 -0.9607  0.8647  0.1298
 8980SOL    HW133286   1.020   6.485   4.986  0.4273  1.0812 -1.5378
 8980SOL    HW233287   0.940   6.363   5.029 -0.4899  2.6226  1.4349
 8981SOL     OW33288   8.397   1.448   9.114  0.3098 -0.1795  0.4052
 8981SOL    HW133289   8.352   1.391   9.051 -0.2522  0.3622  0.3062
 8981SOL    HW233290   8.490   1.424   9.106  0.1821 -0.4838 -0.2518
 8982SOL     OW33291   4.001   3.205   2.621 -0.0328 -0.2468 -0.3527
 8982SOL    HW133292   3.960   3.126   2.587  0.0735  0.1160 -1.3449
 8982SOL    HW233293   3.985   3.201   2.716 -1.9170 -0.3677 -0.6337
 8983SOL     OW33294   3.228   8.987   7.648  0.2738 -0.2037  0.4047
 8983SOL    HW133295   3.140   8.994   7.611  0.4436  1.4820  0.2354
 8983SOL    HW233296   3.276   9.061   7.610  2.1663 -1.8117 -0.5173
 8984SOL     OW33297   8.331   1.757   7.389  0.3016  0.7986 -0.0562
 8984SOL    HW133298   8.313   1.797   7.474  1.3673 -0.0478  0.5923
 8984SOL    HW233299   8.280   1.677   7.389  1.1757  0.2306  0.2705
 8985SOL     OW33300   7.009   3.949   8.149 -0.1030 -0.5230  0.5424
 8985SOL    HW133301   6.947   4.018   8.127 -0.9785 -1.2293  0.7687
 8985SOL    HW233302   7.095   3.990   8.137 -0.5998  0.7110  1.0317
 8986SOL     OW33303   1.540   6.032   5.465  0.2430 -0.2354 -0.3235
 8986SOL    HW133304   1.581   6.023   5.379 -1.8067 -2.3850 -1.1821
 8986SOL    HW233305   1.506   6.121   5.467  2.0038  0.4855 -0.9020
 8987SOL     OW33306   0.126   7.962   7.254  0.2167  0.0313  0.1894
 8987SOL    HW133307   0.117   7.882   7.307  2.4142 -0.9761 -0.8238
 8987SOL    HW233308   0.051   7.959   7.194 -0.2967 -0.7322  0.8429
 8988SOL     OW33309   7.925   3.981   4.179 -0.1809  0.2660 -0.9278
 8988SOL    HW133310   7.841   4.011   4.214 -0.0918 -0.4685 -0.0303
 8988SOL    HW233311   7.918   3.885   4.181  1.1897  0.1529  0.4998
 8989SOL     OW33312   6.488   3.426   6.214  0.0429  0.3809 -0.0094
 8989SOL    HW133313   6.453   3.447   6.128  0.6304 -1.0773 -0.6378
 8989SOL    HW233314   6.414   3.435   6.274 -0.3660  1.4127 -0.6582
 8990SOL     OW33315   8.368   6.675   7.089 -0.1893  0.3465  0.1995
 8990SOL    HW133316   8.319   6.749   7.127 -1.1517  0.7454 -1.7207
 8990SOL    HW233317   8.444   6.715   7.048 -0.3661  0.1991 -0.2764
 8991SOL     OW33318   1.471   6.610   5.762 -0.3296 -0.3167  0.6443
 8991SOL    HW133319   1.387   6.627   5.719 -0.5426 -0.9673  0.7847
 8991SOL    HW233320   1.526   6.571   5.693  0.7747  2.4702 -0.1883
 8992SOL     OW33321   7.136   1.877   2.034  0.1764 -0.4661 -0.1714
 8992SOL    HW133322   7.115   1.922   1.952 -1.1661 -2.0326 -0.7572
 8992SOL    HW233323   7.216   1.828   2.015 -0.4934 -1.3537 -0.8065
 8993SOL     OW33324   5.387   1.597   1.222 -0.2860 -0.6165  0.6317
 8993SOL    HW133325   5.298   1.617   1.253 -0.3800 -0.9064  0.5574
 8993SOL    HW233326   5.445   1.642   1.284 -0.4502 -1.8645  1.7492
 8994SOL     OW33327   3.649   1.309   3.614 -0.3560 -0.0850  0.1986
 8994SOL    HW133328   3.626   1.336   3.703  2.0733  1.1425  0.5634
 8994SOL    HW233329   3.647   1.391   3.564  0.1740 -0.4401 -0.4112
 8995SOL     OW33330   2.397   7.231   8.613  0.2125 -0.5722 -0.3057
 8995SOL    HW133331   2.444   7.170   8.556 -0.0910 -1.0130 -0.0835
 8995SOL    HW233332   2.344   7.284   8.553  0.9239 -0.1138 -0.5572
 8996SOL     OW33333   6.714   2.328   7.625  0.2692  0.0303  0.1909
 8996SOL    HW133334   6.648   2.326   7.695 -0.9430  2.5130 -0.7378
 8996SOL    HW233335   6.676   2.386   7.559  2.5346 -0.1030 -1.3236
 8997SOL     OW33336   1.440   4.735   1.519 -0.1221 -0.3491  0.2047
 8997SOL    HW133337   1.529   4.707   1.541 -0.0015  0.2285  0.4795
 8997SOL    HW233338   1.384   4.684   1.577  0.1346  0.4125  1.1671
 8998SOL     OW33339   3.821   4.381   2.808  0.5107  0.1647  0.8500
 8998SOL    HW133340   3.755   4.323   2.770 -2.2018  2.6533  1.3900
 8998SOL    HW233341   3.877   4.323   2.860 -1.9133 -2.0019  1.2695
 8999SOL     OW33342   5.656   9.217   8.222 -0.2641 -0.3235  0.2454
 8999SOL    HW133343   5.684   9.145   8.279 -0.3892 -1.2342 -0.8023
 8999SOL    HW233344   5.717   9.288   8.242  1.2711 -1.4387 -0.2371
 9000SOL     OW33345   2.458   3.785   0.903  0.1161 -0.2168  0.1164
 9000SOL    HW133346   2.478   3.720   0.835 -1.9478 -1.4864  0.6299
 9000SOL    HW233347   2.455   3.868   0.856 -0.2976 -0.9329 -1.1776
 9001SOL     OW33348   4.585   8.989   3.129 -0.2020  0.0919  0.2193
 9001SOL    HW133349   4.568   9.055   3.061 -2.0589 -0.1224  0.4362
 9001SOL    HW233350   4.589   8.906   3.081 -1.3434 -0.0399  0.3411
 9002SOL     OW33351   8.514   2.898   6.449  0.1468 -0.6237  0.3155
 9002SOL    HW133352   8.443   2.862   6.397  0.4074 -0.1013 -0.4044
 9002SOL    HW233353   8.541   2.825   6.505 -0.8277 -0.8735  0.4723
 9003SOL     OW33354   2.563   3.222   0.412 -0.2750 -0.8918  0.1255
 9003SOL    HW133355   2.495   3.220   0.479 -1.4112 -1.0641 -0.9962
 9003SOL    HW233356   2.520   3.188   0.333  1.1999 -1.2944 -0.5390
 9004SOL     OW33357   7.198   1.532   1.585  0.4488 -0.6156 -0.0100
 9004SOL    HW133358   7.202   1.578   1.501  0.1049 -1.2575 -0.3793
 9004SOL    HW233359   7.142   1.587   1.639 -0.5852 -0.9768 -0.6919
 9005SOL     OW33360   2.406   5.969   3.035 -0.0336 -0.0448  0.2388
 9005SOL    HW133361   2.445   6.029   3.099 -0.2266 -0.1368  0.4437
 9005SOL    HW233362   2.402   5.885   3.080 -1.8058  0.2647  0.7692
 9006SOL     OW33363   4.524   9.044   7.203 -0.1806 -0.4189  0.7520
 9006SOL    HW133364   4.604   9.000   7.232  0.9675  0.5744 -0.7923
 9006SOL    HW233365   4.458   8.975   7.204  1.4374 -2.1443 -1.0651
 9007SOL     OW33366   8.852   7.754   4.206 -0.2262  0.0201 -0.7964
 9007SOL    HW133367   8.874   7.811   4.279 -0.2017 -0.6363 -0.2745
 9007SOL    HW233368   8.782   7.800   4.160  0.4879  0.9374 -0.9948
 9008SOL     OW33369   0.461   0.789   1.104  0.1832  0.3578 -0.1624
 9008SOL    HW133370   0.509   0.842   1.167 -0.6339 -0.7900  1.4924
 9008SOL    HW233371   0.506   0.704   1.104  1.5341  0.9588 -2.8385
 9009SOL     OW33372   1.878   2.580   0.297 -0.3344  0.3442  0.0654
 9009SOL    HW133373   1.963   2.588   0.253 -0.0581  1.1722  0.7329
 9009SOL    HW233374   1.818   2.552   0.227  0.5158 -0.4755 -0.3648
 9010SOL     OW33375   5.149   4.313   8.833  0.2658 -0.0861 -0.4974
 9010SOL    HW133376   5.069   4.298   8.883  0.7780  0.3642  0.4720
 9010SOL    HW233377   5.220   4.297   8.895  0.9389 -0.4963 -1.3533
 9011SOL     OW33378   9.021   1.472   1.985  0.0286 -0.0551 -0.4841
 9011SOL    HW133379   8.966   1.481   2.063 -0.6361 -1.5031 -0.7506
 9011SOL    HW233380   8.998   1.546   1.929  1.1122  1.4940  1.0069
 9012SOL     OW33381   7.008   5.173   8.649 -0.2543  0.0490 -0.1586
 9012SOL    HW133382   6.919   5.204   8.636 -0.1692  0.3656  0.0228
 9012SOL    HW233383   7.051   5.188   8.565 -0.7983 -1.5566 -0.7638
 9013SOL     OW33384   0.268   2.885   1.410  0.0497 -0.5705 -0.2272
 9013SOL    HW133385   0.363   2.890   1.412  0.0179  0.1557 -0.4096
 9013SOL    HW233386   0.249   2.793   1.427  0.8930 -1.3785 -3.0794
 9014SOL     OW33387   4.770   2.732   2.166 -0.0492  0.3268 -0.1048
 9014SOL    HW133388   4.778   2.710   2.073 -0.8816 -0.4944  0.0038
 9014SOL    HW233389   4.744   2.824   2.167 -1.8498 -0.1415 -0.7638
 9015SOL     OW33390   5.678   6.233   2.043 -0.2020 -0.7554  0.4219
 9015SOL    HW133391   5.641   6.182   2.115  0.6299 -2.2133 -0.1418
 9015SOL    HW233392   5.647   6.189   1.964  0.6095 -0.4553 -0.0789
 9016SOL     OW33393   1.138   5.198   2.044 -0.4224  0.5741 -0.1697
 9016SOL    HW133394   1.150   5.263   2.114  1.0816  0.2406 -0.0739
 9016SOL    HW233395   1.223   5.196   1.999 -1.3839  0.8426 -2.0826
 9017SOL     OW33396   1.359   8.577   7.282 -0.7907 -0.3091 -0.2239
 9017SOL    HW133397   1.403   8.569   7.366 -1.0880  0.4502  0.0166
 9017SOL    HW233398   1.284   8.518   7.288 -0.8614 -0.1919  0.0880
 9018SOL     OW33399   2.319   7.733   1.674 -0.4536  0.4440  0.2203
 9018SOL    HW133400   2.406   7.769   1.657 -0.0914 -0.1218  0.8345
 9018SOL    HW233401   2.259   7.803   1.649  0.2125  1.1696  0.5967
 9019SOL     OW33402   8.336   7.786   6.941  0.0467  0.2889 -0.0225
 9019SOL    HW133403   8.299   7.748   7.021  1.5173 -0.9364  0.1240
 9019SOL    HW233404   8.430   7.783   6.955  0.2978  0.8767 -1.4543
 9020SOL     OW33405   1.558   5.052   2.144  0.6171  0.4426 -0.3927
 9020SOL    HW133406   1.492   5.010   2.199  1.0023 -1.0670 -1.0140
 9020SOL    HW233407   1.593   5.123   2.197 -0.9110  0.7411  0.2631
 9021SOL     OW33408   5.832   2.340   0.789  0.3642 -0.3201  0.6511
 9021SOL    HW133409   5.783   2.271   0.834 -0.7979 -0.3165 -0.5610
 9021SOL    HW233410   5.803   2.335   0.698  1.5146  0.6829  0.1976
 9022SOL     OW33411   3.651   2.118   6.610 -0.2813  0.5356  0.3681
 9022SOL    HW133412   3.568   2.071   6.604  0.0381 -0.2089  1.5505
 9022SOL    HW233413   3.713   2.062   6.563 -0.1708  0.4061  0.6645
 9023SOL     OW33414   3.226   1.672   2.846 -0.3012  0.2929  0.0510
 9023SOL    HW133415   3.321   1.676   2.846 -0.1971 -1.0753  1.4334
 9023SOL    HW233416   3.205   1.610   2.776 -0.1101 -0.1311  0.3641
 9024SOL     OW33417   8.625   5.017   1.728 -0.1441 -0.2208 -0.3262
 9024SOL    HW133418   8.720   5.014   1.713  0.5226  1.9013  2.6827
 9024SOL    HW233419   8.594   5.085   1.669  0.2063 -0.7409 -1.1371
 9025SOL     OW33420   7.900   2.100   4.687  0.0031 -0.1240 -0.3323
 9025SOL    HW133421   7.976   2.135   4.732  0.9043 -0.4428 -1.5409
 9025SOL    HW233422   7.937   2.053   4.611 -1.1919 -2.6569  0.5315
 9026SOL     OW33423   1.406   3.616   2.887 -0.0284  0.4158  0.0248
 9026SOL    HW133424   1.347   3.546   2.915  0.2361  0.3110  0.3376
 9026SOL    HW233425   1.350   3.678   2.841 -0.2205 -0.1311 -0.4965
 9027SOL     OW33426   5.624   1.614   2.724  0.4140 -0.2329 -0.3804
 9027SOL    HW133427   5.570   1.613   2.804  1.3860 -0.0205  0.2937
 9027SOL    HW233428   5.561   1.622   2.653 -0.3454  3.1403  0.5082
 9028SOL     OW33429   3.880   4.198   8.715  0.1676  0.3068 -0.6186
 9028SOL    HW133430   3.855   4.278   8.762  0.3629  0.5271 -0.8874
 9028SOL    HW233431   3.915   4.229   8.632 -0.3801 -0.0913 -1.0017
 9029SOL     OW33432   6.780   7.615   5.401  0.2279  0.9581  0.1269
 9029SOL    HW133433   6.786   7.598   5.307  1.1284  3.0464 -0.2599
 9029SOL    HW233434   6.737   7.538   5.437  1.3777 -0.6485 -1.7459
 9030SOL     OW33435   7.729   4.758   8.471  0.8953  0.4783  0.7655
 9030SOL    HW133436   7.683   4.829   8.425  0.9122 -0.9942 -1.6710
 9030SOL    HW233437   7.665   4.687   8.476  1.2503  0.2205  2.1336
 9031SOL     OW33438   0.739   4.394   9.022 -0.4814  0.0082 -0.2147
 9031SOL    HW133439   0.768   4.309   9.055 -2.0398  0.1408  1.7506
 9031SOL    HW233440   0.819   4.445   9.012  0.3365 -1.1182  0.3886
 9032SOL     OW33441   3.781   6.146   9.131  0.1186 -0.6152 -0.0094
 9032SOL    HW133442   3.823   6.093   9.199 -0.6365  0.5933  1.4733
 9032SOL    HW233443   3.853   6.194   9.090  0.5371 -1.0110  0.2548
 9033SOL     OW33444   1.465   9.197   1.426  0.0729 -0.5346 -0.4445
 9033SOL    HW133445   1.538   9.167   1.480  0.4868  1.5040  0.2336
 9033SOL    HW233446   1.459   9.291   1.444 -2.8047 -0.6247 -0.3905
 9034SOL     OW33447   6.680   4.283   0.245 -0.3003  0.1684  0.6086
 9034SOL    HW133448   6.641   4.345   0.184  2.4996  1.7318  0.2761
 9034SOL    HW233449   6.629   4.202   0.233 -2.7437  1.7466 -0.4122
 9035SOL     OW33450   5.041   3.439   4.851 -0.8193  0.0639  0.5169
 9035SOL    HW133451   5.113   3.380   4.829 -1.4458 -0.3236 -0.6002
 9035SOL    HW233452   5.075   3.495   4.921  0.4472 -0.3075  0.2138
 9036SOL     OW33453   5.950   7.393   7.727  0.1233 -0.6792 -0.3659
 9036SOL    HW133454   5.994   7.384   7.812 -1.0342  0.1939  0.3594
 9036SOL    HW233455   5.876   7.450   7.745  0.5482  0.5477 -2.2275
 9037SOL     OW33456   6.758   4.622   8.195  0.0763 -0.1140 -0.4572
 9037SOL    HW133457   6.837   4.660   8.156 -0.2648 -0.1016 -1.1522
 9037SOL    HW233458   6.754   4.659   8.283  0.6040  0.2322 -0.5770
 9038SOL     OW33459   4.411   7.415   2.597  0.6720 -0.4510  0.2316
 9038SOL    HW133460   4.321   7.436   2.570 -0.1735 -0.4947  2.7368
 9038SOL    HW233461   4.444   7.495   2.636  1.3734 -0.7304  0.2285
 9039SOL     OW33462   3.705   1.786   8.586 -0.6297 -0.0361  0.1911
 9039SOL    HW133463   3.786   1.828   8.558  0.5935 -1.6902  1.0447
 9039SOL    HW233464   3.695   1.712   8.525 -0.6152 -0.7537  1.0365
 9040SOL     OW33465   5.530   8.901   3.895 -0.0578  0.1494  0.0759
 9040SOL    HW133466   5.604   8.872   3.948 -0.3241  0.4553  0.6288
 9040SOL    HW233467   5.480   8.822   3.877  0.5711 -0.1114 -0.5766
 9041SOL     OW33468   1.839   6.999   1.940 -0.3635  0.4603 -0.0534
 9041SOL    HW133469   1.910   6.955   1.987  0.1093  2.0014  0.7376
 9041SOL    HW233470   1.759   6.964   1.980 -0.0109  0.1831  0.4214
 9042SOL     OW33471   1.680   8.464   3.974  0.2011 -0.1032 -0.2568
 9042SOL    HW133472   1.609   8.475   4.038 -1.4534 -2.0925 -1.6132
 9042SOL    HW233473   1.665   8.378   3.936  2.8160 -0.1797 -1.3435
 9043SOL     OW33474   0.070   2.306   1.319 -0.2561 -0.0884 -0.4893
 9043SOL    HW133475   0.154   2.260   1.313  0.0144  0.5814 -2.3296
 9043SOL    HW233476   0.007   2.244   1.282 -0.8640 -1.1013  2.0186
 9044SOL     OW33477   1.185   4.441   8.396 -0.0361 -0.6266  0.4434
 9044SOL    HW133478   1.210   4.457   8.305  0.2526  0.4169  0.6857
 9044SOL    HW233479   1.247   4.377   8.428 -0.3370 -1.2415 -0.1822
 9045SOL     OW33480   4.633   5.345   8.561  0.2087 -0.5061  0.7582
 9045SOL    HW133481   4.544   5.336   8.525  0.0661  1.2438  0.5893
 9045SOL    HW233482   4.667   5.256   8.562 -0.2447 -0.8411 -2.5581
 9046SOL     OW33483   6.426   4.968   7.039 -0.6232  0.5497 -0.3314
 9046SOL    HW133484   6.483   4.982   7.114 -1.5848  0.3174  0.4661
 9046SOL    HW233485   6.485   4.955   6.965  0.3973 -1.5011  0.7644
 9047SOL     OW33486   7.974   4.552   4.838 -0.2841 -0.0517 -0.8286
 9047SOL    HW133487   7.971   4.461   4.811  0.0203 -0.4001  0.2731
 9047SOL    HW233488   7.925   4.599   4.770 -1.6164 -1.1980 -0.7032
 9048SOL     OW33489   8.471   4.578   4.566 -0.2714 -0.2192  0.3499
 9048SOL    HW133490   8.490   4.485   4.554  1.9577  0.1276  0.7589
 9048SOL    HW233491   8.467   4.613   4.477 -2.4515 -0.8812  0.1266
 9049SOL     OW33492   0.852   6.724   5.891  0.2281 -0.4214 -0.1116
 9049SOL    HW133493   0.826   6.803   5.940  0.2005 -1.5187  1.7376
 9049SOL    HW233494   0.937   6.745   5.854 -0.0417  0.6737 -0.1519
 9050SOL     OW33495   5.839   1.347   7.606  0.2605 -0.5351 -0.1166
 9050SOL    HW133496   5.913   1.335   7.546  0.4120 -1.4222  0.2344
 9050SOL    HW233497   5.763   1.320   7.555  0.3210 -0.7416 -0.0978
 9051SOL     OW33498   1.324   9.152   0.080  0.1324  0.6795  0.3476
 9051SOL    HW133499   1.312   9.168  -0.014  0.4741  0.5362  0.2781
 9051SOL    HW233500   1.236   9.157   0.116  0.0625  1.2989  0.1070
 9052SOL     OW33501   4.334   6.296   6.736  0.4662 -0.2328 -0.3764
 9052SOL    HW133502   4.402   6.237   6.703 -0.5784 -0.9535 -1.3362
 9052SOL    HW233503   4.348   6.298   6.831  0.7758 -1.7305 -0.3588
 9053SOL     OW33504   5.547   7.734   3.191 -0.3475  0.0715 -0.4341
 9053SOL    HW133505   5.543   7.661   3.129 -1.0473  0.6702 -1.1068
 9053SOL    HW233506   5.470   7.722   3.247  0.5565 -0.7672  0.7056
 9054SOL     OW33507   3.747   5.154   3.819 -0.3747 -0.2695  0.3313
 9054SOL    HW133508   3.792   5.078   3.857  2.3935  1.2472  0.3473
 9054SOL    HW233509   3.763   5.147   3.725 -2.1620 -0.8949  0.0354
 9055SOL     OW33510   0.617   3.810   9.153  0.9133  0.5809 -0.2933
 9055SOL    HW133511   0.578   3.816   9.066  0.0114 -0.4801  0.0122
 9055SOL    HW233512   0.587   3.725   9.186  1.8258  0.6585  0.7705
 9056SOL     OW33513   4.239   0.247   3.217  0.3780 -0.3520  0.5677
 9056SOL    HW133514   4.274   0.312   3.156 -1.2646 -3.2798 -4.0558
 9056SOL    HW233515   4.306   0.179   3.221 -0.9214 -1.8573 -1.1591
 9057SOL     OW33516   3.601   0.867   4.856 -0.2374  0.0942  0.2769
 9057SOL    HW133517   3.554   0.784   4.860  1.8229 -1.0969  0.7803
 9057SOL    HW233518   3.636   0.870   4.767  2.4001 -1.2189  1.1660
 9058SOL     OW33519   2.693   1.949   3.268  0.4071  0.2073 -0.4015
 9058SOL    HW133520   2.682   1.894   3.346  2.0910 -0.3423 -0.5155
 9058SOL    HW233521   2.676   2.038   3.298 -1.2565 -0.2271  0.0389
 9059SOL     OW33522   7.192   4.510   4.080 -0.0761 -0.1812 -0.0397
 9059SOL    HW133523   7.112   4.458   4.073 -0.8526  0.8609  0.9404
 9059SOL    HW233524   7.206   4.523   4.173  0.4179  0.8970 -0.2414
 9060SOL     OW33525   7.156   2.379   3.274  0.3848  0.3218 -0.2260
 9060SOL    HW133526   7.157   2.380   3.178 -2.1123  2.2023 -0.3251
 9060SOL    HW233527   7.086   2.317   3.296  1.6652 -0.9344  0.4792
 9061SOL     OW33528   6.156   3.002   1.875 -0.2514 -0.5659 -0.4170
 9061SOL    HW133529   6.169   2.928   1.933  0.0587 -0.7317 -0.6935
 9061SOL    HW233530   6.065   2.995   1.846 -0.8236  0.2567  1.0546
 9062SOL     OW33531   7.254   1.577   5.751 -0.3799  0.6120  0.3302
 9062SOL    HW133532   7.321   1.621   5.699  0.2096 -0.5447  0.0696
 9062SOL    HW233533   7.185   1.556   5.688 -0.2821  0.4223  0.2859
 9063SOL     OW33534   8.333   5.871   4.818 -0.3277  0.5920 -0.0586
 9063SOL    HW133535   8.292   5.839   4.738 -2.2462  1.0248  0.6904
 9063SOL    HW233536   8.372   5.793   4.858 -1.1170  0.0046 -0.4159
 9064SOL     OW33537   3.539   1.937   2.405  0.0829 -0.0621 -0.5142
 9064SOL    HW133538   3.609   1.873   2.392 -1.3767 -1.3908 -2.1950
 9064SOL    HW233539   3.538   1.953   2.500 -0.0260 -3.1414  0.0822
 9065SOL     OW33540   2.645   3.126   5.632  0.1244 -0.0225  0.2904
 9065SOL    HW133541   2.699   3.059   5.674  0.0715 -0.8669 -0.9624
 9065SOL    HW233542   2.709   3.187   5.593  0.2156 -0.9718 -1.1118
 9066SOL     OW33543   4.688   6.533   2.462 -0.5627 -0.0728  0.0990
 9066SOL    HW133544   4.691   6.444   2.497 -1.3771 -0.5889 -1.0643
 9066SOL    HW233545   4.681   6.520   2.367 -0.5012  1.2375 -0.0953
 9067SOL     OW33546   6.905   2.579   4.618 -0.3585  0.5289 -0.0357
 9067SOL    HW133547   6.814   2.606   4.617 -0.3488  0.6030  0.5150
 9067SOL    HW233548   6.902   2.483   4.609 -0.5126  0.4977  0.3189
 9068SOL     OW33549   7.895   4.248   2.344 -0.0758  0.1872  0.0180
 9068SOL    HW133550   7.855   4.334   2.351 -0.6916 -0.2002  1.8121
 9068SOL    HW233551   7.820   4.188   2.338  0.3385 -0.2531 -0.8647
 9069SOL     OW33552   2.370   5.743   6.497  0.5155  0.4496 -0.1763
 9069SOL    HW133553   2.338   5.690   6.424 -2.2104 -0.6684  1.6726
 9069SOL    HW233554   2.438   5.690   6.538  1.1936  0.5531 -1.1288
 9070SOL     OW33555   8.301   1.790   7.973 -0.1402 -0.6093 -0.5819
 9070SOL    HW133556   8.311   1.884   7.958  0.0360 -0.6368 -0.6490
 9070SOL    HW233557   8.360   1.772   8.046 -0.2207 -0.6564 -0.5291
 9071SOL     OW33558   2.223   0.978   3.931 -0.1373 -0.3342  0.2071
 9071SOL    HW133559   2.140   1.018   3.955  0.9487  1.7861  0.6912
 9071SOL    HW233560   2.265   0.956   4.014  0.6509  0.5513  0.0616
 9072SOL     OW33561   5.998   7.332   7.154 -0.1669  0.2230  0.7234
 9072SOL    HW133562   6.040   7.369   7.232 -1.4126 -0.1576  1.6060
 9072SOL    HW233563   6.009   7.400   7.087 -0.0590  1.0547  1.5546
 9073SOL     OW33564   0.617   7.390   3.781  0.0483 -0.4200 -0.3143
 9073SOL    HW133565   0.585   7.474   3.746  1.4639  1.5511  2.6517
 9073SOL    HW233566   0.671   7.354   3.711  1.1799  2.2983 -0.9716
 9074SOL     OW33567   6.276   4.899   7.411  0.0295 -0.4662 -0.2163
 9074SOL    HW133568   6.331   4.977   7.413  1.6194 -1.5241 -0.4739
 9074SOL    HW233569   6.189   4.931   7.388  0.5656  1.2514  0.0209
 9075SOL     OW33570   8.024   5.043   3.588 -0.2943  0.0129  0.2722
 9075SOL    HW133571   8.095   5.055   3.526  1.3094  2.3614  2.3715
 9075SOL    HW233572   8.057   4.979   3.651 -1.4809 -1.5297 -0.6027
 9076SOL     OW33573   8.011   0.593   6.957 -0.4341  0.2143 -0.0707
 9076SOL    HW133574   8.095   0.622   6.923 -0.4124  2.3464  1.5895
 9076SOL    HW233575   8.032   0.519   7.014  0.1890  0.1508 -0.3796
 9077SOL     OW33576   6.668   2.797   4.517  0.3967 -0.0943 -0.2462
 9077SOL    HW133577   6.616   2.815   4.595  1.0520 -0.0463  0.1917
 9077SOL    HW233578   6.606   2.760   4.454  0.2902 -2.4879  1.1555
 9078SOL     OW33579   1.733   7.002   1.397 -0.6377 -0.2379  0.2105
 9078SOL    HW133580   1.660   7.063   1.409  0.5313  0.8432  2.5294
 9078SOL    HW233581   1.782   7.008   1.479  0.7351 -2.7244 -0.3449
 9079SOL     OW33582   1.975   7.075   5.272  0.1701  0.0685  0.4675
 9079SOL    HW133583   1.936   7.161   5.252  0.1752  0.0001  0.1580
 9079SOL    HW233584   2.066   7.095   5.294  1.0055 -0.0997 -2.3786
 9080SOL     OW33585   5.910   1.825   5.295 -0.7143 -0.5178  0.3884
 9080SOL    HW133586   5.998   1.787   5.291 -0.3417  0.3929 -0.4930
 9080SOL    HW233587   5.878   1.802   5.383 -0.1196 -1.9595  0.2504
 9081SOL     OW33588   5.714   8.399   5.621 -0.0356  0.8124 -0.1078
 9081SOL    HW133589   5.674   8.338   5.559  1.8100 -0.3351 -0.2449
 9081SOL    HW233590   5.700   8.485   5.582 -3.0913  0.6122  0.3091
 9082SOL     OW33591   1.640   8.828   2.970  0.0401 -0.0781 -0.1420
 9082SOL    HW133592   1.548   8.809   2.954 -0.2082  0.9308 -0.0112
 9082SOL    HW233593   1.658   8.792   3.057 -0.2548 -0.2012 -0.1317
 9083SOL     OW33594   1.689   6.861   8.202  0.7337  0.6869  0.3424
 9083SOL    HW133595   1.696   6.947   8.245 -0.1794  0.8000  0.2798
 9083SOL    HW233596   1.616   6.818   8.246  1.5403 -0.2889  0.7515
 9084SOL     OW33597   6.047   5.796   8.017  0.1100 -0.1722  0.3613
 9084SOL    HW133598   5.997   5.738   7.959 -0.7320  0.3344  0.5565
 9084SOL    HW233599   6.074   5.868   7.961 -0.0060 -0.0862  0.4153
 9085SOL     OW33600   6.208   6.607   8.485  0.6502 -0.3888 -0.3816
 9085SOL    HW133601   6.140   6.668   8.515 -0.4723 -1.3839 -0.8034
 9085SOL    HW233602   6.236   6.561   8.564 -1.8045 -2.5120 -0.5849
 9086SOL     OW33603   2.122   8.365   5.134  0.2726 -0.2696 -0.2302
 9086SOL    HW133604   2.200   8.419   5.144  1.2624 -1.3982 -1.4689
 9086SOL    HW233605   2.122   8.309   5.211 -0.5385  1.1688  0.8592
 9087SOL     OW33606   4.892   3.187   0.229 -0.8226  0.6056  0.3668
 9087SOL    HW133607   4.968   3.132   0.210 -1.7623 -1.0176  1.0366
 9087SOL    HW233608   4.852   3.204   0.144 -0.2439  0.6622  0.1029
 9088SOL     OW33609   7.422   9.028   1.371  0.2574 -0.1138  0.0627
 9088SOL    HW133610   7.515   9.025   1.350 -0.0105  0.6518 -1.3491
 9088SOL    HW233611   7.417   8.993   1.460  1.8457 -0.4648  0.0531
 9089SOL     OW33612   8.528   1.371   2.822  0.3982  0.1849 -0.1643
 9089SOL    HW133613   8.483   1.325   2.892 -0.2432  0.0055 -0.6917
 9089SOL    HW233614   8.489   1.338   2.741  2.3454 -0.9486 -0.7190
 9090SOL     OW33615   9.013   7.170   6.145 -0.5150 -0.1822  0.3405
 9090SOL    HW133616   8.922   7.187   6.121 -0.4954  0.8655  0.9558
 9090SOL    HW233617   9.062   7.239   6.101 -0.1718  0.0742  1.1094
 9091SOL     OW33618   5.269   1.534   8.274  0.0670 -0.5612  0.6114
 9091SOL    HW133619   5.283   1.616   8.321 -1.1307 -0.8420  1.5254
 9091SOL    HW233620   5.196   1.552   8.215 -0.5125 -1.0658  1.1481
 9092SOL     OW33621   4.434   1.697   3.771  0.0066 -0.7931  0.3805
 9092SOL    HW133622   4.355   1.751   3.779  0.3621 -0.2836  0.5144
 9092SOL    HW233623   4.482   1.712   3.853  0.8245 -0.1456 -0.1925
 9093SOL     OW33624   8.666   1.195   7.036 -0.4904 -0.2531  1.0588
 9093SOL    HW133625   8.610   1.140   7.091 -1.5470 -0.9892 -0.6735
 9093SOL    HW233626   8.755   1.171   7.062 -0.9434 -1.0238  2.0003
 9094SOL     OW33627   7.156   8.103   5.656  0.6627 -0.1413 -0.3346
 9094SOL    HW133628   7.138   8.035   5.590 -0.0583 -1.1694  0.8711
 9094SOL    HW233629   7.244   8.082   5.688  0.6984 -0.1211 -0.4203
 9095SOL     OW33630   4.674   1.724   1.214 -0.6245 -0.0673  0.6922
 9095SOL    HW133631   4.663   1.646   1.159 -0.4827 -1.0719  2.0572
 9095SOL    HW233632   4.585   1.745   1.243 -0.4711 -0.7624  1.7040
 9096SOL     OW33633   4.442   3.073   2.427  0.3810 -0.5454  0.2651
 9096SOL    HW133634   4.410   3.004   2.485 -0.0769 -1.4397 -1.0108
 9096SOL    HW233635   4.403   3.053   2.342 -0.0810  1.5312 -0.0620
 9097SOL     OW33636   9.115   1.351   5.903 -0.8463  0.2465  0.0396
 9097SOL    HW133637   9.068   1.271   5.880 -2.3461  0.9395  0.5854
 9097SOL    HW233638   9.182   1.322   5.966 -2.2498 -0.4243  1.3035
 9098SOL     OW33639   2.603   6.118   0.455 -0.7275  0.4515 -0.0981
 9098SOL    HW133640   2.628   6.084   0.541  1.6378  3.2342  0.4477
 9098SOL    HW233641   2.668   6.083   0.395  1.3907  3.2758  0.3793
 9099SOL     OW33642   6.471   4.228   0.424 -0.4108  0.4784  0.0904
 9099SOL    HW133643   6.521   4.294   0.376 -1.1539  1.2813  0.3884
 9099SOL    HW233644   6.453   4.269   0.509 -0.0927 -0.4778  0.6410
 9100SOL     OW33645   4.562   0.175   1.931  0.3855 -0.4664 -0.0831
 9100SOL    HW133646   4.529   0.200   2.017  1.1593  1.4533 -0.2831
 9100SOL    HW233647   4.610   0.094   1.946  1.6827  0.5402  1.5946
 9101SOL     OW33648   3.273   7.587   1.428 -0.2422  0.8146 -0.0181
 9101SOL    HW133649   3.263   7.663   1.371  1.9592  1.7708  0.7721
 9101SOL    HW233650   3.353   7.544   1.397 -1.7069 -1.5275 -0.7741
 9102SOL     OW33651   1.954   1.269   2.675  0.4976 -0.2563  0.2248
 9102SOL    HW133652   1.862   1.296   2.670 -0.2031 -1.9937  2.2424
 9102SOL    HW233653   1.997   1.315   2.602 -1.5591  2.1067  0.3947
 9103SOL     OW33654   5.372   7.167   0.075  0.3963 -0.3997  0.2257
 9103SOL    HW133655   5.297   7.112   0.052  0.6264 -0.7856  0.3838
 9103SOL    HW233656   5.340   7.256   0.065 -0.2834 -0.5504  0.8892
 9104SOL     OW33657   2.456   5.653   6.792 -0.8094  0.2778 -0.3322
 9104SOL    HW133658   2.508   5.614   6.722 -0.0832  0.1966  0.2455
 9104SOL    HW233659   2.439   5.580   6.852  0.6800  0.8396  0.8300
 9105SOL     OW33660   8.310   1.585   8.250  0.0997  0.3381 -0.2789
 9105SOL    HW133661   8.259   1.513   8.213  0.6227 -2.1680  3.3802
 9105SOL    HW233662   8.255   1.663   8.237 -2.0344 -1.2691 -1.4651
 9106SOL     OW33663   1.916   5.345   1.266  0.1277 -0.0970 -0.2313
 9106SOL    HW133664   1.937   5.252   1.260  0.7145 -0.1649  1.8616
 9106SOL    HW233665   1.951   5.372   1.351 -0.4395  1.9368 -0.5769
 9107SOL     OW33666   8.878   4.175   4.847 -0.3111 -0.2924  0.5488
 9107SOL    HW133667   8.814   4.124   4.798  0.2637  0.4683 -1.0765
 9107SOL    HW233668   8.871   4.143   4.937 -2.3786 -0.7856  0.2654
 9108SOL     OW33669   5.551   8.119   8.481  0.0759 -0.2903 -0.4531
 9108SOL    HW133670   5.623   8.136   8.419  1.8024 -0.6678  1.3364
 9108SOL    HW233671   5.506   8.204   8.488  2.3594  0.9232  0.7537
 9109SOL     OW33672   3.732   8.349   2.356 -0.4680 -0.1104  0.2035
 9109SOL    HW133673   3.667   8.282   2.334 -0.2831  0.2342 -1.5182
 9109SOL    HW233674   3.702   8.427   2.311  1.3199 -0.0404 -0.9853
 9110SOL     OW33675   3.994   4.447   7.592 -0.1272 -0.2331 -0.0603
 9110SOL    HW133676   3.941   4.428   7.669  1.4003 -0.8684  0.8817
 9110SOL    HW233677   4.028   4.535   7.606 -0.0952 -0.2295 -0.1540
 9111SOL     OW33678   5.537   0.788   0.472  0.3808  0.2550  0.5394
 9111SOL    HW133679   5.582   0.846   0.535  2.1541  0.6107 -0.9622
 9111SOL    HW233680   5.580   0.703   0.483 -1.7209 -0.6856  2.2160
 9112SOL     OW33681   5.147   2.126   1.696 -0.4471  0.4838 -0.2814
 9112SOL    HW133682   5.164   2.066   1.770 -1.2749  1.7663  1.0077
 9112SOL    HW233683   5.234   2.157   1.671 -0.2699  2.4881  2.3446
 9113SOL     OW33684   6.101   8.731   7.740  0.2276 -0.2558  0.3275
 9113SOL    HW133685   6.180   8.776   7.710  0.4984  1.0474  2.7826
 9113SOL    HW233686   6.109   8.729   7.835 -1.6425 -2.1530  0.5207
 9114SOL     OW33687   1.103   1.752   4.508 -0.2533 -0.4756  0.2519
 9114SOL    HW133688   1.047   1.823   4.476  2.7444  2.1996  0.4826
 9114SOL    HW233689   1.117   1.696   4.431 -0.0380  1.0596 -0.8716
 9115SOL     OW33690   7.857   3.997   3.362  0.1109  0.0352 -0.1516
 9115SOL    HW133691   7.847   4.084   3.399  1.7114 -0.0520  0.5767
 9115SOL    HW233692   7.768   3.963   3.356 -0.7981  2.5011 -2.5095
 9116SOL     OW33693   0.507   0.637   5.703 -0.2294 -0.3681  0.0300
 9116SOL    HW133694   0.496   0.555   5.750  2.5989 -0.7021  0.2753
 9116SOL    HW233695   0.569   0.617   5.632  0.6780  1.5384  0.2085
 9117SOL     OW33696   7.959   8.411   8.638 -0.1297  0.7188 -1.0897
 9117SOL    HW133697   7.898   8.422   8.712 -0.8184 -0.0761 -1.5133
 9117SOL    HW233698   8.001   8.496   8.628 -2.0531  1.6706 -1.5460
 9118SOL     OW33699   1.193   3.133   0.738  0.3008 -0.3566  0.1847
 9118SOL    HW133700   1.245   3.058   0.707  1.9006  0.8276 -0.1533
 9118SOL    HW233701   1.233   3.157   0.821  0.7851  1.0117 -0.4111
 9119SOL     OW33702   8.092   4.002   0.424  0.1078  0.5613  0.0123
 9119SOL    HW133703   8.116   3.947   0.499  0.2194  0.4564 -0.0996
 9119SOL    HW233704   8.142   4.083   0.437  0.2888  0.4621 -0.0571
 9120SOL     OW33705   6.074   8.657   3.371  0.4366  0.2165  0.6290
 9120SOL    HW133706   5.983   8.631   3.388  0.6632 -2.0036 -1.1003
 9120SOL    HW233707   6.075   8.679   3.278  1.5079  1.1272  0.8405
 9121SOL     OW33708   2.831   6.560   6.661 -0.1309  0.2287 -0.0505
 9121SOL    HW133709   2.858   6.469   6.646 -0.0070  0.2601 -0.0224
 9121SOL    HW233710   2.739   6.563   6.634 -0.4117 -0.1324  0.8280
 9122SOL     OW33711   1.822   3.846   2.125  0.0417  0.2115 -0.4965
 9122SOL    HW133712   1.794   3.906   2.194  0.2303  3.1056 -2.7547
 9122SOL    HW233713   1.898   3.801   2.163  1.0749  2.7723  0.7417
 9123SOL     OW33714   0.124   4.955   5.635  0.1151 -0.2950  0.0826
 9123SOL    HW133715   0.178   4.900   5.692  1.5210  1.1015  0.1590
 9123SOL    HW233716   0.044   4.971   5.685  0.4037 -0.8665  0.7428
 9124SOL     OW33717   2.268   8.465   4.249 -0.6761 -0.0753 -0.1747
 9124SOL    HW133718   2.216   8.456   4.329  0.6265  0.4644  0.7627
 9124SOL    HW233719   2.221   8.533   4.199  0.3577  2.2384  1.7601
 9125SOL     OW33720   3.009   7.020   8.804  0.1895 -0.1724  0.1820
 9125SOL    HW133721   3.094   7.014   8.760  1.5730  0.7090  2.5291
 9125SOL    HW233722   2.962   6.941   8.778  2.0997 -1.1478 -0.4704
 9126SOL     OW33723   0.210   2.061   7.666  0.2347  0.0362 -0.7899
 9126SOL    HW133724   0.301   2.079   7.644  0.8773 -3.4099 -1.4848
 9126SOL    HW233725   0.210   1.972   7.701 -2.6254  0.6314  1.0739
 9127SOL     OW33726   5.415   4.369   4.392 -0.1024  0.2493  0.1724
 9127SOL    HW133727   5.445   4.286   4.428  0.6684  0.6557  0.5109
 9127SOL    HW233728   5.485   4.395   4.332  0.6261  1.5897  1.5396
 9128SOL     OW33729   9.057   5.986   1.047  0.2890  0.1325 -0.2080
 9128SOL    HW133730   9.117   6.008   1.119 -0.3112 -1.3545  0.7764
 9128SOL    HW233731   8.992   5.928   1.087 -0.6167  0.0658 -1.7406
 9129SOL     OW33732   3.194   1.835   6.778 -0.5794 -0.3873  0.5710
 9129SOL    HW133733   3.136   1.910   6.788 -1.6880 -1.2842  1.1315
 9129SOL    HW233734   3.247   1.834   6.857 -0.4210 -0.0674  0.4664
 9130SOL     OW33735   5.979   4.446   7.462  0.6877 -0.4852  0.6581
 9130SOL    HW133736   5.925   4.517   7.495 -1.4667 -2.3119  1.3069
 9130SOL    HW233737   5.923   4.400   7.399  1.8832 -1.8065  0.5042
 9131SOL     OW33738   2.431   5.159   2.773  0.0419  0.1235 -0.3257
 9131SOL    HW133739   2.343   5.133   2.802 -0.1768  1.7552  0.6245
 9131SOL    HW233740   2.470   5.079   2.739 -1.1877 -1.0275  0.8537
 9132SOL     OW33741   2.129   0.946   3.227 -0.1732  0.0138 -0.2764
 9132SOL    HW133742   2.124   0.873   3.288 -0.3178  1.5423  1.6338
 9132SOL    HW233743   2.162   0.908   3.146  1.3139 -1.8810  1.1414
 9133SOL     OW33744   2.042   4.183   7.242 -0.4973  0.4059  0.1529
 9133SOL    HW133745   1.985   4.206   7.315 -0.3556 -0.6555  0.6330
 9133SOL    HW233746   2.115   4.244   7.249 -1.0112  1.0147  0.2447
 9134SOL     OW33747   7.613   7.003   7.323  0.0431 -0.2104  0.1083
 9134SOL    HW133748   7.561   7.078   7.292 -0.8526 -1.0278 -0.4632
 9134SOL    HW233749   7.587   6.991   7.414 -1.3363 -1.0129 -0.3506
 9135SOL     OW33750   3.131   3.372   6.209 -0.4384 -0.1188  0.0509
 9135SOL    HW133751   3.182   3.453   6.206 -0.5010 -0.0735  0.2009
 9135SOL    HW233752   3.193   3.304   6.184 -0.1415 -0.1459  0.8424
 9136SOL     OW33753   9.065   7.460   1.286  0.1430 -0.2693  0.0484
 9136SOL    HW133754   9.135   7.400   1.311 -0.0221  0.9607  4.1231
 9136SOL    HW233755   9.069   7.530   1.351 -2.9138  1.4936 -1.4570
 9137SOL     OW33756   0.768   1.807   0.772  0.4416  0.0295  0.5355
 9137SOL    HW133757   0.828   1.800   0.697  2.2978 -0.3643  1.9708
 9137SOL    HW233758   0.743   1.717   0.790  1.0791 -0.0302  1.1793
 9138SOL     OW33759   6.166   1.885   6.054  0.6517 -0.2650  0.0408
 9138SOL    HW133760   6.220   1.885   6.133  1.9942 -0.2522 -0.8448
 9138SOL    HW233761   6.076   1.888   6.087  1.0370 -2.9945  1.6590
 9139SOL     OW33762   3.798   6.512   4.010  0.0197  0.3176  0.1854
 9139SOL    HW133763   3.721   6.460   4.032 -1.0412  1.8614  0.2486
 9139SOL    HW233764   3.859   6.495   4.082 -1.2890  1.0809  1.5223
 9140SOL     OW33765   5.020   6.701   2.804 -0.4285  0.5119  0.6219
 9140SOL    HW133766   4.961   6.703   2.879 -1.3153  0.6160 -0.0604
 9140SOL    HW233767   4.998   6.619   2.759 -1.3431  1.4073 -0.6277
 9141SOL     OW33768   4.883   1.581   7.145  0.3296 -0.5524  0.2124
 9141SOL    HW133769   4.893   1.516   7.215  0.2737 -0.6067  0.1698
 9141SOL    HW233770   4.798   1.560   7.105  1.6350 -2.3785 -1.7827
 9142SOL     OW33771   1.386   1.059   3.860  0.2333  0.0677 -0.3051
 9142SOL    HW133772   1.349   1.063   3.771 -0.9001 -0.7542  0.1095
 9142SOL    HW233773   1.324   1.109   3.914  1.2674  1.1433 -0.0558
 9143SOL     OW33774   2.255   1.729   9.099  0.1849 -0.0765  0.1397
 9143SOL    HW133775   2.260   1.646   9.053  1.4797  1.0891 -1.9902
 9143SOL    HW233776   2.256   1.706   9.192 -0.3330 -2.4310 -0.3811
 9144SOL     OW33777   6.238   3.015   1.490  0.3425 -0.3228 -0.0993
 9144SOL    HW133778   6.169   2.951   1.507 -0.1530  0.3617  0.5271
 9144SOL    HW233779   6.211   3.093   1.538  0.5856  0.5985 -1.3901
 9145SOL     OW33780   0.460   3.790   4.035 -0.0686 -0.0048  0.0280
 9145SOL    HW133781   0.380   3.741   4.052 -0.2159 -0.1048 -0.9093
 9145SOL    HW233782   0.506   3.791   4.119  0.3270 -2.4153 -0.0899
 9146SOL     OW33783   1.925   2.714   7.909 -0.1681  0.6098 -0.5868
 9146SOL    HW133784   1.855   2.649   7.919 -0.2356  0.8700  0.7542
 9146SOL    HW233785   1.973   2.684   7.832  0.9120 -2.1270  0.9725
 9147SOL     OW33786   2.981   7.414   8.333  0.2518  0.0761  0.5121
 9147SOL    HW133787   2.979   7.448   8.422  1.0824  0.0577  0.5482
 9147SOL    HW233788   2.951   7.487   8.279  1.2993  0.6428  0.6636
 9148SOL     OW33789   2.292   4.714   9.154  0.0040  0.3594  0.6114
 9148SOL    HW133790   2.260   4.646   9.213  0.7890  0.9784  1.7866
 9148SOL    HW233791   2.355   4.669   9.098  1.3873  0.2925  2.1344
 9149SOL     OW33792   0.691   0.803   0.445 -0.0797 -0.1406  0.2336
 9149SOL    HW133793   0.736   0.839   0.369 -0.7299 -0.6406 -0.3987
 9149SOL    HW233794   0.685   0.876   0.506 -1.5480  0.8952 -1.0854
 9150SOL     OW33795   1.771   2.138   1.844  1.0715 -0.3038 -0.4284
 9150SOL    HW133796   1.709   2.112   1.912 -1.0602 -0.7941 -2.4397
 9150SOL    HW233797   1.833   2.196   1.890 -0.8742  0.2604  1.7118
 9151SOL     OW33798   6.964   7.669   6.655  0.4735 -1.0733 -0.5065
 9151SOL    HW133799   6.898   7.640   6.717  0.2891 -1.4579 -0.8724
 9151SOL    HW233800   7.030   7.713   6.708 -0.7233  0.5215 -0.2806
 9152SOL     OW33801   8.321   8.318   3.128  0.7528 -0.0001 -0.3257
 9152SOL    HW133802   8.252   8.295   3.189  0.2405  0.5226 -0.6859
 9152SOL    HW233803   8.323   8.246   3.065 -0.3170  0.5294 -1.0123
 9153SOL     OW33804   0.010   5.498   1.569  0.0906  0.1897 -0.2264
 9153SOL    HW133805   0.103   5.498   1.549  0.5082 -0.7034  1.5318
 9153SOL    HW233806  -0.020   5.410   1.547 -0.0847  0.1270  0.2504
 9154SOL     OW33807   2.597   4.453   2.139  0.0430  0.1752  0.2441
 9154SOL    HW133808   2.533   4.519   2.113  0.4031  0.3202 -0.3172
 9154SOL    HW233809   2.673   4.470   2.082 -0.1456 -1.2142 -0.4624
 9155SOL     OW33810   6.179   5.757   8.611 -0.1751  0.0521 -0.7985
 9155SOL    HW133811   6.182   5.735   8.518 -0.2965 -0.5030 -0.6732
 9155SOL    HW233812   6.173   5.673   8.656  2.8285  0.0911 -0.1217
 9156SOL     OW33813   4.835   5.713   4.980 -0.4013 -0.0984  0.0824
 9156SOL    HW133814   4.788   5.633   5.002  1.9590 -1.8481 -0.8530
 9156SOL    HW233815   4.838   5.762   5.062 -0.0161 -1.9984  1.2754
 9157SOL     OW33816   7.782   3.945   9.241 -0.1996 -0.6684 -0.1771
 9157SOL    HW133817   7.801   3.951   9.147 -1.3287 -0.7971 -0.4220
 9157SOL    HW233818   7.864   3.912   9.279  1.7568  3.1771 -0.5321
 9158SOL     OW33819   5.937   5.324   5.864 -0.5823 -0.1612  0.6858
 9158SOL    HW133820   5.914   5.332   5.771 -1.3109 -1.3836  0.7435
 9158SOL    HW233821   5.856   5.340   5.910  0.1700  2.4844  1.2646
 9159SOL     OW33822   0.363   1.026   6.382 -0.1431  0.1715  0.1539
 9159SOL    HW133823   0.378   1.008   6.475 -0.6530  1.4180  0.4945
 9159SOL    HW233824   0.285   0.974   6.360 -0.5285  0.5332  0.6478
 9160SOL     OW33825   6.752   1.460   5.629 -0.2651  0.2986 -0.6289
 9160SOL    HW133826   6.706   1.447   5.712  0.0351  0.0143 -0.5063
 9160SOL    HW233827   6.784   1.373   5.605  0.2352  0.4984 -0.6971
 9161SOL     OW33828   6.007   6.817   7.257  0.0844 -0.3744 -0.5720
 9161SOL    HW133829   6.091   6.863   7.257  0.2654 -0.6556  0.9152
 9161SOL    HW233830   5.998   6.783   7.346 -1.6313 -0.3278 -0.6938
 9162SOL     OW33831   2.129   5.626   0.336  0.0615 -0.5008  0.4296
 9162SOL    HW133832   2.111   5.655   0.426 -1.0475  1.5720 -0.3729
 9162SOL    HW233833   2.042   5.611   0.298  0.4638 -0.2800 -0.6166
 9163SOL     OW33834   0.106   7.711   7.509 -0.3266 -0.3349  0.3724
 9163SOL    HW133835   0.144   7.642   7.563 -1.4496 -3.3160 -2.3063
 9163SOL    HW233836   0.160   7.712   7.430 -2.1983 -0.5169 -0.9872
 9164SOL     OW33837   5.459   8.845   3.111  0.3438 -0.3987  0.2270
 9164SOL    HW133838   5.416   8.806   3.035  0.1935  2.3805 -1.2590
 9164SOL    HW233839   5.388   8.875   3.167  0.4290 -0.5371  0.4110
 9165SOL     OW33840   2.488   4.622   4.807 -0.2806  0.1366  0.0588
 9165SOL    HW133841   2.510   4.635   4.899  0.1364  0.0181 -0.0212
 9165SOL    HW233842   2.393   4.634   4.803 -0.2602  0.4537  0.4474
 9166SOL     OW33843   5.279   3.170   3.423 -0.3159 -0.0335 -0.3696
 9166SOL    HW133844   5.321   3.142   3.341  0.2486 -0.3742  0.0286
 9166SOL    HW233845   5.192   3.130   3.421  0.0005 -0.7184 -0.4207
 9167SOL     OW33846   4.671   7.976   8.872  0.3046  0.2096  0.1873
 9167SOL    HW133847   4.749   7.922   8.881  0.0157  0.0015  1.9141
 9167SOL    HW233848   4.625   7.940   8.796  0.8147 -1.0653  0.4557
 9168SOL     OW33849   0.113   6.844   5.451  0.3982  0.3965  0.4380
 9168SOL    HW133850   0.130   6.915   5.513  2.7731  0.3579 -0.0746
 9168SOL    HW233851   0.170   6.772   5.481  0.3837 -0.1728 -0.8510
 9169SOL     OW33852   6.483   3.796   1.630 -0.3203 -0.0399  0.0787
 9169SOL    HW133853   6.566   3.778   1.586 -0.2267  0.6859 -0.0550
 9169SOL    HW233854   6.446   3.710   1.648 -0.5001 -0.3613 -1.6538
 9170SOL     OW33855   7.018   4.398   2.558 -0.1100 -0.3865 -0.1000
 9170SOL    HW133856   6.940   4.445   2.588  0.3894  0.5841 -0.2630
 9170SOL    HW233857   7.058   4.457   2.494 -0.2325 -1.6748 -1.4174
 9171SOL     OW33858   0.924   0.823   8.386  0.7716 -0.0502 -0.4542
 9171SOL    HW133859   0.978   0.887   8.434  1.0596 -0.8548  0.3153
 9171SOL    HW233860   0.841   0.869   8.371  0.4425  0.0538  1.3505
 9172SOL     OW33861   8.228   1.982   6.701  0.4170 -0.2937  0.5935
 9172SOL    HW133862   8.193   2.065   6.668 -1.5982 -1.6981 -1.0399
 9172SOL    HW233863   8.225   1.991   6.796  0.1712  1.4822  0.4478
 9173SOL     OW33864   6.878   0.960   3.656  0.2255  0.1223  0.1908
 9173SOL    HW133865   6.921   1.038   3.624 -2.1384  0.8589 -1.4230
 9173SOL    HW233866   6.900   0.892   3.593 -0.4045  0.3420 -0.2773
 9174SOL     OW33867   2.229   7.822   2.471  0.2970  0.0551 -0.4857
 9174SOL    HW133868   2.251   7.914   2.486 -0.1374  0.1364 -0.3327
 9174SOL    HW233869   2.165   7.823   2.401  0.0905 -0.1098 -0.3037
 9175SOL     OW33870   0.030   1.784   5.961 -0.0078 -0.4100  0.0398
 9175SOL    HW133871  -0.056   1.744   5.950 -0.1358  0.3314 -1.9859
 9175SOL    HW233872   0.077   1.724   6.019 -0.9617 -2.2545 -1.0343
 9176SOL     OW33873   3.201   5.811   8.992  0.2781 -0.5447  0.1252
 9176SOL    HW133874   3.202   5.715   8.991 -1.0446 -0.5813 -0.0069
 9176SOL    HW233875   3.291   5.836   9.011  0.8925 -1.7965 -0.9471
 9177SOL     OW33876   0.785   1.899   5.375 -0.2240 -0.1834  0.4369
 9177SOL    HW133877   0.825   1.813   5.364 -1.3984 -0.7476  0.3191
 9177SOL    HW233878   0.701   1.881   5.417 -0.2275  0.9740  0.9731
 9178SOL     OW33879   0.075   6.970   7.473 -0.1808  0.9884 -0.4464
 9178SOL    HW133880   0.080   6.999   7.564 -0.4410 -0.1258 -0.0632
 9178SOL    HW233881   0.015   6.895   7.475 -0.3178  1.0585 -1.5620
 9179SOL     OW33882   2.942   8.950   8.382  0.0137  0.2252  0.7563
 9179SOL    HW133883   2.902   9.002   8.312 -0.7192  0.4827  1.3471
 9179SOL    HW233884   2.933   9.005   8.460 -2.1763 -1.3506  1.7264
 9180SOL     OW33885   5.797   0.260   5.221 -0.5109  0.7986  0.3141
 9180SOL    HW133886   5.872   0.320   5.215  1.5058 -1.6480 -1.0308
 9180SOL    HW233887   5.748   0.291   5.297  2.2630  2.1516  1.7283
 9181SOL     OW33888   1.338   8.810   2.568  0.6159  0.0569 -0.1534
 9181SOL    HW133889   1.373   8.723   2.588 -1.2532 -0.9777 -1.1627
 9181SOL    HW233890   1.398   8.844   2.501  1.6812 -0.1884  0.6413
 9182SOL     OW33891   1.377   2.711   4.927  0.3786  0.1509  0.0939
 9182SOL    HW133892   1.416   2.701   4.841  2.0106  3.4104  0.3257
 9182SOL    HW233893   1.402   2.631   4.974  0.4136 -1.1614 -2.0425
 9183SOL     OW33894   3.648   3.077   8.485 -0.2238  0.0636 -0.0950
 9183SOL    HW133895   3.712   3.123   8.539 -0.6825  1.1742 -0.4818
 9183SOL    HW233896   3.570   3.071   8.540 -0.0766 -0.5273  0.0594
 9184SOL     OW33897   4.877   7.496   3.935 -0.0804  0.1798 -0.0150
 9184SOL    HW133898   4.949   7.552   3.964  0.1855 -0.8379  1.3817
 9184SOL    HW233899   4.868   7.515   3.842  2.5404 -0.2561 -0.4214
 9185SOL     OW33900   8.566   2.550   2.527  0.2654  0.1375  0.5916
 9185SOL    HW133901   8.487   2.597   2.498 -0.3600 -1.1760  0.0364
 9185SOL    HW233902   8.534   2.490   2.594  0.2222 -2.2226 -1.3717
 9186SOL     OW33903   5.375   3.345   4.387  0.1340  0.3277 -0.2358
 9186SOL    HW133904   5.370   3.323   4.480 -1.1588  0.4266 -0.2566
 9186SOL    HW233905   5.443   3.288   4.352 -0.7982 -1.2165  0.3804
 9187SOL     OW33906   4.753   5.916   0.938 -0.2721 -0.7666  0.0163
 9187SOL    HW133907   4.806   5.859   0.882 -1.4612 -0.0044 -2.0009
 9187SOL    HW233908   4.676   5.864   0.958 -0.6701 -0.4271 -0.5875
 9188SOL     OW33909   3.526   4.566   6.189 -0.0513  0.3664  0.5005
 9188SOL    HW133910   3.481   4.650   6.197  0.2547  0.3630  2.8967
 9188SOL    HW233911   3.456   4.503   6.176 -0.3453  0.8660 -0.4713
 9189SOL     OW33912   8.967   3.082   5.847  0.0322  0.1194  0.1648
 9189SOL    HW133913   8.962   3.002   5.794  1.4109 -0.0010  0.1826
 9189SOL    HW233914   9.046   3.126   5.817  0.6121  0.2665  1.8269
 9190SOL     OW33915   7.309   0.562   8.557 -0.5669 -0.0439  0.0992
 9190SOL    HW133916   7.402   0.586   8.557 -0.2769 -1.0773  0.4748
 9190SOL    HW233917   7.262   0.643   8.538  0.3666  0.6843  0.8257
 9191SOL     OW33918   2.311   8.873   0.860  0.1780  0.0621 -0.4574
 9191SOL    HW133919   2.231   8.826   0.837 -0.3515 -0.4940  2.1919
 9191SOL    HW233920   2.361   8.811   0.913  1.0895  1.3329  0.2342
 9192SOL     OW33921   0.786   1.727   3.511 -0.1238 -0.0904 -0.3986
 9192SOL    HW133922   0.874   1.763   3.518  0.0168 -0.4897 -0.0606
 9192SOL    HW233923   0.728   1.803   3.510  0.0369  0.1250  2.0421
 9193SOL     OW33924   6.810   8.776   8.119  0.2152 -0.1567  0.0183
 9193SOL    HW133925   6.725   8.811   8.144  0.4099  1.9443 -1.9652
 9193SOL    HW233926   6.874   8.824   8.172  0.3036  0.3717 -0.5515
 9194SOL     OW33927   1.153   4.025   8.411  0.4094  0.7800  0.0178
 9194SOL    HW133928   1.076   4.063   8.369  0.4217  0.3538 -0.3950
 9194SOL    HW233929   1.127   4.010   8.502 -0.0899  0.3475 -0.1977
 9195SOL     OW33930   3.215   2.933   6.069  0.0801 -0.1520 -0.2024
 9195SOL    HW133931   3.175   2.902   6.150  1.5114 -1.5629  0.0212
 9195SOL    HW233932   3.165   3.011   6.046  0.8225  1.4618  3.0466
 9196SOL     OW33933   1.760   7.974   4.516  0.6105  0.5107  0.0505
 9196SOL    HW133934   1.841   8.023   4.524  0.6335  0.5163 -0.2181
 9196SOL    HW233935   1.781   7.901   4.458  0.2134  0.9682 -0.6833
 9197SOL     OW33936   0.143   1.359   4.053 -0.0499 -0.1426  0.2429
 9197SOL    HW133937   0.048   1.363   4.041 -0.3896  0.8907  2.6697
 9197SOL    HW233938   0.177   1.432   4.002 -0.6253 -0.0934 -0.0753
 9198SOL     OW33939   3.699   8.242   4.853  0.5689  0.3582 -0.3437
 9198SOL    HW133940   3.680   8.286   4.936  0.2839 -0.5626  0.0861
 9198SOL    HW233941   3.656   8.157   4.860  0.8004  0.1451 -1.3162
 9199SOL     OW33942   5.095   4.560   0.193  0.1613  0.1351  0.8863
 9199SOL    HW133943   5.105   4.654   0.181  1.1147  0.0241  0.7941
 9199SOL    HW233944   5.004   4.549   0.221 -0.1731  1.0072  0.1695
 9200SOL     OW33945   7.607   3.054   6.165  0.2848 -0.1147  0.0491
 9200SOL    HW133946   7.562   3.054   6.081 -0.3883 -0.6012  0.3950
 9200SOL    HW233947   7.694   3.019   6.145  0.0212 -0.5419 -0.3962
 9201SOL     OW33948   2.352   4.538   0.522 -0.4660 -0.1088 -0.1934
 9201SOL    HW133949   2.427   4.585   0.557 -0.7182  1.4400 -1.6509
 9201SOL    HW233950   2.389   4.468   0.469 -0.0785 -0.3103  0.3352
 9202SOL     OW33951   7.276   3.981   6.266 -0.0984  0.2764  0.1877
 9202SOL    HW133952   7.291   4.017   6.178  1.1205 -1.9868 -0.6084
 9202SOL    HW233953   7.207   3.916   6.253 -0.2332  0.2514  1.0114
 9203SOL     OW33954   3.641   6.942   7.593 -0.2712  0.6495  0.1282
 9203SOL    HW133955   3.573   6.878   7.616  0.2797  0.9666  3.1776
 9203SOL    HW233956   3.604   7.026   7.620  0.9360  0.9336  0.9782
 9204SOL     OW33957   1.769   3.327   0.498  0.4823  0.0009  0.0815
 9204SOL    HW133958   1.821   3.291   0.570  0.9269 -0.3247 -0.4004
 9204SOL    HW233959   1.679   3.308   0.522  0.7018 -1.3567 -0.1180
 9205SOL     OW33960   4.594   0.552   3.533 -0.0526 -0.1305 -0.4866
 9205SOL    HW133961   4.685   0.566   3.506  0.5025  0.1159  1.4061
 9205SOL    HW233962   4.543   0.600   3.468  1.1955  0.3040 -1.1863
 9206SOL     OW33963   6.381   1.215   1.465  0.1447  0.1653 -0.2213
 9206SOL    HW133964   6.387   1.202   1.560 -1.6839  2.7145  0.3576
 9206SOL    HW233965   6.422   1.300   1.450  1.4271 -0.6851 -1.9668
 9207SOL     OW33966   8.729   7.703   1.209  0.7622 -0.0940  0.3269
 9207SOL    HW133967   8.764   7.674   1.125 -0.6909 -2.0466  0.3264
 9207SOL    HW233968   8.635   7.683   1.204  0.5954  0.0334  2.2851
 9208SOL     OW33969   6.405   4.234   8.172 -0.0104 -0.0356 -0.0403
 9208SOL    HW133970   6.309   4.234   8.170 -0.0712 -2.5197 -0.6863
 9208SOL    HW233971   6.430   4.181   8.096  1.6940 -3.0585  2.4095
 9209SOL     OW33972   1.165   1.454   7.107  0.5904 -0.0146  0.0909
 9209SOL    HW133973   1.228   1.521   7.079 -0.7504  1.8412  1.2448
 9209SOL    HW233974   1.080   1.491   7.084 -0.3209 -0.2940  2.6634
 9210SOL     OW33975   6.175   5.403   4.727 -0.1706 -0.1201 -0.0446
 9210SOL    HW133976   6.204   5.353   4.650  1.4498  0.5364  0.1166
 9210SOL    HW233977   6.227   5.483   4.724  0.3966 -0.3669  2.1057
 9211SOL     OW33978   9.073   2.465   0.464 -0.1038 -0.1230 -0.5852
 9211SOL    HW133979   9.081   2.505   0.378  1.0792 -0.4070 -0.6193
 9211SOL    HW233980   9.145   2.401   0.468 -0.5872 -0.6335  0.3299
 9212SOL     OW33981   4.402   8.481   2.314 -0.2339 -0.9756 -0.3758
 9212SOL    HW133982   4.456   8.474   2.236  1.3427  1.2736  0.3879
 9212SOL    HW233983   4.315   8.506   2.282  0.1599 -0.9616 -1.4507
 9213SOL     OW33984   3.140   5.111   6.382 -0.1979  0.2530 -0.3031
 9213SOL    HW133985   3.055   5.125   6.425 -1.0303  0.3022 -1.8808
 9213SOL    HW233986   3.200   5.169   6.428 -1.3785  1.4088 -0.1693
 9214SOL     OW33987   2.517   5.389   0.227  0.3866 -0.6332  0.2531
 9214SOL    HW133988   2.492   5.324   0.162  3.2219 -1.4053 -0.2257
 9214SOL    HW233989   2.480   5.471   0.194  2.0488 -0.9178 -2.6652
 9215SOL     OW33990   5.156   2.596   4.778 -0.0064  0.2234  0.0648
 9215SOL    HW133991   5.198   2.511   4.794  0.7174  0.8599  1.8900
 9215SOL    HW233992   5.064   2.582   4.800  0.0406 -0.1765  0.0102
 9216SOL     OW33993   2.511   7.135   4.742  0.3863 -0.0211  0.2680
 9216SOL    HW133994   2.574   7.063   4.747  0.6267  0.0599 -1.0970
 9216SOL    HW233995   2.426   7.093   4.756  0.6723 -0.2168  1.5686
 9217SOL     OW33996   6.479   5.482   7.468 -0.0558 -0.5579  0.2502
 9217SOL    HW133997   6.461   5.396   7.430  0.6252 -1.0003  0.8998
 9217SOL    HW233998   6.502   5.464   7.560  0.0118  0.3191  0.4174
 9218SOL     OW33999   8.006   7.182   8.869  0.6097  0.4804  0.7103
 9218SOL    HW134000   8.088   7.148   8.834  0.2010  0.0196  0.1764
 9218SOL    HW234001   8.032   7.236   8.943  1.4684  1.1439 -0.0494
 9219SOL     OW34002   7.689   1.026   6.370 -0.1434  0.6544  0.0204
 9219SOL    HW134003   7.783   1.043   6.364  0.5515 -2.5106  0.3140
 9219SOL    HW234004   7.661   1.010   6.280  0.0451 -0.3187  0.1265
 9220SOL     OW34005   8.667   0.404   7.683  0.0283  0.6392  0.8703
 9220SOL    HW134006   8.670   0.316   7.722 -1.0269  0.1973  0.0037
 9220SOL    HW234007   8.660   0.463   7.758  1.3421  0.0440  1.5032
 9221SOL     OW34008   6.270   6.324   6.902  0.2666 -0.6225  0.2533
 9221SOL    HW134009   6.256   6.251   6.842 -0.5913  1.2540 -1.9775
 9221SOL    HW234010   6.337   6.377   6.860 -1.6162  1.6770 -0.0570
 9222SOL     OW34011   6.409   4.499   4.043 -0.1675 -0.7684 -0.2651
 9222SOL    HW134012   6.324   4.543   4.050 -0.4318 -1.2097 -0.6633
 9222SOL    HW234013   6.394   4.429   3.980  0.2710 -1.3720  0.2920
 9223SOL     OW34014   7.632   1.642   1.598 -0.2971  0.0550  0.0966
 9223SOL    HW134015   7.724   1.657   1.622 -0.0640  0.5731 -1.0560
 9223SOL    HW234016   7.603   1.574   1.658  1.2450 -1.1060 -0.3872
 9224SOL     OW34017   2.636   5.642   1.360 -0.2997  0.1965  0.7917
 9224SOL    HW134018   2.580   5.608   1.290 -0.0993  1.3013  0.0642
 9224SOL    HW234019   2.687   5.567   1.389 -0.6737 -0.3638  0.0223
 9225SOL     OW34020   1.869   1.033   3.294  0.3873 -0.4297  0.0788
 9225SOL    HW134021   1.863   1.128   3.289 -1.9222 -0.5665 -1.3854
 9225SOL    HW234022   1.955   1.012   3.257  0.3579  1.0213 -0.8779
 9226SOL     OW34023   6.518   6.478   5.374  0.0283  0.7718  0.5267
 9226SOL    HW134024   6.589   6.541   5.367 -0.4367  1.2213 -0.3059
 9226SOL    HW234025   6.561   6.393   5.375  0.5920  1.0525  0.4678
 9227SOL     OW34026   4.879   3.187   8.936 -0.5187 -0.0314 -0.2568
 9227SOL    HW134027   4.877   3.110   8.879  0.1400 -0.1150 -0.1722
 9227SOL    HW234028   4.815   3.247   8.897  0.7395  0.3967 -1.8022
 9228SOL     OW34029   2.529   4.072   0.517 -0.6731  0.1371 -0.0295
 9228SOL    HW134030   2.453   4.014   0.521 -1.2376  0.5974 -2.4097
 9228SOL    HW234031   2.492   4.159   0.503  0.1782  0.0112 -4.4193
 9229SOL     OW34032   7.016   2.174   3.613  0.0064 -0.4524  0.4788
 9229SOL    HW134033   6.932   2.205   3.646 -1.7516 -0.0452 -3.7460
 9229SOL    HW234034   7.081   2.216   3.669 -2.5375  1.2322  2.3964
 9230SOL     OW34035   3.034   5.711   8.723  0.4503  0.1173  0.5490
 9230SOL    HW134036   3.034   5.795   8.768  0.0820  0.7856 -0.6486
 9230SOL    HW234037   2.981   5.653   8.778 -0.3836  1.0382  0.7374
 9231SOL     OW34038   4.272   7.179   3.909 -0.1567  0.1271  0.3411
 9231SOL    HW134039   4.274   7.088   3.881 -0.1851  0.3584 -0.4235
 9231SOL    HW234040   4.316   7.179   3.994  0.2303 -0.5298  0.1446
 9232SOL     OW34041   7.405   1.803   7.951 -0.3316 -0.1084  0.5405
 9232SOL    HW134042   7.492   1.783   7.916  0.2547 -0.0016  1.8984
 9232SOL    HW234043   7.385   1.891   7.918 -0.3879 -0.5347 -0.6154
 9233SOL     OW34044   0.665   0.675   2.335 -0.9728  0.0389  0.0100
 9233SOL    HW134045   0.583   0.676   2.285 -0.6944  1.0601 -0.4440
 9233SOL    HW234046   0.734   0.687   2.269 -0.4824 -0.3802  0.4345
 9234SOL     OW34047   1.293   4.918   1.758  0.0888 -0.0921  0.2282
 9234SOL    HW134048   1.198   4.925   1.763  0.0274 -1.2000  1.1002
 9234SOL    HW234049   1.318   4.871   1.838  0.9810 -3.1993 -1.6829
 9235SOL     OW34050   1.701   0.015   2.286  0.1358  0.4120 -0.1083
 9235SOL    HW134051   1.657   0.072   2.350  0.4774  1.1941 -0.5594
 9235SOL    HW234052   1.653   0.030   2.204 -0.2179 -0.4915 -0.0784
 9236SOL     OW34053   7.729   2.941   3.161 -0.3450 -0.5312  0.7016
 9236SOL    HW134054   7.642   2.929   3.124 -1.0737  0.5253  1.9683
 9236SOL    HW234055   7.742   2.864   3.217  0.6299 -1.9676 -1.3982
 9237SOL     OW34056   1.636   7.280   8.024 -0.1189 -0.1174  0.4547
 9237SOL    HW134057   1.587   7.234   8.092 -0.7755 -0.4214 -0.2032
 9237SOL    HW234058   1.577   7.349   7.994  0.5243  0.6108  0.8271
 9238SOL     OW34059   7.606   4.874   5.254  0.0590  0.5165  0.1919
 9238SOL    HW134060   7.521   4.882   5.297 -0.1684 -1.6904  0.2824
 9238SOL    HW234061   7.667   4.858   5.325  0.1414 -0.2759 -0.0462
 9239SOL     OW34062   2.986   5.918   8.869 -0.0781 -0.2353 -0.0465
 9239SOL    HW134063   3.057   5.881   8.921  0.6408 -0.2664 -1.0262
 9239SOL    HW234064   2.971   6.005   8.907  0.9997  0.0745 -0.3047
 9240SOL     OW34065   2.281   5.539   4.314  0.2517  0.1686  0.3963
 9240SOL    HW134066   2.221   5.611   4.332  0.1736  0.2332 -0.0980
 9240SOL    HW234067   2.241   5.463   4.356 -0.4808  0.0907 -0.3974
 9241SOL     OW34068   7.408   0.191   4.722  0.2192 -0.2454 -0.2086
 9241SOL    HW134069   7.485   0.171   4.776  0.4347  2.4259  0.6104
 9241SOL    HW234070   7.445   0.222   4.639 -0.0797 -2.1646 -1.0999
 9242SOL     OW34071   7.751   7.581   8.269 -0.0364  0.0568 -0.3638
 9242SOL    HW134072   7.822   7.623   8.220 -0.1529  0.1822 -0.4276
 9242SOL    HW234073   7.775   7.594   8.361 -0.8307  1.6597 -0.3295
 9243SOL     OW34074   0.793   2.176   8.070  0.2484 -0.0735  0.2437
 9243SOL    HW134075   0.823   2.104   8.015  1.4585  1.4437 -1.2020
 9243SOL    HW234076   0.780   2.249   8.009 -1.5099  0.8031  1.5551
 9244SOL     OW34077   6.530   6.319   4.236 -0.2799 -0.1450  0.2309
 9244SOL    HW134078   6.545   6.302   4.143  0.9295  1.3763  0.1146
 9244SOL    HW234079   6.605   6.281   4.281  1.0695  2.2847  0.1991
 9245SOL     OW34080   4.293   4.840   7.808  0.7147  0.3161 -0.2606
 9245SOL    HW134081   4.213   4.831   7.860  0.6727  1.4727 -0.1071
 9245SOL    HW234082   4.270   4.902   7.739  1.1044 -0.3455 -1.0088
 9246SOL     OW34083   8.711   8.470   7.285  0.1707  0.0455  0.2254
 9246SOL    HW134084   8.779   8.407   7.310 -1.0893 -1.1216  0.8660
 9246SOL    HW234085   8.752   8.555   7.295  2.0005 -0.6656 -0.8474
 9247SOL     OW34086   7.229   4.242   8.475 -0.1331 -0.3435  0.1584
 9247SOL    HW134087   7.149   4.193   8.457  0.1038 -0.7963  0.3466
 9247SOL    HW234088   7.256   4.277   8.390 -0.8231  0.2613  0.1759
 9248SOL     OW34089   1.897   2.151   7.924  0.2780  0.2672 -0.0713
 9248SOL    HW134090   1.955   2.205   7.871  2.2707 -1.4259  0.2564
 9248SOL    HW234091   1.812   2.194   7.917  1.2347  2.0812 -1.7104
 9249SOL     OW34092   5.675   8.589   8.584  0.1532  0.6709 -0.3683
 9249SOL    HW134093   5.633   8.552   8.507  1.3700  1.2068 -1.3301
 9249SOL    HW234094   5.691   8.514   8.642  1.2697 -0.1284 -1.6485
 9250SOL     OW34095   4.886   4.585   7.964  0.3415  0.1013  0.1431
 9250SOL    HW134096   4.941   4.508   7.978  0.2245 -0.2088 -1.0308
 9250SOL    HW234097   4.811   4.571   8.022 -0.2774 -1.2888 -0.9264
 9251SOL     OW34098   5.643   5.125   5.881  0.4289  0.0676  0.0989
 9251SOL    HW134099   5.582   5.139   5.809 -0.1993  0.1967  0.6450
 9251SOL    HW234100   5.645   5.209   5.928  0.3498 -0.2085  0.5975
 9252SOL     OW34101   7.374   1.507   5.990 -0.6348 -0.1543  0.0633
 9252SOL    HW134102   7.339   1.518   5.902  0.1390 -0.1662 -0.2539
 9252SOL    HW234103   7.449   1.448   5.979  1.5419  2.4245  0.2097
 9253SOL     OW34104   7.197   0.703   9.197 -0.0337  0.2552  0.5166
 9253SOL    HW134105   7.135   0.713   9.125 -0.5726 -2.9321  0.3817
 9253SOL    HW234106   7.270   0.653   9.159  1.3485  1.5214  1.3862
 9254SOL     OW34107   8.946   8.243   5.385  0.5519 -0.0997  0.4976
 9254SOL    HW134108   8.883   8.203   5.445 -0.0344 -1.0073 -0.6613
 9254SOL    HW234109   8.920   8.335   5.380 -1.8638 -0.7814 -1.2811
 9255SOL     OW34110   5.190   8.200   1.718  0.4678 -0.0882 -0.2301
 9255SOL    HW134111   5.145   8.179   1.636  2.0444 -0.0112 -1.1445
 9255SOL    HW234112   5.189   8.295   1.723 -0.8734 -0.1056  0.6045
 9256SOL     OW34113   7.450   4.611   1.173 -0.1436 -0.6362  0.3780
 9256SOL    HW134114   7.381   4.677   1.168  0.1132 -0.3895  0.0329
 9256SOL    HW234115   7.436   4.556   1.096 -2.9608 -3.6236  2.6976
 9257SOL     OW34116   5.107   2.220   6.555 -0.3596 -1.1228 -0.1823
 9257SOL    HW134117   5.183   2.270   6.523 -0.5001  0.0956  1.2351
 9257SOL    HW234118   5.140   2.176   6.633 -1.5011  0.9654  1.5997
 9258SOL     OW34119   4.630   8.154   2.887 -0.3129 -0.4452  0.3875
 9258SOL    HW134120   4.655   8.239   2.850  0.6530 -0.1884  1.5883
 9258SOL    HW234121   4.693   8.139   2.957 -0.9347 -1.8182  0.6719
 9259SOL     OW34122   3.241   3.823   1.134 -0.2786  0.2421 -0.2214
 9259SOL    HW134123   3.225   3.841   1.227  0.5862 -0.3990  0.0701
 9259SOL    HW234124   3.230   3.728   1.126  1.7915 -0.0392 -0.2844
 9260SOL     OW34125   5.450   5.919   0.994 -0.2907 -0.1013 -0.0688
 9260SOL    HW134126   5.360   5.889   1.005 -0.1647 -0.3297  0.3912
 9260SOL    HW234127   5.463   5.921   0.899 -0.7461 -0.1666 -0.1365
 9261SOL     OW34128   1.251   0.467   2.788  0.4513 -0.2340 -0.0397
 9261SOL    HW134129   1.183   0.427   2.842 -1.5773  1.5905 -1.1236
 9261SOL    HW234130   1.288   0.535   2.845 -0.4080  0.4510 -0.2759
 9262SOL     OW34131   3.153   5.139   8.078  0.5033 -0.7974 -0.2227
 9262SOL    HW134132   3.166   5.222   8.033 -0.7351 -0.3990  0.1153
 9262SOL    HW234133   3.215   5.079   8.036 -0.1737 -0.2974 -2.0292
 9263SOL     OW34134   2.189   3.728   4.518 -0.3015  0.6166  0.0996
 9263SOL    HW134135   2.252   3.781   4.568 -0.6934  0.3324  0.9056
 9263SOL    HW234136   2.134   3.688   4.584  0.1392 -1.0122 -0.4715
 9264SOL     OW34137   4.447   4.884   0.925 -0.2042 -0.2144  0.1949
 9264SOL    HW134138   4.426   4.927   0.842 -1.9202  0.1993  0.8014
 9264SOL    HW234139   4.378   4.820   0.936  0.0062 -0.2607  1.3160
 9265SOL     OW34140   1.294   2.073   4.352 -0.3786 -0.0066 -0.0476
 9265SOL    HW134141   1.246   2.024   4.418 -0.7122 -0.0417 -0.3100
 9265SOL    HW234142   1.232   2.142   4.324 -0.1508  0.1626 -0.1375
 9266SOL     OW34143   0.134   7.172   1.069  0.1732 -0.6586  0.2948
 9266SOL    HW134144   0.090   7.223   1.137  2.2280  2.1602 -0.2938
 9266SOL    HW234145   0.227   7.179   1.090  0.6536 -3.1175 -0.6435
 9267SOL     OW34146   4.462   0.839   7.806 -0.0780 -0.0701  0.1014
 9267SOL    HW134147   4.462   0.832   7.710 -0.1834  0.4510  0.0611
 9267SOL    HW234148   4.471   0.933   7.823  1.5505 -0.2945  0.6171
 9268SOL     OW34149   7.958   2.697   0.706 -1.0775 -0.5299  0.3865
 9268SOL    HW134150   7.987   2.608   0.726  0.7457 -0.1135 -0.1744
 9268SOL    HW234151   7.905   2.687   0.627  1.9827 -0.8352 -1.8205
 9269SOL     OW34152   5.921   4.364   4.781 -0.3960  0.3485 -0.1783
 9269SOL    HW134153   5.927   4.346   4.875  0.5732  0.3882 -0.2241
 9269SOL    HW234154   5.921   4.278   4.740  0.7109  0.3420 -0.2075
 9270SOL     OW34155   5.784   2.191   5.266 -0.4816  0.3809 -0.0870
 9270SOL    HW134156   5.728   2.217   5.339  1.4272  3.1274  0.5532
 9270SOL    HW234157   5.860   2.150   5.307 -0.1557  0.4148 -0.6411
 9271SOL     OW34158   5.716   0.091   9.006 -0.1738  0.7267  0.3207
 9271SOL    HW134159   5.664   0.053   8.936 -0.3108  1.8464 -0.2047
 9271SOL    HW234160   5.651   0.117   9.072 -0.2813  1.7970 -0.1787
 9272SOL     OW34161   8.781   5.305   8.304 -0.5233 -0.7698  0.0786
 9272SOL    HW134162   8.751   5.319   8.394 -3.0721  0.2060 -0.8208
 9272SOL    HW234163   8.738   5.374   8.254 -0.2350 -2.0936 -2.1001
 9273SOL     OW34164   4.406   4.646   6.559  0.3724  0.2172 -0.4093
 9273SOL    HW134165   4.365   4.726   6.526 -1.1732 -0.3486  0.0814
 9273SOL    HW234166   4.361   4.575   6.513  0.2912 -0.4547  0.6703
 9274SOL     OW34167   8.396   0.214   2.817 -0.1128  0.2106 -0.5162
 9274SOL    HW134168   8.381   0.123   2.842 -0.1405  0.7684  1.7042
 9274SOL    HW234169   8.489   0.229   2.834 -0.4036  0.9594  0.5638
 9275SOL     OW34170   0.152   0.568   5.174 -0.1508 -0.2926  0.0919
 9275SOL    HW134171   0.065   0.573   5.134  0.3694  0.5900 -0.9722
 9275SOL    HW234172   0.134   0.556   5.268 -1.3919 -1.7666 -0.2899
 9276SOL     OW34173   2.924   4.583   4.963  0.6864 -0.1086  0.4562
 9276SOL    HW134174   2.908   4.638   4.886  1.3914  0.4882  0.7297
 9276SOL    HW234175   2.848   4.598   5.019 -0.1834 -1.0905 -0.4154
 9277SOL     OW34176   5.868   5.349   6.288 -0.4362  0.2143  0.6676
 9277SOL    HW134177   5.836   5.343   6.198 -0.2909 -1.8326  0.7104
 9277SOL    HW234178   5.865   5.443   6.308 -0.9951  0.6595 -1.2641
 9278SOL     OW34179   5.153   7.341   3.105  0.0510 -0.0527 -0.4305
 9278SOL    HW134180   5.231   7.313   3.152  1.2735  2.3084 -0.9316
 9278SOL    HW234181   5.159   7.436   3.102 -3.3055  0.2948  0.2358
 9279SOL     OW34182   5.332   2.843   1.694 -0.6091  0.3606 -0.1630
 9279SOL    HW134183   5.312   2.895   1.616  0.6154  1.0078 -0.0602
 9279SOL    HW234184   5.304   2.898   1.767  0.7283  0.9290 -0.0526
 9280SOL     OW34185   1.855   4.881   3.201  0.1972 -0.4539  0.2279
 9280SOL    HW134186   1.779   4.829   3.227 -1.3667  0.4280 -2.1287
 9280SOL    HW234187   1.922   4.817   3.180 -0.8077 -1.4200 -0.1531
 9281SOL     OW34188   4.455   2.723   3.883  0.1340  0.2440 -0.0736
 9281SOL    HW134189   4.490   2.786   3.820 -1.2094 -0.2892 -1.4023
 9281SOL    HW234190   4.520   2.652   3.883 -0.5089 -0.4124 -1.9808
 9282SOL     OW34191   8.329   3.147   7.407 -0.3840 -0.1166  0.5982
 9282SOL    HW134192   8.253   3.143   7.465 -1.2337 -0.8298 -0.5233
 9282SOL    HW234193   8.302   3.207   7.337  0.0828 -0.3686  0.1933
 9283SOL     OW34194   5.126   1.224   0.261  0.0946  0.1805  0.4121
 9283SOL    HW134195   5.211   1.230   0.216 -0.3373  0.5904 -0.3634
 9283SOL    HW234196   5.114   1.130   0.278  0.1015 -0.0217 -0.6578
 9284SOL     OW34197   4.213   4.641   7.298  0.4979 -0.3918  0.1080
 9284SOL    HW134198   4.290   4.585   7.295  0.4524 -0.5177  0.9362
 9284SOL    HW234199   4.218   4.683   7.384 -0.5879 -0.7575  0.3706
 9285SOL     OW34200   5.211   3.425   0.553  0.4612 -0.2097 -0.3094
 9285SOL    HW134201   5.190   3.344   0.508 -3.4194  1.3786 -1.8505
 9285SOL    HW234202   5.209   3.402   0.646 -2.4249 -1.6767 -0.6104
 9286SOL     OW34203   1.614   2.132   0.110 -0.2960  0.1944  0.0993
 9286SOL    HW134204   1.545   2.197   0.096  0.3941  1.0237  0.4394
 9286SOL    HW234205   1.568   2.049   0.119 -1.1141  0.4541 -1.5027
 9287SOL     OW34206   4.011   9.082   4.298 -0.2470  0.5358  0.0459
 9287SOL    HW134207   3.952   9.074   4.224 -1.4049  0.0251  1.0003
 9287SOL    HW234208   4.028   8.992   4.326  3.3366  0.4222 -1.9602
 9288SOL     OW34209   7.858   1.823   7.237  0.0701  0.4876 -0.2038
 9288SOL    HW134210   7.821   1.861   7.157 -1.9916  0.0918  0.5059
 9288SOL    HW234211   7.923   1.759   7.206 -3.5078 -2.7141 -1.8575
 9289SOL     OW34212   7.796   1.878   3.339 -0.1789  0.1768  0.2253
 9289SOL    HW134213   7.792   1.930   3.419  1.3019 -0.5258  0.7825
 9289SOL    HW234214   7.825   1.941   3.272 -1.1848  0.7079  0.2779
 9290SOL     OW34215   7.609   2.313   2.519 -0.3026 -1.3082  0.0030
 9290SOL    HW134216   7.698   2.291   2.491  0.0823  0.6947 -0.4958
 9290SOL    HW234217   7.621   2.381   2.585 -1.4582 -1.3474  0.2659
 9291SOL     OW34218   2.500   4.608   8.983 -0.5891  0.6915 -0.6923
 9291SOL    HW134219   2.594   4.621   8.982 -0.4578  0.0793  1.2643
 9291SOL    HW234220   2.483   4.553   8.906  0.8217 -0.2344 -0.3829
 9292SOL     OW34221   3.526   2.858   8.776 -0.0030 -0.3953  0.0617
 9292SOL    HW134222   3.580   2.780   8.763 -1.7551 -1.3028 -2.5050
 9292SOL    HW234223   3.478   2.840   8.857  0.8213 -1.2295  0.3839
 9293SOL     OW34224   1.572   3.409   5.105  0.6413 -0.1991 -0.4169
 9293SOL    HW134225   1.622   3.354   5.046 -0.6224 -0.4090 -1.3354
 9293SOL    HW234226   1.599   3.499   5.083 -0.3463 -0.2296 -1.8513
 9294SOL     OW34227   3.867   3.987   3.702  0.3397 -0.0118 -0.7744
 9294SOL    HW134228   3.864   3.922   3.772  1.4286  0.8429  0.0964
 9294SOL    HW234229   3.775   4.010   3.688  0.0269 -0.9120 -0.3284
 9295SOL     OW34230   2.060   5.892   0.199 -0.3918  0.0113 -0.0878
 9295SOL    HW134231   2.029   5.936   0.279  0.9589  0.7431  0.0600
 9295SOL    HW234232   2.109   5.817   0.231  0.7181  0.6805 -0.1917
 9296SOL     OW34233   3.346   8.761   5.514 -0.3514 -0.2750  0.2803
 9296SOL    HW134234   3.349   8.855   5.532  0.5839  0.7474 -4.1085
 9296SOL    HW234235   3.261   8.748   5.472  0.1003 -1.0855 -0.4096
 9297SOL     OW34236   6.563   2.111   8.515 -0.1574 -0.3703  0.1567
 9297SOL    HW134237   6.473   2.081   8.521  0.2863 -1.6762  0.5608
 9297SOL    HW234238   6.570   2.180   8.581 -1.0461  0.2834 -0.4102
 9298SOL     OW34239   1.622   1.792   7.141  0.5673  0.0025  0.0298
 9298SOL    HW134240   1.664   1.720   7.093  0.0062 -0.5745  0.4058
 9298SOL    HW234241   1.596   1.854   7.072 -0.5754 -0.9941 -0.4671
 9299SOL     OW34242   5.816   4.963   1.566  0.8401  0.4834  0.0936
 9299SOL    HW134243   5.856   4.968   1.480  0.6739  2.0379  0.0874
 9299SOL    HW234244   5.726   4.991   1.553  0.8291  0.7991  0.7678
 9300SOL     OW34245   7.169   8.455   6.185  0.6473 -0.0938  0.2122
 9300SOL    HW134246   7.244   8.424   6.134  0.3311  1.7227 -1.4585
 9300SOL    HW234247   7.098   8.395   6.162  0.1411  1.4274 -2.6733
 9301SOL     OW34248   1.369   2.991   8.910  0.2093  0.1882 -1.0282
 9301SOL    HW134249   1.289   2.941   8.893 -0.6424  1.0429  0.3045
 9301SOL    HW234250   1.343   3.057   8.974  2.3825 -0.5932  0.7856
 9302SOL     OW34251   1.506   3.722   4.441  0.7376 -0.3039 -0.0406
 9302SOL    HW134252   1.442   3.657   4.413  1.3065 -0.1094 -1.9073
 9302SOL    HW234253   1.575   3.717   4.376  1.3945  1.3071  0.4914
 9303SOL     OW34254   1.750   0.799   2.102  0.3822  0.1142  0.3302
 9303SOL    HW134255   1.757   0.772   2.193  1.3963  1.9527  0.8455
 9303SOL    HW234256   1.709   0.725   2.058 -0.2899 -0.7417  2.3009
 9304SOL     OW34257   6.098   3.774   8.011 -0.2317  0.9588  0.3028
 9304SOL    HW134258   6.147   3.780   7.929 -1.5937  1.5713 -0.5065
 9304SOL    HW234259   6.078   3.680   8.020 -0.7892  0.9844 -0.5305
 9305SOL     OW34260   1.898   3.278   5.438 -0.0369 -0.2513 -0.2372
 9305SOL    HW134261   1.918   3.280   5.344  0.8672 -1.0977 -0.0738
 9305SOL    HW234262   1.841   3.201   5.448 -0.6132  0.1751 -0.1690
 9306SOL     OW34263   3.273   7.818   8.477  0.1255  0.0556  0.3824
 9306SOL    HW134264   3.361   7.812   8.513  0.1141 -0.7081  0.2988
 9306SOL    HW234265   3.263   7.910   8.454  0.0462  0.6594  2.5392
 9307SOL     OW34266   4.177   3.774   6.899 -0.2249 -0.0734 -0.0884
 9307SOL    HW134267   4.152   3.706   6.835  0.2695 -1.4189  1.0975
 9307SOL    HW234268   4.266   3.798   6.873 -0.8725  1.1494 -1.3262
 9308SOL     OW34269   8.469   8.554   7.583  0.0147  0.0764 -0.0700
 9308SOL    HW134270   8.523   8.502   7.643 -0.4667 -1.6820 -1.0673
 9308SOL    HW234271   8.383   8.511   7.585 -0.6965  1.4253 -0.2438
 9309SOL     OW34272   3.006   8.187   5.116  0.8327  0.6586 -0.5654
 9309SOL    HW134273   3.024   8.201   5.023 -0.2787 -0.9128 -1.0638
 9309SOL    HW234274   2.917   8.221   5.128  1.5457  2.3308  0.3381
 9310SOL     OW34275   4.529   3.926   6.539 -0.1199 -0.0364 -0.4235
 9310SOL    HW134276   4.526   3.907   6.446 -0.6295  0.3840 -0.4934
 9310SOL    HW234277   4.451   3.979   6.556 -0.7055 -1.1487  0.4796
 9311SOL     OW34278   1.816   7.213   5.532 -0.1512 -0.3508  0.0597
 9311SOL    HW134279   1.910   7.230   5.529 -0.2964  0.6600  0.7182
 9311SOL    HW234280   1.795   7.212   5.625 -1.3718  3.0098 -0.0550
 9312SOL     OW34281   2.776   4.966   1.362  0.3917  0.2833  0.1386
 9312SOL    HW134282   2.812   4.963   1.273  0.6191  0.5458  0.2197
 9312SOL    HW234283   2.695   4.915   1.357  1.0345 -0.7530  0.0677
 9313SOL     OW34284   6.711   1.798   2.336  0.3584  0.2154  0.5531
 9313SOL    HW134285   6.656   1.763   2.406  0.5355 -2.1948 -0.4147
 9313SOL    HW234286   6.800   1.793   2.369  0.5100 -1.5789 -0.0285
 9314SOL     OW34287   5.586   6.101   1.820 -0.3064 -0.3327  0.1760
 9314SOL    HW134288   5.639   6.032   1.779 -1.1169 -1.0349  0.2673
 9314SOL    HW234289   5.498   6.087   1.785 -0.6845  0.0387  0.9442
 9315SOL     OW34290   2.889   6.264   6.704 -0.3331  0.4996  0.4573
 9315SOL    HW134291   2.917   6.173   6.702 -1.5904  0.0882 -0.5711
 9315SOL    HW234292   2.888   6.288   6.797  0.6420 -0.3146  0.6882
 9316SOL     OW34293   4.200   3.137   8.964 -0.0915 -0.0104 -1.1118
 9316SOL    HW134294   4.138   3.165   9.032 -0.3898 -0.4352 -1.1999
 9316SOL    HW234295   4.283   3.128   9.010 -0.1788  0.1942 -0.9088
 9317SOL     OW34296   0.548   7.426   4.206  0.2345 -0.4294  0.7210
 9317SOL    HW134297   0.463   7.390   4.180  1.1109 -0.8620 -1.9135
 9317SOL    HW234298   0.587   7.358   4.261 -0.2777 -1.1773  0.1863
 9318SOL     OW34299   8.592   3.149   6.367 -0.0481 -0.5127 -0.6008
 9318SOL    HW134300   8.580   3.064   6.409 -1.6262 -0.7276 -1.3935
 9318SOL    HW234301   8.580   3.132   6.274  0.9087  0.3701 -0.9019
 9319SOL     OW34302   7.413   1.665   3.079 -0.0591 -0.1038  0.4795
 9319SOL    HW134303   7.343   1.726   3.057 -0.2321 -0.5774 -0.3433
 9319SOL    HW234304   7.451   1.699   3.160 -0.7829  0.5449  0.5558
 9320SOL     OW34305   5.047   5.831   6.828 -0.4499  0.1048 -0.1310
 9320SOL    HW134306   5.096   5.848   6.748  0.7257 -0.7794  0.3752
 9320SOL    HW234307   4.989   5.758   6.806  1.3617 -1.5593  0.3551
 9321SOL     OW34308   3.834   8.687   0.054 -0.9914 -0.0586 -0.0344
 9321SOL    HW134309   3.903   8.626   0.079 -0.0719  0.5581 -0.9822
 9321SOL    HW234310   3.755   8.634   0.052 -0.2035 -1.2521 -0.9169
 9322SOL     OW34311   8.264   0.114   1.821  0.3355  0.3771  0.0279
 9322SOL    HW134312   8.285   0.129   1.913 -2.6767  0.5011  0.7881
 9322SOL    HW234313   8.269   0.201   1.781 -1.9287  0.9947  0.9572
 9323SOL     OW34314   8.766   8.575   4.650 -0.3829  0.1914  0.1151
 9323SOL    HW134315   8.834   8.509   4.660 -0.9728 -0.8117 -1.9346
 9323SOL    HW234316   8.723   8.579   4.736  1.0972 -0.4276  0.9135
 9324SOL     OW34317   3.623   8.951   2.019 -0.5219  0.7718 -0.2858
 9324SOL    HW134318   3.600   8.973   1.928 -0.6724 -0.8405 -0.6663
 9324SOL    HW234319   3.684   9.020   2.045 -0.4657  1.2671 -1.6185
 9325SOL     OW34320   3.978   9.061   0.480  0.3771 -0.5298  0.1664
 9325SOL    HW134321   3.960   9.121   0.553  2.7452  2.2716 -1.3376
 9325SOL    HW234322   4.073   9.062   0.471  0.2153 -1.3761 -2.4825
 9326SOL     OW34323   7.768   3.418   7.512 -0.6991  0.2933  0.1002
 9326SOL    HW134324   7.756   3.487   7.577  1.4822  0.1455  0.7227
 9326SOL    HW234325   7.720   3.343   7.548  0.0861  0.3550  1.3293
 9327SOL     OW34326   6.634   2.286   8.712 -0.2742 -0.6880  0.2861
 9327SOL    HW134327   6.570   2.357   8.705 -0.3550 -0.9371 -2.1196
 9327SOL    HW234328   6.718   2.329   8.727 -0.2556 -0.0271 -1.5854
 9328SOL     OW34329   5.490   8.167   8.026  0.0908  0.2434 -0.8657
 9328SOL    HW134330   5.560   8.192   8.087 -0.6187 -1.5214  0.7458
 9328SOL    HW234331   5.409   8.195   8.069 -0.3581 -0.1203 -1.4635
 9329SOL     OW34332   7.941   1.827   2.730 -0.4374  0.3711 -0.4185
 9329SOL    HW134333   7.966   1.912   2.695  1.1822 -0.5885 -1.7424
 9329SOL    HW234334   7.986   1.763   2.674 -1.2576 -1.3542  0.7798
 9330SOL     OW34335   7.754   3.624   2.539  0.4553 -0.1982 -0.1690
 9330SOL    HW134336   7.730   3.700   2.486  2.8195  0.0772 -0.9211
 9330SOL    HW234337   7.771   3.555   2.475 -1.5760 -1.4095  0.5041
 9331SOL     OW34338   6.869   1.253   3.377  0.0368 -0.5592 -0.0474
 9331SOL    HW134339   6.892   1.320   3.312  0.2231 -0.3391  0.2427
 9331SOL    HW234340   6.937   1.261   3.445  0.2576 -1.2719 -0.1761
 9332SOL     OW34341   2.991   4.959   7.921  0.0877  0.1162  0.0839
 9332SOL    HW134342   3.045   5.025   7.965  1.7050 -1.0772 -0.0208
 9332SOL    HW234343   2.943   4.917   7.992 -1.7644  2.0367  0.0530
 9333SOL     OW34344   4.965   7.323   6.089  0.3312 -0.0435 -0.7583
 9333SOL    HW134345   4.880   7.315   6.131 -0.0265 -2.2229 -1.7556
 9333SOL    HW234346   4.990   7.414   6.103 -1.3916  0.2332  0.9757
 9334SOL     OW34347   4.863   3.567   5.272 -0.3259  0.2153  0.2892
 9334SOL    HW134348   4.801   3.511   5.225 -0.4796  0.3458  0.3320
 9334SOL    HW234349   4.831   3.567   5.362 -0.8313  1.0493  0.1221
 9335SOL     OW34350   0.536   6.507   9.013  0.8001  0.0221 -0.2638
 9335SOL    HW134351   0.573   6.476   8.930 -1.1432  1.5611 -1.8219
 9335SOL    HW234352   0.541   6.602   9.007 -0.3282  0.1850  0.9341
 9336SOL     OW34353   4.368   3.485   0.391  0.1364 -0.4545  0.2983
 9336SOL    HW134354   4.353   3.449   0.304 -1.2750  1.1280 -0.1842
 9336SOL    HW234355   4.437   3.550   0.378  2.6104 -2.7566  1.1428
 9337SOL     OW34356   7.827   3.247   6.110 -0.2431 -0.4960 -0.1040
 9337SOL    HW134357   7.795   3.215   6.194  1.7320 -3.0527 -0.2033
 9337SOL    HW234358   7.807   3.177   6.048  0.6522  0.1926 -1.2168
 9338SOL     OW34359   2.143   0.954   7.620 -0.1990 -0.0947 -0.0551
 9338SOL    HW134360   2.223   0.935   7.670 -0.2235  0.1931  0.0952
 9338SOL    HW234361   2.146   1.049   7.606 -1.3224  0.1840  1.3676
 9339SOL     OW34362   4.867   2.830   9.044  0.3797  0.0899 -0.1317
 9339SOL    HW134363   4.782   2.873   9.058  0.5969  0.6197 -0.4127
 9339SOL    HW234364   4.931   2.892   9.079  0.7116  0.0895 -0.7329
 9340SOL     OW34365   1.154   8.682   1.294  0.5883 -0.8070 -0.0042
 9340SOL    HW134366   1.191   8.610   1.243  0.5167 -0.5880 -0.3648
 9340SOL    HW234367   1.169   8.657   1.385  1.8380 -0.6103 -0.1464
 9341SOL     OW34368   0.773   8.062   8.988 -0.6525 -0.3098  0.0730
 9341SOL    HW134369   0.763   7.981   8.938 -0.1386 -0.6102  0.4396
 9341SOL    HW234370   0.691   8.072   9.035 -0.8020 -0.4971 -0.1449
 9342SOL     OW34371   5.973   0.817   4.109 -0.5370 -0.3854  0.0784
 9342SOL    HW134372   5.953   0.769   4.189  1.5539  1.2033  1.6719
 9342SOL    HW234373   6.063   0.846   4.120 -0.2319  0.0535 -2.8154
 9343SOL     OW34374   5.628   3.303   3.259  0.4168  0.1592 -0.1081
 9343SOL    HW134375   5.676   3.222   3.242 -1.0544 -0.6602 -0.5472
 9343SOL    HW234376   5.658   3.363   3.191  0.9640 -0.2469 -0.2364
 9344SOL     OW34377   7.443   6.640   4.263 -0.4540  0.0404  0.2486
 9344SOL    HW134378   7.386   6.592   4.323 -0.6760 -0.2125 -0.1570
 9344SOL    HW234379   7.394   6.720   4.242  0.2114  0.7807  1.4575
 9345SOL     OW34380   6.512   2.564   6.533 -0.7325 -0.0903 -0.1023
 9345SOL    HW134381   6.547   2.638   6.582 -0.5457 -0.0219 -0.3408
 9345SOL    HW234382   6.568   2.556   6.456  1.1283 -2.3053  1.3524
 9346SOL     OW34383   3.212   1.919   1.388 -0.2622  0.1836 -0.5917
 9346SOL    HW134384   3.164   1.972   1.324 -0.2476  1.4201  0.3908
 9346SOL    HW234385   3.304   1.928   1.362 -0.1269  1.7545  0.3340
 9347SOL     OW34386   2.098   6.029   0.571  0.0725  0.6019  0.3310
 9347SOL    HW134387   2.069   6.075   0.650 -0.0866 -0.2608  0.7922
 9347SOL    HW234388   2.057   6.076   0.499  0.0418  1.2736  0.7822
 9348SOL     OW34389   4.076   8.479   3.189 -0.1971 -0.8568 -0.0335
 9348SOL    HW134390   3.997   8.502   3.141 -1.3559 -1.5039  1.4810
 9348SOL    HW234391   4.134   8.439   3.124 -0.6154  0.6657 -1.4023
 9349SOL     OW34392   6.091   2.926   5.672  0.2100  0.6387 -0.6675
 9349SOL    HW134393   6.081   2.938   5.766  0.4965 -0.0601 -0.5411
 9349SOL    HW234394   6.003   2.904   5.641 -0.1804  2.2630 -0.7974
 9350SOL     OW34395   1.230   1.265   3.979  0.3690 -0.4352 -0.0715
 9350SOL    HW134396   1.252   1.288   4.069  2.1707 -1.5453 -0.1915
 9350SOL    HW234397   1.264   1.338   3.927 -1.9012  0.9133  0.1616
 9351SOL     OW34398   3.871   5.195   2.519 -0.0311  0.2370  0.2509
 9351SOL    HW134399   3.932   5.178   2.591  0.2188  0.4432  0.0864
 9351SOL    HW234400   3.831   5.279   2.540  0.0110  0.2772  0.1675
 9352SOL     OW34401   5.302   5.575   7.476 -0.4632 -0.3377  0.3315
 9352SOL    HW134402   5.380   5.629   7.472 -1.2035  0.8020  0.7076
 9352SOL    HW234403   5.283   5.552   7.385 -0.4710  0.5500  0.1036
 9353SOL     OW34404   3.654   6.284   7.314 -0.3873 -0.1389 -0.1830
 9353SOL    HW134405   3.672   6.314   7.225 -1.6437 -0.6664 -0.6393
 9353SOL    HW234406   3.576   6.229   7.305 -0.4362 -0.3276  1.2236
 9354SOL     OW34407   1.847   9.200   2.543 -0.6979  0.0048 -0.0857
 9354SOL    HW134408   1.818   9.220   2.453 -1.0759  0.3315  0.1032
 9354SOL    HW234409   1.870   9.107   2.541  2.0937  0.6180 -1.2662
 9355SOL     OW34410   3.596   4.599   1.992  0.2964  0.4399 -0.5985
 9355SOL    HW134411   3.561   4.678   2.033 -5.1526 -1.2123 -1.2233
 9355SOL    HW234412   3.582   4.531   2.058 -0.3242 -0.8150 -1.9743
 9356SOL     OW34413   2.791   7.711   3.487 -0.3531  0.1695  0.3537
 9356SOL    HW134414   2.820   7.802   3.481  0.1893 -0.0058  0.2299
 9356SOL    HW234415   2.778   7.696   3.581 -2.7031  1.0440  0.2385
 9357SOL     OW34416   5.700   3.232   2.778 -0.2577  0.7954 -0.3435
 9357SOL    HW134417   5.730   3.206   2.691 -1.6133  0.2077 -0.6701
 9357SOL    HW234418   5.618   3.279   2.762 -0.7496  0.3019  0.6149
 9358SOL     OW34419   5.594   1.126   0.866  0.2063 -0.0629  0.5638
 9358SOL    HW134420   5.553   1.202   0.825  0.8520  0.3642  0.6950
 9358SOL    HW234421   5.558   1.124   0.954 -2.3944 -1.8931 -0.4117
 9359SOL     OW34422   2.834   4.811   5.289 -0.0997 -0.9730  0.0714
 9359SOL    HW134423   2.888   4.887   5.314  1.1130 -1.3992 -1.1741
 9359SOL    HW234424   2.756   4.820   5.343  0.9634 -0.0327  1.5478
 9360SOL     OW34425   5.903   4.942   9.230  0.7494  0.4859  0.6722
 9360SOL    HW134426   5.910   5.033   9.258 -2.1309  0.6813  0.9959
 9360SOL    HW234427   5.869   4.947   9.140  0.3295 -0.2678  0.7823
 9361SOL     OW34428   5.777   8.536   6.047 -0.1544 -0.1470 -0.2847
 9361SOL    HW134429   5.710   8.468   6.061  0.4479 -0.6816  0.0606
 9361SOL    HW234430   5.728   8.618   6.053 -0.5619 -0.4677  1.4621
 9362SOL     OW34431   9.013   7.360   3.143 -0.0309 -0.1593 -0.2655
 9362SOL    HW134432   9.064   7.343   3.064  4.0194  0.3504  1.9495
 9362SOL    HW234433   9.057   7.307   3.211 -2.5146  0.3771  1.9031
 9363SOL     OW34434   3.214   7.029   2.142  0.3686  0.0528  0.3945
 9363SOL    HW134435   3.251   7.033   2.054  0.8938 -2.0936  0.4569
 9363SOL    HW234436   3.157   6.952   2.140 -0.1472  0.3801  1.7357
 9364SOL     OW34437   6.701   7.812   3.506  0.0705  0.0248 -0.4095
 9364SOL    HW134438   6.749   7.815   3.589 -1.5832 -1.0321  0.6581
 9364SOL    HW234439   6.614   7.847   3.527  0.2499  1.7973 -2.2514
 9365SOL     OW34440   5.212   8.818   5.692 -0.5158  0.3594 -0.0807
 9365SOL    HW134441   5.137   8.873   5.671 -0.6030  0.3918  0.3052
 9365SOL    HW234442   5.282   8.879   5.716 -0.3535  0.3301 -0.4641
 9366SOL     OW34443   4.040   4.636   3.498  0.3137  0.0344 -0.1191
 9366SOL    HW134444   4.104   4.706   3.487  0.4775 -0.2267 -0.8538
 9366SOL    HW234445   3.989   4.636   3.418  1.0535 -1.4154 -0.6252
 9367SOL     OW34446   0.969   7.008   6.868 -0.4417 -0.0370 -0.4803
 9367SOL    HW134447   0.920   6.940   6.914 -1.7034  0.9622 -0.2953
 9367SOL    HW234448   1.040   6.961   6.824  0.2028 -1.1852  1.5983
 9368SOL     OW34449   2.594   5.766   5.588 -0.1143  0.1617 -0.2049
 9368SOL    HW134450   2.580   5.808   5.504 -0.9518  0.1689 -0.0675
 9368SOL    HW234451   2.536   5.813   5.648 -2.2491 -2.1406 -0.3488
 9369SOL     OW34452   1.026   3.406   8.772 -0.0421 -0.4915 -0.0774
 9369SOL    HW134453   1.023   3.360   8.689 -2.0845 -0.6377  0.0256
 9369SOL    HW234454   0.949   3.374   8.820 -0.5380  1.6847  0.7032
 9370SOL     OW34455   1.124   5.024   7.843  0.1966 -0.2664  0.5637
 9370SOL    HW134456   1.147   5.084   7.914  0.3853 -1.4705  1.5480
 9370SOL    HW234457   1.208   4.994   7.809  0.1390  1.0007 -0.8411
 9371SOL     OW34458   0.817   2.974   0.656 -0.0980 -0.1568 -0.2198
 9371SOL    HW134459   0.867   3.051   0.628  0.5517 -1.4822 -3.1128
 9371SOL    HW234460   0.880   2.920   0.703 -0.5071  0.8970  1.6462
 9372SOL     OW34461   8.809   0.309   1.225 -0.2428  0.1976 -0.1711
 9372SOL    HW134462   8.861   0.228   1.227 -1.3000 -0.5673 -1.6462
 9372SOL    HW234463   8.720   0.280   1.245 -0.3011  1.3471  1.4011
 9373SOL     OW34464   1.741   4.923   1.735 -0.0941 -0.5597  0.5895
 9373SOL    HW134465   1.836   4.934   1.737 -0.0831  0.0467 -1.4317
 9373SOL    HW234466   1.708   4.994   1.789  0.5663 -0.1264  0.4358
 9374SOL     OW34467   2.386   6.118   3.705 -0.0147  0.3419 -0.3755
 9374SOL    HW134468   2.423   6.134   3.791  0.2774 -0.8777 -0.2548
 9374SOL    HW234469   2.360   6.026   3.707 -0.8324  0.5377 -1.2831
 9375SOL     OW34470   3.759   4.770   3.562  0.8150  0.1015  0.2757
 9375SOL    HW134471   3.717   4.851   3.592  1.9289  1.0370 -0.5991
 9375SOL    HW234472   3.825   4.751   3.629 -0.1373 -0.6922  1.0203
 9376SOL     OW34473   5.917   6.803   2.346  0.2256  0.3957  0.1168
 9376SOL    HW134474   5.883   6.721   2.308  1.0646 -0.2830  0.7878
 9376SOL    HW234475   5.843   6.864   2.341 -0.8584 -0.8083  0.8582
 9377SOL     OW34476   5.853   7.459   5.237  0.8918 -0.6761 -0.4249
 9377SOL    HW134477   5.868   7.552   5.228 -1.1362  0.0431  2.0985
 9377SOL    HW234478   5.774   7.442   5.186 -0.3407 -0.3315  1.2574
 9378SOL     OW34479   8.408   1.418   3.115  0.0051 -0.1216 -0.3553
 9378SOL    HW134480   8.348   1.433   3.188 -0.6401  0.6545 -1.0199
 9378SOL    HW234481   8.496   1.423   3.155 -0.3187  0.7114  0.3083
 9379SOL     OW34482   0.695   4.387   6.948  0.7852 -0.4478 -0.4114
 9379SOL    HW134483   0.745   4.335   7.011 -2.4657 -0.9751  2.0358
 9379SOL    HW234484   0.729   4.476   6.959  1.1051 -0.7399  1.2944
 9380SOL     OW34485   7.316   3.391   6.727  0.1991  0.4614  0.2085
 9380SOL    HW134486   7.397   3.439   6.744  0.9038 -0.9451  0.9915
 9380SOL    HW234487   7.338   3.331   6.656  0.6173 -1.6673  2.0558
 9381SOL     OW34488   6.472   2.201   1.939  0.3975  0.0461  0.1777
 9381SOL    HW134489   6.482   2.227   2.031 -1.1815 -0.2589  0.4821
 9381SOL    HW234490   6.404   2.133   1.942 -0.2792  0.6156 -1.2960
 9382SOL     OW34491   9.206   8.570   0.743 -0.2542 -0.3707 -0.5887
 9382SOL    HW134492   9.249   8.546   0.824  1.3962  0.5040 -1.1697
 9382SOL    HW234493   9.275   8.565   0.676 -1.1233  0.7427 -1.6081
 9383SOL     OW34494   3.765   1.914   0.355 -0.5178 -0.7600  0.1181
 9383SOL    HW134495   3.755   1.992   0.410 -2.3437 -1.0604  0.2458
 9383SOL    HW234496   3.813   1.852   0.410  0.6591  0.1300  0.1300
 9384SOL     OW34497   9.195   3.756   3.340 -0.6414  0.5384 -0.0878
 9384SOL    HW134498   9.112   3.800   3.325 -0.6679  1.1036  1.5213
 9384SOL    HW234499   9.172   3.676   3.387 -0.2818  0.7144  0.3948
 9385SOL     OW34500   3.579   4.472   8.163 -0.2579  0.1847 -0.7087
 9385SOL    HW134501   3.663   4.496   8.201  0.6396 -1.4754 -1.5265
 9385SOL    HW234502   3.535   4.423   8.233 -0.2607  0.4492 -0.5214
 9386SOL     OW34503   1.194   2.561   0.829  0.0914  0.5937  0.0401
 9386SOL    HW134504   1.270   2.599   0.784  1.3725 -1.0635  0.6633
 9386SOL    HW234505   1.224   2.549   0.919 -0.4776 -1.1258  0.0415
 9387SOL     OW34506   7.605   6.052   1.242 -0.4180  0.1606  0.6800
 9387SOL    HW134507   7.515   6.053   1.275 -0.9488  1.4127 -0.7105
 9387SOL    HW234508   7.603   6.108   1.164  1.5228  0.0365  0.4922
 9388SOL     OW34509   8.781   3.023   1.368 -1.5206 -0.0465  0.6162
 9388SOL    HW134510   8.870   3.044   1.343 -1.5559 -1.1423 -0.5683
 9388SOL    HW234511   8.771   3.057   1.457  0.3814 -0.7412  1.1360
 9389SOL     OW34512   3.802   8.534   5.381  0.8654 -0.6279 -0.2298
 9389SOL    HW134513   3.749   8.528   5.460 -2.4674  2.5031 -1.8919
 9389SOL    HW234514   3.766   8.468   5.322  0.6099 -0.2745 -0.4724
 9390SOL     OW34515   3.909   4.645   1.055  0.3487 -0.8430  0.0896
 9390SOL    HW134516   3.937   4.644   1.147  3.2871  0.2820 -0.6529
 9390SOL    HW234517   3.904   4.738   1.033 -0.7324 -1.0997 -0.8122
 9391SOL     OW34518   7.923   0.593   1.696  0.4339  0.0056  0.3547
 9391SOL    HW134519   7.895   0.667   1.641  0.9381  1.3894  1.8707
 9391SOL    HW234520   7.875   0.518   1.661 -1.7193  1.4371  0.0408
 9392SOL     OW34521   4.468   6.846   4.123  0.4500  0.8092  0.2828
 9392SOL    HW134522   4.525   6.772   4.104 -0.3294  0.4921 -0.9599
 9392SOL    HW234523   4.484   6.866   4.216  1.5861 -0.1003  0.3012
 9393SOL     OW34524   7.126   7.061   5.181  0.0802  0.5920 -0.3656
 9393SOL    HW134525   7.108   7.103   5.097  1.6458 -0.1832 -1.1296
 9393SOL    HW234526   7.221   7.048   5.181  0.0264  0.0338  1.2744
 9394SOL     OW34527   7.446   1.531   0.112  0.0601 -0.0058 -0.0291
 9394SOL    HW134528   7.468   1.448   0.156  0.9061  0.7189  0.9582
 9394SOL    HW234529   7.455   1.597   0.180 -0.7943  0.8906 -0.7654
 9395SOL     OW34530   6.129   2.886   8.443  0.2175  0.5441  0.6441
 9395SOL    HW134531   6.069   2.930   8.503 -0.0818  1.1167 -0.0540
 9395SOL    HW234532   6.203   2.946   8.436 -0.0059  0.7562  0.0117
 9396SOL     OW34533   2.783   7.349   6.535 -0.3329 -0.0707  0.2346
 9396SOL    HW134534   2.776   7.288   6.609 -2.7477 -0.4884 -0.2654
 9396SOL    HW234535   2.800   7.434   6.576  2.2695 -0.8651  0.9919
 9397SOL     OW34536   0.171   5.535   3.892 -0.0495  0.2816 -0.3479
 9397SOL    HW134537   0.186   5.611   3.836  1.2264 -0.2199 -0.7304
 9397SOL    HW234538   0.255   5.520   3.935 -0.9564  0.5689  1.6306
 9398SOL     OW34539   6.211   2.099   4.883  0.1367  0.3115  0.1337
 9398SOL    HW134540   6.213   2.055   4.968 -1.3563  0.8792  0.5036
 9398SOL    HW234541   6.124   2.138   4.879  0.4988  1.0326 -1.2952
 9399SOL     OW34542   4.404   3.196   5.339 -0.1702  0.2233 -0.1381
 9399SOL    HW134543   4.398   3.177   5.246 -2.3215 -0.2951  0.0631
 9399SOL    HW234544   4.321   3.239   5.361  0.6479  1.1330  1.3749
 9400SOL     OW34545   6.882   8.805   6.802  0.1533  0.2845  0.0614
 9400SOL    HW134546   6.820   8.770   6.738 -0.4177  2.0149 -0.3712
 9400SOL    HW234547   6.845   8.890   6.827  0.8835  0.0742  1.9566
 9401SOL     OW34548   8.368   6.622   0.658 -0.3719  0.6517 -0.4806
 9401SOL    HW134549   8.358   6.714   0.684  2.2436  1.0659 -0.6721
 9401SOL    HW234550   8.397   6.626   0.567 -0.0134 -0.3397 -0.4223
 9402SOL     OW34551   0.507   8.435   7.401 -0.3676 -0.0938 -0.1080
 9402SOL    HW134552   0.443   8.439   7.330  1.1215  0.1111 -1.4921
 9402SOL    HW234553   0.545   8.348   7.395 -0.1063 -0.0148  0.3457
 9403SOL     OW34554   8.510   2.473   7.126 -0.0060  0.3311  0.0149
 9403SOL    HW134555   8.560   2.400   7.089  1.1186  1.2009 -0.2428
 9403SOL    HW234556   8.569   2.512   7.190 -0.9155  0.5148  0.7591
 9404SOL     OW34557   5.918   8.690   8.527 -0.1955  0.2743  0.0708
 9404SOL    HW134558   5.934   8.651   8.441  0.2691 -1.0104  0.7107
 9404SOL    HW234559   5.833   8.657   8.553 -0.4871  0.9317 -0.0233
 9405SOL     OW34560   0.553   4.326   0.343  0.2698 -0.0843  0.1100
 9405SOL    HW134561   0.574   4.392   0.410  1.3084 -0.2277 -0.0511
 9405SOL    HW234562   0.580   4.243   0.381 -1.6637 -0.5314  0.5789
 9406SOL     OW34563   9.131   1.709   5.464  0.0626  0.2841 -0.9053
 9406SOL    HW134564   9.197   1.650   5.502 -1.9904 -1.5684 -0.0440
 9406SOL    HW234565   9.180   1.788   5.444  2.5546 -0.9745 -0.2589
 9407SOL     OW34566   0.581   3.919   2.787 -0.4631 -0.3043  0.2026
 9407SOL    HW134567   0.525   3.898   2.712  0.3650 -0.2265 -0.4593
 9407SOL    HW234568   0.668   3.885   2.762 -0.0251  0.3268  0.8269
 9408SOL     OW34569   1.202   3.062   5.970 -0.0352  0.3837 -0.3735
 9408SOL    HW134570   1.177   2.981   5.926 -0.8936  0.7426 -0.5785
 9408SOL    HW234571   1.297   3.057   5.979 -0.2217 -1.3509  1.0405
 9409SOL     OW34572   3.458   0.448   6.079  0.4312  0.0739  0.3151
 9409SOL    HW134573   3.410   0.502   6.142 -2.1908  0.0065 -1.4813
 9409SOL    HW234574   3.473   0.506   6.005 -0.6966 -1.0637 -0.8548
 9410SOL     OW34575   2.503   1.249   7.177 -0.1284 -0.3023  0.3149
 9410SOL    HW134576   2.561   1.174   7.186 -0.2095 -0.4777 -0.5588
 9410SOL    HW234577   2.492   1.282   7.266 -0.5989 -1.7139  0.8113
 9411SOL     OW34578   8.980   2.298   3.826  0.5621 -0.0618  0.1708
 9411SOL    HW134579   8.933   2.377   3.853  0.4591  0.0021 -0.1912
 9411SOL    HW234580   8.912   2.230   3.822  0.6750 -0.2054  0.6219
 9412SOL     OW34581   1.472   3.677   6.322  0.5612  0.4067 -0.4040
 9412SOL    HW134582   1.488   3.750   6.382 -0.0758 -0.0321  0.3386
 9412SOL    HW234583   1.379   3.657   6.334  0.7906 -0.7289 -0.3423
 9413SOL     OW34584   0.993   4.737   4.114 -0.1964 -0.0753 -0.0616
 9413SOL    HW134585   0.926   4.716   4.048 -1.1517 -0.3245  0.9549
 9413SOL    HW234586   0.963   4.692   4.193  0.8100  0.4030  0.6057
 9414SOL     OW34587   3.967   0.875   6.164 -0.4106  0.0823  0.1232
 9414SOL    HW134588   3.948   0.919   6.081 -1.6608 -1.8685 -0.6756
 9414SOL    HW234589   3.888   0.885   6.216 -0.0395  0.3207  0.6562
 9415SOL     OW34590   1.227   1.827   7.786  0.1359  0.2211 -0.6541
 9415SOL    HW134591   1.197   1.744   7.748  1.4882 -0.6276  0.0406
 9415SOL    HW234592   1.321   1.826   7.773  0.7417 -0.2277  2.7589
 9416SOL     OW34593   6.428   4.828   4.995  0.7336  0.0321  0.1510
 9416SOL    HW134594   6.350   4.786   4.959  2.0821 -1.8074 -0.8443
 9416SOL    HW234595   6.426   4.917   4.962  0.6748 -0.9036 -2.6283
 9417SOL     OW34596   4.090   0.170   4.119  0.7875 -0.1017 -0.1127
 9417SOL    HW134597   4.109   0.208   4.205 -0.3029  0.2921 -0.0272
 9417SOL    HW234598   3.994   0.164   4.117  0.7971  0.0148 -1.3540
 9418SOL     OW34599   2.199   7.454   0.923  0.8668 -0.2562 -0.3768
 9418SOL    HW134600   2.146   7.374   0.925  0.2048  0.0552 -2.4318
 9418SOL    HW234601   2.282   7.426   0.885  1.5252 -0.3788  1.0886
 9419SOL     OW34602   5.685   5.660   7.962 -0.2996 -0.3944  0.1183
 9419SOL    HW134603   5.605   5.686   7.915 -0.2683  0.2504  0.4216
 9419SOL    HW234604   5.670   5.687   8.052  0.4350  0.0992  0.0949
 9420SOL     OW34605   0.358   7.012   6.148 -0.1361 -0.1790  0.3250
 9420SOL    HW134606   0.289   6.959   6.188 -2.2399  0.8118 -1.7031
 9420SOL    HW234607   0.423   7.023   6.217 -2.1923 -0.8354  2.5206
 9421SOL     OW34608   5.526   6.260   1.536  0.0068 -0.2556 -0.1026
 9421SOL    HW134609   5.465   6.239   1.607  1.3368 -1.2904  0.7918
 9421SOL    HW234610   5.539   6.176   1.490 -0.0969  0.1965 -0.9708
 9422SOL     OW34611   5.031   1.597   8.674 -0.4217 -0.2573  0.1280
 9422SOL    HW134612   5.037   1.690   8.653 -0.5806 -0.3879 -0.5296
 9422SOL    HW234613   5.113   1.560   8.640 -0.6176 -0.4470 -0.1488
 9423SOL     OW34614   8.550   9.010   2.600 -0.0875 -0.1240 -0.0767
 9423SOL    HW134615   8.532   8.969   2.515  0.4699  0.0710 -0.2896
 9423SOL    HW234616   8.609   8.948   2.645 -1.5505 -0.9565  0.7821
 9424SOL     OW34617   2.925   2.742   6.416  0.2823  0.2627 -0.3184
 9424SOL    HW134618   2.940   2.816   6.358  1.9516 -0.9474 -1.5502
 9424SOL    HW234619   2.858   2.690   6.372  0.5146  0.0763 -0.4584
 9425SOL     OW34620   4.605   8.041   0.104  0.1747  0.2235  0.4635
 9425SOL    HW134621   4.611   7.948   0.085  1.9622 -0.1353  2.4135
 9425SOL    HW234622   4.544   8.046   0.178 -0.7443  0.7563 -0.3011
 9426SOL     OW34623   5.239   8.876   8.786 -0.0828 -0.5130 -0.0616
 9426SOL    HW134624   5.329   8.907   8.773 -0.3606  1.7299  2.4048
 9426SOL    HW234625   5.189   8.919   8.717  0.5526 -0.8435 -0.7451
 9427SOL     OW34626   8.346   8.392   4.470  0.3225  0.8496 -0.4937
 9427SOL    HW134627   8.407   8.461   4.493  0.3826  0.1905  1.5632
 9427SOL    HW234628   8.280   8.394   4.540 -0.5168 -0.1591 -1.2280
 9428SOL     OW34629   3.549   5.886   6.777 -0.1457 -0.3926  0.4323
 9428SOL    HW134630   3.555   5.982   6.769  0.6738 -0.5345 -1.1499
 9428SOL    HW234631   3.610   5.864   6.847  0.7230  0.1461 -0.1347
 9429SOL     OW34632   3.521   0.058   8.988  0.6756 -0.1922 -0.9367
 9429SOL    HW134633   3.498   0.095   9.074  1.6379 -1.3710 -0.1465
 9429SOL    HW234634   3.520  -0.037   9.002 -0.2615 -0.4464 -2.5358
 9430SOL     OW34635   3.456   0.959   2.280  0.0094 -0.4792 -0.0603
 9430SOL    HW134636   3.490   1.017   2.213 -3.7184  0.5599 -1.3150
 9430SOL    HW234637   3.441   0.875   2.236 -0.8658 -0.2992 -0.1403
 9431SOL     OW34638   3.303   0.734   5.747 -0.3346 -0.1605  0.1436
 9431SOL    HW134639   3.285   0.683   5.668 -0.8236 -1.2445  0.9337
 9431SOL    HW234640   3.399   0.730   5.756 -0.0344  1.7365 -1.5102
 9432SOL     OW34641   4.299   0.591   2.523  0.2542  0.0483 -0.1957
 9432SOL    HW134642   4.307   0.585   2.427 -1.0741  2.0258 -0.4959
 9432SOL    HW234643   4.379   0.636   2.551 -0.7263  2.2823 -0.8028
 9433SOL     OW34644   7.033   4.787   3.731 -0.0916 -0.2573 -0.3340
 9433SOL    HW134645   7.111   4.796   3.786  0.6423  1.3730 -1.5290
 9433SOL    HW234646   7.066   4.755   3.647 -0.8789 -0.6432 -0.5106
 9434SOL     OW34647   2.977   1.721   5.670 -0.4499 -0.2695 -0.3839
 9434SOL    HW134648   3.012   1.780   5.603  2.6454 -0.1303  1.1795
 9434SOL    HW234649   3.033   1.734   5.746 -1.7985 -2.7485  1.1920
 9435SOL     OW34650   7.183   8.040   9.141  0.3954 -0.4407 -0.2984
 9435SOL    HW134651   7.104   8.013   9.093 -0.4354  0.0208  0.7691
 9435SOL    HW234652   7.248   7.973   9.119 -1.0107 -2.2274  0.7096
 9436SOL     OW34653   8.188   6.442   4.768  0.4868 -0.2516 -0.7406
 9436SOL    HW134654   8.266   6.442   4.713  0.9665  2.0680 -0.1873
 9436SOL    HW234655   8.171   6.535   4.784 -0.5678 -0.7952  1.6789
 9437SOL     OW34656   7.442   2.531   8.426 -0.2825 -0.2743  0.3828
 9437SOL    HW134657   7.447   2.458   8.488 -0.9400 -1.4974 -0.9366
 9437SOL    HW234658   7.361   2.516   8.379  0.3783  0.3981 -1.0234
 9438SOL     OW34659   8.338   2.248   3.492  0.1294  0.0734 -0.1319
 9438SOL    HW134660   8.338   2.288   3.580  0.1123  1.6954 -0.8357
 9438SOL    HW234661   8.246   2.232   3.473  0.1772 -0.8863  0.3959
 9439SOL     OW34662   4.875   8.271   0.199  0.8733 -0.0847  0.7405
 9439SOL    HW134663   4.832   8.203   0.251  0.8263  0.6029  1.6291
 9439SOL    HW234664   4.967   8.266   0.225  1.6135 -2.2077 -1.8705
 9440SOL     OW34665   8.150   9.101   7.138 -0.3885 -0.2252 -0.1789
 9440SOL    HW134666   8.244   9.089   7.131 -0.2291 -0.3027  1.7159
 9440SOL    HW234667   8.138   9.153   7.218 -1.9994 -1.0496  0.1500
 9441SOL     OW34668   2.523   3.633   7.914 -0.0586  0.0258 -0.1537
 9441SOL    HW134669   2.491   3.588   7.992 -2.2152  1.0033 -0.3925
 9441SOL    HW234670   2.600   3.583   7.887  1.1138 -0.0474  2.8694
 9442SOL     OW34671   7.801   4.937   8.017  0.1910  1.0080  0.4309
 9442SOL    HW134672   7.790   4.936   7.922 -0.0447  0.2646  0.4588
 9442SOL    HW234673   7.810   5.030   8.040 -0.9050  1.2715 -0.1846
 9443SOL     OW34674   3.758   6.071   8.513  0.3987 -0.2561  0.5658
 9443SOL    HW134675   3.673   6.116   8.509  0.4227 -0.1994  0.6676
 9443SOL    HW234676   3.779   6.069   8.607  1.5298  1.6602  0.4215
 9444SOL     OW34677   2.734   2.294   3.758 -0.3297  0.3746 -0.1636
 9444SOL    HW134678   2.799   2.259   3.818 -0.8119 -1.1536 -0.4835
 9444SOL    HW234679   2.745   2.389   3.763  2.3447  0.1608 -0.7050
 9445SOL     OW34680   2.926   2.581   0.311  0.3595  0.2927  0.0920
 9445SOL    HW134681   3.018   2.568   0.334 -0.0810 -0.6525  1.4456
 9445SOL    HW234682   2.880   2.510   0.357 -1.1857  1.5329  0.5266
 9446SOL     OW34683   1.708   6.463   4.208  0.0587  0.5871 -0.9397
 9446SOL    HW134684   1.791   6.505   4.233 -0.8318  1.9720 -0.1824
 9446SOL    HW234685   1.651   6.536   4.183 -0.5937 -0.4304 -2.5737
 9447SOL     OW34686   6.866   6.954   6.748  0.0738  0.9291 -0.0660
 9447SOL    HW134687   6.937   6.980   6.806  0.7021 -2.8205  1.1071
 9447SOL    HW234688   6.788   6.955   6.803  0.5184 -1.7489  0.7339
 9448SOL     OW34689   2.922   1.883   7.773  0.5504  0.8708  0.1300
 9448SOL    HW134690   2.844   1.871   7.718 -0.2973 -1.6494  1.6892
 9448SOL    HW234691   2.897   1.953   7.834 -0.8148 -0.3211  1.0070
 9449SOL     OW34692   6.487   8.632   3.082  0.1125  0.2777 -0.4471
 9449SOL    HW134693   6.472   8.677   3.165 -0.7296  0.6936 -0.8137
 9449SOL    HW234694   6.530   8.550   3.107  1.4033  1.1391  0.2544
 9450SOL     OW34695   2.381   5.933   1.199 -0.0397  0.2060 -0.1596
 9450SOL    HW134696   2.437   6.004   1.167  0.3670  0.4228  0.9674
 9450SOL    HW234697   2.391   5.936   1.294  0.6672 -1.8896 -0.1067
 9451SOL     OW34698   3.746   8.483   1.290  0.1023 -0.0273  0.1023
 9451SOL    HW134699   3.797   8.425   1.347 -0.4263  0.3391  0.9636
 9451SOL    HW234700   3.812   8.542   1.253  0.2862  0.7575  1.5853
 9452SOL     OW34701   5.250   5.662   1.291  0.7821 -0.3904 -0.6980
 9452SOL    HW134702   5.253   5.744   1.242  2.5940  1.1266  1.7529
 9452SOL    HW234703   5.340   5.629   1.289  0.4990 -1.2763  0.0443
 9453SOL     OW34704   8.950   3.518   9.003  0.4466 -0.2710  0.9341
 9453SOL    HW134705   9.013   3.524   8.931  1.2062 -1.9290  1.4227
 9453SOL    HW234706   8.868   3.551   8.965  0.5608 -2.0264 -1.0385
 9454SOL     OW34707   2.717   7.911   2.190  0.0503  0.6110  0.0622
 9454SOL    HW134708   2.718   7.952   2.104  0.5590  0.8045  0.1573
 9454SOL    HW234709   2.624   7.900   2.211 -0.0857  1.4865 -0.0666
 9455SOL     OW34710   4.612   6.768   1.120  0.3115 -0.2186  0.0420
 9455SOL    HW134711   4.612   6.672   1.119  1.2784 -0.2309  0.2948
 9455SOL    HW234712   4.634   6.792   1.030  1.0326 -0.2503  0.2066
 9456SOL     OW34713   8.882   0.745   8.796 -0.0164  0.1649  0.0615
 9456SOL    HW134714   8.818   0.686   8.835  0.1069  0.4513  0.7061
 9456SOL    HW234715   8.838   0.830   8.793 -0.8360 -0.2536 -2.4392
 9457SOL     OW34716   2.520   1.026   2.765 -0.6024 -0.0181  0.1549
 9457SOL    HW134717   2.466   0.991   2.694 -0.3278 -2.2032  0.9511
 9457SOL    HW234718   2.591   0.963   2.775  1.3400  2.0257  0.1236
 9458SOL     OW34719   3.840   6.989   1.592 -0.8838 -0.1634 -0.4117
 9458SOL    HW134720   3.790   6.912   1.563 -0.5858 -0.2823 -0.6121
 9458SOL    HW234721   3.779   7.037   1.649 -1.6473  0.2896 -1.5506
 9459SOL     OW34722   2.513   9.051   5.321  0.0916  0.0609  0.4884
 9459SOL    HW134723   2.519   9.004   5.238  2.2556 -0.9619  1.1658
 9459SOL    HW234724   2.571   9.127   5.309  1.0924 -0.5429  1.2957
 9460SOL     OW34725   5.683   5.807   2.074  0.2247 -0.4356 -0.1904
 9460SOL    HW134726   5.731   5.880   2.034  0.1233 -0.1164  0.2551
 9460SOL    HW234727   5.701   5.816   2.168  0.4612 -1.1693 -0.1635
 9461SOL     OW34728   1.925   3.618   8.705  0.4234  0.0370 -0.0657
 9461SOL    HW134729   1.940   3.577   8.620  2.4955  0.2932  0.1374
 9461SOL    HW234730   2.011   3.649   8.733 -0.0914 -0.5261  2.3860
 9462SOL     OW34731   1.129   6.419   1.841 -0.2482 -0.0035 -0.4789
 9462SOL    HW134732   1.105   6.352   1.905 -2.3787  1.2541  0.1474
 9462SOL    HW234733   1.080   6.397   1.762  0.9815 -0.5283 -1.1356
 9463SOL     OW34734   4.805   7.997   8.412  0.0161 -0.0238  0.4363
 9463SOL    HW134735   4.762   7.911   8.412  1.5866 -0.8503  1.3884
 9463SOL    HW234736   4.871   7.991   8.343  0.1242  0.4257  0.4989
 9464SOL     OW34737   5.860   5.792   8.440 -0.4532 -0.1442  0.6254
 9464SOL    HW134738   5.804   5.798   8.363 -1.5534 -0.2434  1.3815
 9464SOL    HW234739   5.948   5.776   8.406 -0.8850  0.0280 -0.6018
 9465SOL     OW34740   6.146   7.230   4.556 -0.7463 -0.0016 -0.6817
 9465SOL    HW134741   6.092   7.158   4.523 -1.2207  0.3885 -0.7688
 9465SOL    HW234742   6.234   7.193   4.561 -0.9322 -0.5047 -0.9984
 9466SOL     OW34743   2.415   6.855   8.844 -0.3760 -0.1230  0.6777
 9466SOL    HW134744   2.333   6.888   8.808 -0.7349 -1.2609  0.4125
 9466SOL    HW234745   2.446   6.792   8.779  1.0106  0.7018  0.5032
 9467SOL     OW34746   3.164   8.193   6.490 -0.1396 -0.0885  0.3312
 9467SOL    HW134747   3.126   8.105   6.496 -0.1166 -0.0870  0.4856
 9467SOL    HW234748   3.216   8.202   6.570 -0.1741  0.0809  0.3334
 9468SOL     OW34749   3.207   0.514   8.867 -0.5406 -0.5217  0.2515
 9468SOL    HW134750   3.214   0.602   8.904  1.0354 -0.1363 -0.8771
 9468SOL    HW234751   3.183   0.529   8.775  1.2270 -1.1559 -0.3559
 9469SOL     OW34752   1.650   6.493   6.665  0.7053 -0.4450  0.0845
 9469SOL    HW134753   1.732   6.541   6.678  1.2194  0.2360 -4.0948
 9469SOL    HW234754   1.677   6.402   6.656  0.6460 -0.5773  1.1778
 9470SOL     OW34755   0.556   2.805   5.813 -0.0909 -0.3217  0.7828
 9470SOL    HW134756   0.486   2.740   5.812 -0.2657 -0.2501  3.0887
 9470SOL    HW234757   0.520   2.880   5.765 -1.3917 -0.4949  1.4365
 9471SOL     OW34758   8.868   8.794   7.664  0.5095 -0.5313 -0.2033
 9471SOL    HW134759   8.883   8.714   7.612 -1.4549  0.8098 -3.1335
 9471SOL    HW234760   8.776   8.814   7.650  0.5861  1.4756  1.6949
 9472SOL     OW34761   1.399   5.038   4.719 -0.0387  0.4984  0.1116
 9472SOL    HW134762   1.493   5.033   4.736 -0.3510 -1.2218  1.6898
 9472SOL    HW234763   1.360   5.047   4.806 -1.3732  0.2609 -0.4443
 9473SOL     OW34764   5.163   6.495   3.954  0.0447 -0.4577 -0.2542
 9473SOL    HW134765   5.157   6.426   4.020 -1.0201 -1.9136 -1.7936
 9473SOL    HW234766   5.075   6.531   3.947 -0.1310 -1.0792 -1.6121
 9474SOL     OW34767   1.262   4.549   2.424  0.2983 -0.1769 -0.1036
 9474SOL    HW134768   1.286   4.457   2.437 -0.0265 -0.2976 -0.3363
 9474SOL    HW234769   1.345   4.594   2.412  0.4712 -0.4098  0.2027
 9475SOL     OW34770   4.623   8.762   3.355 -0.1893 -0.2179 -0.0842
 9475SOL    HW134771   4.572   8.815   3.293 -1.8034 -2.1517 -0.5308
 9475SOL    HW234772   4.660   8.825   3.416  0.2039  1.6392 -2.1190
 9476SOL     OW34773   2.620   3.867   5.826 -0.4650  0.0876  0.2376
 9476SOL    HW134774   2.569   3.801   5.779 -0.9882  2.1474 -2.3063
 9476SOL    HW234775   2.574   3.949   5.812  1.1827  1.3502  1.6527
 9477SOL     OW34776   4.276   2.926   6.944  0.2159 -0.0106 -0.2702
 9477SOL    HW134777   4.247   2.904   7.033  2.0115 -2.2158 -0.1473
 9477SOL    HW234778   4.244   3.015   6.930  0.2780  0.5945  2.7542
 9478SOL     OW34779   2.359   6.431   2.416 -0.0519 -0.6027  0.2229
 9478SOL    HW134780   2.441   6.384   2.432  0.8690  0.6308 -0.6121
 9478SOL    HW234781   2.373   6.472   2.330 -1.0480  0.6717  0.6514
 9479SOL     OW34782   2.786   2.534   1.703 -0.1669 -0.0906  0.4114
 9479SOL    HW134783   2.706   2.512   1.656 -0.5969 -0.8314  1.4368
 9479SOL    HW234784   2.852   2.476   1.666  0.4803  2.0120 -1.9695
 9480SOL     OW34785   8.712   3.159   6.827  0.2941  0.1242 -0.1513
 9480SOL    HW134786   8.731   3.224   6.759  0.2407 -1.2283 -1.5131
 9480SOL    HW234787   8.780   3.093   6.817 -1.5569 -1.7504 -1.0880
 9481SOL     OW34788   7.318   3.967   7.470  0.0297 -0.1020 -0.4578
 9481SOL    HW134789   7.257   4.029   7.510  1.9265  1.6293 -0.0688
 9481SOL    HW234790   7.339   3.905   7.540 -0.8299 -0.3890 -0.4407
 9482SOL     OW34791   7.178   2.193   0.372 -0.0631 -0.1048 -0.2238
 9482SOL    HW134792   7.111   2.131   0.342 -0.3642  0.1364 -0.0640
 9482SOL    HW234793   7.159   2.205   0.466  0.4393 -0.3252 -0.0967
 9483SOL     OW34794   1.679   7.977   8.116  0.2233  0.0895 -0.1621
 9483SOL    HW134795   1.584   7.966   8.117 -0.0016  1.8184  0.4018
 9483SOL    HW234796   1.696   8.035   8.042  0.9311 -0.7447 -0.6759
 9484SOL     OW34797   6.223   6.372   3.646  0.3818  0.5255  0.0269
 9484SOL    HW134798   6.212   6.306   3.578  1.4111  1.4036 -1.0351
 9484SOL    HW234799   6.162   6.442   3.622  1.2007  1.1194 -0.3816
 9485SOL     OW34800   6.739   1.719   4.964  0.0050 -0.2663  0.5098
 9485SOL    HW134801   6.697   1.657   5.023 -0.8229  0.5000  0.7560
 9485SOL    HW234802   6.749   1.671   4.882 -1.9686 -0.3142  0.2380
 9486SOL     OW34803   6.285   5.356   5.364 -0.8230  0.0115  0.0739
 9486SOL    HW134804   6.298   5.296   5.290 -3.2406  1.1588 -1.4014
 9486SOL    HW234805   6.343   5.430   5.345 -1.1697  0.1418 -0.4763
 9487SOL     OW34806   7.907   5.231   9.156  0.2204  0.7421  0.0613
 9487SOL    HW134807   7.858   5.301   9.114  0.4200  0.8223 -0.0402
 9487SOL    HW234808   7.840   5.168   9.184  0.1719 -0.0686 -1.7521
 9488SOL     OW34809   6.231   2.666   0.524 -0.2201 -0.2115  0.4488
 9488SOL    HW134810   6.162   2.599   0.522  0.1188 -0.7044  2.7788
 9488SOL    HW234811   6.283   2.645   0.601  1.1238  1.5734  0.0930
 9489SOL     OW34812   8.152   7.489   8.642 -0.1429 -0.2506 -0.0191
 9489SOL    HW134813   8.151   7.554   8.712  0.0148  0.2235 -0.4521
 9489SOL    HW234814   8.216   7.522   8.579 -0.0286 -0.8461 -0.2283
 9490SOL     OW34815   3.281   4.242   7.001 -0.4735  0.0400  0.0992
 9490SOL    HW134816   3.216   4.222   6.934 -0.6731 -1.6585  0.7516
 9490SOL    HW234817   3.231   4.248   7.082 -0.0151  0.2827  0.3680
 9491SOL     OW34818   4.956   0.361   5.981 -0.8093  0.2666  0.0259
 9491SOL    HW134819   4.866   0.392   5.994 -1.3263 -0.7783 -0.8898
 9491SOL    HW234820   4.988   0.342   6.069 -1.4410  0.7694  0.3719
 9492SOL     OW34821   6.485   7.208   8.233  0.0733  0.4164  0.1337
 9492SOL    HW134822   6.402   7.213   8.187 -0.4527 -1.2453  0.8010
 9492SOL    HW234823   6.542   7.271   8.189 -0.9737  0.2489 -1.5263
 9493SOL     OW34824   0.708   3.594   7.148  0.4716 -0.3081  0.0427
 9493SOL    HW134825   0.706   3.515   7.094 -0.3917 -1.0620  1.1157
 9493SOL    HW234826   0.626   3.639   7.128  1.3155  0.7740 -1.1594
 9494SOL     OW34827   1.348   2.017   8.412  0.1205 -0.1694 -0.0422
 9494SOL    HW134828   1.284   2.071   8.458 -0.5481 -0.0078 -1.1338
 9494SOL    HW234829   1.298   1.943   8.379  0.4375  0.0548 -1.0699
 9495SOL     OW34830   5.826   1.734   5.556  0.2034 -1.0052 -0.4069
 9495SOL    HW134831   5.898   1.699   5.608 -0.2259  0.8859  1.5849
 9495SOL    HW234832   5.752   1.677   5.576 -0.3858  0.5774  2.4996
 9496SOL     OW34833   4.250   8.533   7.693  0.0916  0.2976 -0.2016
 9496SOL    HW134834   4.344   8.544   7.679 -0.1820  0.7721 -1.8718
 9496SOL    HW234835   4.211   8.552   7.608 -1.6039  1.0332  0.7064
 9497SOL     OW34836   5.783   4.338   8.541 -0.6131 -0.6011 -0.0453
 9497SOL    HW134837   5.691   4.318   8.523 -0.4312 -0.9940 -0.5713
 9497SOL    HW234838   5.800   4.419   8.492 -0.3661 -1.1727 -0.9323
 9498SOL     OW34839   7.980   4.477   1.712  0.2091 -0.0427 -0.0614
 9498SOL    HW134840   7.996   4.534   1.637 -1.6758  0.0013 -0.4740
 9498SOL    HW234841   7.977   4.536   1.788 -0.3572  0.2382 -0.2987
 9499SOL     OW34842   5.876   1.373   8.750  0.6657 -0.1863  0.1028
 9499SOL    HW134843   5.880   1.288   8.706 -0.4768 -0.4007  0.3654
 9499SOL    HW234844   5.903   1.356   8.840  0.7632 -0.2061  0.0695
 9500SOL     OW34845   0.312   1.364   5.070  0.3889 -0.0977  0.0138
 9500SOL    HW134846   0.263   1.375   5.152 -0.8246  0.1688 -0.7172
 9500SOL    HW234847   0.288   1.276   5.040  1.7908 -0.6803  0.5427
 9501SOL     OW34848   1.108   6.925   3.179  0.2098 -0.1299  0.2518
 9501SOL    HW134849   1.202   6.932   3.162 -0.0637 -1.0858 -2.0089
 9501SOL    HW234850   1.070   7.000   3.134 -0.2880 -1.0125 -0.8311
 9502SOL     OW34851   2.700   4.637   1.571  0.5975  0.0181 -0.4092
 9502SOL    HW134852   2.667   4.629   1.661  1.0883  1.4004 -0.0885
 9502SOL    HW234853   2.651   4.570   1.522 -0.8093  0.2786  0.5663
 9503SOL     OW34854   2.303   2.609   7.980 -0.0407 -0.1736 -0.3348
 9503SOL    HW134855   2.247   2.684   7.959 -0.8115 -0.7349 -0.3317
 9503SOL    HW234856   2.271   2.578   8.065  1.6561  0.7664  0.6830
 9504SOL     OW34857   3.355   0.555   7.230 -0.0721  0.0976  0.1863
 9504SOL    HW134858   3.364   0.649   7.214 -0.5602 -0.2346 -2.5973
 9504SOL    HW234859   3.445   0.524   7.242  0.4541  0.5076 -2.1716
 9505SOL     OW34860   2.931   0.321   0.198  0.1547 -0.3582 -0.3689
 9505SOL    HW134861   2.976   0.258   0.142  0.0625 -0.3754 -0.4234
 9505SOL    HW234862   3.001   0.374   0.236  0.2030 -0.1830 -0.6972
 9506SOL     OW34863   1.301   8.219   1.447  0.1990  0.0753 -0.0079
 9506SOL    HW134864   1.302   8.144   1.388 -1.1560 -0.6088  0.7800
 9506SOL    HW234865   1.367   8.279   1.411 -1.4017  0.2842 -2.9690
 9507SOL     OW34866   6.434   1.624   4.029  0.1781  0.4356  0.3923
 9507SOL    HW134867   6.464   1.543   3.987  0.0548  0.0409  1.0560
 9507SOL    HW234868   6.454   1.693   3.965  2.5748  0.2192  0.8387
 9508SOL     OW34869   4.614   8.923   5.050 -0.0674  0.2658 -0.2319
 9508SOL    HW134870   4.524   8.897   5.069 -0.0136 -0.3377 -0.7359
 9508SOL    HW234871   4.634   8.992   5.113 -0.8243  0.2864 -0.0068
 9509SOL     OW34872   6.759   0.835   6.439  0.1427  0.0709  0.1564
 9509SOL    HW134873   6.840   0.816   6.486 -0.4310 -0.9107  0.7862
 9509SOL    HW234874   6.758   0.772   6.366  0.3513  0.6582 -0.3653
 9510SOL     OW34875   6.901   2.982   4.203  0.0854 -0.2345  0.1548
 9510SOL    HW134876   6.925   2.942   4.286  0.6044  1.3810  0.8273
 9510SOL    HW234877   6.815   2.945   4.182  0.3654 -1.3710  0.9132
 9511SOL     OW34878   8.877   3.184   5.055 -0.4983  0.4055 -0.1880
 9511SOL    HW134879   8.896   3.163   4.964  0.3164  0.4658 -0.0372
 9511SOL    HW234880   8.864   3.279   5.056 -0.9546  0.3450 -0.3166
 9512SOL     OW34881   7.519   4.095   4.059  0.4763 -0.2055  0.2082
 9512SOL    HW134882   7.587   4.162   4.069 -0.3734  1.0362 -1.7579
 9512SOL    HW234883   7.564   4.013   4.077  1.4534  0.8418  3.1508
 9513SOL     OW34884   8.941   8.479   3.009  0.4504 -0.3652  0.0321
 9513SOL    HW134885   8.878   8.411   3.030 -1.3364  1.3130  0.4269
 9513SOL    HW234886   8.969   8.513   3.094 -0.5774  0.9986 -0.1371
 9514SOL     OW34887   2.934   3.808   0.302  0.4536 -0.2053  0.0755
 9514SOL    HW134888   2.840   3.798   0.291  0.3140 -0.5665  1.4504
 9514SOL    HW234889   2.965   3.838   0.216 -0.5336 -2.4910 -1.1683
 9515SOL     OW34890   5.313   8.809   8.361  0.0927 -0.1572 -0.2780
 9515SOL    HW134891   5.330   8.886   8.416  0.7342  0.0572 -0.7572
 9515SOL    HW234892   5.349   8.736   8.410 -0.2672 -0.1171  0.0525
 9516SOL     OW34893   4.614   3.061   3.742  0.6314 -0.5707 -0.1377
 9516SOL    HW134894   4.607   3.042   3.648  0.0372 -2.3613  0.2160
 9516SOL    HW234895   4.524   3.070   3.772  0.7298 -1.5167  0.5025
 9517SOL     OW34896   4.216   4.315   7.525 -0.3224  0.3580  0.0843
 9517SOL    HW134897   4.186   4.224   7.528  0.2391  0.1138 -1.0745
 9517SOL    HW234898   4.139   4.366   7.552 -1.8198 -0.2679 -2.6241
 9518SOL     OW34899   0.741   2.418   1.978  0.2091  0.3972  0.2992
 9518SOL    HW134900   0.768   2.326   1.973  1.8234  0.8341  0.3705
 9518SOL    HW234901   0.660   2.416   2.029 -0.7307 -1.1460 -1.1261
 9519SOL     OW34902   3.938   7.086   8.771  0.1364 -0.2516 -0.1223
 9519SOL    HW134903   3.986   7.150   8.823  1.2014  0.1498 -1.5268
 9519SOL    HW234904   3.914   7.133   8.691 -0.6142 -1.1116 -0.4263
 9520SOL     OW34905   0.868   6.079   0.738  0.1911  0.3944  0.0557
 9520SOL    HW134906   0.872   5.984   0.750  0.9010  0.3670 -0.3242
 9520SOL    HW234907   0.776   6.097   0.721  0.1048 -0.2768 -0.2262
 9521SOL     OW34908   2.824   2.004   1.957  0.5597 -0.1089 -0.1089
 9521SOL    HW134909   2.899   2.057   1.980 -0.0789  0.7219  0.0988
 9521SOL    HW234910   2.804   1.954   2.036  0.8448 -0.2878 -0.1473
 9522SOL     OW34911   1.544   0.434   5.120  0.1991  0.5519 -0.2025
 9522SOL    HW134912   1.554   0.504   5.056  2.8581  0.6331  0.1835
 9522SOL    HW234913   1.632   0.397   5.129 -0.6315 -1.1948  1.4517
 9523SOL     OW34914   6.172   0.829   6.687 -0.6444 -0.0231 -0.0640
 9523SOL    HW134915   6.193   0.804   6.777 -0.7493  0.3397  0.0617
 9523SOL    HW234916   6.091   0.781   6.667 -0.6230 -0.1015  0.0358
 9524SOL     OW34917   9.177   8.634   3.886 -0.1010  0.1694 -0.0021
 9524SOL    HW134918   9.226   8.656   3.807 -0.3758  0.7693 -0.0091
 9524SOL    HW234919   9.237   8.655   3.958 -0.4826  1.2882  0.0037
 9525SOL     OW34920   8.480   7.624   7.773 -0.6614 -0.2503 -0.1839
 9525SOL    HW134921   8.522   7.710   7.767  0.3103 -0.7115 -0.2910
 9525SOL    HW234922   8.454   7.604   7.684  0.3668 -0.6498 -0.4153
 9526SOL     OW34923   8.513   3.289   4.839  0.2746  0.8651  0.4351
 9526SOL    HW134924   8.434   3.284   4.892 -0.4634 -0.5945 -0.7204
 9526SOL    HW234925   8.490   3.348   4.767  0.1715  0.3482  0.0338
 9527SOL     OW34926   3.071   0.776   2.545  0.0427  0.5959 -0.3018
 9527SOL    HW134927   2.979   0.760   2.525  0.5783 -4.7509  0.0496
 9527SOL    HW234928   3.118   0.752   2.465  1.2513  1.9890 -0.0575
 9528SOL     OW34929   1.678   0.251   0.778  0.0131  0.4198 -0.1630
 9528SOL    HW134930   1.611   0.300   0.731 -0.0630  0.4580 -0.0155
 9528SOL    HW234931   1.760   0.295   0.757 -0.3141  2.4622  2.2582
 9529SOL     OW34932   7.834   6.764   1.128 -0.0609 -0.3644 -0.6596
 9529SOL    HW134933   7.859   6.676   1.100  1.0654 -1.0303  2.1292
 9529SOL    HW234934   7.776   6.751   1.203  1.6181  1.1817  1.0254
 9530SOL     OW34935   2.482   6.866   4.295 -0.1569  0.0105 -0.1056
 9530SOL    HW134936   2.435   6.942   4.259 -2.9852 -2.0978 -1.2677
 9530SOL    HW234937   2.510   6.817   4.218 -0.1891 -1.1468  0.6007
 9531SOL     OW34938   0.122   6.823   2.508  0.4065  0.3745 -0.2801
 9531SOL    HW134939   0.144   6.905   2.553  0.3389  0.1988  0.0794
 9531SOL    HW234940   0.204   6.795   2.467  0.8650 -0.2296  0.9767
 9532SOL     OW34941   1.304   6.353   4.278 -0.0877 -0.6407  0.2939
 9532SOL    HW134942   1.388   6.312   4.256 -0.0961 -0.0435 -0.9149
 9532SOL    HW234943   1.255   6.351   4.196 -0.1833  1.5597  0.2592
 9533SOL     OW34944   0.689   7.665   2.260 -0.7335  0.2838 -0.1320
 9533SOL    HW134945   0.632   7.691   2.333  0.3564 -1.8975  1.6443
 9533SOL    HW234946   0.777   7.666   2.297 -0.3025 -2.3845 -0.8426
 9534SOL     OW34947   4.561   3.191   0.239 -0.4455  0.5793  0.0082
 9534SOL    HW134948   4.527   3.148   0.161  0.7262 -1.0832  0.3418
 9534SOL    HW234949   4.625   3.254   0.206  0.2211 -0.2833 -0.3907
 9535SOL     OW34950   8.525   1.885   6.346  0.4310 -0.2366  0.3224
 9535SOL    HW134951   8.587   1.904   6.416  0.4305 -1.5551  0.7244
 9535SOL    HW234952   8.574   1.829   6.285 -0.0680 -0.5069  0.1621
 9536SOL     OW34953   9.076   2.545   1.805  0.3206 -0.1205 -0.1162
 9536SOL    HW134954   9.155   2.500   1.775  0.9796  1.4126 -0.7839
 9536SOL    HW234955   9.050   2.498   1.884  1.0466 -1.5604 -0.6894
 9537SOL     OW34956   6.185   7.690   5.780  0.0560  0.1443  0.3980
 9537SOL    HW134957   6.272   7.676   5.817  1.0999  0.3660 -1.8071
 9537SOL    HW234958   6.192   7.773   5.732 -1.1430 -0.1866 -0.4040
 9538SOL     OW34959   2.779   4.003   3.766  0.4750  0.1108 -0.3066
 9538SOL    HW134960   2.851   4.056   3.800  0.0866 -0.2509  1.1275
 9538SOL    HW234961   2.726   4.065   3.714  0.7255  0.8394  0.2889
 9539SOL     OW34962   5.679   8.793   7.442  0.0495  0.0736 -0.2212
 9539SOL    HW134963   5.589   8.791   7.476  0.1099  2.7750  0.3341
 9539SOL    HW234964   5.687   8.713   7.390 -2.4767 -0.5232  0.1801
 9540SOL     OW34965   0.369   6.772   2.365  0.0237 -0.2512 -0.1596
 9540SOL    HW134966   0.460   6.770   2.335 -0.8926  0.5103 -3.3404
 9540SOL    HW234967   0.320   6.809   2.292 -2.8189 -0.1335  1.6388
 9541SOL     OW34968   2.046   6.327   5.760  0.3756 -0.0800 -0.1230
 9541SOL    HW134969   2.008   6.399   5.709 -0.1426 -0.5964 -0.4799
 9541SOL    HW234970   2.135   6.316   5.724  0.5679  0.5797  0.1438
 9542SOL     OW34971   1.701   8.174   1.845  0.7248  0.0399 -0.1898
 9542SOL    HW134972   1.735   8.206   1.928  0.5275  1.3084 -0.5783
 9542SOL    HW234973   1.618   8.220   1.833 -0.3535 -1.7685 -0.0560
 9543SOL     OW34974   3.270   4.274   3.803  0.3613  0.3438 -0.1229
 9543SOL    HW134975   3.185   4.249   3.768  1.2118 -1.6392 -0.9101
 9543SOL    HW234976   3.280   4.222   3.882  0.7442  0.7702  0.1184
 9544SOL     OW34977   1.899   3.397   6.397  0.3190  0.2337  0.1925
 9544SOL    HW134978   1.872   3.399   6.489 -0.6119 -0.2156 -0.0660
 9544SOL    HW234979   1.818   3.389   6.348  0.8559 -0.2441 -0.6386
 9545SOL     OW34980   8.835   5.093   8.151  0.3086 -0.5649 -0.0554
 9545SOL    HW134981   8.820   5.167   8.210  0.1857 -0.0538 -0.7177
 9545SOL    HW234982   8.900   5.039   8.196  0.1729 -0.2108  0.5712
 9546SOL     OW34983   1.250   2.356   6.835  0.3747  0.5597 -0.2474
 9546SOL    HW134984   1.160   2.388   6.844  0.8334  1.7865  0.1400
 9546SOL    HW234985   1.283   2.398   6.756  0.4172 -0.4091 -0.7656
 9547SOL     OW34986   2.094   3.772   1.760 -0.4086  0.3216  1.0932
 9547SOL    HW134987   2.007   3.768   1.800 -0.1141 -1.1927  1.6470
 9547SOL    HW234988   2.154   3.745   1.830  0.1227 -2.3824 -0.2523
 9548SOL     OW34989   4.382   5.635   6.970 -0.0865  0.0812  0.0732
 9548SOL    HW134990   4.331   5.684   7.034  1.0117 -2.7860  3.4806
 9548SOL    HW234991   4.443   5.699   6.933 -1.1426  2.0095  1.4896
 9549SOL     OW34992   0.503   3.077   3.263  0.4168 -0.4608 -0.1010
 9549SOL    HW134993   0.512   2.990   3.225 -0.7921  0.1216 -1.8788
 9549SOL    HW234994   0.419   3.076   3.308  0.5611 -0.3131  0.1762
 9550SOL     OW34995   4.336   5.056   0.708  0.2251 -0.1087  0.4108
 9550SOL    HW134996   4.250   5.037   0.671  0.2667  0.0608  0.2253
 9550SOL    HW234997   4.358   5.143   0.674 -0.4577  0.7883  2.1362
 9551SOL     OW34998   4.704   6.190   5.908  0.3401  0.0114 -0.2123
 9551SOL    HW134999   4.663   6.160   5.989 -0.1746  1.4146  0.0861
 9551SOL    HW235000   4.739   6.277   5.930  0.8246  0.1082 -1.3039
 9552SOL     OW35001   9.213   7.174   0.514 -0.0388 -0.9074 -0.2912
 9552SOL    HW135002   9.173   7.172   0.601 -0.2968 -0.2479 -0.3908
 9552SOL    HW235003   9.246   7.085   0.501  1.0388 -0.7111  0.9544
 9553SOL     OW35004   4.934   6.201   2.208  0.0851  0.1022  0.5933
 9553SOL    HW135005   4.923   6.207   2.303  0.7852  1.5138  0.6084
 9553SOL    HW235006   5.016   6.152   2.196  1.0853  1.6579  0.7937
 9554SOL     OW35007   4.524   1.786   2.792 -0.2370  0.2837  0.1739
 9554SOL    HW135008   4.471   1.733   2.732  1.6473 -1.1326 -0.3174
 9554SOL    HW235009   4.512   1.876   2.762 -3.8985  0.3487  1.3196
 9555SOL     OW35010   1.817   1.289   8.786 -0.1738  0.1303  0.4593
 9555SOL    HW135011   1.730   1.261   8.814 -0.6484  1.8036  0.7530
 9555SOL    HW235012   1.809   1.302   8.691  0.0181 -0.5724  0.3402
 9556SOL     OW35013   0.209   5.596   7.389  0.2715 -0.0109  0.3167
 9556SOL    HW135014   0.121   5.594   7.352  0.4625 -1.3571 -0.1093
 9556SOL    HW235015   0.199   5.569   7.480  0.2989 -0.7616  0.1064
 9557SOL     OW35016   7.445   3.029   0.182  0.1251 -0.6196  0.1425
 9557SOL    HW135017   7.453   3.108   0.235  0.6433 -1.4530  1.3421
 9557SOL    HW235018   7.351   3.022   0.165 -0.1587 -0.7194  1.5909
 9558SOL     OW35019   2.826   8.827   0.396  0.1208 -0.2027 -0.0024
 9558SOL    HW135020   2.885   8.899   0.417 -0.2719 -0.0578  0.6603
 9558SOL    HW235021   2.882   8.760   0.356  1.0667 -0.7155  2.0058
 9559SOL     OW35022   3.559   0.815   5.564 -0.6172 -0.2713 -0.7205
 9559SOL    HW135023   3.518   0.739   5.524  0.8877 -1.7503  0.3611
 9559SOL    HW235024   3.492   0.883   5.564 -2.9701 -2.4292  0.6774
 9560SOL     OW35025   4.285   7.705   7.793  0.2941  0.3889  0.2732
 9560SOL    HW135026   4.202   7.683   7.836  1.5408 -1.4082  1.9350
 9560SOL    HW235027   4.260   7.721   7.701 -1.8985  0.0874  0.7489
 9561SOL     OW35028   8.123   7.616   5.610  0.3105  0.5432  0.0462
 9561SOL    HW135029   8.162   7.529   5.622 -1.8154 -0.2111  2.0842
 9561SOL    HW235030   8.092   7.641   5.696 -2.7410  1.5185 -1.2125
 9562SOL     OW35031   1.943   0.840   6.056  0.4352 -0.5868 -0.6055
 9562SOL    HW135032   2.011   0.783   6.091  1.0432  0.0047 -0.8010
 9562SOL    HW235033   1.895   0.786   5.994 -0.0242 -1.3511  0.3854
 9563SOL     OW35034   5.787   5.313   2.435 -0.2823  0.1970  0.2185
 9563SOL    HW135035   5.747   5.266   2.509 -0.5633  0.7657  0.4365
 9563SOL    HW235036   5.794   5.247   2.366  3.3822 -1.4225  1.8507
 9564SOL     OW35037   8.121   0.503   4.621 -0.2727  0.1433  0.4597
 9564SOL    HW135038   8.078   0.553   4.551  1.9803 -0.3227 -1.3814
 9564SOL    HW235039   8.058   0.503   4.693 -2.4075  1.2864 -1.2961
 9565SOL     OW35040   6.460   2.051   5.780  0.0435 -0.2704 -0.2233
 9565SOL    HW135041   6.377   2.098   5.792  0.0369  0.4705 -2.5417
 9565SOL    HW235042   6.504   2.098   5.709  2.7330 -0.3368  1.2919
 9566SOL     OW35043   2.986   3.434   5.273 -0.5555 -0.4992  0.5459
 9566SOL    HW135044   3.006   3.514   5.320 -0.9991  0.2269 -0.4708
 9566SOL    HW235045   2.998   3.456   5.181  0.2318 -1.8694  0.2851
 9567SOL     OW35046   0.115   6.163   2.465 -0.0761  0.0850  0.3170
 9567SOL    HW135047   0.178   6.205   2.523 -1.0725  2.8149 -0.4205
 9567SOL    HW235048   0.030   6.182   2.504 -0.6411  0.1528 -0.9128
 9568SOL     OW35049   8.549   6.932   0.745 -0.2518 -0.7761  0.3944
 9568SOL    HW135050   8.587   7.016   0.768 -3.0048  0.4468  0.8950
 9568SOL    HW235051   8.532   6.889   0.829 -2.6905  0.0855  0.4324
 9569SOL     OW35052   8.109   2.774   1.235 -0.4273  0.6144 -0.5907
 9569SOL    HW135053   8.037   2.824   1.196 -1.1889 -1.7535 -2.4707
 9569SOL    HW235054   8.178   2.776   1.169  0.9681  2.1134  0.8313
 9570SOL     OW35055   6.874   0.180   5.956 -0.3197  0.1344  0.1006
 9570SOL    HW135056   6.912   0.092   5.960  0.6470  0.4839 -0.8907
 9570SOL    HW235057   6.946   0.238   5.983 -0.5281  0.7118 -0.5490
 9571SOL     OW35058   9.003   2.164   8.780  0.0470  0.2554  0.4371
 9571SOL    HW135059   9.031   2.242   8.828  0.1222 -0.5243  1.6967
 9571SOL    HW235060   8.908   2.163   8.790  0.1363 -0.3260  1.2226
 9572SOL     OW35061   2.600   1.996   1.008  1.1542  0.3246  0.3063
 9572SOL    HW135062   2.634   2.047   0.934  0.9181  0.9175  0.5917
 9572SOL    HW235063   2.674   1.990   1.069  0.7958  1.5710  0.9053
 9573SOL     OW35064   8.103   1.936   2.490 -0.3225  0.3151 -0.3408
 9573SOL    HW135065   8.100   1.841   2.495  0.9157  0.2224 -0.9606
 9573SOL    HW235066   8.013   1.962   2.470 -0.8436 -0.6504  0.6288
 9574SOL     OW35067   0.372   5.837   7.465  0.2334  0.0835 -0.0224
 9574SOL    HW135068   0.397   5.883   7.385  3.9087 -0.8646  0.4372
 9574SOL    HW235069   0.315   5.766   7.436  1.0330  0.1065 -1.7046
 9575SOL     OW35070   9.184   0.280   9.225 -0.7489 -0.4671 -0.0797
 9575SOL    HW135071   9.233   0.307   9.147 -2.0416 -1.0865 -1.1447
 9575SOL    HW235072   9.243   0.299   9.298  0.6467 -0.2064 -1.2291
 9576SOL     OW35073   1.217   3.929   3.510 -0.7107  0.0401 -0.0835
 9576SOL    HW135074   1.268   4.010   3.516  1.6528 -1.3888  0.5653
 9576SOL    HW235075   1.156   3.932   3.584  0.1441  0.7318  0.6125
 9577SOL     OW35076   9.030   3.184   0.147 -0.4602  0.2332 -1.1868
 9577SOL    HW135077   9.038   3.088   0.146 -0.5741  0.2255 -1.3422
 9577SOL    HW235078   8.941   3.201   0.177  0.0904  0.3229  0.5205
 9578SOL     OW35079   0.512   9.153   2.880 -0.5022 -0.0954 -0.0153
 9578SOL    HW135080   0.576   9.087   2.907 -1.1368 -0.6441  0.1619
 9578SOL    HW235081   0.517   9.154   2.784  0.1293  0.2323  0.0134
 9579SOL     OW35082   4.832   3.480   6.787  0.1983 -0.4117  0.2837
 9579SOL    HW135083   4.767   3.425   6.831  0.8696 -1.8137 -0.4061
 9579SOL    HW235084   4.785   3.561   6.766 -0.8409 -0.7318  1.2714
 9580SOL     OW35085   4.224   8.506   3.988 -0.1082  0.1217 -0.5062
 9580SOL    HW135086   4.226   8.554   3.904  1.5020  0.7179 -0.1743
 9580SOL    HW235087   4.201   8.573   4.053  5.3439  1.5990  0.4712
 9581SOL     OW35088   7.976   3.154   7.167 -0.2335  0.8629 -0.0006
 9581SOL    HW135089   7.934   3.077   7.206 -1.2471 -0.5085 -3.4407
 9581SOL    HW235090   8.066   3.127   7.152 -0.4526  0.4893 -0.7100
 9582SOL     OW35091   8.827   3.784   3.412 -0.4291 -0.3093 -0.0105
 9582SOL    HW135092   8.770   3.709   3.394  1.5627 -2.4838  2.1115
 9582SOL    HW235093   8.807   3.809   3.502  0.0135  0.6920 -0.1818
 9583SOL     OW35094   4.377   3.467   1.929  0.2216  0.1250  0.0252
 9583SOL    HW135095   4.297   3.477   1.878 -0.1318 -0.7106  0.3831
 9583SOL    HW235096   4.366   3.383   1.973  2.8758 -1.9403 -2.7840
 9584SOL     OW35097   6.734   8.846   0.319  0.2462 -0.4653 -0.5028
 9584SOL    HW135098   6.718   8.856   0.413  1.9840 -1.7255 -0.0234
 9584SOL    HW235099   6.674   8.776   0.291 -1.9171  1.4113 -0.9018
 9585SOL     OW35100   3.462   2.677   7.298  0.4155 -0.3237 -0.5004
 9585SOL    HW135101   3.412   2.626   7.361  1.5360  0.9467  1.4999
 9585SOL    HW235102   3.466   2.765   7.335  2.4563  0.0886 -1.5265
 9586SOL     OW35103   0.033   1.606   2.711  0.3872 -0.5883 -0.1246
 9586SOL    HW135104   0.025   1.512   2.725  0.3481 -0.5838 -0.1189
 9586SOL    HW235105  -0.005   1.645   2.789 -0.0571 -0.5577 -0.3576
 9587SOL     OW35106   6.999   6.787   3.382  0.6360  0.0741  0.6184
 9587SOL    HW135107   6.945   6.791   3.461 -0.5346 -1.3085 -0.0773
 9587SOL    HW235108   7.024   6.695   3.375 -0.7280 -0.1906 -1.5342
 9588SOL     OW35109   1.601   8.686   8.854 -0.1889  0.0855  0.2007
 9588SOL    HW135110   1.694   8.674   8.833 -0.0789 -0.9013  1.1778
 9588SOL    HW235111   1.579   8.612   8.910 -1.8368 -0.2500 -0.8201
 9589SOL     OW35112   2.787   4.246   7.543  0.0607 -0.1352 -0.5413
 9589SOL    HW135113   2.849   4.275   7.610  1.2332 -1.0505 -1.1920
 9589SOL    HW235114   2.783   4.320   7.481  1.5545 -0.5531 -1.1870
 9590SOL     OW35115   5.764   4.700   0.003  0.3307  0.1003  0.0251
 9590SOL    HW135116   5.808   4.667  -0.075 -0.6186  2.7546 -1.7586
 9590SOL    HW235117   5.825   4.766   0.038 -0.9922  1.9043 -0.9419
 9591SOL     OW35118   4.438   2.343   8.431  0.0785 -0.3370 -0.1811
 9591SOL    HW135119   4.451   2.264   8.484  0.6303  0.0475  0.2701
 9591SOL    HW235120   4.498   2.407   8.469 -0.8519  0.5069 -0.1223
 9592SOL     OW35121   8.163   8.961   7.668  0.6394 -0.0913 -0.1152
 9592SOL    HW135122   8.178   8.903   7.743 -0.1491  1.2989  1.1798
 9592SOL    HW235123   8.156   8.902   7.593  0.9557 -1.5706  0.9621
 9593SOL     OW35124   8.942   0.890   0.965 -0.7366 -0.5104 -0.1079
 9593SOL    HW135125   8.937   0.970   1.017  0.3210 -0.3366 -0.2460
 9593SOL    HW235126   8.931   0.819   1.029 -1.9977 -0.2685 -0.0331
 9594SOL     OW35127   1.741   0.343   3.298 -0.1336 -0.0938  0.4451
 9594SOL    HW135128   1.818   0.313   3.348 -0.5049 -0.6158  0.7098
 9594SOL    HW235129   1.776   0.362   3.210  0.3584 -0.0146  0.6531
 9595SOL     OW35130   7.332   3.879   4.803 -0.3240  0.3452  0.1468
 9595SOL    HW135131   7.260   3.864   4.865  1.6463 -2.5451  2.0008
 9595SOL    HW235132   7.292   3.870   4.717 -2.3972  0.1848  1.0659
 9596SOL     OW35133   5.387   2.952   5.132 -0.1536  0.6146 -0.1918
 9596SOL    HW135134   5.334   3.031   5.124  0.5820  0.9242 -3.2394
 9596SOL    HW235135   5.341   2.887   5.079  0.2495 -0.4751  0.7322
 9597SOL     OW35136   1.122   7.263   3.288  0.6633  0.2860 -0.4230
 9597SOL    HW135137   1.139   7.356   3.277 -0.1632  0.4536 -0.3490
 9597SOL    HW235138   1.092   7.254   3.378 -0.1387  0.0957 -0.6937
 9598SOL     OW35139   7.877   2.862   3.555  0.5814  0.1468 -0.2310
 9598SOL    HW135140   7.918   2.840   3.639  3.1065  1.4044 -1.0724
 9598SOL    HW235141   7.942   2.840   3.489 -0.8763  0.3602 -1.8270
 9599SOL     OW35142   3.895   4.516   2.577 -0.3087  0.0603 -0.0068
 9599SOL    HW135143   3.868   4.491   2.665 -0.7046  0.2617 -0.0703
 9599SOL    HW235144   3.844   4.460   2.519  1.8672 -2.0027 -0.0881
 9600SOL     OW35145   3.197   1.888   8.991 -0.2345  0.0042 -0.4221
 9600SOL    HW135146   3.275   1.856   9.036 -0.2002 -1.4063 -1.4208
 9600SOL    HW235147   3.224   1.896   8.899 -1.2115 -0.3348 -0.7483
 9601SOL     OW35148   8.572   5.663   5.473 -0.5651  0.5015  0.7872
 9601SOL    HW135149   8.490   5.684   5.428  0.3076  0.0889 -1.0786
 9601SOL    HW235150   8.568   5.568   5.486 -0.1096  0.3771  0.0778
 9602SOL     OW35151   8.434   1.139   6.143 -0.5484  0.5177 -0.2834
 9602SOL    HW135152   8.487   1.097   6.075  0.6613  1.7493 -0.1490
 9602SOL    HW235153   8.399   1.066   6.194  1.9264 -0.3744  0.2987
 9603SOL     OW35154   7.667   8.161   0.763 -0.1134  0.0504 -0.3526
 9603SOL    HW135155   7.687   8.107   0.686 -0.0335 -0.8005  0.2546
 9603SOL    HW235156   7.634   8.243   0.726  0.5171 -0.1043 -1.3028
 9604SOL     OW35157   2.875   6.301   8.138  0.4345  0.4153  0.2251
 9604SOL    HW135158   2.849   6.284   8.228  0.4776 -0.3363  0.1026
 9604SOL    HW235159   2.809   6.256   8.085 -0.1683  1.6669 -0.1468
 9605SOL     OW35160   0.649   5.036   7.408  0.3649 -0.0801 -0.2620
 9605SOL    HW135161   0.724   4.977   7.409  1.1041  0.8532  0.0692
 9605SOL    HW235162   0.624   5.041   7.315  0.5211 -0.6248 -0.3340
 9606SOL     OW35163   4.629   7.231   2.820 -0.4348 -0.4607  0.0160
 9606SOL    HW135164   4.678   7.297   2.869 -2.6079  1.0648  0.3106
 9606SOL    HW235165   4.552   7.278   2.788 -0.8181 -2.2872 -1.9436
 9607SOL     OW35166   7.578   2.287   3.179 -0.1651  0.1668  0.4506
 9607SOL    HW135167   7.556   2.308   3.088  0.6362 -0.0441  0.2045
 9607SOL    HW235168   7.670   2.263   3.177  0.3266  1.8026  1.5916
 9608SOL     OW35169   6.008   0.771   5.771  0.3350  0.5668 -0.4415
 9608SOL    HW135170   5.986   0.847   5.717 -0.3516  3.0422  3.0155
 9608SOL    HW235171   5.924   0.736   5.800  0.6625  0.8656  0.9686
 9609SOL     OW35172   1.718   0.617   1.490 -0.6332  0.2078  0.1071
 9609SOL    HW135173   1.694   0.538   1.442 -1.5998  1.0544 -0.8656
 9609SOL    HW235174   1.655   0.623   1.561 -0.6266  0.1639  0.1164
 9610SOL     OW35175   1.898   5.915   5.210  0.1400  0.3945  0.6648
 9610SOL    HW135176   1.844   5.858   5.155  2.1247 -0.4684 -0.5081
 9610SOL    HW235177   1.921   5.861   5.286 -0.3098  0.6132  0.9549
 9611SOL     OW35178   4.795   1.457   8.660 -0.2500 -0.4085 -0.0732
 9611SOL    HW135179   4.754   1.444   8.746 -1.1676  1.5152 -0.1756
 9611SOL    HW235180   4.876   1.505   8.679 -1.1383  1.2492 -0.3679
 9612SOL     OW35181   3.058   5.711   3.540 -0.2963  0.2020  0.5766
 9612SOL    HW135182   3.071   5.670   3.454 -0.3938 -1.2670  1.2270
 9612SOL    HW235183   2.963   5.707   3.554 -0.4140  1.5140  0.2675
 9613SOL     OW35184   4.034   5.221   0.898 -0.3920  0.9471  0.0768
 9613SOL    HW135185   3.946   5.226   0.862 -0.0690  2.5884 -0.5385
 9613SOL    HW235186   4.091   5.258   0.830  0.4445  2.3526  1.4634
 9614SOL     OW35187   6.613   4.064   0.076  0.2664 -0.1919 -0.2480
 9614SOL    HW135188   6.625   4.007   0.000  1.9536 -1.3504  0.8249
 9614SOL    HW235189   6.650   4.148   0.050 -1.4178  0.2143 -1.5263
 9615SOL     OW35190   2.936   4.626   6.312 -0.1996  0.2953  0.6849
 9615SOL    HW135191   2.936   4.593   6.223 -1.2556  0.8243  0.4750
 9615SOL    HW235192   3.028   4.626   6.338  0.1161  0.1650 -0.4137
 9616SOL     OW35193   3.386   2.902   0.836  0.0570  0.0290 -0.1558
 9616SOL    HW135194   3.401   2.996   0.830 -1.3286  0.3212  0.4711
 9616SOL    HW235195   3.380   2.872   0.745 -1.2227  0.8817 -0.3863
 9617SOL     OW35196   3.497   3.819   3.649  0.8055 -0.3865  0.0698
 9617SOL    HW135197   3.591   3.831   3.631  1.2763 -1.8975  1.3181
 9617SOL    HW235198   3.480   3.727   3.628 -0.7914  0.2506 -1.6204
 9618SOL     OW35199   5.472   4.431   7.057 -0.1311 -0.4802  0.2182
 9618SOL    HW135200   5.564   4.411   7.042 -0.4951 -1.5788 -0.6750
 9618SOL    HW235201   5.427   4.347   7.055 -1.2426  0.0858 -0.0511
 9619SOL     OW35202   6.610   2.478   4.627  0.5440 -0.0391  0.5894
 9619SOL    HW135203   6.606   2.394   4.582 -0.8416 -0.1966  0.9488
 9619SOL    HW235204   6.528   2.483   4.677  0.8616  1.2623  1.0429
 9620SOL     OW35205   0.065   6.195   6.800  0.5798 -0.4680  0.4843
 9620SOL    HW135206   0.113   6.277   6.811 -2.1132  1.3257 -0.1348
 9620SOL    HW235207   0.022   6.181   6.885 -0.9326  0.1821 -0.1344
 9621SOL     OW35208   5.040   0.242   3.712  0.6919  0.0482  0.1569
 9621SOL    HW135209   5.026   0.242   3.618  2.1248 -1.8146 -0.1076
 9621SOL    HW235210   4.952   0.237   3.750  0.1981 -1.7246 -1.1474
 9622SOL     OW35211   5.721   7.215   6.861 -0.2211 -0.3328  0.5944
 9622SOL    HW135212   5.663   7.152   6.818 -0.5709  0.0302  0.5315
 9622SOL    HW235213   5.809   7.189   6.834 -0.4236 -0.2293 -0.1837
 9623SOL     OW35214   3.805   2.192   5.330  0.4807  0.1452 -0.2100
 9623SOL    HW135215   3.739   2.249   5.292  2.3359  1.8078 -1.1474
 9623SOL    HW235216   3.808   2.115   5.273  0.0463  0.5146 -0.7346
 9624SOL     OW35217   7.479   3.829   5.132 -0.0699 -0.3911  0.4703
 9624SOL    HW135218   7.426   3.748   5.128  0.2304 -0.5502 -0.3990
 9624SOL    HW235219   7.568   3.798   5.148  0.2661 -0.3408 -1.1210
 9625SOL     OW35220   6.642   7.885   5.563 -0.1987  0.0769  0.3058
 9625SOL    HW135221   6.703   7.814   5.580  1.4000  1.3205  0.0612
 9625SOL    HW235222   6.697   7.956   5.530 -1.7891  1.2713  0.1052
 9626SOL     OW35223   1.783   8.865   3.266  0.1167  0.1754 -0.0134
 9626SOL    HW135224   1.765   8.771   3.263 -0.9434  0.3238  0.9169
 9626SOL    HW235225   1.702   8.904   3.300  0.7174  1.3764  0.1095
 9627SOL     OW35226   0.893   7.729   1.236  0.6310 -0.1360  0.3553
 9627SOL    HW135227   0.971   7.707   1.285  0.4941 -0.9510  0.2182
 9627SOL    HW235228   0.882   7.657   1.174  0.5804  0.6769 -0.6083
 9628SOL     OW35229   2.330   5.372   6.483 -0.4118  0.3307 -1.0356
 9628SOL    HW135230   2.298   5.289   6.448  0.1735  0.1006 -1.0430
 9628SOL    HW235231   2.371   5.349   6.566 -0.6064  0.6772 -0.8408
 9629SOL     OW35232   7.568   2.572   7.554 -0.4112  0.3503  0.1071
 9629SOL    HW135233   7.619   2.493   7.573  2.8021  1.9291 -1.1357
 9629SOL    HW235234   7.587   2.592   7.462 -2.7373  1.5426 -0.1975
 9630SOL     OW35235   1.197   1.649   5.171 -0.1778  0.1336 -0.3510
 9630SOL    HW135236   1.237   1.565   5.190  2.5167  1.4398  0.2103
 9630SOL    HW235237   1.138   1.632   5.097 -1.8050 -2.6955  1.4239
 9631SOL     OW35238   5.052   8.395   3.944 -0.4903  0.5475 -0.0634
 9631SOL    HW135239   5.051   8.481   3.902  1.6675 -0.4110 -2.3410
 9631SOL    HW235240   4.979   8.397   4.006  1.1779  5.0054  2.1671
 9632SOL     OW35241   3.595   5.847   7.399 -0.2526 -0.0886 -0.2594
 9632SOL    HW135242   3.508   5.871   7.365 -0.0431  3.1283  1.1820
 9632SOL    HW235243   3.654   5.863   7.325 -0.5339  0.7291 -0.3189
 9633SOL     OW35244   5.122   6.949   2.755  0.1409  0.0613 -0.0682
 9633SOL    HW135245   5.096   6.860   2.777  2.9057 -0.9104 -0.3039
 9633SOL    HW235246   5.146   6.988   2.839 -0.2256  0.2929 -0.0688
 9634SOL     OW35247   8.817   1.933   7.181 -0.0453 -0.2510  0.0307
 9634SOL    HW135248   8.879   1.860   7.191  2.0708  1.2080 -1.5010
 9634SOL    HW235249   8.828   1.985   7.260  1.1438  0.2769 -0.4582
 9635SOL     OW35250   0.811   6.997   1.748 -0.2072  0.2073 -0.2044
 9635SOL    HW135251   0.833   6.937   1.677  0.1880 -0.0079  0.0942
 9635SOL    HW235252   0.896   7.025   1.783 -0.3741  1.1683 -0.5166
 9636SOL     OW35253   7.795   0.487   2.885  0.1292 -0.3038 -0.4989
 9636SOL    HW135254   7.891   0.486   2.884  0.1828 -0.4171  1.2663
 9636SOL    HW235255   7.772   0.407   2.934 -0.8385  0.0456 -0.3770
 9637SOL     OW35256   2.687   2.198   3.391  0.0775  0.1897  0.1003
 9637SOL    HW135257   2.647   2.261   3.330 -0.2652  1.0741  1.1971
 9637SOL    HW235258   2.613   2.164   3.442  0.1221 -1.8718 -1.1028
 9638SOL     OW35259   8.060   3.964   3.155 -0.6618  0.1388  0.2038
 9638SOL    HW135260   8.010   3.942   3.234  0.1969  2.0560  1.3682
 9638SOL    HW235261   8.015   4.039   3.118  0.0070  0.4192 -0.0588
 9639SOL     OW35262   6.556   7.298   8.752  0.0025  0.3535  0.3269
 9639SOL    HW135263   6.512   7.213   8.746  0.5457 -0.0123  1.4615
 9639SOL    HW235264   6.629   7.291   8.691 -2.0805  1.3858 -2.5284
 9640SOL     OW35265   1.789   3.308   3.885  0.0286  0.4407  0.0427
 9640SOL    HW135266   1.708   3.276   3.924 -0.6861  0.7342 -1.1610
 9640SOL    HW235267   1.857   3.285   3.948 -1.1620  1.5345  1.8084
 9641SOL     OW35268   7.824   1.813   5.895 -0.3159 -0.5414  0.1934
 9641SOL    HW135269   7.737   1.842   5.925 -0.0861  1.8098 -1.1741
 9641SOL    HW235270   7.817   1.809   5.800  1.4644  1.3724 -0.1023
 9642SOL     OW35271   2.116   4.550   8.406 -0.1836 -0.2289 -0.3457
 9642SOL    HW135272   2.129   4.564   8.313 -0.7534  0.1700 -0.3719
 9642SOL    HW235273   2.068   4.628   8.436 -0.1474 -0.4228  0.2444
 9643SOL     OW35274   0.357   0.466   2.636  0.2312 -0.3234 -0.0348
 9643SOL    HW135275   0.368   0.421   2.720 -0.9114 -0.4116  0.0746
 9643SOL    HW235276   0.436   0.521   2.629  0.8653 -1.1249  0.5734
 9644SOL     OW35277   8.459   3.968   7.822  0.5713 -0.3469 -0.2362
 9644SOL    HW135278   8.393   3.959   7.753  1.0517  0.3898 -0.8125
 9644SOL    HW235279   8.437   3.900   7.886 -0.0824 -0.8275 -0.9538
 9645SOL     OW35280   7.956   9.131   8.235 -0.5382 -0.4481  0.0766
 9645SOL    HW135281   7.978   9.105   8.325  1.7003  0.1619 -0.2320
 9645SOL    HW235282   8.029   9.099   8.182 -1.8258 -0.8006 -1.5590
 9646SOL     OW35283   5.279   5.179   5.874  0.4028  0.0353 -0.4005
 9646SOL    HW135284   5.287   5.214   5.963  1.0638  2.3126 -1.2766
 9646SOL    HW235285   5.200   5.125   5.876  1.4798 -1.5590  2.0224
 9647SOL     OW35286   8.141   1.099   5.984 -0.1688  0.0296  0.0172
 9647SOL    HW135287   8.069   1.111   5.922 -1.6966 -1.3897  1.3930
 9647SOL    HW235288   8.098   1.070   6.064  1.8570  0.4497  1.3254
 9648SOL     OW35289   1.303   4.570   1.745 -0.2319  0.1005  0.8887
 9648SOL    HW135290   1.361   4.587   1.819  1.3999  2.3576 -0.7899
 9648SOL    HW235291   1.297   4.475   1.742 -0.1645 -0.0954  3.7191
 9649SOL     OW35292   0.158   6.925   6.604  0.3029  0.6271 -0.3878
 9649SOL    HW135293   0.086   6.863   6.595 -0.0299  0.6994  1.3990
 9649SOL    HW235294   0.236   6.876   6.577  0.2997 -1.2043  2.4875
 9650SOL     OW35295   5.304   5.062   8.005  0.1886  0.3365  0.1905
 9650SOL    HW135296   5.384   5.088   7.961 -0.7372  2.8580 -0.1627
 9650SOL    HW235297   5.314   4.968   8.021  2.6681  0.3635 -0.8859
 9651SOL     OW35298   4.387   8.758   8.462 -0.2380  0.1793  0.0771
 9651SOL    HW135299   4.418   8.779   8.373 -1.3348 -0.7406 -0.5518
 9651SOL    HW235300   4.401   8.839   8.512  1.3300  0.3984 -0.6604
 9652SOL     OW35301   5.579   2.573   0.724 -0.1006  0.1509 -0.2878
 9652SOL    HW135302   5.587   2.571   0.819 -2.3424 -0.4907 -0.0636
 9652SOL    HW235303   5.570   2.482   0.698  4.0803 -0.0867 -1.5958
 9653SOL     OW35304   0.135   4.587   7.806  0.1617  0.1558 -0.1411
 9653SOL    HW135305   0.154   4.671   7.765 -0.9146 -1.6025 -4.7588
 9653SOL    HW235306   0.050   4.600   7.849  0.9667  1.8668  1.0635
 9654SOL     OW35307   1.986   3.977   3.787  0.1018  0.0565  0.2438
 9654SOL    HW135308   2.036   3.978   3.868 -0.6740  2.5022  0.7562
 9654SOL    HW235309   1.895   3.987   3.815 -0.0088  3.4375 -0.9127
 9655SOL     OW35310   1.973   7.933   9.086  0.4559 -0.0191  0.3985
 9655SOL    HW135311   2.038   7.893   9.028  0.7992  0.6981  0.2742
 9655SOL    HW235312   1.999   8.025   9.091 -1.1132  0.4890 -0.4128
 9656SOL     OW35313   4.710   1.592   0.692  0.4939 -0.2642  0.0057
 9656SOL    HW135314   4.745   1.630   0.773 -0.0032 -1.4747  0.8137
 9656SOL    HW235315   4.781   1.603   0.628  0.2414  2.3339  0.0716
 9657SOL     OW35316   4.505   1.409   3.460  0.4782  0.1073 -0.1960
 9657SOL    HW135317   4.570   1.392   3.392  0.2862 -1.5437 -0.0097
 9657SOL    HW235318   4.438   1.342   3.446 -0.0256  0.3229  1.0477
 9658SOL     OW35319   2.953   9.194   5.452 -0.1134  0.7751 -0.2235
 9658SOL    HW135320   2.941   9.270   5.395  0.4865  0.8081 -0.3172
 9658SOL    HW235321   3.011   9.137   5.402 -0.6506  0.1991 -0.1989
 9659SOL     OW35322   4.154   2.920   7.206  0.7189  0.5851 -0.4831
 9659SOL    HW135323   4.153   2.826   7.225  0.7921  0.2039 -2.2336
 9659SOL    HW235324   4.071   2.952   7.241  0.5484 -0.1902 -0.1504
 9660SOL     OW35325   5.796   3.475   0.713 -0.2347  0.4092  0.5275
 9660SOL    HW135326   5.846   3.397   0.736  1.8155  1.3418 -0.5109
 9660SOL    HW235327   5.799   3.530   0.792 -0.7513 -0.0806  0.8959
 9661SOL     OW35328   0.285   6.507   1.498 -0.1935 -0.4051 -0.0952
 9661SOL    HW135329   0.240   6.539   1.575  0.6862 -0.1704  0.3355
 9661SOL    HW235330   0.215   6.475   1.440 -0.9651  0.8195  0.1350
 9662SOL     OW35331   2.164   1.555   1.329 -0.0976 -0.5547  0.2730
 9662SOL    HW135332   2.157   1.468   1.290  2.0866 -0.2491 -0.9750
 9662SOL    HW235333   2.116   1.612   1.269 -1.0798 -0.8009  0.8089
 9663SOL     OW35334   1.620   5.042   8.495 -0.0554 -0.2851  0.2514
 9663SOL    HW135335   1.551   5.108   8.480 -0.8579 -0.9761  0.8323
 9663SOL    HW235336   1.592   4.996   8.574  0.9481 -0.7623  0.3372
 9664SOL     OW35337   6.161   8.210   7.441 -0.6029 -0.0320 -0.0504
 9664SOL    HW135338   6.102   8.206   7.516  0.4870 -0.9375  0.7939
 9664SOL    HW235339   6.232   8.267   7.469  0.6397 -1.6529  0.2631
 9665SOL     OW35340   0.351   7.034   6.791  0.3343 -0.3608 -0.2853
 9665SOL    HW135341   0.308   6.972   6.850 -0.0460  0.1824  0.0168
 9665SOL    HW235342   0.370   6.983   6.712 -1.0014 -0.5685 -0.4828
 9666SOL     OW35343   5.041   4.300   8.599 -0.1228 -0.0981 -0.4969
 9666SOL    HW135344   5.085   4.346   8.670  0.4171  1.8294 -1.9887
 9666SOL    HW235345   5.087   4.216   8.592  0.1748 -0.0912  1.0108
 9667SOL     OW35346   5.787   3.880   4.516  0.1194  0.0513 -0.1761
 9667SOL    HW135347   5.851   3.860   4.584  0.8151  0.7351 -0.6069
 9667SOL    HW235348   5.702   3.875   4.561  0.5669  0.5761  0.7674
 9668SOL     OW35349   4.870   8.505   6.132 -0.0456  0.1882  0.8809
 9668SOL    HW135350   4.779   8.475   6.134 -0.1969  0.6607  1.7953
 9668SOL    HW235351   4.871   8.575   6.066 -0.6077  0.9459  1.6578
 9669SOL     OW35352   3.880   2.911   6.885  0.9157 -1.0973 -0.4821
 9669SOL    HW135353   3.826   2.990   6.885 -0.2611 -1.8112  2.0999
 9669SOL    HW235354   3.868   2.874   6.798 -1.4464 -0.3486 -0.5393
 9670SOL     OW35355   7.948   4.141   7.453 -0.4919  0.0666 -0.1096
 9670SOL    HW135356   8.005   4.178   7.522 -1.1660 -0.0845  0.5390
 9670SOL    HW235357   8.004   4.080   7.406 -0.1232 -0.1113  0.5482
 9671SOL     OW35358   1.871   9.034   5.069  0.3596  0.7166  0.2598
 9671SOL    HW135359   1.954   8.987   5.079 -0.8662 -1.3955  0.9374
 9671SOL    HW235360   1.874   9.066   4.978  1.4414 -0.3030 -0.0994
 9672SOL     OW35361   2.941   7.121   5.523 -0.6270 -0.5785 -0.0501
 9672SOL    HW135362   2.922   7.059   5.453 -1.0449  0.7681 -1.1869
 9672SOL    HW235363   2.861   7.124   5.575 -0.5257 -1.1578  0.1346
 9673SOL     OW35364   0.028   2.198   2.136  0.2277  0.1506 -0.1017
 9673SOL    HW135365   0.117   2.179   2.106 -0.0631  0.1222 -0.9733
 9673SOL    HW235366   0.001   2.118   2.181  1.6905  1.1581  2.8468
 9674SOL     OW35367   9.098   4.589   0.443  0.0043 -0.1726  0.2587
 9674SOL    HW135368   9.039   4.663   0.459  2.0634  1.4510  0.6451
 9674SOL    HW235369   9.060   4.517   0.494 -1.6382  0.8003  0.4720
 9675SOL     OW35370   7.235   8.655   8.367  0.0155  0.1969  0.1779
 9675SOL    HW135371   7.274   8.616   8.445  1.2617  2.4139  0.7301
 9675SOL    HW235372   7.237   8.749   8.383 -1.3199  0.6180 -1.8038
 9676SOL     OW35373   5.602   1.406   4.123 -0.2420 -1.0284  0.2641
 9676SOL    HW135374   5.646   1.322   4.112  0.4322 -0.4781 -1.7422
 9676SOL    HW235375   5.537   1.408   4.052 -0.0568  0.2472  0.1136
 9677SOL     OW35376   1.325   4.952   3.512  0.3606 -0.2956 -0.4105
 9677SOL    HW135377   1.398   5.013   3.508 -0.4381  0.7496  0.3981
 9677SOL    HW235378   1.359   4.871   3.473  1.2668  0.8038 -2.0069
 9678SOL     OW35379   8.866   8.568   2.401 -0.0718 -0.4032  1.1727
 9678SOL    HW135380   8.939   8.628   2.387  2.2349 -3.1457  0.4301
 9678SOL    HW235381   8.817   8.570   2.319  1.5058 -1.3512  0.1513
 9679SOL     OW35382   3.185   8.091   3.111 -0.1862 -0.3480  0.2432
 9679SOL    HW135383   3.127   8.017   3.090  1.4921 -1.6762  0.1122
 9679SOL    HW235384   3.155   8.161   3.053 -2.0389 -0.7740  0.6056
 9680SOL     OW35385   6.194   9.126   6.185 -0.1186 -0.0549 -0.0053
 9680SOL    HW135386   6.221   9.141   6.275 -0.4309  0.1500  0.0594
 9680SOL    HW235387   6.155   9.039   6.185  1.7654 -0.9421 -0.3956
 9681SOL     OW35388   2.493   5.185   3.550 -0.0589 -0.4836 -0.0322
 9681SOL    HW135389   2.540   5.268   3.543  0.0554 -0.4959  0.5712
 9681SOL    HW235390   2.554   5.126   3.594 -1.0817 -0.1248  1.9693
 9682SOL     OW35391   2.889   1.596   6.820  0.7406 -0.1848  0.2338
 9682SOL    HW135392   2.797   1.620   6.832  0.1475 -2.3867  0.3870
 9682SOL    HW235393   2.902   1.595   6.725  0.6917  0.3645  0.2176
 9683SOL     OW35394   7.408   3.450   7.511 -0.1502  0.8552  0.0331
 9683SOL    HW135395   7.318   3.483   7.504 -0.1174  1.0639  0.5804
 9683SOL    HW235396   7.462   3.529   7.513  0.2803  0.7654 -2.8325
 9684SOL     OW35397   0.197   5.217   6.701 -0.3816 -0.2679 -0.3762
 9684SOL    HW135398   0.110   5.236   6.738 -0.2067  0.5182 -0.3480
 9684SOL    HW235399   0.242   5.302   6.703  0.0424 -0.4692 -1.3099
 9685SOL     OW35400   3.292   4.520   8.644  0.4336  0.5099 -0.0796
 9685SOL    HW135401   3.255   4.581   8.581  1.2398  1.5705  0.4463
 9685SOL    HW235402   3.375   4.559   8.670  0.7724 -0.6056  0.5930
 9686SOL     OW35403   8.968   2.839   0.168 -0.5789  0.3335  0.0854
 9686SOL    HW135404   8.879   2.813   0.143 -0.5800  0.4428 -0.0172
 9686SOL    HW235405   8.958   2.879   0.255 -0.4581 -0.8507  0.6724
 9687SOL     OW35406   0.742   4.828   1.795 -0.4508 -0.6054 -0.0094
 9687SOL    HW135407   0.807   4.890   1.761 -0.9255 -0.5881 -0.9230
 9687SOL    HW235408   0.790   4.776   1.859 -0.3320  1.5195  1.7716
 9688SOL     OW35409   0.236   0.361   6.076 -0.1913  0.3787 -0.5663
 9688SOL    HW135410   0.288   0.356   5.996 -0.5127  0.5930 -0.7883
 9688SOL    HW235411   0.253   0.279   6.121 -0.1212  0.1964 -0.9227
 9689SOL     OW35412   7.265   0.332   0.249 -0.1433 -0.0197 -0.0739
 9689SOL    HW135413   7.270   0.242   0.280 -0.3590 -0.8169 -2.1844
 9689SOL    HW235414   7.174   0.343   0.221 -0.2661  1.0655  0.6509
 9690SOL     OW35415   2.389   0.482   2.731  0.2315 -0.3213  0.2158
 9690SOL    HW135416   2.425   0.394   2.742  1.5500  0.1134 -0.4704
 9690SOL    HW235417   2.378   0.492   2.636  2.7379  1.2337  0.0064
 9691SOL     OW35418   6.785   5.162   0.095  0.3079 -0.2464 -0.9875
 9691SOL    HW135419   6.739   5.230   0.047  0.1917  2.1415  2.2081
 9691SOL    HW235420   6.717   5.097   0.114 -1.4540  2.1229  1.6738
 9692SOL     OW35421   4.605   8.080   5.752  0.5435 -0.0499  0.4345
 9692SOL    HW135422   4.516   8.047   5.765 -0.1787  0.1957 -2.8995
 9692SOL    HW235423   4.627   8.055   5.662  2.5442  2.7924 -0.0120
 9693SOL     OW35424   0.040   4.344   1.053 -0.0103  0.1618 -0.0943
 9693SOL    HW135425   0.021   4.287   0.978 -2.1076  1.5481 -0.7029
 9693SOL    HW235426   0.070   4.426   1.014 -0.1780  0.5737  0.6248
 9694SOL     OW35427   8.231   0.403   5.316 -0.4343 -0.1650  0.1812
 9694SOL    HW135428   8.167   0.461   5.275 -0.1267 -0.5222 -0.8545
 9694SOL    HW235429   8.284   0.461   5.371 -0.2992  0.5150 -0.6320
 9695SOL     OW35430   4.106   0.940   7.809 -0.4805  0.0706  0.1367
 9695SOL    HW135431   4.067   0.889   7.880 -1.1928  1.8507  1.0865
 9695SOL    HW235432   4.031   0.982   7.765  0.1700  2.3716  1.0723
 9696SOL     OW35433   6.533   4.130   2.987 -0.0349 -0.5573  0.1620
 9696SOL    HW135434   6.587   4.057   3.017  2.4634  1.3774  0.7154
 9696SOL    HW235435   6.532   4.192   3.060 -1.0179  0.5226 -0.7150
 9697SOL     OW35436   4.523   8.054   6.228 -0.6571  0.3567 -0.3468
 9697SOL    HW135437   4.524   8.028   6.320  0.1275  2.4466  0.2792
 9697SOL    HW235438   4.568   7.983   6.183  2.1911  0.9053  1.3876
 9698SOL     OW35439   1.923   7.942   5.141  0.1997  0.0406  0.2827
 9698SOL    HW135440   1.922   7.896   5.225 -2.1605  0.1794  0.3969
 9698SOL    HW235441   1.969   7.882   5.082 -0.9091 -1.5455  0.9451
 9699SOL     OW35442   5.161   5.511   8.521 -0.2461 -0.2473 -0.0845
 9699SOL    HW135443   5.070   5.491   8.541 -0.3931 -1.0210 -1.4280
 9699SOL    HW235444   5.172   5.487   8.429  0.8383  1.5021 -0.4688
 9700SOL     OW35445   7.778   0.265   4.225 -0.1736  0.0235 -0.2654
 9700SOL    HW135446   7.817   0.317   4.295  1.6046  0.7034 -1.6621
 9700SOL    HW235447   7.693   0.305   4.209 -0.0584  0.6505  0.6452
 9701SOL     OW35448   2.419   2.179   4.463  0.3690  0.1054 -0.3962
 9701SOL    HW135449   2.345   2.237   4.479 -1.1890 -2.0973  0.9076
 9701SOL    HW235450   2.461   2.169   4.548 -0.3010 -1.7647 -0.2276
 9702SOL     OW35451   4.381   0.471   8.423 -0.5275 -0.0134  0.4264
 9702SOL    HW135452   4.471   0.466   8.456 -0.7720 -2.1450  0.9264
 9702SOL    HW235453   4.364   0.565   8.414  1.5375  0.4562  0.8781
 9703SOL     OW35454   8.532   7.955   8.826 -0.0389 -0.2066 -0.0406
 9703SOL    HW135455   8.597   7.885   8.827  0.4271  0.2176  1.2231
 9703SOL    HW235456   8.528   7.986   8.916  0.7598  2.2886 -0.7526
 9704SOL     OW35457   6.995   4.142   6.125 -0.0943  0.0667 -0.0819
 9704SOL    HW135458   6.934   4.072   6.148  0.7581  0.0799  2.5230
 9704SOL    HW235459   7.002   4.195   6.205  0.0860  2.5700 -1.6416
 9705SOL     OW35460   6.511   1.821   2.829  0.3270  0.3945 -0.4272
 9705SOL    HW135461   6.524   1.730   2.852 -1.3744  0.3862  0.6560
 9705SOL    HW235462   6.492   1.865   2.911 -0.8263  1.3369 -1.1556
 9706SOL     OW35463   6.700   1.588   0.298  0.1342  0.7330 -0.1096
 9706SOL    HW135464   6.709   1.521   0.230  1.6239  1.1505 -0.3418
 9706SOL    HW235465   6.734   1.546   0.377  0.1266  0.8800 -0.0295
 9707SOL     OW35466   9.132   2.116   1.212 -0.8042  0.5205 -0.1634
 9707SOL    HW135467   9.174   2.038   1.176  1.4880  1.1281  1.0145
 9707SOL    HW235468   9.045   2.086   1.239 -0.7388 -1.1040 -1.5979
 9708SOL     OW35469   3.476   0.547   8.245  0.4351  0.5101  0.1197
 9708SOL    HW135470   3.473   0.467   8.298  1.3105  0.4758  0.1295
 9708SOL    HW235471   3.387   0.582   8.250 -0.0907 -0.7078 -0.2707
 9709SOL     OW35472   5.440   3.692   8.169 -0.5033 -0.5585 -0.5181
 9709SOL    HW135473   5.452   3.777   8.125 -1.0119 -0.7303 -1.0154
 9709SOL    HW235474   5.453   3.628   8.099 -0.9648 -0.8520 -0.3362
 9710SOL     OW35475   6.479   1.840   8.465  0.4494 -0.1777 -0.6029
 9710SOL    HW135476   6.389   1.871   8.456  0.7323  0.9523  0.3051
 9710SOL    HW235477   6.530   1.899   8.411  0.5809 -1.3803 -1.8746
 9711SOL     OW35478   3.672   1.925   0.717  0.1763  0.1589  0.7092
 9711SOL    HW135479   3.596   1.899   0.664 -0.0720 -0.8728  1.5129
 9711SOL    HW235480   3.640   1.997   0.771 -0.0733  0.1140  0.6233
 9712SOL     OW35481   8.301   2.054   4.451  0.2905  0.9287  0.0955
 9712SOL    HW135482   8.370   2.055   4.518 -0.0325  2.2878  0.4302
 9712SOL    HW235483   8.294   1.962   4.426  2.0858  0.7321  0.1860
 9713SOL     OW35484   7.377   4.886   7.602 -0.4906 -0.1299  0.5201
 9713SOL    HW135485   7.419   4.842   7.528  0.8147  1.5469  0.2059
 9713SOL    HW235486   7.416   4.844   7.679  1.6437  1.1575  0.2317
 9714SOL     OW35487   7.925   7.839   2.705  0.0328 -0.1084 -0.3068
 9714SOL    HW135488   8.014   7.836   2.671 -1.4063 -0.3049 -4.7854
 9714SOL    HW235489   7.880   7.902   2.648 -3.1293 -1.5341  0.4077
 9715SOL     OW35490   0.214   0.674   1.157  0.4584  0.1857  0.5622
 9715SOL    HW135491   0.291   0.730   1.146  0.0720  0.7979  0.9652
 9715SOL    HW235492   0.192   0.648   1.067  0.8293  0.4150  0.3988
 9716SOL     OW35493   8.679   8.556   1.348 -0.3652 -0.0973 -0.3345
 9716SOL    HW135494   8.714   8.493   1.411  1.7918  1.9909  0.7366
 9716SOL    HW235495   8.673   8.508   1.266  0.5044 -1.8528  0.5731
 9717SOL     OW35496   1.875   7.115   0.520  0.0014 -0.8110 -0.0321
 9717SOL    HW135497   1.788   7.076   0.505 -0.0412 -1.1853  1.0695
 9717SOL    HW235498   1.931   7.073   0.455 -0.1116 -2.5285  0.9018
 9718SOL     OW35499   7.200   2.223   1.335  0.4504 -0.3590 -0.1900
 9718SOL    HW135500   7.161   2.137   1.353  0.0342  0.0991  1.2183
 9718SOL    HW235501   7.243   2.248   1.417  1.8026  0.1618 -1.0154
 9719SOL     OW35502   6.810   2.438   3.371 -0.7340 -0.5609  0.0312
 9719SOL    HW135503   6.848   2.500   3.434 -0.5406 -0.7976  0.1500
 9719SOL    HW235504   6.759   2.492   3.312  0.1439 -0.1868 -0.3948
 9720SOL     OW35505   0.492   0.112   7.104 -0.7506  0.8024  0.3946
 9720SOL    HW135506   0.400   0.084   7.101 -0.1359 -1.5134  1.4295
 9720SOL    HW235507   0.541   0.033   7.125  1.1570  2.5817  3.4452
 9721SOL     OW35508   8.821   5.074   1.327 -0.3396 -0.3055  0.0439
 9721SOL    HW135509   8.876   5.047   1.400 -0.7770 -3.0632 -0.5371
 9721SOL    HW235510   8.881   5.080   1.253 -0.6119 -2.6398 -0.4386
 9722SOL     OW35511   0.139   6.303   8.239  0.0215  0.5768  0.5407
 9722SOL    HW135512   0.199   6.378   8.236  1.3068 -0.3812  1.3841
 9722SOL    HW235513   0.103   6.304   8.328 -0.6545  0.6944  0.2779
 9723SOL     OW35514   6.576   7.270   7.160  0.1637 -0.1446  0.3415
 9723SOL    HW135515   6.666   7.244   7.180 -0.1872 -1.2317  0.5822
 9723SOL    HW235516   6.581   7.311   7.074  1.0481  0.7877  0.8137
 9724SOL     OW35517   1.937   2.444   4.547  0.2084  0.3939 -0.2750
 9724SOL    HW135518   1.876   2.382   4.505 -0.5066  0.7324  0.2387
 9724SOL    HW235519   1.920   2.527   4.503  0.5944  0.4037 -0.4071
 9725SOL     OW35520   6.684   1.386   0.944 -0.2420 -0.2660 -0.0935
 9725SOL    HW135521   6.738   1.366   0.867 -0.8680 -0.3047 -0.5290
 9725SOL    HW235522   6.624   1.312   0.951 -1.7162  0.8091 -0.9354
 9726SOL     OW35523   6.460   5.444   1.259  0.3160 -0.1347 -0.3410
 9726SOL    HW135524   6.466   5.380   1.330  2.1693  0.2632 -0.0850
 9726SOL    HW235525   6.550   5.471   1.243 -0.3608  2.2521 -0.5847
 9727SOL     OW35526   4.324   2.164   8.876  0.0952  0.3388 -0.1435
 9727SOL    HW135527   4.296   2.073   8.879 -0.4660  0.4226 -1.7267
 9727SOL    HW235528   4.401   2.167   8.933  0.2260 -1.1604 -0.1966
 9728SOL     OW35529   2.645   4.235   3.267 -0.7843  0.0121  0.3773
 9728SOL    HW135530   2.556   4.265   3.286 -0.7808  0.4378 -0.2577
 9728SOL    HW235531   2.641   4.207   3.175 -0.2124  0.2295  0.2846
 9729SOL     OW35532   9.239   2.433   2.906 -0.1236  0.2355  0.0546
 9729SOL    HW135533   9.226   2.375   2.831 -0.0000 -0.1541  0.3288
 9729SOL    HW235534   9.156   2.479   2.916 -0.4313 -0.3329  0.1951
 9730SOL     OW35535   6.987   8.956   2.726  0.2613 -0.0623  0.3294
 9730SOL    HW135536   6.977   9.041   2.684  3.3191  1.0358  1.5712
 9730SOL    HW235537   7.049   8.908   2.670  1.9725  0.2695  1.8482
 9731SOL     OW35538   2.521   5.737   4.382  0.6494  0.0677 -0.0086
 9731SOL    HW135539   2.466   5.664   4.411 -0.8152  1.1427  0.0463
 9731SOL    HW235540   2.500   5.748   4.289  0.1700  0.9800  0.1954
 9732SOL     OW35541   3.039   4.462   8.239  0.4369  0.0379 -0.1939
 9732SOL    HW135542   2.975   4.495   8.301  0.6963 -0.3855  0.2977
 9732SOL    HW235543   3.112   4.524   8.245  0.1886  0.3755 -0.5698
 9733SOL     OW35544   9.175   8.965   8.219 -0.2704 -0.0342 -0.1653
 9733SOL    HW135545   9.132   9.047   8.245 -3.1467 -1.9522  1.6589
 9733SOL    HW235546   9.115   8.925   8.157  0.3235 -1.4681  0.1554
 9734SOL     OW35547   2.024   2.328   0.123  0.3355  0.2201 -0.5816
 9734SOL    HW135548   2.060   2.263   0.183  1.3288  2.2140  1.1354
 9734SOL    HW235549   1.929   2.322   0.136  0.4924  0.0884  0.6423
 9735SOL     OW35550   2.206   8.529   7.372  0.4238 -0.2232  0.5650
 9735SOL    HW135551   2.130   8.579   7.344 -0.1876 -0.4231  1.8134
 9735SOL    HW235552   2.220   8.465   7.302 -0.6679 -0.2939  0.4015
 9736SOL     OW35553   0.581   4.590   1.930 -0.0479 -0.0437  0.3624
 9736SOL    HW135554   0.512   4.636   1.884  1.4280  0.0267 -1.8988
 9736SOL    HW235555   0.648   4.656   1.947 -0.1999 -0.2523  1.9291
 9737SOL     OW35556   2.656   3.451   0.521  0.1468  0.4365  0.0876
 9737SOL    HW135557   2.602   3.504   0.462 -0.1031 -1.0756 -1.0968
 9737SOL    HW235558   2.630   3.361   0.503  1.1415 -0.1643  1.4686
 9738SOL     OW35559   4.241   3.222   3.236 -0.3881 -0.0492 -0.3797
 9738SOL    HW135560   4.199   3.214   3.150 -1.1686  0.1013 -0.0273
 9738SOL    HW235561   4.256   3.132   3.264  0.2153 -0.0934 -0.8360
 9739SOL     OW35562   1.505   9.052   0.242 -0.1256 -0.8163 -0.0088
 9739SOL    HW135563   1.457   8.969   0.249 -0.3869 -0.6408  0.3053
 9739SOL    HW235564   1.459   9.101   0.174  1.3705 -1.8179 -1.8363
 9740SOL     OW35565   3.202   6.259   6.163  0.3856  0.0176 -0.1965
 9740SOL    HW135566   3.261   6.287   6.233  1.1139 -0.3353 -0.6612
 9740SOL    HW235567   3.117   6.293   6.189  1.1260  2.2290 -0.4789
 9741SOL     OW35568   8.861   0.700   4.237  0.4860 -0.1087  0.6677
 9741SOL    HW135569   8.806   0.625   4.215 -0.2727  0.4493  0.6298
 9741SOL    HW235570   8.800   0.766   4.269  1.1201  0.5666  0.5120
 9742SOL     OW35571   3.593   1.570   5.707 -0.2908 -0.1362 -0.2633
 9742SOL    HW135572   3.653   1.642   5.690 -2.3718  1.7127 -0.2467
 9742SOL    HW235573   3.572   1.577   5.800 -2.5797  1.0524 -0.7809
 9743SOL     OW35574   8.793   4.440   4.404  0.2186  0.4058 -0.3022
 9743SOL    HW135575   8.710   4.392   4.406  0.2599  0.3615  0.4227
 9743SOL    HW235576   8.767   4.532   4.404  0.1322  0.4218 -1.9488
 9744SOL     OW35577   8.770   4.432   8.827  0.2207 -0.1296 -0.0193
 9744SOL    HW135578   8.854   4.474   8.812  0.2879 -0.9314 -2.1857
 9744SOL    HW235579   8.757   4.375   8.751 -1.7754 -0.8600  0.7899
 9745SOL     OW35580   8.719   1.149   5.442 -0.4344 -0.1281 -0.2497
 9745SOL    HW135581   8.795   1.090   5.448  0.5787  1.1030 -0.5405
 9745SOL    HW235582   8.643   1.091   5.448  0.5147 -1.3025  1.0023
 9746SOL     OW35583   8.153   1.404   8.126 -0.0300  0.1631 -0.0636
 9746SOL    HW135584   8.174   1.391   8.034  0.3608  1.0333 -0.1052
 9746SOL    HW235585   8.069   1.451   8.125 -0.5221 -0.6888  0.0519
 9747SOL     OW35586   7.696   6.098   0.783 -0.0793 -0.0848 -0.1104
 9747SOL    HW135587   7.750   6.023   0.808 -2.1364 -1.0749  1.7471
 9747SOL    HW235588   7.758   6.164   0.754  1.9639 -1.7913  0.1295
 9748SOL     OW35589   3.961   7.011   0.850  0.1299 -1.0678  0.0555
 9748SOL    HW135590   3.981   7.006   0.757 -0.8527 -1.2438 -0.1586
 9748SOL    HW235591   3.980   7.101   0.874  1.4446 -1.2984 -0.0499
 9749SOL     OW35592   4.635   8.498   0.657  0.2680 -0.1540  0.3606
 9749SOL    HW135593   4.659   8.580   0.700  0.1352 -0.2671  0.6441
 9749SOL    HW235594   4.543   8.485   0.677  0.2491 -0.2980  0.1899
 9750SOL     OW35595   6.719   2.877   8.517  0.1472 -0.2613  0.3440
 9750SOL    HW135596   6.654   2.855   8.449  0.0663  0.6841  0.1003
 9750SOL    HW235597   6.706   2.811   8.585  0.6278 -1.5841 -0.8094
 9751SOL     OW35598   6.198   1.276   8.163 -0.4010 -0.3035  0.4840
 9751SOL    HW135599   6.169   1.210   8.226 -1.3489 -0.6593 -0.2973
 9751SOL    HW235600   6.130   1.343   8.165 -0.3959 -0.2743 -0.0904
 9752SOL     OW35601   7.697   4.551   7.217  0.3211 -0.6907  0.8853
 9752SOL    HW135602   7.673   4.459   7.207 -2.4660  0.1005 -0.5490
 9752SOL    HW235603   7.698   4.586   7.128  2.6289  0.4551  1.2744
 9753SOL     OW35604   0.287   4.467   3.642 -0.3839  0.2058  0.0718
 9753SOL    HW135605   0.230   4.530   3.599  0.1362  1.3327  0.9536
 9753SOL    HW235606   0.308   4.403   3.575  0.0544  1.6519 -1.2371
 9754SOL     OW35607   7.521   7.026   8.470  0.1280 -0.0831 -0.0068
 9754SOL    HW135608   7.438   6.999   8.431 -0.3934  0.2504  0.8471
 9754SOL    HW235609   7.586   7.011   8.401 -0.4628 -1.4383 -0.3063
 9755SOL     OW35610   5.995   3.533   9.111 -0.5856 -0.0896 -0.5357
 9755SOL    HW135611   5.954   3.531   9.197  0.1019  0.5249 -0.1903
 9755SOL    HW235612   6.048   3.613   9.110 -3.8403  2.3086 -3.0593
 9756SOL     OW35613   0.726   0.887   8.647 -0.2333 -0.0694  0.1624
 9756SOL    HW135614   0.707   0.973   8.610  1.2031 -0.0189 -0.4983
 9756SOL    HW235615   0.696   0.824   8.581 -0.8533 -0.0855  0.4462
 9757SOL     OW35616   3.949   8.176   1.713  0.5971 -0.0032 -0.9711
 9757SOL    HW135617   3.933   8.235   1.787 -1.5622 -0.0120 -1.3880
 9757SOL    HW235618   3.902   8.096   1.735  1.4045 -0.6726 -1.5826
 9758SOL     OW35619   3.795   1.988   5.163 -0.8455  0.6344 -0.4216
 9758SOL    HW135620   3.789   2.026   5.075  1.7657 -1.6808 -1.7303
 9758SOL    HW235621   3.859   1.918   5.155 -1.2962 -0.3754  3.1385
 9759SOL     OW35622   0.809   2.222   5.428 -0.1349  0.3130 -0.2919
 9759SOL    HW135623   0.770   2.142   5.463 -0.4125  0.4694 -0.2369
 9759SOL    HW235624   0.879   2.191   5.370 -0.1168  0.0375 -0.1261
 9760SOL     OW35625   8.306   2.840   1.056 -0.0038  0.4762  0.1536
 9760SOL    HW135626   8.349   2.925   1.049 -0.1165  0.4711 -0.6321
 9760SOL    HW235627   8.295   2.810   0.966 -0.5725 -0.0664  0.3919
 9761SOL     OW35628   3.220   7.251   1.005  0.2907 -0.2291  0.2808
 9761SOL    HW135629   3.298   7.198   1.025  0.5792 -0.0060 -0.2287
 9761SOL    HW235630   3.224   7.323   1.067  1.4427  0.7250 -0.8435
 9762SOL     OW35631   3.564   4.180   4.478  0.1015 -0.4761 -0.0927
 9762SOL    HW135632   3.551   4.134   4.395 -2.2765  1.0211 -0.6574
 9762SOL    HW235633   3.602   4.264   4.453  0.9988 -0.6727  0.5487
 9763SOL     OW35634   1.087   5.627   3.575 -0.8372  0.0418 -0.1368
 9763SOL    HW135635   1.076   5.709   3.527  0.9618 -0.6232 -1.8218
 9763SOL    HW235636   1.110   5.563   3.507 -1.3575 -1.6768  1.2449
 9764SOL     OW35637   4.419   0.322   7.452  0.1345  0.2429 -0.3121
 9764SOL    HW135638   4.403   0.404   7.499 -1.2243 -0.2353  0.1053
 9764SOL    HW235639   4.476   0.272   7.509  0.1275  0.4832 -0.0925
 9765SOL     OW35640   2.475   4.112   6.097  0.3396 -0.0217 -0.7196
 9765SOL    HW135641   2.394   4.062   6.086  0.4111 -0.3592  0.2012
 9765SOL    HW235642   2.461   4.192   6.047 -0.6502  0.0107 -0.4037
 9766SOL     OW35643   4.090   5.542   1.386  0.2332  0.5176 -0.4014
 9766SOL    HW135644   4.026   5.485   1.342  1.6118 -1.2825 -0.1776
 9766SOL    HW235645   4.169   5.534   1.333  0.9716  0.8393  0.6199
 9767SOL     OW35646   4.223   3.890   6.079  0.2900 -0.7941  0.2179
 9767SOL    HW135647   4.172   3.958   6.035  1.4104  0.2199  0.4314
 9767SOL    HW235648   4.164   3.815   6.082 -0.7942 -0.0175 -0.5168
 9768SOL     OW35649   2.853   4.452   7.351  0.4403  0.5102 -0.0177
 9768SOL    HW135650   2.939   4.410   7.351  0.2331  0.0637  0.5034
 9768SOL    HW235651   2.857   4.515   7.423 -0.3270 -0.9742  1.4092
 9769SOL     OW35652   1.211   6.550   0.776  0.2310 -0.2597 -0.0519
 9769SOL    HW135653   1.215   6.622   0.714  1.4170  0.4421  0.8032
 9769SOL    HW235654   1.303   6.526   0.792 -0.0332 -0.4131  1.4293
 9770SOL     OW35655   4.124   7.305   0.031  0.3294  0.0859  0.1366
 9770SOL    HW135656   4.180   7.262  -0.034 -0.3475 -1.5835  0.6080
 9770SOL    HW235657   4.061   7.355  -0.021  1.6249  1.2076 -0.4086
 9771SOL     OW35658   8.660   3.600   5.702  0.3079  0.3544  0.1399
 9771SOL    HW135659   8.737   3.588   5.647 -0.6031 -1.1461 -0.8772
 9771SOL    HW235660   8.667   3.530   5.768 -0.9305 -0.8477 -0.9219
 9772SOL     OW35661   2.639   4.694   8.511 -0.4931 -0.1754  0.2705
 9772SOL    HW135662   2.644   4.780   8.468 -0.9779 -0.8344 -1.1381
 9772SOL    HW235663   2.554   4.694   8.555 -0.4392  0.1002  0.3804
 9773SOL     OW35664   4.236   6.026   8.103  0.4927 -0.0890  0.1748
 9773SOL    HW135665   4.202   6.113   8.082 -1.3522 -0.7409  0.3272
 9773SOL    HW235666   4.164   5.981   8.147  1.5500 -1.5587  0.4986
 9774SOL     OW35667   3.023   1.278   2.750  0.4446  0.0522  0.0971
 9774SOL    HW135668   3.022   1.244   2.840 -1.5445  0.5424  0.3044
 9774SOL    HW235669   3.010   1.201   2.695 -1.7594  0.1196  0.4463
 9775SOL     OW35670   0.274   5.547   8.704 -0.2375 -0.2729  0.3447
 9775SOL    HW135671   0.196   5.502   8.672 -0.4681  0.9827 -1.0315
 9775SOL    HW235672   0.241   5.631   8.737  0.5187  0.3492 -0.4188
 9776SOL     OW35673   0.243   0.103   4.989  0.2300  0.1528 -0.0879
 9776SOL    HW135674   0.267   0.194   4.977 -2.3086  1.0557  0.9943
 9776SOL    HW235675   0.260   0.085   5.081  0.0210 -0.2536 -0.1236
 9777SOL     OW35676   1.524   0.450   0.635  0.0260  0.4010  0.1522
 9777SOL    HW135677   1.569   0.486   0.711 -1.5335  1.7842  0.4740
 9777SOL    HW235678   1.520   0.522   0.572 -1.0333  0.0975 -0.1608
 9778SOL     OW35679   9.223   0.740   0.431 -0.4897 -0.3620 -0.2417
 9778SOL    HW135680   9.224   0.802   0.357  1.2741  0.5279  0.4838
 9778SOL    HW235681   9.194   0.792   0.505  3.2906  0.3492  0.9086
 9779SOL     OW35682   5.605   6.797   8.632 -0.3708  0.5940 -0.5827
 9779SOL    HW135683   5.588   6.703   8.630  0.6507  0.3399  1.0667
 9779SOL    HW235684   5.524   6.834   8.666 -1.3602  0.5342 -2.6727
 9780SOL     OW35685   3.452   5.987   0.984 -0.3766 -0.3975 -0.4395
 9780SOL    HW135686   3.425   5.984   0.892  1.5109 -0.9071 -1.0209
 9780SOL    HW235687   3.468   5.896   1.007 -0.4192 -0.2279  0.2722
 9781SOL     OW35688   8.534   8.330   2.261  0.5502  0.5353 -0.1912
 9781SOL    HW135689   8.459   8.295   2.213  0.4468  0.5526 -0.0443
 9781SOL    HW235690   8.505   8.331   2.353  2.3638 -4.1344  0.7214
 9782SOL     OW35691   0.650   0.743   4.442  0.5057 -0.4350 -0.0371
 9782SOL    HW135692   0.578   0.709   4.389 -0.3201  0.1284  0.7149
 9782SOL    HW235693   0.654   0.836   4.420  0.6775 -0.3618  0.3038
 9783SOL     OW35694   2.977   4.300   1.063  0.8756  0.2042  0.9385
 9783SOL    HW135695   2.920   4.372   1.090  1.2237 -0.3638  3.3634
 9783SOL    HW235696   2.933   4.263   0.986 -0.9310  1.0728  1.4878
 9784SOL     OW35697   2.941   5.717   4.103 -0.5235  0.1240 -0.2981
 9784SOL    HW135698   2.886   5.793   4.084 -1.0581  0.3048  1.6977
 9784SOL    HW235699   2.889   5.643   4.071 -0.3265  0.5196 -1.5934
 9785SOL     OW35700   0.146   3.557   7.940 -0.0858  0.0716  0.4536
 9785SOL    HW135701   0.216   3.611   7.975  0.0622  0.9523 -1.0864
 9785SOL    HW235702   0.158   3.471   7.981  0.5313  0.8221  1.8799
 9786SOL     OW35703   6.553   4.566   3.466  0.4015  0.3897  0.1150
 9786SOL    HW135704   6.484   4.586   3.402  1.8751  3.6057 -0.6640
 9786SOL    HW235705   6.523   4.607   3.547  0.5751  0.1699  0.2929
 9787SOL     OW35706   1.458   4.678   7.590 -0.4549  0.2240  0.6368
 9787SOL    HW135707   1.550   4.653   7.596 -0.6070 -0.5490 -0.1088
 9787SOL    HW235708   1.415   4.623   7.656 -0.5563 -0.3391  0.1106
 9788SOL     OW35709   4.653   0.217   2.777  0.5953 -0.3965  0.0357
 9788SOL    HW135710   4.687   0.134   2.745  1.0823 -0.5955  1.0316
 9788SOL    HW235711   4.731   0.270   2.794  0.3233 -0.1108  0.3981
 9789SOL     OW35712   8.817   1.021   1.342  0.8849  0.5832  0.5918
 9789SOL    HW135713   8.860   0.938   1.320 -1.6833 -0.2566 -1.7083
 9789SOL    HW235714   8.729   0.997   1.369 -0.0974  2.5641 -0.6151
 9790SOL     OW35715   0.176   9.095   9.192 -0.2219 -0.0223  0.1293
 9790SOL    HW135716   0.256   9.048   9.218 -0.4786 -0.2022  0.6109
 9790SOL    HW235717   0.205   9.185   9.180  0.2547 -0.2705 -0.6926
 9791SOL     OW35718   4.035   2.513   0.372  0.4829  0.1492  0.0378
 9791SOL    HW135719   4.058   2.446   0.308  0.5723  0.0954  0.1264
 9791SOL    HW235720   3.947   2.542   0.346  0.8315  0.6854 -0.5771
 9792SOL     OW35721   4.414   1.809   1.275 -0.9795 -0.4539 -0.3335
 9792SOL    HW135722   4.441   1.855   1.196 -2.2959  0.6341 -0.1936
 9792SOL    HW235723   4.323   1.837   1.289 -0.8589 -0.8071  1.4117
 9793SOL     OW35724   1.440   1.114   2.330  0.2744 -0.3128  0.0350
 9793SOL    HW135725   1.454   1.190   2.388  0.2828 -2.3947  2.9971
 9793SOL    HW235726   1.518   1.111   2.276 -0.0293  2.1317 -0.6745
 9794SOL     OW35727   6.498   9.014   8.849  0.2894 -0.2323  0.2529
 9794SOL    HW135728   6.549   9.005   8.929  0.8921 -0.4346 -0.1460
 9794SOL    HW235729   6.501   8.928   8.808 -0.7106 -0.3603  0.4092
 9795SOL     OW35730   9.026   5.355   8.161 -0.3852 -0.2810 -0.2187
 9795SOL    HW135731   9.025   5.451   8.161 -0.1212 -0.2121 -2.5138
 9795SOL    HW235732   8.938   5.330   8.191 -1.0166  0.7324 -1.1528
 9796SOL     OW35733   9.098   2.703   2.906  0.4241 -0.3215 -0.4054
 9796SOL    HW135734   9.016   2.679   2.864 -1.1245  2.2482  0.8965
 9796SOL    HW235735   9.134   2.772   2.851 -0.3880  1.3407  1.0190
 9797SOL     OW35736   2.758   0.274   3.642 -0.5364  0.4485  0.6307
 9797SOL    HW135737   2.712   0.329   3.705 -2.3289  1.1705 -1.1940
 9797SOL    HW235738   2.691   0.247   3.579  0.7053 -2.1249  0.2640
 9798SOL     OW35739   2.211   4.740   4.522 -0.2349 -0.7020 -0.3707
 9798SOL    HW135740   2.188   4.832   4.517  0.3267 -0.5215  0.3390
 9798SOL    HW235741   2.167   4.708   4.601  0.0575 -0.9002 -0.2865
 9799SOL     OW35742   6.971   5.943   0.192 -0.7242  0.4249 -0.4594
 9799SOL    HW135743   6.902   5.917   0.254 -1.2579 -0.1237 -1.2573
 9799SOL    HW235744   7.019   5.862   0.174  0.1035  0.7974  0.0525
 9800SOL     OW35745   0.204   8.496   7.452  0.3891 -0.0987  0.1128
 9800SOL    HW135746   0.269   8.448   7.402 -0.0183 -0.2419 -0.2908
 9800SOL    HW235747   0.210   8.586   7.419  0.9350  0.0645  0.6465
 9801SOL     OW35748   8.214   1.942   1.765  0.9185 -0.3222  0.1303
 9801SOL    HW135749   8.275   1.908   1.700 -0.1288  0.3801 -1.2971
 9801SOL    HW235750   8.203   2.034   1.741  1.3380  0.2644  2.0074
 9802SOL     OW35751   6.740   2.108   3.082 -0.1233  0.0469 -0.2712
 9802SOL    HW135752   6.694   2.190   3.062  0.9361  0.0471 -3.2468
 9802SOL    HW235753   6.670   2.042   3.083 -0.6821  0.6186 -0.6150
 9803SOL     OW35754   2.502   7.823   9.187 -0.4035  0.1284  0.3048
 9803SOL    HW135755   2.498   7.903   9.134 -1.6752  0.5739  1.0421
 9803SOL    HW235756   2.596   7.802   9.190 -0.1550  0.9320 -0.8461
 9804SOL     OW35757   1.827   9.023   7.101  0.2709 -0.2031 -0.3428
 9804SOL    HW135758   1.768   9.026   7.025  0.9594  0.5687 -0.8674
 9804SOL    HW235759   1.905   9.070   7.072  1.3021 -1.5091  0.2278
 9805SOL     OW35760   3.151   0.228   6.118 -0.2815 -0.1017 -0.3090
 9805SOL    HW135761   3.131   0.322   6.127  2.1284  0.6981 -2.2583
 9805SOL    HW235762   3.182   0.202   6.205 -0.9094  0.9229  0.2432
 9806SOL     OW35763   1.863   4.737   9.017 -0.0717  0.3780  0.1817
 9806SOL    HW135764   1.918   4.771   9.087 -0.4252  0.3349  0.4841
 9806SOL    HW235765   1.803   4.809   8.997  1.0431  0.9746 -1.1755
 9807SOL     OW35766   1.301   0.187   4.264  0.1195  0.3411  0.4948
 9807SOL    HW135767   1.338   0.250   4.203 -0.3928  0.7286  0.5862
 9807SOL    HW235768   1.265   0.240   4.335 -1.2747  0.0114  0.0621
 9808SOL     OW35769   1.407   5.444   4.609  0.1084 -0.0360  0.4516
 9808SOL    HW135770   1.398   5.496   4.529  1.8145  0.5275  0.5827
 9808SOL    HW235771   1.501   5.449   4.631 -0.0303 -1.5453  1.5708
 9809SOL     OW35772   4.622   0.181   6.263  0.1181  0.1537  0.0213
 9809SOL    HW135773   4.561   0.139   6.203 -0.5654  1.0003  0.1076
 9809SOL    HW235774   4.568   0.210   6.336  0.8283 -0.2199  0.7142
 9810SOL     OW35775   8.622   1.822   7.948  0.1628 -0.1327 -0.4972
 9810SOL    HW135776   8.571   1.817   8.029 -0.7673  2.3920 -0.8505
 9810SOL    HW235777   8.590   1.749   7.895  0.2748 -1.3884  1.0806
 9811SOL     OW35778   4.097   5.188   8.287 -0.0435  0.0428  0.1981
 9811SOL    HW135779   4.177   5.148   8.251 -0.8647 -0.3814 -1.2134
 9811SOL    HW235780   4.104   5.173   8.381 -0.4765 -3.9074 -0.2096
 9812SOL     OW35781   2.841   8.883   5.308 -0.2359 -0.7340 -0.2075
 9812SOL    HW135782   2.759   8.916   5.345 -1.2039  1.3464 -3.7120
 9812SOL    HW235783   2.901   8.958   5.311 -0.4159 -0.4018 -2.7419
 9813SOL     OW35784   3.639   1.388   6.321  0.0845  0.0594 -0.4719
 9813SOL    HW135785   3.695   1.311   6.328  0.2673  0.1865 -0.5350
 9813SOL    HW235786   3.596   1.395   6.406  1.6661  1.1273  0.2661
 9814SOL     OW35787   9.157   0.928   5.095  0.0656 -0.8612 -0.3642
 9814SOL    HW135788   9.220   0.946   5.165 -0.4343 -0.3632 -0.0410
 9814SOL    HW235789   9.072   0.930   5.138 -0.1625 -1.7429 -0.7640
 9815SOL     OW35790   3.689   2.643   8.705  0.0099  0.4214  0.0038
 9815SOL    HW135791   3.768   2.688   8.736 -0.3667  1.5458 -0.6195
 9815SOL    HW235792   3.683   2.565   8.760  0.6427  1.1767  1.1869
 9816SOL     OW35793   3.512   1.607   2.792  0.3311  0.1959  0.5927
 9816SOL    HW135794   3.485   1.658   2.716  0.8649 -0.9604 -0.4170
 9816SOL    HW235795   3.559   1.532   2.755  0.2156 -0.6387  2.0492
 9817SOL     OW35796   6.482   1.019   5.446  0.3676  0.1828  0.8357
 9817SOL    HW135797   6.565   1.061   5.470  0.6895 -0.5663  1.0594
 9817SOL    HW235798   6.507   0.932   5.415 -0.3616 -0.1862  1.2500
 9818SOL     OW35799   5.821   7.847   2.962  0.2686 -0.3804  0.5762
 9818SOL    HW135800   5.824   7.898   3.042 -0.7444  1.1935 -0.3462
 9818SOL    HW235801   5.789   7.907   2.895 -1.7172 -2.4012 -0.4306
 9819SOL     OW35802   7.889   8.660   5.665  0.0215 -0.2237 -0.3976
 9819SOL    HW135803   7.884   8.756   5.662  4.2939  0.2809  1.3100
 9819SOL    HW235804   7.934   8.637   5.583  0.6876 -0.5127  0.0409
 9820SOL     OW35805   5.753   0.035   5.488  0.3298 -0.3365  0.0127
 9820SOL    HW135806   5.698   0.112   5.475  1.0112 -0.0434 -1.2967
 9820SOL    HW235807   5.699  -0.039   5.459 -0.3713 -0.4051  1.3922
 9821SOL     OW35808   0.419   6.726   5.763  0.3148  0.4888  0.3126
 9821SOL    HW135809   0.476   6.657   5.797 -0.4478 -0.1117  0.3994
 9821SOL    HW235810   0.349   6.734   5.828  0.5735  1.6011  0.4809
 9822SOL     OW35811   2.076   6.153   4.478 -0.3147  0.1542  0.1539
 9822SOL    HW135812   2.004   6.215   4.493 -1.2665 -0.9649  0.3568
 9822SOL    HW235813   2.041   6.092   4.412  1.0549  0.5507 -0.9758
 9823SOL     OW35814   1.115   2.184   3.464  0.5541 -0.1160 -0.2628
 9823SOL    HW135815   1.030   2.202   3.503 -0.5614  0.4147 -2.7364
 9823SOL    HW235816   1.117   2.089   3.452  0.2469 -0.1124 -0.3452
 9824SOL     OW35817   0.097   7.711   0.264 -0.5249  0.0416  0.1658
 9824SOL    HW135818   0.128   7.670   0.184  0.3392  0.8306  0.0710
 9824SOL    HW235819   0.064   7.639   0.318 -0.0581 -0.6261 -0.4331
 9825SOL     OW35820   6.538   3.125   7.460  0.3357  0.0588 -0.3063
 9825SOL    HW135821   6.553   3.214   7.430 -0.0039  0.1146 -0.3141
 9825SOL    HW235822   6.609   3.108   7.523  0.6380  0.1869 -0.6105
 9826SOL     OW35823   0.708   1.790   4.018 -0.5877  0.1695  0.1148
 9826SOL    HW135824   0.725   1.850   3.946  2.6822 -1.1492 -0.3786
 9826SOL    HW235825   0.687   1.707   3.975  2.6473 -0.9737  0.4735
 9827SOL     OW35826   8.149   5.901   5.089 -0.2794  0.4873 -0.5120
 9827SOL    HW135827   8.191   5.894   5.004  0.2870 -0.8136 -0.1476
 9827SOL    HW235828   8.056   5.911   5.069 -0.2842 -0.8568 -1.2912
 9828SOL     OW35829   4.263   2.529   6.815  0.3292  0.3698  0.1482
 9828SOL    HW135830   4.321   2.460   6.785  2.8654  2.4252 -0.0313
 9828SOL    HW235831   4.205   2.546   6.741  0.6407 -0.5581 -0.3219
 9829SOL     OW35832   5.977   2.901   5.272 -0.0059  0.0899 -0.3313
 9829SOL    HW135833   5.915   2.961   5.231  0.2501 -0.2843 -1.2965
 9829SOL    HW235834   6.046   2.957   5.306 -0.7202  0.4870  0.5109
 9830SOL     OW35835   5.699   6.439   1.628  0.0941  0.6151 -0.7632
 9830SOL    HW135836   5.633   6.376   1.599 -0.4175  0.4857  0.6410
 9830SOL    HW235837   5.755   6.390   1.688  0.3248  1.2324 -0.4695
 9831SOL     OW35838   1.048   5.938   0.417  0.0969 -0.0973  0.1930
 9831SOL    HW135839   1.091   5.917   0.335  0.4568 -0.5598  0.4947
 9831SOL    HW235840   0.986   6.007   0.395  1.7381  1.3631 -0.0603
 9832SOL     OW35841   4.769   0.355   5.310 -0.4629  0.2863 -0.8370
 9832SOL    HW135842   4.736   0.278   5.357 -1.5556  0.5053 -1.2219
 9832SOL    HW235843   4.725   0.429   5.351  1.1613  0.8096  0.0437
 9833SOL     OW35844   2.091   0.510   6.976  0.0507  0.0430 -0.1783
 9833SOL    HW135845   2.032   0.586   6.980  1.0049  0.7609  0.8191
 9833SOL    HW235846   2.033   0.434   6.976 -0.8865  0.7370  0.4651
 9834SOL     OW35847   9.172   6.323   0.799 -0.5265  0.2429 -0.2834
 9834SOL    HW135848   9.214   6.292   0.880 -1.7293  1.6106  0.9302
 9834SOL    HW235849   9.177   6.418   0.805 -0.4970  0.3611 -1.9353
 9835SOL     OW35850   0.459   6.089   1.685  0.0701  0.0075  0.1868
 9835SOL    HW135851   0.552   6.069   1.695  0.1852  0.3743 -0.1127
 9835SOL    HW235852   0.419   6.007   1.656  0.3611 -0.0584 -0.0296
 9836SOL     OW35853   3.611   1.933   7.022  0.3044 -0.2465 -0.3676
 9836SOL    HW135854   3.641   1.988   6.950  1.5487 -0.0990  0.2386
 9836SOL    HW235855   3.687   1.879   7.044 -0.1916 -0.6022  0.5374
 9837SOL     OW35856   2.357   6.867   3.773  0.6742  0.3085  0.2359
 9837SOL    HW135857   2.278   6.909   3.739  0.4146 -1.1012 -1.0174
 9837SOL    HW235858   2.386   6.810   3.701  0.6679 -2.1009  2.0557
 9838SOL     OW35859   3.815   5.639   6.758  0.7353 -0.2685  0.3866
 9838SOL    HW135860   3.819   5.718   6.703  1.1330  0.4990  1.4737
 9838SOL    HW235861   3.900   5.598   6.748  1.8147  1.2896  2.3902
 9839SOL     OW35862   8.724   3.824   2.583 -0.7338  0.1188  0.1598
 9839SOL    HW135863   8.799   3.773   2.553  0.8008  2.2033  0.2210
 9839SOL    HW235864   8.677   3.766   2.643  0.1261 -1.6523 -0.7955
 9840SOL     OW35865   0.350   1.852   5.724  0.1332  0.4235  0.5768
 9840SOL    HW135866   0.396   1.792   5.783 -1.3768  1.0157  2.4386
 9840SOL    HW235867   0.268   1.807   5.703  0.4029  0.4713 -0.6677
 9841SOL     OW35868   4.986   5.670   8.893 -0.9986 -0.0793  0.2262
 9841SOL    HW135869   4.918   5.726   8.856 -0.4478  1.0855  0.9185
 9841SOL    HW235870   4.969   5.584   8.856 -2.4260  0.3410 -0.1429
 9842SOL     OW35871   3.135   8.048   0.380  0.1293  0.1325  0.4593
 9842SOL    HW135872   3.103   8.003   0.458  1.1016 -1.0077  0.2483
 9842SOL    HW235873   3.225   8.016   0.370  0.4899  1.3338 -0.3347
 9843SOL     OW35874   6.285   2.794   0.149 -0.3998  0.3088 -0.5015
 9843SOL    HW135875   6.355   2.834   0.201 -1.4363  0.9483  0.4529
 9843SOL    HW235876   6.241   2.735   0.209  0.1100 -1.1070 -1.4625
 9844SOL     OW35877   7.765   5.048   5.672 -0.2139  1.0681 -0.1955
 9844SOL    HW135878   7.716   5.119   5.713 -2.0179  0.0296 -0.4248
 9844SOL    HW235879   7.730   4.968   5.714  2.1082  0.2968  0.4427
 9845SOL     OW35880   8.355   1.735   4.022  0.1947  0.2020 -0.2905
 9845SOL    HW135881   8.428   1.678   4.043  0.4171  0.3695 -0.6040
 9845SOL    HW235882   8.321   1.701   3.939  0.0215  0.2258 -0.2304
 9846SOL     OW35883   3.947   2.436   5.921 -0.1025 -0.5163 -0.0663
 9846SOL    HW135884   3.960   2.342   5.910  1.7131 -0.3335  0.1091
 9846SOL    HW235885   3.944   2.450   6.015  1.2641 -0.2510 -0.0387
 9847SOL     OW35886   1.432   8.505   0.823 -0.0192 -0.1505 -0.0289
 9847SOL    HW135887   1.402   8.526   0.735  1.0790  0.2139 -0.3341
 9847SOL    HW235888   1.443   8.590   0.866  1.6042 -0.1976 -0.2964
 9848SOL     OW35889   8.184   4.874   5.188  0.0451 -0.4701  0.3833
 9848SOL    HW135890   8.152   4.959   5.157  0.7175 -0.2638  0.2239
 9848SOL    HW235891   8.111   4.814   5.174 -0.5362  0.1325  0.7445
 9849SOL     OW35892   5.744   2.670   6.947  0.2038 -0.3725  0.0845
 9849SOL    HW135893   5.819   2.710   6.903  0.5725 -1.2735 -0.1411
 9849SOL    HW235894   5.705   2.741   6.998  1.8265 -0.1256  1.0371
 9850SOL     OW35895   1.673   0.116   4.934 -0.0119  0.3955  0.4242
 9850SOL    HW135896   1.621   0.083   5.008 -0.2872  0.4994  0.2795
 9850SOL    HW235897   1.607   0.149   4.872  0.1629 -0.7692 -0.3949
 9851SOL     OW35898   0.359   1.006   7.363  0.3293  0.4368 -0.1179
 9851SOL    HW135899   0.443   0.993   7.407 -0.9801 -1.7492  1.9828
 9851SOL    HW235900   0.298   1.028   7.433 -1.3962 -0.7902 -1.1525
 9852SOL     OW35901   3.694   5.727   8.658 -0.3736  0.7199  0.5005
 9852SOL    HW135902   3.733   5.747   8.743  0.1589  0.9051  0.2223
 9852SOL    HW235903   3.746   5.779   8.596 -1.8043  1.8883  0.2299
 9853SOL     OW35904   2.080   3.551   1.574  0.3571 -0.5049  0.2904
 9853SOL    HW135905   2.117   3.601   1.647  0.6729 -1.2742  0.6632
 9853SOL    HW235906   2.096   3.606   1.497  0.0385  0.3077  0.7839
 9854SOL     OW35907   2.318   5.055   7.033  0.1168 -0.1868 -0.2755
 9854SOL    HW135908   2.404   5.092   7.051 -0.4012  0.1372  1.7595
 9854SOL    HW235909   2.301   4.997   7.108 -0.2172 -2.5430 -2.0566
 9855SOL     OW35910   7.750   1.440   8.272 -0.8495 -0.0340 -0.3909
 9855SOL    HW135911   7.706   1.356   8.260 -1.3099  0.3130 -1.1783
 9855SOL    HW235912   7.808   1.447   8.197 -2.0806  1.1339 -1.2634
 9856SOL     OW35913   8.178   3.017   1.669  0.1547  0.2805 -0.2812
 9856SOL    HW135914   8.146   2.943   1.720  1.5661 -0.6768 -0.7326
 9856SOL    HW235915   8.271   3.020   1.687  0.4509  0.7703 -1.7392
 9857SOL     OW35916   3.093   7.822   1.250 -0.2600  0.4565 -0.5150
 9857SOL    HW135917   3.152   7.867   1.190  1.1322 -0.3689  0.1780
 9857SOL    HW235918   3.006   7.829   1.209  0.4932  0.7036 -2.1470
 9858SOL     OW35919   1.695   8.648   2.556  0.7067 -0.2389  0.3196
 9858SOL    HW135920   1.619   8.619   2.606 -0.7389 -1.3666 -2.3632
 9858SOL    HW235921   1.750   8.570   2.548  0.7516 -0.1656 -0.1170
 9859SOL     OW35922   9.150   0.764   3.374 -0.0424  0.3334  0.1474
 9859SOL    HW135923   9.055   0.756   3.371  0.0806 -1.5748  0.4211
 9859SOL    HW235924   9.173   0.805   3.290 -1.2373  3.0115  1.0266
 9860SOL     OW35925   7.508   5.221   2.515  0.3486 -0.3510 -0.8019
 9860SOL    HW135926   7.547   5.248   2.432  1.8180 -1.4259 -0.4919
 9860SOL    HW235927   7.557   5.143   2.541  0.1647  0.1466  1.2415
 9861SOL     OW35928   1.673   8.846   4.721  0.7068  0.5016 -0.4199
 9861SOL    HW135929   1.743   8.897   4.679  1.7176 -1.7039 -1.5731
 9861SOL    HW235930   1.626   8.806   4.648 -0.4187  0.2247  0.4336
 9862SOL     OW35931   1.366   0.344   6.108  0.1485 -0.4839 -0.0074
 9862SOL    HW135932   1.459   0.338   6.131  0.0107 -2.3683  0.2021
 9862SOL    HW235933   1.355   0.285   6.034 -0.6817  0.6483 -0.8270
 9863SOL     OW35934   7.528   1.771   0.227  0.0522  0.0774  0.8142
 9863SOL    HW135935   7.475   1.850   0.216 -1.5900 -0.9467  1.1265
 9863SOL    HW235936   7.606   1.788   0.174 -0.8578  1.3707 -0.1839
 9864SOL     OW35937   0.298   8.288   3.667  0.5295  0.3809  0.4461
 9864SOL    HW135938   0.260   8.339   3.739  1.1008  0.4665  0.6900
 9864SOL    HW235939   0.377   8.248   3.704 -0.9159 -2.3286  0.8521
 9865SOL     OW35940   7.872   1.907   6.990  0.0668 -0.0700  0.2739
 9865SOL    HW135941   7.948   1.928   6.936  0.5374  1.1612  1.3568
 9865SOL    HW235942   7.806   1.878   6.928  1.0872 -0.1884 -0.7988
 9866SOL     OW35943   6.118   3.841   1.593 -0.5599 -0.0313  0.1582
 9866SOL    HW135944   6.107   3.935   1.602 -0.0900  0.0402  0.0487
 9866SOL    HW235945   6.166   3.830   1.511  0.2013 -0.2966  0.6167
 9867SOL     OW35946   3.935   9.015   5.218 -0.3417  0.1544  0.4843
 9867SOL    HW135947   3.957   8.943   5.277 -1.2577  0.6139  1.4345
 9867SOL    HW235948   3.858   8.984   5.170 -0.5386  0.3687  0.6584
 9868SOL     OW35949   1.703   7.868   2.741 -0.2020 -0.0093 -0.2933
 9868SOL    HW135950   1.684   7.943   2.684  1.7133  0.6022 -0.1885
 9868SOL    HW235951   1.773   7.821   2.696  0.6542 -0.0801  1.0674
 9869SOL     OW35952   3.083   1.223   9.130 -0.2324 -0.0688 -0.2111
 9869SOL    HW135953   3.110   1.146   9.082 -1.0764 -0.5790  0.1068
 9869SOL    HW235954   3.105   1.297   9.072  0.8879 -0.5111 -0.3659
 9870SOL     OW35955   4.630   2.441   3.269 -0.3974 -0.6721  0.2255
 9870SOL    HW135956   4.653   2.430   3.361  1.2328 -1.1010 -0.1932
 9870SOL    HW235957   4.701   2.398   3.222 -0.5305  0.6675 -1.2658
 9871SOL     OW35958   7.830   8.591   5.918  0.5432 -0.2309  0.2673
 9871SOL    HW135959   7.738   8.612   5.935  1.3034  3.1880  0.9523
 9871SOL    HW235960   7.844   8.620   5.828  1.4169  1.4772  0.9087
 9872SOL     OW35961   3.454   8.793   1.638 -0.1871 -0.5855  0.0078
 9872SOL    HW135962   3.519   8.849   1.679 -1.4080  0.2456  0.8744
 9872SOL    HW235963   3.459   8.815   1.545 -0.7906  1.1542  0.3531
 9873SOL     OW35964   3.132   4.662   2.525  0.3313 -0.1325  0.6298
 9873SOL    HW135965   3.149   4.570   2.505  0.9407 -0.1345  1.1182
 9873SOL    HW235966   3.217   4.696   2.553 -0.3824 -0.0838  2.9509
 9874SOL     OW35967   0.616   0.177   7.486  0.0372 -0.3533  0.0831
 9874SOL    HW135968   0.609   0.141   7.574  1.2036  0.7839  0.6885
 9874SOL    HW235969   0.701   0.221   7.485 -0.9946  1.7681 -0.7895
 9875SOL     OW35970   1.976   4.346   2.417 -0.1338  0.0759  0.9437
 9875SOL    HW135971   1.943   4.401   2.488  0.1011  0.5329  0.6975
 9875SOL    HW235972   2.060   4.314   2.449 -0.2829 -0.1716  1.0982
 9876SOL     OW35973   6.013   6.251   9.247 -0.2054 -0.3774 -0.3666
 9876SOL    HW135974   6.022   6.182   9.313  0.0675  0.5323  0.5806
 9876SOL    HW235975   6.003   6.331   9.298  0.5313  0.4222 -1.4310
 9877SOL     OW35976   4.709   5.213   1.110  0.4863 -0.2912 -0.4293
 9877SOL    HW135977   4.769   5.279   1.075 -1.4196  0.8996 -1.6543
 9877SOL    HW235978   4.657   5.186   1.034 -1.2974 -0.3958  0.7760
 9878SOL     OW35979   2.389   8.457   8.079  0.1820 -0.1544  0.0753
 9878SOL    HW135980   2.359   8.543   8.052 -0.9482 -0.0754  1.4449
 9878SOL    HW235981   2.437   8.422   8.004 -0.6689  1.0311 -1.0379
 9879SOL     OW35982   4.682   6.359   7.175  0.3080  0.6208 -0.9032
 9879SOL    HW135983   4.640   6.439   7.143  0.9355  1.3521  0.0369
 9879SOL    HW235984   4.657   6.355   7.267  0.6910 -0.0012 -0.8261
 9880SOL     OW35985   0.833   8.509   7.468 -0.0539  0.0809 -0.0531
 9880SOL    HW135986   0.821   8.499   7.373 -1.3515  0.2996  0.0702
 9880SOL    HW235987   0.822   8.603   7.484  0.6875  0.1208  0.2548
 9881SOL     OW35988   1.355   6.195   8.622  0.5423  0.4097 -0.4049
 9881SOL    HW135989   1.360   6.272   8.565  2.4106 -0.3639 -1.3517
 9881SOL    HW235990   1.436   6.197   8.673  0.6407 -0.9682 -0.4944
 9882SOL     OW35991   2.912   5.605   6.774  0.1287 -0.2579 -0.6277
 9882SOL    HW135992   3.001   5.613   6.807 -0.4410  0.8941  0.7138
 9882SOL    HW235993   2.903   5.677   6.712 -0.3351  0.5903  0.3981
 9883SOL     OW35994   5.495   6.501   8.324  0.3278 -0.3280  0.0146
 9883SOL    HW135995   5.442   6.481   8.401  0.1304 -0.5161 -0.1687
 9883SOL    HW235996   5.507   6.596   8.327  0.2332 -0.3220  0.2204
 9884SOL     OW35997   3.571   5.318   3.345  0.6857  0.0146 -0.4460
 9884SOL    HW135998   3.637   5.308   3.277  0.8833  2.0683 -0.6299
 9884SOL    HW235999   3.519   5.237   3.341  1.1325 -0.2170 -2.5528
 9885SOL     OW36000   7.286   9.026   5.124 -0.2581  0.3309  0.0623
 9885SOL    HW136001   7.261   9.007   5.215  0.0584 -0.3556  0.0111
 9885SOL    HW236002   7.212   9.075   5.089 -0.8636 -0.3450  0.3670
 9886SOL     OW36003   4.841   8.086   7.171  0.0513 -0.5998 -0.5832
 9886SOL    HW136004   4.759   8.123   7.205 -0.6016 -2.5756  0.0992
 9886SOL    HW236005   4.829   8.085   7.076  0.0206  0.7330 -0.6091
 9887SOL     OW36006   3.231   5.761   3.153  0.0849 -0.2050  0.0742
 9887SOL    HW136007   3.208   5.708   3.076 -1.0572  1.6252 -0.9156
 9887SOL    HW236008   3.150   5.806   3.177  1.1870  1.8577  0.2075
 9888SOL     OW36009   5.788   1.189   5.104  0.0592  0.4037 -0.4843
 9888SOL    HW136010   5.823   1.166   5.018  0.1294 -1.0019 -0.1128
 9888SOL    HW236011   5.823   1.122   5.162 -0.6754  0.8379  0.4799
 9889SOL     OW36012   2.914   3.006   7.463  0.4095 -0.1914  0.3469
 9889SOL    HW136013   2.835   3.061   7.455  0.3823 -0.2897 -0.0680
 9889SOL    HW236014   2.882   2.917   7.455  0.7221 -0.1859 -1.1780
 9890SOL     OW36015   7.341   0.535   1.957 -0.1593 -0.8085 -0.6622
 9890SOL    HW136016   7.314   0.621   1.926  1.1232  0.0766  0.5405
 9890SOL    HW236017   7.298   0.524   2.041 -0.9169 -1.6977 -1.1470
 9891SOL     OW36018   4.577   8.999   1.674  0.2020  0.1451  0.1586
 9891SOL    HW136019   4.653   8.959   1.715  0.0355  0.0712  0.3975
 9891SOL    HW236020   4.518   8.925   1.658  1.0724 -0.1477 -2.0312
 9892SOL     OW36021   7.201   1.872   2.488  0.1318  0.2020  0.2471
 9892SOL    HW136022   7.123   1.832   2.449  0.1941  0.8485 -0.5759
 9892SOL    HW236023   7.252   1.904   2.413  0.3952  1.2216  0.8316
 9893SOL     OW36024   4.767   2.404   7.697  0.4027 -0.4084 -0.0369
 9893SOL    HW136025   4.854   2.400   7.736  0.5673 -0.4388 -0.3986
 9893SOL    HW236026   4.707   2.410   7.771  0.5974 -2.1492  0.3128
 9894SOL     OW36027   2.713   5.878   4.014 -0.2828  0.1528  0.1141
 9894SOL    HW136028   2.714   5.829   3.932 -0.4231 -0.0491  0.2311
 9894SOL    HW236029   2.626   5.861   4.051 -0.3330  0.4914  0.1551
 9895SOL     OW36030   7.806   8.483   8.877  0.9259  0.1946 -0.8662
 9895SOL    HW136031   7.897   8.512   8.888  0.6602  1.0090 -0.6892
 9895SOL    HW236032   7.763   8.512   8.957  1.0601 -2.5431  0.2717
 9896SOL     OW36033   3.661   1.296   2.408 -0.7014 -0.1367 -0.3528
 9896SOL    HW136034   3.565   1.292   2.409 -0.8280  0.4036 -2.7204
 9896SOL    HW236035   3.685   1.263   2.321  1.1049  1.7053 -0.6438
 9897SOL     OW36036   1.040   3.637   7.945  0.1622  0.2324  0.1384
 9897SOL    HW136037   0.953   3.640   7.983  0.6527  1.4817  1.2261
 9897SOL    HW236038   1.097   3.608   8.016  0.7578  0.2240 -0.3318
 9898SOL     OW36039   4.254   1.858   2.210 -0.5367  0.3371 -0.1733
 9898SOL    HW136040   4.205   1.825   2.285  0.9553 -0.2962  0.5697
 9898SOL    HW236041   4.344   1.830   2.226 -0.1135  0.5039 -2.0323
 9899SOL     OW36042   5.435   4.343   3.286  0.2179  0.7593  0.2433
 9899SOL    HW136043   5.447   4.419   3.344  1.2711 -0.4640  1.7127
 9899SOL    HW236044   5.423   4.269   3.346  0.0676 -0.3791 -1.1373
 9900SOL     OW36045   2.135   0.476   4.472 -0.2968  0.4040 -0.0839
 9900SOL    HW136046   2.073   0.518   4.412 -0.0451  0.8594 -0.0323
 9900SOL    HW236047   2.192   0.424   4.416 -2.4165 -2.3423  0.0580
 9901SOL     OW36048   2.342   7.984   0.760  0.1829  0.2470 -0.2148
 9901SOL    HW136049   2.254   8.013   0.787  0.1411 -0.9939  1.0411
 9901SOL    HW236050   2.377   8.059   0.713 -2.4862 -0.0229 -3.0022
 9902SOL     OW36051   7.447   0.875   7.792  0.3273 -0.3839  0.4749
 9902SOL    HW136052   7.355   0.865   7.815 -0.3141 -0.1939 -1.7811
 9902SOL    HW236053   7.472   0.961   7.826 -1.0405  0.6060 -0.8685
 9903SOL     OW36054   8.429   1.281   2.576  0.3268  0.3076 -0.2298
 9903SOL    HW136055   8.352   1.231   2.549  0.0846  0.3674  0.3545
 9903SOL    HW236056   8.477   1.297   2.494  0.1774 -0.4891 -0.4775
 9904SOL     OW36057   8.792   2.228   5.690  0.2126  0.0638  0.5183
 9904SOL    HW136058   8.775   2.147   5.642  1.2718 -0.5722  1.1755
 9904SOL    HW236059   8.705   2.263   5.709 -0.2393 -0.1778 -0.9887
 9905SOL     OW36060   6.736   0.681   1.073 -0.1753 -0.3836 -0.0008
 9905SOL    HW136061   6.707   0.752   1.130 -0.3522  0.6871 -1.3761
 9905SOL    HW236062   6.703   0.705   0.986  0.4832 -1.7247 -0.6473
 9906SOL     OW36063   6.638   6.877   0.378  0.0739  0.2421 -0.5277
 9906SOL    HW136064   6.679   6.921   0.304 -0.6686  1.1750 -0.4070
 9906SOL    HW236065   6.603   6.796   0.341  1.2895 -0.1751 -0.7956
 9907SOL     OW36066   8.679   8.692   6.359 -0.3924 -0.1855  0.3226
 9907SOL    HW136067   8.632   8.627   6.410  1.3177 -0.1552  2.0402
 9907SOL    HW236068   8.700   8.762   6.421  2.4971 -0.5318 -0.1208
 9908SOL     OW36069   5.764   2.678   1.792  0.2944 -0.1207 -0.7591
 9908SOL    HW136070   5.805   2.693   1.707  1.9422  0.8147  0.1620
 9908SOL    HW236071   5.677   2.717   1.783 -0.1631 -1.3644 -2.4630
 9909SOL     OW36072   6.830   1.391   1.408 -0.5517 -0.2080 -0.2121
 9909SOL    HW136073   6.860   1.300   1.416 -0.0834  0.0428  1.0164
 9909SOL    HW236074   6.890   1.431   1.345  1.9398  0.3338  2.3135
 9910SOL     OW36075   2.664   5.410   3.516  0.4838 -0.1292  0.1915
 9910SOL    HW136076   2.673   5.368   3.431 -1.1150 -0.8821  0.3577
 9910SOL    HW236077   2.695   5.499   3.503  2.0880 -0.7793 -0.6797
 9911SOL     OW36078   4.666   7.613   0.795  0.3730 -0.3438 -0.0502
 9911SOL    HW136079   4.578   7.632   0.765  0.3982 -2.3565 -1.6012
 9911SOL    HW236080   4.723   7.659   0.734  0.3950 -0.8451 -0.4136
 9912SOL     OW36081   3.653   5.458   5.190 -0.2035 -0.0950  0.2410
 9912SOL    HW136082   3.700   5.539   5.170  2.2023 -2.0755 -3.2199
 9912SOL    HW236083   3.704   5.418   5.260  0.9094 -0.2896 -0.6412
 9913SOL     OW36084   6.792   2.686   5.632  0.4308  0.3771 -0.1016
 9913SOL    HW136085   6.705   2.647   5.628  1.1592 -1.2527 -1.6774
 9913SOL    HW236086   6.798   2.741   5.554  0.6354  0.8839  0.2698
 9914SOL     OW36087   1.864   7.940   3.807 -0.2871  0.6087 -0.0297
 9914SOL    HW136088   1.932   7.873   3.810 -1.3481 -0.4991  0.5084
 9914SOL    HW236089   1.908   8.018   3.773  0.7931 -0.6027 -1.5654
 9915SOL     OW36090   4.866   2.323   5.909  0.3261  0.4812  0.2617
 9915SOL    HW136091   4.826   2.247   5.951 -1.6138 -0.4086 -2.8587
 9915SOL    HW236092   4.813   2.397   5.937 -0.7473 -0.0521 -0.2862
 9916SOL     OW36093   5.041   5.382   7.375 -0.0953 -0.3513 -0.0682
 9916SOL    HW136094   5.075   5.458   7.423 -0.2613 -0.8365  0.8321
 9916SOL    HW236095   4.979   5.420   7.312 -0.1956  0.2610  0.3870
 9917SOL     OW36096   3.424   1.342   5.174  0.2442 -0.1290 -1.0675
 9917SOL    HW136097   3.446   1.280   5.243 -0.6147  0.1703 -0.5183
 9917SOL    HW236098   3.509   1.372   5.141  0.6863 -1.5613 -1.3383
 9918SOL     OW36099   3.579   4.750   7.043  0.5114  0.2901  0.0958
 9918SOL    HW136100   3.629   4.757   6.962  1.2502 -1.6277  0.3223
 9918SOL    HW236101   3.643   4.719   7.108 -0.3159  0.6894  1.1340
 9919SOL     OW36102   1.700   2.486   3.064  0.0211  0.2538  0.2896
 9919SOL    HW136103   1.669   2.396   3.069 -0.4150  0.4007  0.2887
 9919SOL    HW236104   1.699   2.507   2.971  4.1348 -1.1010 -0.2656
 9920SOL     OW36105   9.025   4.068   7.948  0.2698 -0.1100  0.0877
 9920SOL    HW136106   8.988   4.067   8.037 -1.9961  0.6444 -0.7891
 9920SOL    HW236107   8.952   4.092   7.892  1.8794  0.3400 -1.9186
 9921SOL     OW36108   4.076   3.372   3.433 -0.4734 -0.7737  0.4706
 9921SOL    HW136109   4.141   3.338   3.370  0.0169  1.2505 -0.1858
 9921SOL    HW236110   3.994   3.372   3.385 -0.5217 -1.2049  0.5476
 9922SOL     OW36111   2.328   6.675   4.509  0.3852  0.6509 -0.1209
 9922SOL    HW136112   2.286   6.591   4.491  0.3501  0.2959  1.4293
 9922SOL    HW236113   2.374   6.697   4.428  0.1607 -0.7276 -0.6549
 9923SOL     OW36114   3.658   0.339   0.568 -0.1126  0.4144  0.2155
 9923SOL    HW136115   3.674   0.267   0.508  1.0761 -0.1953  1.1964
 9923SOL    HW236116   3.595   0.396   0.523  1.9218  0.8621 -2.3024
 9924SOL     OW36117   2.679   7.652   8.060 -0.6264  0.0914  0.1575
 9924SOL    HW136118   2.618   7.579   8.052 -0.3577 -0.0289 -0.9826
 9924SOL    HW236119   2.624   7.726   8.085 -1.0572 -0.2810  0.3289
 9925SOL     OW36120   5.543   2.239   7.059  0.1389  0.3650  0.3833
 9925SOL    HW136121   5.550   2.313   7.119  1.5346  0.3605  0.2460
 9925SOL    HW236122   5.534   2.163   7.116 -2.0804  0.6695  0.5222
 9926SOL     OW36123   8.152   2.274   3.845  0.2310 -0.1061  0.2942
 9926SOL    HW136124   8.182   2.184   3.849 -1.3361 -0.6654  0.3112
 9926SOL    HW236125   8.149   2.303   3.936  0.4712 -0.1240  0.3083
 9927SOL     OW36126   8.340   2.168   7.272  0.1036  0.1057 -0.7989
 9927SOL    HW136127   8.319   2.236   7.208 -0.6422 -3.2824 -4.5747
 9927SOL    HW236128   8.269   2.172   7.336 -0.7940  1.7996 -1.8233
 9928SOL     OW36129   0.112   3.168   3.993 -0.9453 -0.8041  0.1596
 9928SOL    HW136130   0.074   3.254   3.980  0.5322 -0.0439  0.6983
 9928SOL    HW236131   0.100   3.123   3.910  0.3459  0.7719 -0.9308
 9929SOL     OW36132   2.778   3.337   7.627  0.1048  0.1648  0.2183
 9929SOL    HW136133   2.856   3.282   7.637  0.3149  0.4338  0.0676
 9929SOL    HW236134   2.768   3.346   7.532  1.0802  1.8043  0.2373
 9930SOL     OW36135   0.517   1.860   2.915 -0.0818  0.0016 -0.2945
 9930SOL    HW136136   0.452   1.811   2.964 -0.0242  1.1677  0.9895
 9930SOL    HW236137   0.575   1.793   2.878 -0.9826 -0.9593  0.0079
 9931SOL     OW36138   7.894   0.181   5.348  0.1527  0.2990 -0.0568
 9931SOL    HW136139   7.930   0.108   5.298  0.5599 -1.0773  2.0950
 9931SOL    HW236140   7.803   0.188   5.319  0.5379 -0.0299 -1.4025
 9932SOL     OW36141   2.412   3.547   4.892 -0.0993  0.3063 -0.4350
 9932SOL    HW136142   2.449   3.625   4.932 -0.1127 -0.1235  0.4344
 9932SOL    HW236143   2.354   3.510   4.958  0.4016 -0.7929 -0.5754
 9933SOL     OW36144   2.250   4.372   7.238 -0.3353  0.8328 -0.1208
 9933SOL    HW136145   2.270   4.395   7.328  1.9145  2.8501 -1.0188
 9933SOL    HW236146   2.291   4.442   7.186 -0.5525 -0.8582 -2.7504
 9934SOL     OW36147   0.487   0.784   6.141  0.1707  0.2742 -0.3025
 9934SOL    HW136148   0.463   0.832   6.220 -0.0295  0.3744 -0.4245
 9934SOL    HW236149   0.463   0.693   6.160 -1.0764  0.4865 -0.7195
 9935SOL     OW36150   8.086   4.238   6.901 -0.0821 -0.5749  0.5066
 9935SOL    HW136151   8.003   4.281   6.879  0.3477 -0.5314 -1.2421
 9935SOL    HW236152   8.084   4.228   6.996 -1.6827  0.2484  0.5977
 9936SOL     OW36153   1.869   2.944   6.660  0.2365 -0.5392 -0.0779
 9936SOL    HW136154   1.795   2.929   6.600 -0.0416 -0.2559  0.1879
 9936SOL    HW236155   1.935   2.988   6.606 -0.0040 -0.2993 -0.1795
 9937SOL     OW36156   6.478   7.402   3.954 -0.9295 -0.0761  0.1885
 9937SOL    HW136157   6.512   7.313   3.947  2.1626  0.9938  0.2850
 9937SOL    HW236158   6.383   7.392   3.942 -0.5143 -3.1392 -1.6470
 9938SOL     OW36159   3.582   3.177   4.536 -0.7647  0.4034 -0.0653
 9938SOL    HW136160   3.568   3.170   4.631  0.3048  0.5797  0.1248
 9938SOL    HW236161   3.592   3.087   4.507  2.7929  0.4217  0.6750
 9939SOL     OW36162   4.622   6.510   8.488  0.2513  0.3728  0.3053
 9939SOL    HW136163   4.624   6.551   8.402  0.5901  0.4974  0.3733
 9939SOL    HW236164   4.704   6.536   8.530 -0.0065  0.4929  0.7500
 9940SOL     OW36165   3.393   5.042   2.708 -0.4473  0.5738 -0.2110
 9940SOL    HW136166   3.481   5.046   2.746 -0.2745  1.2742 -0.6572
 9940SOL    HW236167   3.404   5.078   2.620 -0.7087 -1.6215 -1.1992
 9941SOL     OW36168   6.965   4.384   3.922  0.1600 -0.9511  0.6371
 9941SOL    HW136169   6.937   4.350   3.837 -0.5800  1.2087 -0.0470
 9941SOL    HW236170   6.922   4.469   3.929  2.6314  0.3049  1.7860
 9942SOL     OW36171   5.189   0.962   0.290 -0.1852 -0.4172  0.7542
 9942SOL    HW136172   5.280   0.979   0.316 -0.1062 -1.6162  1.2995
 9942SOL    HW236173   5.174   0.870   0.311 -0.3670 -1.3462 -2.6926
 9943SOL     OW36174   5.098   4.910   5.440  0.2752 -0.2058  0.2334
 9943SOL    HW136175   5.007   4.934   5.425 -0.3594 -2.0388  0.9438
 9943SOL    HW236176   5.095   4.818   5.466  2.3273 -0.2897  0.3211
 9944SOL     OW36177   6.719   4.105   5.685  0.5966 -0.5274  0.2035
 9944SOL    HW136178   6.635   4.112   5.731  0.3980  1.1409 -0.3548
 9944SOL    HW236179   6.783   4.134   5.750  0.3105  1.8771 -0.5018
 9945SOL     OW36180   3.700   7.276   8.153 -0.1915 -0.9724 -0.4732
 9945SOL    HW136181   3.744   7.194   8.174  0.2336  0.0081  3.1706
 9945SOL    HW236182   3.626   7.280   8.214  1.0265  2.2071  1.0442
 9946SOL     OW36183   4.676   1.922   6.487  0.7262 -0.3484 -0.4905
 9946SOL    HW136184   4.642   1.847   6.536 -0.0771  0.4826  0.2418
 9946SOL    HW236185   4.771   1.920   6.504  0.4919 -0.1917  0.9592
 9947SOL     OW36186   4.166   5.076   3.178  0.0926 -0.0070 -0.5259
 9947SOL    HW136187   4.243   5.122   3.143 -0.6630  0.0211 -2.2954
 9947SOL    HW236188   4.184   4.983   3.161  0.9930 -0.3041  1.7542
 9948SOL     OW36189   6.383   6.452   3.130  0.1485 -0.3387 -0.2177
 9948SOL    HW136190   6.339   6.493   3.205  0.0037  0.0350 -0.5056
 9948SOL    HW236191   6.342   6.491   3.053  2.2091  1.4093 -0.5341
 9949SOL     OW36192   5.322   5.966   2.568  0.2007 -0.0973  0.2528
 9949SOL    HW136193   5.398   5.910   2.553 -0.5699 -1.1874  0.2894
 9949SOL    HW236194   5.329   6.034   2.502  0.2735 -1.1896 -0.9109
 9950SOL     OW36195   4.630   0.655   2.222  0.3605  0.4103  0.1891
 9950SOL    HW136196   4.563   0.595   2.255 -0.2828  0.7814 -0.4089
 9950SOL    HW236197   4.640   0.719   2.292  2.5810 -1.4896  1.7670
 9951SOL     OW36198   8.014   5.658   2.629  0.3197 -0.5601  0.1008
 9951SOL    HW136199   7.940   5.718   2.626 -1.9138 -2.9568  2.5401
 9951SOL    HW236200   7.989   5.587   2.571  0.7537 -1.3449  0.8590
 9952SOL     OW36201   1.843   4.066   5.088  0.2051 -0.1263  0.4100
 9952SOL    HW136202   1.875   4.153   5.067  0.5435  0.1318  1.8557
 9952SOL    HW236203   1.809   4.074   5.177  1.7910 -1.8274  1.2510
 9953SOL     OW36204   1.800   5.793   1.753  0.3244  0.0363 -0.1785
 9953SOL    HW136205   1.881   5.808   1.705  0.5589  0.2292  0.2726
 9953SOL    HW236206   1.731   5.805   1.688  0.6814 -0.8756 -0.7445
 9954SOL     OW36207   8.792   5.763   7.112  0.5384 -0.1856 -0.3511
 9954SOL    HW136208   8.756   5.823   7.177  0.6522  0.8274 -1.1954
 9954SOL    HW236209   8.836   5.696   7.163  1.7294  1.2791  0.6290
 9955SOL     OW36210   3.289   2.988   7.033 -0.2908  0.1942 -0.3116
 9955SOL    HW136211   3.283   3.078   7.064 -1.9251  0.3589 -1.0220
 9955SOL    HW236212   3.248   2.936   7.102 -1.2731  0.2453 -0.8391
 9956SOL     OW36213   6.424   3.476   4.722  0.2690  0.2958  0.0573
 9956SOL    HW136214   6.497   3.525   4.760  1.9153 -1.6647 -0.3418
 9956SOL    HW236215   6.352   3.487   4.784  1.0576  1.8559  0.7539
 9957SOL     OW36216   6.226   0.761   7.617  0.2356  0.5741  0.7996
 9957SOL    HW136217   6.143   0.800   7.592  0.0198  1.0013  2.1236
 9957SOL    HW236218   6.203   0.680   7.662  0.5557  0.4638  0.7703
 9958SOL     OW36219   1.467   4.750   5.849 -0.1450  0.0203  0.4381
 9958SOL    HW136220   1.558   4.778   5.865 -0.5696  1.4605  0.5249
 9958SOL    HW236221   1.421   4.773   5.930 -0.4252 -1.5554  0.7506
 9959SOL     OW36222   5.593   1.242   8.556  0.8113  0.0567 -0.3160
 9959SOL    HW136223   5.612   1.332   8.581 -1.7731  0.6845 -0.4167
 9959SOL    HW236224   5.591   1.193   8.638  2.1446  0.0547 -0.2581
 9960SOL     OW36225   6.552   0.856   2.047 -0.2550 -0.2486  0.4296
 9960SOL    HW136226   6.641   0.890   2.037 -0.5599  0.9029  1.3134
 9960SOL    HW236227   6.553   0.770   2.005  0.4400  1.0546 -2.4282
 9961SOL     OW36228   5.070   0.516   6.951  0.2462 -0.1306  0.3413
 9961SOL    HW136229   5.109   0.546   7.033 -1.3311  2.6856  0.1526
 9961SOL    HW236230   5.128   0.550   6.883 -0.6269  1.0968  0.1851
 9962SOL     OW36231   1.866   6.977   5.786 -0.6225  0.3680 -0.0740
 9962SOL    HW136232   1.837   7.068   5.785 -1.3795  0.1883  2.0289
 9962SOL    HW236233   1.789   6.927   5.761 -0.0481  0.2730 -1.8477
 9963SOL     OW36234   1.087   2.507   9.051  0.1281  0.4125 -0.3174
 9963SOL    HW136235   1.009   2.561   9.037 -0.5769 -0.9546 -2.0247
 9963SOL    HW236236   1.100   2.461   8.968  1.3400 -1.2124  0.6997
 9964SOL     OW36237   8.918   1.349   8.460 -0.6182 -0.4061  0.0702
 9964SOL    HW136238   8.850   1.407   8.492 -1.0964 -1.7420  1.6346
 9964SOL    HW236239   8.998   1.402   8.461 -1.2984  0.6361  0.0228
 9965SOL     OW36240   6.975   5.445   8.816 -0.2039 -0.5240 -0.5012
 9965SOL    HW136241   6.932   5.391   8.750  1.6222 -2.3213 -0.3227
 9965SOL    HW236242   6.979   5.533   8.777  0.1380 -1.3668 -2.4524
 9966SOL     OW36243   2.301   9.188   1.545 -0.0876 -0.1464  0.1167
 9966SOL    HW136244   2.332   9.160   1.632  1.4251  1.0569 -0.0017
 9966SOL    HW236245   2.240   9.259   1.563  2.0872  1.8124  0.1848
 9967SOL     OW36246   8.613   8.333   5.146 -0.0627  0.0809 -0.8401
 9967SOL    HW136247   8.598   8.315   5.239 -1.0179 -1.8697 -1.3184
 9967SOL    HW236248   8.688   8.278   5.124  0.4285  0.8612 -1.1409
 9968SOL     OW36249   3.463   2.546   8.944 -0.5899  0.2188  0.2078
 9968SOL    HW136250   3.552   2.527   8.915 -0.9234  0.0810 -0.7461
 9968SOL    HW236251   3.472   2.566   9.037  0.3225 -0.5983  0.3059
 9969SOL     OW36252   8.792   1.578   0.963 -0.6655  0.0170  0.3258
 9969SOL    HW136253   8.726   1.521   0.923 -0.7716  0.2905  0.1037
 9969SOL    HW236254   8.804   1.543   1.051 -0.8223 -0.2707  0.2338
 9970SOL     OW36255   7.310   1.377   9.150 -0.1541  0.6831  0.0028
 9970SOL    HW136256   7.256   1.424   9.087 -0.0001  0.0024 -0.6501
 9970SOL    HW236257   7.348   1.445   9.205 -5.0884  1.2102  3.4778
 9971SOL     OW36258   9.182   4.623   6.922 -0.3842  0.1397  0.6347
 9971SOL    HW136259   9.139   4.573   6.852  0.1729 -1.4223  1.3534
 9971SOL    HW236260   9.276   4.608   6.907 -0.1102  2.1299  0.0761
 9972SOL     OW36261   9.078   8.191   1.671  0.2927 -0.8499 -0.9548
 9972SOL    HW136262   9.165   8.210   1.636  0.0723  2.3985 -0.1084
 9972SOL    HW236263   9.017   8.231   1.608 -0.3111  0.8679  0.6259
 9973SOL     OW36264   5.869   7.776   5.657  0.3121  0.5072 -0.6154
 9973SOL    HW136265   5.936   7.817   5.602  0.4722 -1.9414 -2.4087
 9973SOL    HW236266   5.786   7.810   5.623  0.3948 -1.1403 -2.6651
 9974SOL     OW36267   0.494   1.309   8.360  0.0760 -0.4910  0.4843
 9974SOL    HW136268   0.533   1.396   8.367 -0.0209 -0.2864 -1.1358
 9974SOL    HW236269   0.401   1.325   8.345  0.3867 -0.7216 -2.2576
 9975SOL     OW36270   2.334   7.149   6.358 -0.2388 -0.0454  0.6136
 9975SOL    HW136271   2.424   7.177   6.376 -0.8623  0.4873  3.3240
 9975SOL    HW236272   2.330   7.058   6.388 -0.5365 -0.1717  0.2014
 9976SOL     OW36273   8.384   8.270   1.073  0.3091 -0.3163  0.6242
 9976SOL    HW136274   8.349   8.352   1.037  0.5028 -0.4311  0.1634
 9976SOL    HW236275   8.470   8.295   1.107 -0.0902 -0.0988  1.4854
 9977SOL     OW36276   2.059   2.171   3.455 -0.1186  0.1931  0.3131
 9977SOL    HW136277   1.991   2.214   3.404  1.0448  0.0942 -1.4483
 9977SOL    HW236278   2.137   2.178   3.400  1.1724 -0.1559  2.0166
 9978SOL     OW36279   1.539   1.585   1.598 -0.3178  0.2240  0.4829
 9978SOL    HW136280   1.588   1.530   1.537 -0.4324 -0.3406  0.8866
 9978SOL    HW236281   1.546   1.673   1.562 -0.3587 -0.0906 -0.3292
 9979SOL     OW36282   5.117   0.660   4.910  1.0031 -0.4093 -0.0459
 9979SOL    HW136283   5.152   0.605   4.839  0.2629  0.0722 -0.8087
 9979SOL    HW236284   5.091   0.598   4.978 -2.2964 -1.3647 -1.9323
 9980SOL     OW36285   6.143   7.482   0.837 -0.2640  0.2669 -0.6389
 9980SOL    HW136286   6.204   7.416   0.872  0.3261  0.8091 -0.6364
 9980SOL    HW236287   6.153   7.476   0.742 -0.6258 -0.0316 -0.6615
 9981SOL     OW36288   1.606   7.753   8.879  0.3213  0.3666  0.6521
 9981SOL    HW136289   1.535   7.749   8.943  1.9552 -1.4925  2.4779
 9981SOL    HW236290   1.670   7.814   8.916  1.0701 -0.3516  0.5644
 9982SOL     OW36291   7.879   4.293   0.113 -0.0835  0.2989  0.0209
 9982SOL    HW136292   7.882   4.237   0.191  1.2732 -1.0307 -0.9382
 9982SOL    HW236293   7.893   4.233   0.040  0.5688  1.7944 -1.1284
 9983SOL     OW36294   3.025   5.615   6.411  0.6962  0.5610  0.4293
 9983SOL    HW136295   3.106   5.644   6.368  0.0262  2.7902  0.5705
 9983SOL    HW236296   2.973   5.577   6.341  0.6972  1.7823 -0.2607
 9984SOL     OW36297   6.153   7.386   6.729  0.6360  0.3166  0.4863
 9984SOL    HW136298   6.162   7.446   6.804 -0.2588 -0.3168  1.1244
 9984SOL    HW236299   6.220   7.415   6.668  0.1215  2.0965  0.6889
 9985SOL     OW36300   6.525   7.491   8.120 -0.0295 -0.4108 -0.3724
 9985SOL    HW136301   6.457   7.506   8.186  0.4396 -0.4269  0.1171
 9985SOL    HW236302   6.606   7.518   8.163  0.2924 -0.5142 -0.9109
 9986SOL     OW36303   6.235   2.455   7.237  0.3592 -0.3823 -0.1279
 9986SOL    HW136304   6.228   2.381   7.297  2.2458 -1.1319 -0.7642
 9986SOL    HW236305   6.148   2.463   7.199 -1.1496  0.5892  3.1532
 9987SOL     OW36306   8.470   0.185   0.801 -0.4721  0.3637 -0.9702
 9987SOL    HW136307   8.466   0.269   0.847 -0.4948 -0.3240  0.3031
 9987SOL    HW236308   8.536   0.199   0.733 -0.9829  1.6280 -1.2330
 9988SOL     OW36309   5.400   6.236   1.203 -0.1905  0.2733 -0.0783
 9988SOL    HW136310   5.494   6.245   1.219 -0.4941  2.0994  0.9587
 9988SOL    HW236311   5.365   6.200   1.284 -0.4501 -0.0738 -0.3389
 9989SOL     OW36312   0.169   3.759   5.610 -0.1120 -0.3424 -0.4250
 9989SOL    HW136313   0.157   3.676   5.656 -1.6342  0.0493 -0.0487
 9989SOL    HW236314   0.090   3.768   5.556 -0.2065  1.0669 -0.0969
 9990SOL     OW36315   0.803   6.846   8.192  0.2939 -0.0341 -0.7920
 9990SOL    HW136316   0.744   6.857   8.117  0.5503  0.7815 -0.8868
 9990SOL    HW236317   0.828   6.754   8.189  0.0241 -0.0966 -1.5036
 9991SOL     OW36318   5.939   8.893   4.697 -0.0595  0.4351  0.5628
 9991SOL    HW136319   6.022   8.846   4.701 -0.7016 -1.1921 -2.5327
 9991SOL    HW236320   5.913   8.889   4.605 -2.7054  2.4943  1.0888
 9992SOL     OW36321   1.514   4.914   8.731  0.2595  0.0014 -0.1736
 9992SOL    HW136322   1.442   4.973   8.708  0.6405  0.4288 -0.2833
 9992SOL    HW236323   1.527   4.928   8.825 -0.8239 -1.2235  0.1989
 9993SOL     OW36324   2.603   1.901   7.119  0.0385  0.3590 -0.0318
 9993SOL    HW136325   2.635   1.925   7.032 -1.7714 -0.3624 -0.9510
 9993SOL    HW236326   2.629   1.974   7.176 -0.2698  1.6958 -1.5440
 9994SOL     OW36327   5.677   1.485   8.601 -0.1363 -0.4392 -0.4436
 9994SOL    HW136328   5.762   1.461   8.638 -0.2067 -1.5836 -0.9957
 9994SOL    HW236329   5.652   1.565   8.648  1.9884  0.8870 -1.4090
 9995SOL     OW36330   9.056   5.920   6.574 -0.1833  0.3272 -0.1670
 9995SOL    HW136331   9.028   5.975   6.647 -0.8872 -0.8868  0.5080
 9995SOL    HW236332   9.048   5.976   6.497 -2.7589  0.6142  0.2226
 9996SOL     OW36333   5.557   3.242   4.757 -0.0950  0.7361  0.1029
 9996SOL    HW136334   5.647   3.221   4.731 -0.0889  0.4870  0.3258
 9996SOL    HW236335   5.503   3.178   4.709 -0.2346  1.5397 -0.8346
 9997SOL     OW36336   6.341   2.472   1.006 -0.1829  0.4983 -0.3991
 9997SOL    HW136337   6.264   2.433   0.964 -0.8703  1.1955  0.2074
 9997SOL    HW236338   6.363   2.411   1.077 -1.0395  1.0045  0.3198
 9998SOL     OW36339   1.359   1.486   2.599  0.6466 -0.2349  0.5239
 9998SOL    HW136340   1.292   1.526   2.544 -0.3115 -0.4666  1.4880
 9998SOL    HW236341   1.414   1.436   2.538 -0.0308 -0.0126 -0.2838
 9999SOL     OW36342   6.741   7.999   3.294  0.4360 -0.4699  0.1578
 9999SOL    HW136343   6.731   7.940   3.368 -0.0605 -1.9130 -1.0154
 9999SOL    HW236344   6.706   8.083   3.325  0.6212 -0.9288  1.6655
10000SOL     OW36345   8.813   3.963   1.673 -0.2702  0.3888 -0.2612
10000SOL    HW136346   8.799   4.044   1.722 -1.1030 -0.6521  1.3379
10000SOL    HW236347   8.906   3.962   1.652  0.6884 -0.1104  3.3416
10001SOL     OW36348   7.152   9.107   3.188  0.7396  0.2101  0.0649
10001SOL    HW136349   7.114   9.136   3.105 -0.1800  0.9632  0.7308
10001SOL    HW236350   7.104   9.026   3.209 -0.6695  1.2343  0.9753
10002SOL     OW36351   5.265   9.004   7.020  0.2358  0.1199 -0.6487
10002SOL    HW136352   5.173   8.993   6.997  0.1725  1.7640 -1.3398
10002SOL    HW236353   5.269   8.982   7.113 -0.5204 -1.5630 -0.9814
10003SOL     OW36354   4.210   2.260   1.739  0.9990  0.3893  0.3428
10003SOL    HW136355   4.125   2.218   1.750  1.2140 -0.5899 -1.4032
10003SOL    HW236356   4.211   2.329   1.806 -1.4576  0.9250 -0.0525
10004SOL     OW36357   9.132   4.375   3.144 -0.9084 -0.4258  0.6479
10004SOL    HW136358   9.069   4.348   3.210 -0.5608  0.3796  1.3254
10004SOL    HW236359   9.087   4.445   3.096 -0.6130 -0.0049  0.9849
10005SOL     OW36360   7.923   7.096   8.503  0.0505 -0.4313  0.4590
10005SOL    HW136361   7.976   7.152   8.447  0.3537 -0.7181  0.4622
10005SOL    HW236362   7.853   7.154   8.535  0.0956 -0.1716  0.0952
10006SOL     OW36363   9.197   9.225   0.272  0.3013  0.8134  0.3592
10006SOL    HW136364   9.129   9.282   0.236  0.9787  1.9378  0.8191
10006SOL    HW236365   9.149   9.159   0.322 -0.4653  1.3513  0.3466
10007SOL     OW36366   4.935   0.540   2.394  0.1851  0.2910 -0.2718
10007SOL    HW136367   5.015   0.490   2.408  0.5544  0.6198 -1.1094
10007SOL    HW236368   4.879   0.482   2.343  0.8522  0.9179 -1.7705
10008SOL     OW36369   3.557   3.402   5.785  0.0121  0.3801 -0.3853
10008SOL    HW136370   3.462   3.407   5.784 -0.0387 -0.5329 -1.2616
10008SOL    HW236371   3.585   3.490   5.813 -1.0742  0.5079  0.3577
10009SOL     OW36372   4.192   0.723   4.638 -0.1177  0.4775 -0.2712
10009SOL    HW136373   4.236   0.696   4.557 -3.9207 -2.1975 -1.7714
10009SOL    HW236374   4.155   0.809   4.618 -1.0239 -0.1605 -1.5237
10010SOL     OW36375   8.416   6.334   6.378 -0.0793 -0.3971  0.0354
10010SOL    HW136376   8.331   6.327   6.333 -0.6184  3.9240 -0.0586
10010SOL    HW236377   8.480   6.334   6.307 -0.4608  0.8227 -0.3462
10011SOL     OW36378   4.913   6.373   9.217  0.3876 -0.2858  0.5508
10011SOL    HW136379   4.991   6.412   9.176  0.0723  0.0315  0.2427
10011SOL    HW236380   4.850   6.445   9.222  0.4301 -0.3197  1.6334
10012SOL     OW36381   7.640   6.804   8.255  0.3428  0.0474  0.0158
10012SOL    HW136382   7.683   6.882   8.218 -1.0607  0.9870  0.3072
10012SOL    HW236383   7.697   6.778   8.327  0.0693  1.7398  0.8885
10013SOL     OW36384   1.995   7.547   5.580  0.3175 -0.0203 -0.1750
10013SOL    HW136385   1.976   7.586   5.665 -1.0255  0.2850 -0.5837
10013SOL    HW236386   1.909   7.538   5.539  0.9330 -0.2665 -1.4488
10014SOL     OW36387   7.238   1.083   9.102  0.0319  0.6976  0.1537
10014SOL    HW136388   7.252   1.173   9.132  0.6887  0.4853  0.4965
10014SOL    HW236389   7.200   1.038   9.178 -0.0798  0.6225  0.0544
10015SOL     OW36390   3.817   7.934   5.659 -0.1944 -0.0954 -0.2956
10015SOL    HW136391   3.764   7.858   5.635  0.0083 -0.2828 -0.1430
10015SOL    HW236392   3.809   7.993   5.584  1.1778 -1.0583 -1.2541
10016SOL     OW36393   2.746   0.296   1.415 -0.1977  0.1152  0.7621
10016SOL    HW136394   2.752   0.202   1.398  1.6562  0.0342  1.6277
10016SOL    HW236395   2.764   0.336   1.330 -1.1409 -0.3036  0.3565
10017SOL     OW36396   5.699   3.329   5.438 -0.0524  0.0895  0.3064
10017SOL    HW136397   5.665   3.382   5.510 -2.1390 -1.2004  0.3388
10017SOL    HW236398   5.771   3.279   5.477  0.7705  1.5234  0.7123
10018SOL     OW36399   5.019   3.283   7.299  0.1227 -0.1593  0.2264
10018SOL    HW136400   4.958   3.237   7.242  0.1437  1.5197 -1.2182
10018SOL    HW236401   4.994   3.375   7.293  2.4309  0.5261  0.0148
10019SOL     OW36402   5.464   5.760   7.819 -0.1271 -0.0257  0.6684
10019SOL    HW136403   5.455   5.851   7.849 -1.1126 -0.0144  0.3683
10019SOL    HW236404   5.381   5.718   7.842  0.9982 -1.4006  2.5322
10020SOL     OW36405   1.262   0.781   0.506  0.2466 -0.5512  0.0016
10020SOL    HW136406   1.342   0.730   0.519  0.0367 -0.2098  3.3101
10020SOL    HW236407   1.239   0.814   0.593 -1.5648  2.3220 -1.4059
10021SOL     OW36408   7.370   1.803   5.618 -0.0701  0.5196  0.0174
10021SOL    HW136409   7.371   1.785   5.524 -1.0463 -1.1072  0.2711
10021SOL    HW236410   7.280   1.831   5.637 -0.6891 -1.7357  0.8190
10022SOL     OW36411   3.891   0.176   2.979 -0.1473  0.2831 -0.1772
10022SOL    HW136412   3.947   0.254   2.982 -0.8783  0.7738  2.1107
10022SOL    HW236413   3.923   0.128   2.903 -0.8758  3.6627 -2.8761
10023SOL     OW36414   2.955   2.275   6.540 -0.0164 -0.3531 -0.4258
10023SOL    HW136415   2.949   2.300   6.448  0.9692  1.3146 -0.0661
10023SOL    HW236416   2.917   2.348   6.588 -1.6133 -1.6945  0.4898
10024SOL     OW36417   6.444   0.617   0.576 -0.1911  0.5626  0.3360
10024SOL    HW136418   6.350   0.628   0.589  0.0252  1.7532  1.0969
10024SOL    HW236419   6.470   0.696   0.527  0.3956  0.1835  0.0216
10025SOL     OW36420   3.079   2.675   9.138  0.2081  0.0187 -0.2635
10025SOL    HW136421   3.133   2.752   9.117 -0.7285  0.8423  0.2843
10025SOL    HW236422   3.051   2.642   9.053 -1.4172  1.7809 -0.4887
10026SOL     OW36423   5.887   8.817   7.165  0.2065 -0.1096  0.0906
10026SOL    HW136424   5.802   8.786   7.197 -0.0915  0.2427 -0.3440
10026SOL    HW236425   5.870   8.843   7.075  1.1471 -1.5746 -0.5371
10027SOL     OW36426   1.476   1.044   3.452 -0.4102 -0.6871  0.3188
10027SOL    HW136427   1.453   0.965   3.404 -0.0363 -0.5374 -0.1134
10027SOL    HW236428   1.483   1.112   3.385  0.3353 -0.5251  0.5490
10028SOL     OW36429   5.447   8.775   0.529  0.2261 -0.1183  0.8141
10028SOL    HW136430   5.476   8.684   0.535 -0.5230 -0.5460 -1.3568
10028SOL    HW236431   5.520   8.825   0.565  2.1857 -1.3658 -1.1774
10029SOL     OW36432   8.422   3.794   8.044  0.3630 -0.0825  0.2292
10029SOL    HW136433   8.333   3.760   8.035 -0.2174  1.5574 -0.5328
10029SOL    HW236434   8.478   3.717   8.038 -0.9638 -1.0445 -0.1518
10030SOL     OW36435   3.069   5.353   4.323  0.1178 -0.2909  0.2421
10030SOL    HW136436   3.081   5.309   4.407 -1.0973 -0.1636  0.5008
10030SOL    HW236437   3.014   5.293   4.273  1.8308 -0.9452 -0.9451
10031SOL     OW36438   1.371   2.930   0.640 -0.1646 -0.0041  0.1367
10031SOL    HW136439   1.443   2.983   0.674  0.4429 -0.3402 -0.5855
10031SOL    HW236440   1.386   2.927   0.545 -0.8818 -0.4459  0.0291
10032SOL     OW36441   4.302   0.657   5.069  0.1365  0.1569  0.6714
10032SOL    HW136442   4.298   0.602   5.147  0.2078  1.9143  1.9713
10032SOL    HW236443   4.364   0.726   5.092  1.4526 -0.1786 -1.5698
10033SOL     OW36444   2.248   8.000   3.025 -0.2616  0.3108  0.3051
10033SOL    HW136445   2.304   7.969   2.954 -0.6793 -1.9703  0.8878
10033SOL    HW236446   2.300   8.068   3.069  1.2988 -0.4610 -0.2719
10034SOL     OW36447   3.854   8.077   3.716  0.1232 -0.0498  0.1323
10034SOL    HW136448   3.788   8.034   3.663 -1.6084 -0.0525  2.1367
10034SOL    HW236449   3.819   8.165   3.732  0.9553  0.2125  0.6299
10035SOL     OW36450   8.763   2.165   8.342  0.3450 -0.5715  0.1733
10035SOL    HW136451   8.784   2.203   8.257 -1.7245  0.3406  0.0261
10035SOL    HW236452   8.690   2.105   8.325 -1.9083  1.5895  1.6129
10036SOL     OW36453   8.547   5.395   5.527 -0.0135 -0.3555 -0.1420
10036SOL    HW136454   8.492   5.351   5.592 -1.1466  0.0340 -0.8093
10036SOL    HW236455   8.588   5.325   5.478 -0.8463 -0.6840 -0.3931
10037SOL     OW36456   8.605   1.942   0.053  0.3186  0.3340 -0.2905
10037SOL    HW136457   8.518   1.905   0.037 -0.6334  2.2915  0.0109
10037SOL    HW236458   8.641   1.959  -0.034 -0.5555  1.5085 -0.4572
10038SOL     OW36459   0.801   7.505   5.467 -0.4531 -0.3797  0.4281
10038SOL    HW136460   0.707   7.515   5.484 -0.6711  2.2935 -1.5474
10038SOL    HW236461   0.809   7.519   5.372  2.0102  0.0101  0.6310
10039SOL     OW36462   5.220   1.659   4.247 -0.0861  0.4655  0.3296
10039SOL    HW136463   5.259   1.590   4.301 -1.1882 -0.1100  0.4168
10039SOL    HW236464   5.136   1.677   4.289  0.0715  1.6829  0.1508
10040SOL     OW36465   4.232   4.748   4.149  0.1848  0.2184 -0.0254
10040SOL    HW136466   4.241   4.669   4.096  1.9163 -0.1787  0.7809
10040SOL    HW236467   4.250   4.718   4.239 -0.7299  1.2311  0.5175
10041SOL     OW36468   4.978   2.678   8.512  0.0622 -0.0034 -0.4735
10041SOL    HW136469   5.004   2.611   8.449  0.9832 -0.4217  0.3313
10041SOL    HW236470   4.924   2.631   8.576  1.2790 -0.1434  0.4739
10042SOL     OW36471   9.143   3.956   9.019 -0.0337  0.2215 -0.4019
10042SOL    HW136472   9.216   3.989   9.072  0.7741  0.2275 -1.4887
10042SOL    HW236473   9.181   3.940   8.933 -2.0443  3.6503 -2.1334
10043SOL     OW36474   8.499   2.524   1.355  0.2669 -0.9434  0.4177
10043SOL    HW136475   8.436   2.513   1.284 -1.0024 -2.5597  1.7139
10043SOL    HW236476   8.475   2.606   1.396  2.0659  0.9203 -1.9153
10044SOL     OW36477   4.373   6.530   5.038 -0.0755  0.1709 -0.2320
10044SOL    HW136478   4.454   6.494   5.003 -0.7275 -0.6874 -0.8842
10044SOL    HW236479   4.337   6.460   5.093 -0.2090  0.6704  0.3261
10045SOL     OW36480   8.784   6.605   7.001  0.0763 -0.6760 -0.4025
10045SOL    HW136481   8.728   6.529   7.017  1.9989 -2.0842  0.1721
10045SOL    HW236482   8.870   6.577   7.032  0.6548  2.1652  0.9051
10046SOL     OW36483   4.991   0.193   3.378  0.6583  0.2083  0.2341
10046SOL    HW136484   5.054   0.122   3.392 -1.3911 -1.6182  0.6057
10046SOL    HW236485   5.037   0.253   3.319  2.1910 -1.8328 -0.8039
10047SOL     OW36486   4.859   3.737   7.672  0.4767  0.3491 -0.1829
10047SOL    HW136487   4.804   3.734   7.594 -0.3446  1.3502  0.3407
10047SOL    HW236488   4.858   3.647   7.705 -0.0237  0.1434 -0.7439
10048SOL     OW36489   0.850   1.854   6.660  0.1334 -0.3626 -0.3323
10048SOL    HW136490   0.781   1.880   6.721  0.7111 -0.0279  0.1910
10048SOL    HW236491   0.836   1.761   6.645 -1.0939 -0.0815 -1.0952
10049SOL     OW36492   3.201   6.222   4.463  1.2236  0.2728 -0.2223
10049SOL    HW136493   3.189   6.174   4.381  0.8404 -0.7952  0.4439
10049SOL    HW236494   3.265   6.169   4.512 -0.3012 -0.4035  1.1414
10050SOL     OW36495   5.747   2.957   4.931  0.5971  0.4583  0.9189
10050SOL    HW136496   5.709   2.938   4.845 -0.2926  0.2103  1.3580
10050SOL    HW236497   5.761   2.871   4.970  0.1923  0.5902  1.3605
10051SOL     OW36498   5.020   2.845   2.474 -0.1914 -0.0089  0.7868
10051SOL    HW136499   4.925   2.846   2.492 -0.2158  1.2945  0.6861
10051SOL    HW236500   5.037   2.758   2.438 -1.6004  0.1909 -0.4616
10052SOL     OW36501   2.761   5.296   2.108  0.2470  0.8902  0.2172
10052SOL    HW136502   2.730   5.334   2.026 -1.5486 -1.8391 -0.4865
10052SOL    HW236503   2.688   5.304   2.168  0.7538  0.8382  0.8546
10053SOL     OW36504   2.837   2.022   2.783 -0.4609  0.4597 -1.1439
10053SOL    HW136505   2.922   2.008   2.824 -0.2977 -0.6762 -1.8291
10053SOL    HW236506   2.853   2.008   2.690 -1.5388 -0.6055 -1.2006
10054SOL     OW36507   3.873   4.077   4.470  0.2170  0.2479 -0.2278
10054SOL    HW136508   3.900   4.013   4.404 -1.9546  0.6906 -1.6599
10054SOL    HW236509   3.809   4.031   4.524  1.7900 -0.0310  1.4904
10055SOL     OW36510   6.030   3.020   7.008 -0.3712 -0.2381 -0.1266
10055SOL    HW136511   6.055   3.046   6.920 -0.0625  0.6066  0.1990
10055SOL    HW236512   6.109   2.979   7.045  0.1711  1.2408  0.4430
10056SOL     OW36513   8.570   6.801   1.847  0.2616  0.8445  0.3440
10056SOL    HW136514   8.623   6.757   1.913 -0.1344 -0.3583 -0.1100
10056SOL    HW236515   8.627   6.805   1.770 -0.3324 -0.6628 -0.2191
10057SOL     OW36516   4.081   3.175   8.302  0.0877  0.2055  0.4082
10057SOL    HW136517   4.141   3.101   8.294  0.9990  1.0274 -0.7764
10057SOL    HW236518   4.137   3.251   8.318 -0.6889  0.8920  0.0098
10058SOL     OW36519   3.429   5.557   5.642 -0.6704 -0.0324 -0.2537
10058SOL    HW136520   3.394   5.607   5.568 -0.7837  0.7912  0.3400
10058SOL    HW236521   3.494   5.499   5.603  1.1761  2.2053 -0.7231
10059SOL     OW36522   4.513   4.358   1.022 -0.1220  0.2494 -0.5303
10059SOL    HW136523   4.430   4.320   0.992 -0.0197 -0.9745  0.6651
10059SOL    HW236524   4.495   4.387   1.111  0.2508  1.6191 -0.8835
10060SOL     OW36525   6.669   0.807   5.902 -0.2224 -0.0573  0.5259
10060SOL    HW136526   6.726   0.748   5.952  1.5038 -2.6293 -3.8916
10060SOL    HW236527   6.728   0.854   5.843 -2.3257 -0.9463 -2.5254
10061SOL     OW36528   6.360   5.605   5.283  0.2236  0.4003  0.4646
10061SOL    HW136529   6.283   5.657   5.307 -1.2218 -0.4415 -2.0542
10061SOL    HW236530   6.434   5.664   5.301 -1.0827  1.8977  1.2784
10062SOL     OW36531   5.448   8.620   4.302  0.1415  0.2010  0.3085
10062SOL    HW136532   5.540   8.611   4.275 -0.0461 -0.5802 -0.0929
10062SOL    HW236533   5.410   8.534   4.287 -0.3606  0.1576  1.6629
10063SOL     OW36534   8.644   3.072   0.533 -0.5722  0.2065  0.0274
10063SOL    HW136535   8.638   3.011   0.606 -0.8700  0.3941  0.1615
10063SOL    HW236536   8.575   3.137   0.550 -0.1756  0.6525 -0.0430
10064SOL     OW36537   0.769   1.727   8.159  0.1456  0.4415 -0.2636
10064SOL    HW136538   0.736   1.648   8.115 -0.9772  1.7783 -1.9726
10064SOL    HW236539   0.789   1.698   8.248 -2.2169 -1.3224 -0.2016
10065SOL     OW36540   5.611   0.094   5.107 -0.3316  0.4098  0.6327
10065SOL    HW136541   5.524   0.073   5.142 -0.2367  2.7508  2.5842
10065SOL    HW236542   5.652   0.146   5.176  1.5940  1.6402 -1.3116
10066SOL     OW36543   3.288   6.180   8.900 -0.3714 -0.1516  0.1412
10066SOL    HW136544   3.242   6.192   8.983  0.6474 -0.8050  0.8183
10066SOL    HW236545   3.292   6.268   8.862 -0.8400  0.1566  0.7825
10067SOL     OW36546   4.635   5.987   6.487 -0.0884  0.0075 -0.4932
10067SOL    HW136547   4.612   5.971   6.395  0.5140  0.8492 -0.8006
10067SOL    HW236548   4.710   5.928   6.503  0.9176  1.0908 -1.0671
10068SOL     OW36549   4.740   0.503   6.591 -0.1680  0.2428 -0.4632
10068SOL    HW136550   4.715   0.558   6.517 -1.7601  0.8019  0.4378
10068SOL    HW236551   4.799   0.559   6.642  0.0594  0.2564 -0.7379
10069SOL     OW36552   5.899   6.616   8.018 -0.5421  0.5313 -0.3318
10069SOL    HW136553   5.983   6.625   7.974 -1.3349  0.4963 -1.9349
10069SOL    HW236554   5.918   6.567   8.098  0.9951  0.8065 -0.5120
10070SOL     OW36555   1.796   9.226   5.704  0.2487  0.0565  0.0603
10070SOL    HW136556   1.781   9.160   5.772 -0.0546  1.3413  1.2850
10070SOL    HW236557   1.809   9.175   5.624  0.2293 -1.4902  0.9975
10071SOL     OW36558   5.412   4.599   7.298 -0.1343  0.5744  0.6415
10071SOL    HW136559   5.435   4.553   7.217 -0.0576  1.5077  0.1133
10071SOL    HW236560   5.344   4.545   7.338 -0.3801  0.2439 -0.1970
10072SOL     OW36561   9.226   1.670   2.982  0.3261  0.2753  0.1093
10072SOL    HW136562   9.167   1.745   2.973  1.5851  1.4599  1.2447
10072SOL    HW236563   9.206   1.633   3.068  0.1606 -0.2772 -0.1672
10073SOL     OW36564   1.466   5.942   2.288  0.1482 -0.1389 -1.0067
10073SOL    HW136565   1.533   5.911   2.350  0.7012  2.1382 -0.3385
10073SOL    HW236566   1.516   5.983   2.217 -0.5206 -1.0177 -2.0075
10074SOL     OW36567   1.106   8.377   4.822  0.1602 -0.3025  0.0373
10074SOL    HW136568   1.189   8.350   4.861  2.2881  1.0940 -3.0943
10074SOL    HW236569   1.066   8.296   4.791 -0.3770 -1.1340  2.6722
10075SOL     OW36570   2.946   5.810   7.940 -0.0996 -0.1926  0.0579
10075SOL    HW136571   2.853   5.819   7.921  0.0373 -0.9372 -1.0636
10075SOL    HW236572   2.989   5.858   7.869  0.3676  1.5565  1.4548
10076SOL     OW36573   4.491   4.142   3.729 -0.1625  0.2666  0.0386
10076SOL    HW136574   4.479   4.181   3.816 -2.5234 -1.0345  0.3845
10076SOL    HW236575   4.445   4.201   3.670 -3.1773 -1.3899  0.4807
10077SOL     OW36576   7.680   3.743   7.257 -0.2252 -0.5538  0.0348
10077SOL    HW136577   7.752   3.698   7.300 -0.2605 -0.6230  0.0212
10077SOL    HW236578   7.697   3.836   7.272 -1.4522 -0.6128  2.1619
10078SOL     OW36579   5.215   0.104   7.829 -0.0589  0.4086 -0.0888
10078SOL    HW136580   5.291   0.046   7.818 -0.3950  0.0237 -0.4595
10078SOL    HW236581   5.252   0.190   7.848  0.4354 -0.2892  2.4890
10079SOL     OW36582   2.438   0.857   0.548 -0.3137 -0.7015 -0.0923
10079SOL    HW136583   2.355   0.895   0.577 -0.4440 -1.0720  0.0304
10079SOL    HW236584   2.482   0.831   0.629 -0.2392 -0.8337 -0.1743
10080SOL     OW36585   6.091   0.981   1.120 -0.2144 -0.4743 -0.4031
10080SOL    HW136586   6.130   1.038   1.187  2.1423 -2.7739  0.3404
10080SOL    HW236587   6.136   1.005   1.040 -3.1240  2.3662 -1.4075
10081SOL     OW36588   1.158   8.883   0.784  0.4696  0.0616 -0.7450
10081SOL    HW136589   1.157   8.863   0.877  0.6388 -1.2817 -0.9993
10081SOL    HW236590   1.145   8.977   0.778  3.3942  0.6766  0.7753
10082SOL     OW36591   4.063   8.562   9.051  0.2945 -0.0300  0.4785
10082SOL    HW136592   4.120   8.510   8.993  1.1406  1.2760  0.1103
10082SOL    HW236593   3.977   8.559   9.008 -0.2097 -2.6823  1.4425
10083SOL     OW36594   4.863   7.371   8.639 -0.6327 -0.4661 -0.1298
10083SOL    HW136595   4.843   7.370   8.546 -1.0910 -0.8643 -0.0327
10083SOL    HW236596   4.947   7.417   8.646 -0.8300 -0.0127 -0.6901
10084SOL     OW36597   2.005   8.856   6.501 -0.8848  0.2146  0.3643
10084SOL    HW136598   2.041   8.863   6.413  0.1203 -1.1076  0.6438
10084SOL    HW236599   2.081   8.852   6.558 -1.5235  0.5104  1.2661
10085SOL     OW36600   0.422   3.969   1.225 -0.1711  0.6620  0.1915
10085SOL    HW136601   0.370   3.947   1.302  1.7444  0.0468  1.3602
10085SOL    HW236602   0.404   3.898   1.163  0.2764 -0.2638  1.0960
10086SOL     OW36603   7.640   6.468   7.812 -0.3743 -0.5105 -0.0835
10086SOL    HW136604   7.628   6.527   7.886 -0.3487  0.1642 -0.6074
10086SOL    HW236605   7.554   6.462   7.772 -0.4731 -1.1758  0.2175
10087SOL     OW36606   9.193   2.516   5.058  0.1887  0.0239  0.1599
10087SOL    HW136607   9.149   2.467   4.989  0.8870 -1.3656  0.6555
10087SOL    HW236608   9.212   2.450   5.125  2.1378  0.7705  0.3856
10088SOL     OW36609   5.097   7.581   0.931 -0.0193  0.1910  0.4462
10088SOL    HW136610   5.189   7.558   0.924 -0.1401 -0.2185  0.1886
10088SOL    HW236611   5.091   7.669   0.893  0.3647  0.4706  1.0222
10089SOL     OW36612   4.297   7.229   4.766 -0.0695  0.4537 -0.5743
10089SOL    HW136613   4.234   7.300   4.759  1.4378  2.1756  1.7127
10089SOL    HW236614   4.263   7.174   4.837  0.6026  1.0254  0.2167
10090SOL     OW36615   8.300   0.484   2.912  0.7750  0.1138 -1.1426
10090SOL    HW136616   8.326   0.415   2.851  1.1954  0.2705 -1.1475
10090SOL    HW236617   8.343   0.460   2.994 -0.2474 -0.3985 -0.7476
10091SOL     OW36618   0.256   1.520   4.570  0.6327  0.2646  0.1449
10091SOL    HW136619   0.182   1.580   4.562  2.1481  2.0126 -1.5895
10091SOL    HW236620   0.232   1.463   4.644 -1.6905  1.7935  0.6838
10092SOL     OW36621   3.935   3.723   6.369 -0.8945 -0.0396 -0.0269
10092SOL    HW136622   3.997   3.689   6.305  1.2147 -0.6410  2.1807
10092SOL    HW236623   3.886   3.646   6.399  0.5934 -0.4474  1.5419
10093SOL     OW36624   2.824   9.197   1.423  0.3403 -1.1060 -0.1230
10093SOL    HW136625   2.731   9.211   1.405  0.3816  0.0061  0.4308
10093SOL    HW236626   2.864   9.191   1.336  0.2446  2.1332 -0.5184
10094SOL     OW36627   6.245   8.535   5.346 -0.2002 -0.1663 -0.5209
10094SOL    HW136628   6.172   8.579   5.302  0.1874 -0.0326 -1.0356
10094SOL    HW236629   6.235   8.559   5.438  0.0399  1.0640 -0.7981
10095SOL     OW36630   0.121   1.518   1.540 -0.6049  0.2075 -0.5466
10095SOL    HW136631   0.168   1.579   1.597  0.1475  0.0652 -0.9938
10095SOL    HW236632   0.189   1.484   1.481 -0.7291 -2.0568  0.5156
10096SOL     OW36633   1.760   0.817   3.738 -0.1357 -0.5268  0.3041
10096SOL    HW136634   1.815   0.839   3.663 -0.9488 -1.1635 -0.4937
10096SOL    HW236635   1.791   0.875   3.808 -0.8247  1.7004 -1.1370
10097SOL     OW36636   1.230   8.041   2.702 -0.1672 -0.6245  0.1452
10097SOL    HW136637   1.271   8.020   2.786  0.0645  1.6408  0.6633
10097SOL    HW236638   1.304   8.048   2.641 -0.1326 -0.2074  0.2336
10098SOL     OW36639   2.520   1.398   1.475 -0.7383 -0.1507 -0.4454
10098SOL    HW136640   2.453   1.335   1.449 -1.2147  0.2747 -0.2667
10098SOL    HW236641   2.522   1.393   1.570 -1.2328  0.5440 -0.3839
10099SOL     OW36642   4.505   1.381   2.682  0.0120 -0.3255 -0.3049
10099SOL    HW136643   4.537   1.292   2.697 -0.2954 -0.6265 -1.3311
10099SOL    HW236644   4.584   1.432   2.664  0.1270 -0.5668 -0.4980
10100SOL     OW36645   3.966   3.653   0.256 -0.0150 -0.0962  0.4124
10100SOL    HW136646   4.043   3.617   0.212 -1.7445 -0.5681 -2.4712
10100SOL    HW236647   3.909   3.578   0.271 -0.2673  0.3451  1.8313
10101SOL     OW36648   8.270   3.953   8.193  0.0182  0.2140 -0.0534
10101SOL    HW136649   8.338   3.909   8.142  0.7763  0.5241  0.6663
10101SOL    HW236650   8.310   4.035   8.222 -0.4087  0.0823  0.9677
10102SOL     OW36651   9.181   7.027   9.233  0.3697  0.1100 -0.2568
10102SOL    HW136652   9.234   6.970   9.288  1.0800  2.3767  1.5551
10102SOL    HW236653   9.243   7.088   9.194 -0.5961  1.2038 -0.1433
10103SOL     OW36654   8.322   4.876   2.720 -0.4107 -0.1817  0.2682
10103SOL    HW136655   8.283   4.804   2.671 -0.3844  0.1988 -0.3237
10103SOL    HW236656   8.417   4.863   2.713 -0.4097 -0.4276  0.6816
10104SOL     OW36657   2.921   4.006   3.459  0.2674  0.3970  0.2686
10104SOL    HW136658   2.847   4.044   3.506 -0.6856  0.0063 -0.8583
10104SOL    HW236659   2.886   3.985   3.372  1.1775 -1.5664  0.3236
10105SOL     OW36660   7.847   5.049   8.609  0.0337 -0.3194 -0.1291
10105SOL    HW136661   7.934   5.041   8.647 -0.2535  0.4272  0.7107
10105SOL    HW236662   7.813   4.959   8.608  0.8924 -0.6517 -0.7037
10106SOL     OW36663   2.909   6.789   6.999 -0.1615 -0.4347  0.1368
10106SOL    HW136664   2.964   6.786   7.077  0.3354  2.5081  0.0352
10106SOL    HW236665   2.829   6.834   7.028  0.2689  1.2193 -1.1010
10107SOL     OW36666   7.593   1.552   5.613  0.3584  0.0069 -0.2577
10107SOL    HW136667   7.652   1.587   5.679 -0.3064 -0.4884  0.6374
10107SOL    HW236668   7.597   1.614   5.541 -1.1227  2.2420  1.4256
10108SOL     OW36669   2.181   4.394   1.873 -0.1252  0.0473 -0.2361
10108SOL    HW136670   2.185   4.464   1.938  0.4551 -0.9232  0.8084
10108SOL    HW236671   2.088   4.385   1.852 -0.2159  1.0152 -0.2713
10109SOL     OW36672   3.618   8.267   0.966 -0.1167 -0.0392 -0.3244
10109SOL    HW136673   3.678   8.200   0.998  0.0985  0.2166 -0.1903
10109SOL    HW236674   3.675   8.334   0.928 -0.3749 -0.8904 -2.3966
10110SOL     OW36675   3.144   0.776   7.309 -0.4088 -0.4414  0.1303
10110SOL    HW136676   3.170   0.798   7.398 -0.0204  0.3558 -0.1710
10110SOL    HW236677   3.219   0.798   7.255 -1.4840  1.4306 -0.6925
10111SOL     OW36678   0.634   8.661   3.678  0.1947  0.1787  0.0721
10111SOL    HW136679   0.653   8.659   3.772 -2.1078 -2.3880  0.6012
10111SOL    HW236680   0.550   8.707   3.671  0.4030  0.4584 -0.7924
10112SOL     OW36681   0.365   7.120   8.108 -0.0851  0.3052  0.6001
10112SOL    HW136682   0.397   7.031   8.120 -1.6786 -0.3170  0.4247
10112SOL    HW236683   0.414   7.153   8.033 -0.7440 -1.0749 -0.4717
10113SOL     OW36684   3.765   7.982   2.231  0.4092  0.0475 -0.3210
10113SOL    HW136685   3.748   7.925   2.306  2.7167 -2.7224 -1.7235
10113SOL    HW236686   3.850   8.021   2.249  0.4140  0.3444 -0.9657
10114SOL     OW36687   4.088   1.610   7.673  0.0323  0.4619  0.3399
10114SOL    HW136688   4.013   1.567   7.713  0.1100  1.8914  2.1707
10114SOL    HW236689   4.157   1.544   7.673 -0.8557 -0.4857 -0.2357
10115SOL     OW36690   1.033   8.092   5.966  0.4995  0.4733 -0.7113
10115SOL    HW136691   1.124   8.088   5.939  0.1338 -0.5545 -1.8381
10115SOL    HW236692   0.990   8.144   5.899  0.0052 -0.1912 -0.9158
10116SOL     OW36693   3.308   2.501   7.471  0.2088 -0.2089  0.0436
10116SOL    HW136694   3.234   2.554   7.442  1.1859  0.6746 -0.9553
10116SOL    HW236695   3.314   2.517   7.565 -1.9060 -1.6779  0.5009
10117SOL     OW36696   8.310   2.378   9.224  0.0375  0.1983  0.1932
10117SOL    HW136697   8.384   2.395   9.166  0.8068  1.2033  1.4225
10117SOL    HW236698   8.350   2.349   9.306 -0.8385  1.7825  1.2309
10118SOL     OW36699   0.522   0.903   2.095  0.0795 -0.1164 -0.6630
10118SOL    HW136700   0.605   0.855   2.106 -0.4406 -1.0248 -0.6277
10118SOL    HW236701   0.460   0.858   2.152 -0.8360 -0.4078 -1.8529
10119SOL     OW36702   6.612   7.490   9.184 -0.1794 -0.3972  0.1913
10119SOL    HW136703   6.560   7.514   9.108 -2.3413  2.5310  2.3748
10119SOL    HW236704   6.552   7.440   9.239  1.0823 -1.7055  0.4614
10120SOL     OW36705   4.710   8.853   4.805 -0.0866  0.6561 -0.1868
10120SOL    HW136706   4.669   8.853   4.891 -1.1643 -1.0963 -0.6503
10120SOL    HW236707   4.637   8.841   4.744  0.8528 -0.0324 -1.2114
10121SOL     OW36708   7.271   1.981   8.177  0.1399  0.4357 -0.6239
10121SOL    HW136709   7.308   1.919   8.115  0.7279  0.1592 -0.0131
10121SOL    HW236710   7.290   1.943   8.263 -1.5369  0.3181 -0.2798
10122SOL     OW36711   4.436   8.560   1.802  0.2253  0.2171 -0.1731
10122SOL    HW136712   4.425   8.538   1.894  1.3109  1.4537  0.2795
10122SOL    HW236713   4.530   8.553   1.786  0.2960  1.8255 -0.6733
10123SOL     OW36714   1.420   2.350   4.398 -0.3296 -0.8929 -0.1509
10123SOL    HW136715   1.358   2.335   4.327  0.6971 -3.9382 -0.5210
10123SOL    HW236716   1.486   2.282   4.388  1.1891  0.0769  2.3099
10124SOL     OW36717   1.354   1.558   2.889  0.2517  0.1250  0.0505
10124SOL    HW136718   1.362   1.641   2.936 -0.7019  0.8084 -0.9490
10124SOL    HW236719   1.381   1.579   2.799  1.0306 -0.9135  0.0179
10125SOL     OW36720   2.344   1.132   6.980 -0.6815 -0.1918 -0.1346
10125SOL    HW136721   2.391   1.191   7.038  0.3043 -2.0380  1.0475
10125SOL    HW236722   2.408   1.065   6.956 -1.4830 -0.3238 -2.1765
10126SOL     OW36723   5.865   3.878   8.781  0.0757  0.3257 -0.0828
10126SOL    HW136724   5.857   3.907   8.872  0.7737  0.2369  0.0090
10126SOL    HW236725   5.802   3.931   8.734 -0.2681  0.3992  0.4478
10127SOL     OW36726   8.621   7.162   0.884  0.2186 -0.1635  0.0413
10127SOL    HW136727   8.621   7.241   0.938  1.5487  0.8105 -1.2746
10127SOL    HW236728   8.713   7.137   0.879 -0.0649 -1.1300 -0.4942
10128SOL     OW36729   4.318   3.075   4.587  0.2060 -0.2629 -0.5405
10128SOL    HW136730   4.384   3.049   4.522  0.0248  3.9829 -2.7573
10128SOL    HW236731   4.234   3.064   4.542 -0.4237 -2.2614  0.9976
10129SOL     OW36732   7.921   0.121   1.637 -0.0626 -0.5013 -0.2741
10129SOL    HW136733   7.998   0.064   1.634 -1.1996 -2.1771  0.4772
10129SOL    HW236734   7.903   0.142   1.545  3.3879  3.0891 -0.3949
10130SOL     OW36735   1.443   5.867   0.574 -0.3746 -0.0511 -0.5843
10130SOL    HW136736   1.414   5.956   0.558  0.5212  0.5491  0.9176
10130SOL    HW236737   1.364   5.821   0.603 -0.8089  0.2740 -1.2296
10131SOL     OW36738   4.732   3.126   5.229  0.4095 -0.1951  0.4395
10131SOL    HW136739   4.798   3.065   5.194  2.1144  0.5644  2.1287
10131SOL    HW236740   4.702   3.085   5.310  1.0183  0.8029  1.1973
10132SOL     OW36741   8.283   6.369   2.904  0.2648  0.0261 -0.5266
10132SOL    HW136742   8.199   6.410   2.919  0.3037  0.7872 -2.1834
10132SOL    HW236743   8.322   6.361   2.991 -0.3024  2.2900 -0.0101
10133SOL     OW36744   6.096   1.384   5.673 -0.3429 -0.0008 -0.0470
10133SOL    HW136745   6.002   1.370   5.680 -0.2178 -1.1412 -0.4234
10133SOL    HW236746   6.106   1.479   5.662 -1.5061  0.0301 -0.9725
10134SOL     OW36747   0.457   2.307   6.671 -0.3420  0.1740  0.5329
10134SOL    HW136748   0.414   2.358   6.602 -0.4362  1.3362  1.4278
10134SOL    HW236749   0.544   2.345   6.679 -0.2477 -0.1076  0.8966
10135SOL     OW36750   9.193   1.639   7.454 -0.4684 -0.0049 -0.2857
10135SOL    HW136751   9.163   1.588   7.530 -2.9100  1.9769  0.2085
10135SOL    HW236752   9.215   1.573   7.388  1.4429 -1.8016  1.9503
10136SOL     OW36753   4.659   3.550   3.191  0.0850  0.2806 -0.2246
10136SOL    HW136754   4.724   3.520   3.255 -0.3575 -0.3281 -0.0534
10136SOL    HW236755   4.576   3.516   3.224 -0.3104  0.9617 -0.5007
10137SOL     OW36756   7.766   3.849   0.350  0.0070 -0.3094 -0.4095
10137SOL    HW136757   7.763   3.805   0.434 -3.8868  0.1416 -0.1595
10137SOL    HW236758   7.732   3.785   0.288 -0.5704  0.5405 -0.9930
10138SOL     OW36759   0.252   5.379   9.048 -0.5362  0.1072  0.1239
10138SOL    HW136760   0.262   5.343   9.136 -0.7072 -0.8306 -0.2233
10138SOL    HW236761   0.341   5.394   9.017 -0.4427 -0.4097  0.1297
10139SOL     OW36762   6.598   4.794   0.794  0.4121 -0.3685 -0.7217
10139SOL    HW136763   6.505   4.806   0.775  0.1527  0.1538  0.7382
10139SOL    HW236764   6.623   4.874   0.842  1.4193 -0.8296 -0.4581
10140SOL     OW36765   5.805   9.117   6.236 -0.0618  1.0425  0.3907
10140SOL    HW136766   5.735   9.181   6.243 -0.4390  0.6695  0.0819
10140SOL    HW236767   5.769   9.037   6.274 -0.3889  0.3982 -1.1765
10141SOL     OW36768   0.083   2.922   0.255 -0.3377 -0.4748  0.3890
10141SOL    HW136769   0.015   2.907   0.190 -0.0644  1.3286 -0.3752
10141SOL    HW236770   0.038   2.962   0.329  0.1661  3.6145 -1.2858
10142SOL     OW36771   6.504   2.237   3.964 -0.3975  0.2101 -0.4761
10142SOL    HW136772   6.414   2.205   3.971 -0.7932  1.1360 -1.0038
10142SOL    HW236773   6.528   2.220   3.873 -0.9922  2.2476 -1.0723
10143SOL     OW36774   4.219   8.794   2.458 -0.3583 -0.6170 -0.3419
10143SOL    HW136775   4.148   8.857   2.473  0.6292  0.5401 -0.3594
10143SOL    HW236776   4.181   8.728   2.400 -1.6037 -0.3665  0.1678
10144SOL     OW36777   8.279   7.590   1.469 -0.1143 -0.4078  0.2376
10144SOL    HW136778   8.229   7.654   1.419  0.4890  0.8728  1.2105
10144SOL    HW236779   8.228   7.578   1.549 -0.4777 -1.5510 -0.1479
10145SOL     OW36780   1.812   5.234   7.798  0.7730 -0.3474 -0.4098
10145SOL    HW136781   1.811   5.144   7.830 -0.2045 -1.6077 -3.5181
10145SOL    HW236782   1.728   5.270   7.825 -0.3088 -1.5822 -1.9065
10146SOL     OW36783   4.303   5.341   5.653 -0.0535  0.4775 -0.4449
10146SOL    HW136784   4.351   5.304   5.580  2.6641 -0.5305  1.6745
10146SOL    HW236785   4.369   5.351   5.722 -2.0398  3.2187  1.2429
10147SOL     OW36786   7.162   0.524   3.498 -0.0571 -0.3283  0.1157
10147SOL    HW136787   7.087   0.583   3.501  1.1670  1.2515  1.3865
10147SOL    HW236788   7.238   0.582   3.496  1.1977 -1.8262  1.3856
10148SOL     OW36789   5.169   7.499   8.226  0.3783  0.0667 -0.0125
10148SOL    HW136790   5.186   7.413   8.264 -0.3084  0.6093  1.6097
10148SOL    HW236791   5.256   7.532   8.202  0.8962 -0.2057  1.3637
10149SOL     OW36792   1.416   7.230   3.575  0.3109 -0.6469 -0.5986
10149SOL    HW136793   1.380   7.248   3.662 -1.0147 -1.0195 -1.0598
10149SOL    HW236794   1.488   7.169   3.592 -1.2882 -2.4522  0.0900
10150SOL     OW36795   7.219   1.746   6.364 -0.0673 -0.0797  0.0390
10150SOL    HW136796   7.142   1.724   6.416 -0.9050  0.4568 -0.9434
10150SOL    HW236797   7.282   1.781   6.427 -0.2279 -1.4722  1.0045
10151SOL     OW36798   6.137   8.281   6.768  0.3327  0.2501  0.8132
10151SOL    HW136799   6.152   8.371   6.799 -0.4418  0.4187  0.7230
10151SOL    HW236800   6.042   8.270   6.774  0.1768  0.2021 -1.2435
10152SOL     OW36801   8.470   6.610   8.445 -0.1321 -0.7421 -0.0263
10152SOL    HW136802   8.397   6.557   8.475 -1.4648  1.2128  0.3352
10152SOL    HW236803   8.546   6.573   8.490 -1.2103 -1.5156  1.2357
10153SOL     OW36804   4.844   4.393   0.042 -0.4478 -0.0816 -0.4129
10153SOL    HW136805   4.826   4.476  -0.002  0.4493  0.4442  0.1689
10153SOL    HW236806   4.820   4.408   0.133 -1.8951 -1.0255 -0.6021
10154SOL     OW36807   8.295   3.617   7.623 -0.0930 -0.0048 -0.3245
10154SOL    HW136808   8.328   3.701   7.590  1.9266 -0.6086  0.0979
10154SOL    HW236809   8.372   3.570   7.653 -0.8899 -2.8547 -2.3466
10155SOL     OW36810   7.466   2.812   1.452 -0.9609  0.3164  0.0855
10155SOL    HW136811   7.555   2.792   1.423 -1.8122 -3.8343 -0.3631
10155SOL    HW236812   7.478   2.862   1.533  1.7554  0.0573 -0.0449
10156SOL     OW36813   7.239   0.179   2.289 -0.0119  0.8624  0.2677
10156SOL    HW136814   7.230   0.112   2.357 -1.6707 -0.1204 -0.8431
10156SOL    HW236815   7.202   0.258   2.329 -1.2241  0.2265  0.4403
10157SOL     OW36816   8.352   4.872   6.103 -0.4678  0.0292  0.1861
10157SOL    HW136817   8.264   4.908   6.092 -0.1380  0.8634  0.2489
10157SOL    HW236818   8.393   4.881   6.017  0.0081  0.8859  0.4937
10158SOL     OW36819   0.206   0.602   1.945  0.1668  0.0543  0.3006
10158SOL    HW136820   0.268   0.670   1.920  0.1126  0.1975  0.5602
10158SOL    HW236821   0.195   0.550   1.865  3.3235 -2.1143  1.0755
10159SOL     OW36822   2.804   0.749   4.599  0.0898 -0.1521  0.9229
10159SOL    HW136823   2.763   0.835   4.587 -0.3516 -0.4717  0.0851
10159SOL    HW236824   2.736   0.696   4.641 -0.2598 -0.5820 -0.1498
10160SOL     OW36825   2.831   8.412   2.129  0.0146 -0.0767  0.1418
10160SOL    HW136826   2.911   8.405   2.077  0.4297 -0.6098  0.8466
10160SOL    HW236827   2.760   8.402   2.065  0.5112  0.0453 -0.4311
10161SOL     OW36828   3.947   1.712   2.171 -0.2666  0.4633 -0.1134
10161SOL    HW136829   3.967   1.620   2.157  0.3465  0.5580  0.1175
10161SOL    HW236830   4.030   1.751   2.198 -0.1362  1.3751 -1.6720
10162SOL     OW36831   7.999   3.278   1.676  0.0869 -0.4933  0.4272
10162SOL    HW136832   8.060   3.205   1.686 -0.2582 -0.6559  1.4612
10162SOL    HW236833   8.000   3.322   1.761 -0.1361  0.3750 -0.0081
10163SOL     OW36834   5.791   0.306   6.183 -0.0614 -0.1986  0.6284
10163SOL    HW136835   5.763   0.398   6.189 -0.7497 -0.3219 -0.5102
10163SOL    HW236836   5.866   0.307   6.124  0.5226 -0.2635  1.3494
10164SOL     OW36837   1.695   1.498   4.979  0.9455  0.0375 -0.5406
10164SOL    HW136838   1.686   1.481   5.073  1.6132 -0.0905 -0.4934
10164SOL    HW236839   1.650   1.582   4.965  0.0313 -0.3999 -0.2804
10165SOL     OW36840   1.132   4.591   5.428 -0.0799  0.2480  0.8149
10165SOL    HW136841   1.193   4.565   5.497 -1.4469 -0.8272  1.6754
10165SOL    HW236842   1.057   4.627   5.475 -2.1531 -2.8016  0.1547
10166SOL     OW36843   1.387   3.856   0.080  0.0193 -0.1888 -0.2383
10166SOL    HW136844   1.434   3.903   0.148 -0.3967  0.0141 -0.0856
10166SOL    HW236845   1.327   3.799   0.129 -1.2478  0.9311 -0.4211
10167SOL     OW36846   0.179   0.967   1.339 -0.0558  0.2602  0.2518
10167SOL    HW136847   0.172   1.027   1.412 -0.2982 -0.5230  0.8893
10167SOL    HW236848   0.272   0.942   1.337 -0.1897 -0.2978  0.7760
10168SOL     OW36849   7.594   1.928   4.153  0.0571  0.0172  0.4497
10168SOL    HW136850   7.632   1.864   4.093 -0.1935  0.8011 -0.5647
10168SOL    HW236851   7.529   1.878   4.203 -3.3766  0.2280 -3.3141
10169SOL     OW36852   0.720   8.177   3.179 -0.8533  0.1537  0.0155
10169SOL    HW136853   0.632   8.153   3.151 -0.9174  1.1072 -0.6783
10169SOL    HW236854   0.718   8.273   3.186  0.2185  0.2267 -0.3865
10170SOL     OW36855   8.038   0.737   0.704  0.6810  0.0633  0.2874
10170SOL    HW136856   8.037   0.646   0.675 -0.1460 -0.3246  1.4125
10170SOL    HW236857   8.049   0.788   0.624  0.1617 -0.9923 -0.4908
10171SOL     OW36858   8.123   1.805   3.601  0.3477 -0.1055  0.5198
10171SOL    HW136859   8.131   1.766   3.514  0.8053  0.7760  0.1574
10171SOL    HW236860   8.028   1.819   3.611  0.2905 -0.2125  0.1698
10172SOL     OW36861   6.303   8.702   6.263 -0.2819  0.0713 -0.4609
10172SOL    HW136862   6.242   8.776   6.268  0.8071  0.9935 -0.1689
10172SOL    HW236863   6.365   8.717   6.335 -1.3514 -2.4181  1.1115
10173SOL     OW36864   6.349   3.162   6.147 -0.2811  0.0825  0.4573
10173SOL    HW136865   6.354   3.181   6.053 -1.4413  1.4742  0.6424
10173SOL    HW236866   6.356   3.067   6.153 -0.8466 -0.0847 -1.0864
10174SOL     OW36867   9.113   0.948   3.786  0.1432  0.0429  0.0579
10174SOL    HW136868   9.044   0.886   3.764  0.6465 -0.4278 -0.2346
10174SOL    HW236869   9.154   0.969   3.703  1.6197 -1.2149  0.4248
10175SOL     OW36870   5.565   3.145   7.971  0.3609 -0.1322  0.4270
10175SOL    HW136871   5.505   3.103   8.032  0.7317  0.8584  1.5283
10175SOL    HW236872   5.650   3.142   8.016  1.1065 -1.2478 -0.9686
10176SOL     OW36873   6.678   0.012   7.928  0.2153 -0.5141 -0.3272
10176SOL    HW136874   6.594   0.039   7.891 -0.2060  0.1583  1.0513
10176SOL    HW236875   6.743   0.043   7.864 -0.5290 -0.2742 -0.9844
10177SOL     OW36876   5.693   1.451   1.424 -0.0411 -0.0080 -0.2137
10177SOL    HW136877   5.633   1.524   1.436  2.1574  1.9304 -0.2500
10177SOL    HW236878   5.671   1.416   1.337 -0.9843  0.7520 -0.2978
10178SOL     OW36879   7.589   5.468   1.916 -0.3652  0.0944  0.4817
10178SOL    HW136880   7.594   5.441   2.008 -0.6953  1.1267  0.8239
10178SOL    HW236881   7.672   5.441   1.878 -0.5434 -1.0570  0.8774
10179SOL     OW36882   1.099   4.531   0.019  0.5320  0.1964 -0.2902
10179SOL    HW136883   1.108   4.582   0.099  0.7793 -1.7819  0.9980
10179SOL    HW236884   1.114   4.441   0.046 -1.4345 -0.7852 -2.1638
10180SOL     OW36885   2.948   0.022   1.195 -0.4906 -0.1142  0.3149
10180SOL    HW136886   2.911   0.102   1.158 -1.8247 -0.8758 -0.0838
10180SOL    HW236887   3.039   0.043   1.212 -0.1100  0.6710 -2.2843
10181SOL     OW36888   8.025   2.361   5.253 -1.1485  0.2047  0.1080
10181SOL    HW136889   8.026   2.445   5.299 -0.5008  0.4241 -0.2970
10181SOL    HW236890   7.967   2.306   5.306 -0.6979  0.5558  0.9860
10182SOL     OW36891   1.038   7.012   7.749  0.2119 -0.0202 -0.0059
10182SOL    HW136892   0.959   7.058   7.778 -0.3107  0.0661 -1.4661
10182SOL    HW236893   1.010   6.965   7.670  1.7205  0.3617 -0.8041
10183SOL     OW36894   6.054   1.728   3.110  0.5058  0.2543 -0.1496
10183SOL    HW136895   6.010   1.799   3.063 -0.4812 -0.1249  0.1720
10183SOL    HW236896   6.053   1.755   3.202  1.7006  0.6150 -0.2190
10184SOL     OW36897   2.579   8.066   6.934  0.2012  0.4083 -0.0387
10184SOL    HW136898   2.606   8.089   6.845 -0.7403 -1.8715 -0.9946
10184SOL    HW236899   2.487   8.043   6.927 -0.0763  0.8198  1.6927
10185SOL     OW36900   7.519   6.300   8.287  0.1990  0.3244  0.5194
10185SOL    HW136901   7.498   6.289   8.194  2.1594  0.8480 -0.0503
10185SOL    HW236902   7.451   6.253   8.334 -0.3243 -0.7263 -1.2278
10186SOL     OW36903   6.243   9.136   4.677 -0.4036  0.0368  0.0142
10186SOL    HW136904   6.187   9.187   4.619 -0.3876 -0.0655 -0.0927
10186SOL    HW236905   6.238   9.047   4.642 -0.3545 -0.0157  0.1405
10187SOL     OW36906   0.749   6.640   1.761  0.6403  0.2489  0.2185
10187SOL    HW136907   0.755   6.575   1.831  0.8676  0.0604  0.0295
10187SOL    HW236908   0.658   6.634   1.731  0.6592  0.0107  0.1999
10188SOL     OW36909   8.931   0.899   8.417 -0.3778 -0.0409  0.3611
10188SOL    HW136910   8.965   0.951   8.490 -1.0830  0.4406  0.3596
10188SOL    HW236911   9.002   0.897   8.353 -0.5454  1.5048  0.0729
10189SOL     OW36912   2.957   2.976   4.447 -0.1844 -0.0204 -0.3356
10189SOL    HW136913   2.895   3.010   4.511  0.1445  1.5981 -0.8489
10189SOL    HW236914   2.998   2.902   4.491  0.2651  1.2429  1.4647
10190SOL     OW36915   3.465   0.799   3.178  0.0890  0.7696 -0.3990
10190SOL    HW136916   3.505   0.723   3.219  1.2913  1.7163  0.2422
10190SOL    HW236917   3.412   0.763   3.106  0.5168 -0.6582 -0.0206
10191SOL     OW36918   6.898   2.004   6.408 -0.6157  0.4262 -0.2101
10191SOL    HW136919   6.909   2.015   6.313 -1.0944 -0.7103 -0.4086
10191SOL    HW236920   6.835   2.072   6.433 -0.5389  0.6882 -0.7138
10192SOL     OW36921   2.405   7.904   8.781  0.1783 -0.0457  0.1849
10192SOL    HW136922   2.422   7.848   8.705  1.6164 -0.1527  0.5557
10192SOL    HW236923   2.329   7.957   8.755  0.2718 -0.4950 -1.0980
10193SOL     OW36924   0.745   2.650   4.527  0.0928  0.1511  0.2446
10193SOL    HW136925   0.686   2.574   4.523 -0.2445  0.4475 -1.0814
10193SOL    HW236926   0.813   2.626   4.589 -0.2156 -1.0945  0.1116
10194SOL     OW36927   3.117   8.477   6.424 -0.0157 -0.1357 -0.0604
10194SOL    HW136928   3.170   8.532   6.366 -1.3941 -0.3730 -1.6126
10194SOL    HW236929   3.178   8.410   6.455  0.4463 -1.0485 -2.6563
10195SOL     OW36930   4.049   2.822   4.002  0.1373  0.2060  0.4992
10195SOL    HW136931   4.058   2.869   3.919 -0.8877 -1.2305 -0.4735
10195SOL    HW236932   4.055   2.730   3.978 -1.5472 -0.3032  1.8166
10196SOL     OW36933   2.201   6.938   2.845  0.2167  0.3310  0.4299
10196SOL    HW136934   2.209   6.925   2.940 -1.5569  1.1806  0.7386
10196SOL    HW236935   2.173   7.029   2.836 -1.2308 -0.1969 -0.7943
10197SOL     OW36936   1.353   4.036   1.467 -0.1052 -0.1261 -0.1793
10197SOL    HW136937   1.375   4.003   1.554  0.2254 -0.1322 -0.2651
10197SOL    HW236938   1.261   4.063   1.474 -0.2869 -0.7749 -0.0212
10198SOL     OW36939   7.204   5.251   3.931  0.1769  0.0551 -0.0153
10198SOL    HW136940   7.131   5.252   3.992 -0.5688 -0.5864 -0.8753
10198SOL    HW236941   7.170   5.291   3.851  1.1092  0.8022 -0.0572
10199SOL     OW36942   4.873   7.932   5.423  0.1238  0.0871 -0.7391
10199SOL    HW136943   4.883   7.904   5.514  3.0022  0.0104 -0.9875
10199SOL    HW236944   4.923   8.013   5.417  0.6763 -0.3228 -2.4099
10200SOL     OW36945   0.921   1.709   5.049  0.2093  0.3618  0.8465
10200SOL    HW136946   0.984   1.765   5.004  0.9002 -0.4398  0.7886
10200SOL    HW236947   0.845   1.705   4.990  0.4647  0.6145  0.4970
10201SOL     OW36948   0.636   7.907   7.313  0.0538 -0.0674  0.5779
10201SOL    HW136949   0.602   7.997   7.306  0.4992  0.1605  1.2145
10201SOL    HW236950   0.558   7.853   7.325 -0.3911 -0.0145 -1.7447
10202SOL     OW36951   1.814   3.906   6.381 -0.2176  0.0821  0.2652
10202SOL    HW136952   1.784   3.821   6.415 -2.4815  1.4750  2.0496
10202SOL    HW236953   1.905   3.891   6.357  0.4826 -2.0566  3.5724
10203SOL     OW36954   5.276   0.022   1.733 -0.0259  0.8861 -0.1147
10203SOL    HW136955   5.359  -0.023   1.747 -0.7096  0.5484  4.1100
10203SOL    HW236956   5.211  -0.048   1.729 -0.4845  1.2338  0.8104
10204SOL     OW36957   3.951   4.755   5.564 -0.0643 -0.1289  0.3902
10204SOL    HW136958   3.900   4.826   5.603  0.8450  0.7416  0.0205
10204SOL    HW236959   3.986   4.792   5.483  0.6580 -0.9037  0.3353
10205SOL     OW36960   2.578   7.269   0.625  0.4607  0.2877 -0.5333
10205SOL    HW136961   2.653   7.263   0.565 -0.2216 -0.2098 -1.3663
10205SOL    HW236962   2.575   7.182   0.667 -0.1940 -0.0196 -1.1928
10206SOL     OW36963   3.994   4.045   7.403  0.0191  0.3102 -0.5522
10206SOL    HW136964   4.010   3.970   7.461  1.1248 -0.7187 -2.1231
10206SOL    HW236965   3.935   4.011   7.336 -0.0480  1.0573 -0.8792
10207SOL     OW36966   4.494   5.580   2.678 -0.2054 -0.0391 -0.2640
10207SOL    HW136967   4.554   5.517   2.718 -1.8769 -0.3346  1.9875
10207SOL    HW236968   4.514   5.663   2.721 -0.3683  0.1973 -0.6442
10208SOL     OW36969   6.893   7.458   4.101 -0.0490  0.0263 -0.1930
10208SOL    HW136970   6.922   7.536   4.054  0.2070  0.0719  0.0414
10208SOL    HW236971   6.969   7.401   4.103  0.0723  0.1968  0.5243
10209SOL     OW36972   2.796   0.688   2.187  0.2268  0.4731 -0.3675
10209SOL    HW136973   2.843   0.694   2.104  0.8222 -2.2008 -0.3210
10209SOL    HW236974   2.718   0.636   2.167 -1.2701  2.4051  0.1659
10210SOL     OW36975   1.291   4.875   4.036  0.0862 -0.0462 -0.3371
10210SOL    HW136976   1.297   4.781   4.020  0.1594 -0.0026 -0.5712
10210SOL    HW236977   1.359   4.913   3.981  0.6405  0.0723  0.4226
10211SOL     OW36978   3.097   3.085   3.386  0.2341  0.6059  0.2405
10211SOL    HW136979   3.057   3.161   3.343  1.0041  0.6236 -0.4552
10211SOL    HW236980   3.175   3.119   3.429 -0.1107  0.4385  1.0214
10212SOL     OW36981   3.106   2.511   4.945 -0.2352 -0.0149 -0.5624
10212SOL    HW136982   3.059   2.585   4.908 -0.0667  0.8847  0.9381
10212SOL    HW236983   3.043   2.470   5.005 -1.0094 -2.3248 -2.7940
10213SOL     OW36984   7.248   4.683   8.420 -0.0577 -0.0700  0.4220
10213SOL    HW136985   7.281   4.766   8.387  0.3631  0.5655  2.3636
10213SOL    HW236986   7.325   4.635   8.450 -0.2293 -1.4278 -1.1359
10214SOL     OW36987   2.981   7.885   8.897  0.0086 -0.1094 -0.2540
10214SOL    HW136988   3.047   7.863   8.832  0.0059  1.6097 -0.8668
10214SOL    HW236989   2.921   7.810   8.897 -0.4908  0.2141 -2.8795
10215SOL     OW36990   1.892   6.638   0.104  0.1224 -0.5688 -0.7433
10215SOL    HW136991   1.827   6.575   0.135 -1.0480 -0.0378 -2.0421
10215SOL    HW236992   1.900   6.701   0.175 -0.9979 -0.4897 -0.6806
10216SOL     OW36993   7.552   7.530   1.357 -0.1033  0.5342  0.4066
10216SOL    HW136994   7.630   7.496   1.312 -0.8739  0.0455 -0.5927
10216SOL    HW236995   7.568   7.511   1.450 -0.7474 -3.2702 -0.1135
10217SOL     OW36996   6.181   4.680   4.120  0.6570  0.0499  0.2578
10217SOL    HW136997   6.197   4.744   4.051 -1.2484  0.7451  0.4058
10217SOL    HW236998   6.088   4.660   4.113  0.7926 -1.1487  1.5453
10218SOL     OW36999   3.914   7.508   8.868  0.2845  0.5844 -0.1389
10218SOL    HW137000   3.982   7.490   8.804  0.6783  1.6114 -0.0229
10218SOL    HW237001   3.952   7.483   8.952 -0.1610 -0.5739 -0.2584
10219SOL     OW37002   8.222   0.935   5.616 -0.4938 -0.4109 -0.2985
10219SOL    HW137003   8.266   0.989   5.681  0.1906 -0.3042 -0.8354
10219SOL    HW237004   8.178   0.997   5.558  1.5431 -0.2551 -1.8312
10220SOL     OW37005   4.334   3.344   1.035  0.1240  0.2523 -0.0794
10220SOL    HW137006   4.251   3.392   1.041  0.1326  0.2658 -0.0695
10220SOL    HW237007   4.336   3.312   0.944  0.3039  0.5998 -0.1995
10221SOL     OW37008   6.564   8.389   8.658 -0.6180  0.2954 -0.3274
10221SOL    HW137009   6.596   8.341   8.581  0.5885  2.0052 -0.9687
10221SOL    HW237010   6.469   8.377   8.656 -0.3327 -3.5960  0.6835
10222SOL     OW37011   7.560   0.570   5.735  0.4448 -0.1901 -0.5486
10222SOL    HW137012   7.641   0.541   5.776 -0.1785  0.5670  1.3360
10222SOL    HW237013   7.495   0.504   5.761  0.0664  0.2398 -0.3778
10223SOL     OW37014   3.758   3.141   4.983  0.7975  0.3987 -0.3612
10223SOL    HW137015   3.845   3.109   5.008  0.8004  1.4241  1.0487
10223SOL    HW237016   3.763   3.236   4.995 -0.5868  0.4558 -0.0277
10224SOL     OW37017   2.670   7.121   5.689  0.0623  0.2805  0.4535
10224SOL    HW137018   2.624   7.150   5.768  0.6930  1.5699  0.3764
10224SOL    HW237019   2.629   7.169   5.618 -0.0247 -0.3419  0.0728
10225SOL     OW37020   3.692   6.545   1.731  0.5174 -0.4947  0.0534
10225SOL    HW137021   3.655   6.607   1.669  0.4118  0.9210  1.4587
10225SOL    HW237022   3.707   6.465   1.680 -0.2098  0.3761 -1.5906
10226SOL     OW37023   8.565   9.126   5.273  0.3801  0.1717 -0.0166
10226SOL    HW137024   8.507   9.082   5.335 -0.0920  1.8076  0.7716
10226SOL    HW237025   8.600   9.201   5.322  0.5961  1.0838 -1.4878
10227SOL     OW37026   1.868   6.439   5.487 -0.3927 -0.2040  0.4242
10227SOL    HW137027   1.897   6.496   5.416  1.3612 -1.5875 -0.0280
10227SOL    HW237028   1.876   6.351   5.452 -0.2143 -0.8907  2.0904
10228SOL     OW37029   5.602   0.527   3.983  0.1023 -0.2331  0.1869
10228SOL    HW137030   5.546   0.601   4.008 -0.7399 -0.4046 -1.0768
10228SOL    HW237031   5.554   0.484   3.912  0.6360 -1.9329  0.8113
10229SOL     OW37032   0.424   8.752   8.022 -0.4176 -0.3212  0.1531
10229SOL    HW137033   0.410   8.771   8.115 -1.4436  2.2770 -0.4440
10229SOL    HW237034   0.508   8.792   8.001 -1.0843  0.8209 -0.4268
10230SOL     OW37035   1.909   1.035   1.365  0.0108  0.4752 -0.0454
10230SOL    HW137036   1.867   1.037   1.279 -1.2629  1.2990  0.5756
10230SOL    HW237037   1.949   1.122   1.374  1.1587 -0.0150 -0.2811
10231SOL     OW37038   5.114   5.464   6.047 -0.4256  0.3924 -0.1508
10231SOL    HW137039   5.177   5.394   6.063  0.8896  1.5402 -0.0776
10231SOL    HW237040   5.111   5.512   6.130 -1.9533 -0.0377  0.0768
10232SOL     OW37041   1.710   6.690   3.020 -0.3935  0.5483 -0.0377
10232SOL    HW137042   1.633   6.676   2.965  0.2586  1.3550 -1.2014
10232SOL    HW237043   1.747   6.602   3.031  0.2123  0.4849 -2.0731
10233SOL     OW37044   7.702   2.638   4.576  0.0314 -0.2630 -0.4992
10233SOL    HW137045   7.762   2.710   4.596 -0.2803 -0.2166  0.3151
10233SOL    HW237046   7.755   2.559   4.590 -0.0350 -0.2174  0.0507
10234SOL     OW37047   5.244   9.132   2.038 -0.5161 -0.0871  0.2140
10234SOL    HW137048   5.194   9.203   2.078 -1.0110  0.6541 -1.6114
10234SOL    HW237049   5.335   9.161   2.042 -0.6086  0.1832  0.3844
10235SOL     OW37050   5.207   5.446   8.260  0.3059  0.0384 -0.1672
10235SOL    HW137051   5.116   5.427   8.237  0.2257  0.2475 -0.0291
10235SOL    HW237052   5.246   5.361   8.278  0.4948 -0.1913 -1.5273
10236SOL     OW37053   8.050   5.751   6.392 -0.1690  0.1491  0.1319
10236SOL    HW137054   8.140   5.771   6.420  0.6466 -0.8716 -1.6242
10236SOL    HW237055   8.023   5.680   6.451 -1.0154  2.3826  2.6560
10237SOL     OW37056   7.783   5.593   2.212  0.2832  0.0652 -0.7256
10237SOL    HW137057   7.699   5.602   2.257  0.8164  0.0340  0.2940
10237SOL    HW237058   7.841   5.553   2.277  1.6569  1.9949 -0.6944
10238SOL     OW37059   8.105   5.742   3.819  0.0921 -0.4430 -0.1406
10238SOL    HW137060   8.106   5.823   3.870 -0.1645 -0.2751 -0.4057
10238SOL    HW237061   8.183   5.695   3.849  0.7765  0.3273 -0.6820
10239SOL     OW37062   8.519   2.923   0.734  0.5895  1.3093  0.5035
10239SOL    HW137063   8.563   2.938   0.818  0.5371 -1.7835  1.2211
10239SOL    HW237064   8.435   2.884   0.759  1.4088 -1.6398 -0.8921
10240SOL     OW37065   7.170   2.865   0.823  0.2531  0.2426  0.1215
10240SOL    HW137066   7.076   2.870   0.803  0.1998 -0.5360  0.1540
10240SOL    HW237067   7.209   2.823   0.747  0.5522  0.3877  0.1923
10241SOL     OW37068   3.903   0.136   2.268 -0.8772  0.0209  0.0188
10241SOL    HW137069   3.839   0.207   2.256 -0.5616  0.5752  1.3956
10241SOL    HW237070   3.894   0.111   2.360 -1.0757 -1.8503 -0.4696
10242SOL     OW37071   1.317   2.110   1.756 -0.3732  0.1382 -0.3951
10242SOL    HW137072   1.400   2.080   1.719 -0.0178  1.1597 -0.4559
10242SOL    HW237073   1.305   2.057   1.834  0.3854  0.0348 -0.3413
10243SOL     OW37074   3.824   1.320   4.527 -0.2749 -0.3439  0.6560
10243SOL    HW137075   3.871   1.266   4.591 -0.2281 -1.8770 -0.6133
10243SOL    HW237076   3.783   1.257   4.468 -2.0508  0.9968  0.3721
10244SOL     OW37077   2.103   5.361   4.381 -0.4776 -0.0621 -0.2648
10244SOL    HW137078   2.126   5.276   4.342  1.0768 -0.4526  1.3505
10244SOL    HW237079   2.046   5.339   4.455  1.5514  0.0002  1.4393
10245SOL     OW37080   2.843   8.529   6.895  0.5970  0.0465  0.7006
10245SOL    HW137081   2.928   8.496   6.922  0.2189 -1.2215  0.4187
10245SOL    HW237082   2.857   8.564   6.807  0.5865 -1.3029  0.1381
10246SOL     OW37083   8.513   1.424   3.779 -0.3173 -0.0147 -0.0435
10246SOL    HW137084   8.482   1.391   3.694  0.5743 -1.0437 -0.0037
10246SOL    HW237085   8.608   1.433   3.767 -0.3141  0.8185  0.5427
10247SOL     OW37086   1.481   3.128   8.679  0.0700  0.0777 -0.3436
10247SOL    HW137087   1.460   3.080   8.759  2.5550 -0.9350 -0.2101
10247SOL    HW237088   1.471   3.220   8.703  3.5134 -0.0060  2.1627
10248SOL     OW37089   8.659   8.930   3.889 -0.1940 -0.3659  0.1485
10248SOL    HW137090   8.716   8.948   3.814 -0.1487  2.3184  0.7544
10248SOL    HW237091   8.708   8.962   3.965 -1.8949  0.7356  0.8444
10249SOL     OW37092   1.320   4.021   2.685 -0.0588 -0.0146  0.2803
10249SOL    HW137093   1.234   4.062   2.692 -0.1745 -0.5658  3.7506
10249SOL    HW237094   1.373   4.066   2.751  1.6500 -1.2471 -0.1840
10250SOL     OW37095   4.919   0.670   1.955  0.0013  0.1902 -0.3961
10250SOL    HW137096   4.926   0.576   1.938 -0.1473  0.1440 -0.2079
10250SOL    HW237097   4.826   0.689   1.948  0.0241  0.3111 -0.3743
10251SOL     OW37098   8.897   8.245   3.407  0.2260 -0.0649  0.2083
10251SOL    HW137099   8.937   8.233   3.321 -0.2512  1.7645 -0.3122
10251SOL    HW237100   8.809   8.210   3.398  0.1326  0.2396 -0.1121
10252SOL     OW37101   6.993   6.127   7.204  0.0219  0.3585 -0.2314
10252SOL    HW137102   6.972   6.202   7.261  0.6329  0.9734 -0.7861
10252SOL    HW237103   7.051   6.072   7.258  0.2136  0.6936 -0.0891
10253SOL     OW37104   1.550   1.876   6.659  0.7567  0.1228  0.3432
10253SOL    HW137105   1.634   1.879   6.614  0.9296 -1.0198  0.5744
10253SOL    HW237106   1.494   1.824   6.602  0.1598  0.9408  0.1511
10254SOL     OW37107   8.602   8.828   7.602  0.1219  0.2588 -0.0569
10254SOL    HW137108   8.536   8.897   7.593 -0.1351 -0.1833 -2.1879
10254SOL    HW237109   8.554   8.747   7.584  0.8607 -0.2439  0.2023
10255SOL     OW37110   5.542   8.886   2.690  0.3762 -0.3496  0.6770
10255SOL    HW137111   5.511   8.948   2.755  1.3972  0.8158  0.0922
10255SOL    HW237112   5.472   8.884   2.624  0.9021  1.3026 -0.0043
10256SOL     OW37113   2.887   2.549   3.211  0.1343  0.0840 -0.1152
10256SOL    HW137114   2.847   2.510   3.289 -0.2228 -3.2966 -1.8072
10256SOL    HW237115   2.829   2.522   3.139  1.3679  1.6329 -1.7566
10257SOL     OW37116   0.376   3.166   7.337 -0.0804 -0.0312 -0.1429
10257SOL    HW137117   0.427   3.191   7.261  1.7105 -0.0843  0.9829
10257SOL    HW237118   0.403   3.075   7.355  1.4958  0.7848  2.0120
10258SOL     OW37119   0.108   6.025   3.147  0.0165  0.3178  0.0133
10258SOL    HW137120   0.060   6.023   3.230  0.2994 -0.5403  0.1667
10258SOL    HW237121   0.177   6.091   3.161 -1.4992  2.0907 -0.4546
10259SOL     OW37122   4.443   4.691   6.833 -0.3274  0.1301  0.1447
10259SOL    HW137123   4.418   4.620   6.892  1.8498 -0.0537  0.9289
10259SOL    HW237124   4.432   4.654   6.745 -0.5563 -0.6857  0.5067
10260SOL     OW37125   6.214   1.043   5.528 -0.0340 -0.0733  0.5193
10260SOL    HW137126   6.186   0.964   5.483 -1.3445  0.0305  1.1026
10260SOL    HW237127   6.307   1.050   5.509  0.2451 -2.0936  0.9684
10261SOL     OW37128   0.725   6.228   7.154  0.9884 -0.4236 -0.3441
10261SOL    HW137129   0.809   6.184   7.146  1.2627 -0.1210  0.7272
10261SOL    HW237130   0.726   6.267   7.242 -0.3261 -0.5330 -0.2603
10262SOL     OW37131   2.771   4.893   6.313  0.1191 -0.0341  0.3807
10262SOL    HW137132   2.688   4.866   6.353  0.1274  1.2769  1.3285
10262SOL    HW237133   2.833   4.826   6.342 -0.3146 -0.2390  0.8601
10263SOL     OW37134   9.243   1.846   1.166  0.3373  0.6596  0.5120
10263SOL    HW137135   9.322   1.888   1.133 -0.4312  0.8951 -1.1461
10263SOL    HW237136   9.209   1.797   1.091 -1.4776  1.1829  0.9458
10264SOL     OW37137   6.235   0.735   3.073 -0.1136 -0.6183 -0.2429
10264SOL    HW137138   6.331   0.736   3.074 -0.0948  0.0650 -1.3753
10264SOL    HW237139   6.209   0.818   3.112 -0.2446 -0.6984 -0.1575
10265SOL     OW37140   2.904   1.059   6.750  0.1186  0.0247 -0.1759
10265SOL    HW137141   2.836   1.062   6.817  0.1006  0.2714 -0.2013
10265SOL    HW237142   2.964   1.130   6.774  1.4197 -1.3974  0.9421
10266SOL     OW37143   0.687   5.777   4.360  0.3801 -0.3616 -0.1445
10266SOL    HW137144   0.596   5.752   4.376  0.1922 -0.2771 -1.0199
10266SOL    HW237145   0.702   5.757   4.268  0.4381  1.9661 -0.7246
10267SOL     OW37146   2.701   3.848   1.647 -0.1648  0.0781 -0.1121
10267SOL    HW137147   2.682   3.936   1.614 -0.2664  0.0181 -0.2179
10267SOL    HW237148   2.756   3.862   1.724 -0.6085  0.2534  0.1734
10268SOL     OW37149   8.660   0.815   4.391  0.5707 -0.4461 -0.6502
10268SOL    HW137150   8.579   0.768   4.372  0.0225  0.4736 -0.6671
10268SOL    HW237151   8.643   0.860   4.474  0.2379  1.4993 -1.7077
10269SOL     OW37152   1.413   6.910   5.145 -0.3905 -0.1227  0.2622
10269SOL    HW137153   1.465   6.888   5.068  0.6450 -1.6492  1.3315
10269SOL    HW237154   1.386   7.001   5.131  0.3803 -0.1386 -1.5475
10270SOL     OW37155   4.885   2.459   5.036  0.3728 -0.2762 -0.9455
10270SOL    HW137156   4.853   2.378   5.075  1.8814 -2.0808 -3.1864
10270SOL    HW237157   4.909   2.514   5.111  1.0610 -2.6219  0.6566
10271SOL     OW37158   2.136   8.712   5.939 -0.4057  0.6866  0.2565
10271SOL    HW137159   2.217   8.726   5.988 -0.5782 -0.4915  0.9049
10271SOL    HW237160   2.076   8.672   6.001 -1.3316  1.0773 -0.3607
10272SOL     OW37161   1.637   1.730   5.765  0.0579  0.3020  0.4227
10272SOL    HW137162   1.622   1.816   5.726  0.4715  0.2484  0.1409
10272SOL    HW237163   1.702   1.689   5.708 -1.1638 -0.7520 -0.2612
10273SOL     OW37164   3.743   0.385   2.153 -0.3471  0.6506 -0.0212
10273SOL    HW137165   3.760   0.464   2.204  0.0798  0.1342  0.6519
10273SOL    HW237166   3.770   0.408   2.064  2.0500  0.5365  0.5935
10274SOL     OW37167   7.651   4.957   8.953 -0.0513 -0.4332  0.2661
10274SOL    HW137168   7.643   5.029   8.890 -0.0356  0.1218  0.8905
10274SOL    HW237169   7.570   4.907   8.943 -0.0638 -0.3331 -0.1718
10275SOL     OW37170   7.135   8.534   7.880 -0.5614 -0.4797 -0.3852
10275SOL    HW137171   7.121   8.611   7.936 -1.5352 -0.8697 -0.0683
10275SOL    HW237172   7.172   8.570   7.800  0.3167  0.1551  0.2867
10276SOL     OW37173   1.907   0.868   3.529 -0.3290 -0.6087  0.2161
10276SOL    HW137174   1.879   0.894   3.441 -0.4773  0.6256  0.5997
10276SOL    HW237175   2.003   0.863   3.523 -0.1592  1.3457  0.4018
10277SOL     OW37176   3.078   6.717   7.809  0.5094  0.3465 -0.2554
10277SOL    HW137177   2.993   6.754   7.789  0.3679 -0.8034 -1.9717
10277SOL    HW237178   3.065   6.622   7.805  2.1531  0.1303 -2.1489
10278SOL     OW37179   2.183   4.037   5.389  0.6940 -0.2345  0.5856
10278SOL    HW137180   2.207   3.950   5.420 -0.2959 -1.7133 -2.4190
10278SOL    HW237181   2.218   4.042   5.300  0.2323  2.2361  0.4688
10279SOL     OW37182   1.655   5.502   6.396  0.1613 -0.0624 -0.2032
10279SOL    HW137183   1.625   5.436   6.334  0.0584 -1.9504  1.7148
10279SOL    HW237184   1.751   5.498   6.390  0.1405  0.3367 -0.8034
10280SOL     OW37185   9.159   8.170   7.467  0.6551  0.0127  0.1415
10280SOL    HW137186   9.131   8.079   7.471 -0.5768  0.4033  1.6790
10280SOL    HW237187   9.242   8.172   7.515  0.8960 -0.3574 -0.2522
10281SOL     OW37188   0.262   1.401   1.337  0.2596 -0.1697  0.3590
10281SOL    HW137189   0.199   1.343   1.294  0.2188  0.1167  0.0333
10281SOL    HW237190   0.297   1.455   1.267  0.7529 -0.2189  0.5664
10282SOL     OW37191   4.321   4.089   4.352 -0.8156  0.1787  0.4822
10282SOL    HW137192   4.270   4.007   4.353 -0.5488  0.0188  1.9668
10282SOL    HW237193   4.343   4.101   4.259 -1.0242 -1.3353  0.1988
10283SOL     OW37194   5.627   0.923   9.106 -0.1583 -0.3154  0.3013
10283SOL    HW137195   5.685   0.987   9.148 -1.5108  0.8198  0.5554
10283SOL    HW237196   5.685   0.857   9.069  1.1878 -0.2671  2.1908
10284SOL     OW37197   0.714   1.413   8.995 -0.4137 -0.1369 -0.5140
10284SOL    HW137198   0.720   1.410   9.091 -1.5106 -0.5136 -0.4409
10284SOL    HW237199   0.716   1.506   8.974 -2.5449  0.0935  0.0828
10285SOL     OW37200   5.567   5.669   7.570 -0.2998  0.4126 -0.2593
10285SOL    HW137201   5.588   5.578   7.586  2.1409  0.8654 -0.5244
10285SOL    HW237202   5.567   5.710   7.657  2.4784  0.8504 -0.3944
10286SOL     OW37203   7.423   7.077   5.926 -0.0069 -0.0342  0.9968
10286SOL    HW137204   7.352   7.137   5.904 -0.3182 -0.3790  1.0582
10286SOL    HW237205   7.474   7.070   5.845 -0.0401  0.2138  0.9536
10287SOL     OW37206   2.919   2.668   2.365 -0.3810  0.6603 -0.0355
10287SOL    HW137207   2.900   2.671   2.459  0.1370 -0.8581  0.1506
10287SOL    HW237208   2.989   2.731   2.352 -1.8050  2.3559  0.2221
10288SOL     OW37209   6.952   6.479   7.120 -0.5026 -0.2871  0.0731
10288SOL    HW137210   6.923   6.421   7.190  1.6631 -0.9061  0.5394
10288SOL    HW237211   6.889   6.551   7.120 -2.6105 -2.0291  0.2397
10289SOL     OW37212   2.138   8.341   0.475  0.6719 -0.3001 -0.1623
10289SOL    HW137213   2.223   8.303   0.454  0.9011  0.2491 -0.2422
10289SOL    HW237214   2.104   8.287   0.547  0.3675 -1.5273 -1.1805
10290SOL     OW37215   6.747   2.697   7.447 -0.2441 -0.4660 -0.1751
10290SOL    HW137216   6.832   2.658   7.467 -0.1943 -1.7744 -2.6469
10290SOL    HW237217   6.759   2.740   7.362 -1.4915  1.2757  0.4581
10291SOL     OW37218   3.917   5.762   5.969  0.3493 -0.5714 -0.5088
10291SOL    HW137219   4.001   5.736   6.007  1.1951  2.6248  0.1849
10291SOL    HW237220   3.941   5.811   5.890 -0.9150 -0.3975 -0.7956
10292SOL     OW37221   0.667   0.510   6.923  0.2091  0.2184  0.0265
10292SOL    HW137222   0.696   0.443   6.985  0.8547 -0.7506 -1.2750
10292SOL    HW237223   0.595   0.555   6.967  0.5644 -0.5274  1.4057
10293SOL     OW37224   1.671   5.298   8.652 -0.5557 -0.0251 -1.1482
10293SOL    HW137225   1.653   5.328   8.563 -1.7600 -1.3994 -1.4069
10293SOL    HW237226   1.623   5.358   8.708 -1.4525 -0.3497 -1.5499
10294SOL     OW37227   2.396   0.289   0.518  0.5159  0.3523  0.4055
10294SOL    HW137228   2.383   0.260   0.428 -0.1389 -0.3338  0.7077
10294SOL    HW237229   2.377   0.383   0.516  0.6078  0.3583 -0.1882
10295SOL     OW37230   3.955   2.128   8.846 -0.2985 -0.1318  0.3522
10295SOL    HW137231   4.012   2.202   8.868 -0.8322  0.5344 -0.4649
10295SOL    HW237232   3.919   2.101   8.931 -0.4815  0.8736  0.6155
10296SOL     OW37233   4.440   6.891   5.783  0.1007  0.1635  0.5985
10296SOL    HW137234   4.424   6.972   5.832 -0.2668 -0.2497  1.1754
10296SOL    HW237235   4.441   6.822   5.850  1.7224 -0.1635  0.2769
10297SOL     OW37236   0.641   6.709   4.040 -0.0046  0.5643  0.0523
10297SOL    HW137237   0.690   6.789   4.022 -0.3404  0.4109 -1.6783
10297SOL    HW237238   0.605   6.683   3.955 -0.1715 -1.2440  0.6349
10298SOL     OW37239   8.137   7.817   1.361  0.2170 -0.3020 -0.4374
10298SOL    HW137240   8.165   7.864   1.283  0.1666  0.1372 -0.1930
10298SOL    HW237241   8.193   7.850   1.431 -1.9622  1.8519  0.4238
10299SOL     OW37242   4.501   5.887   6.242 -0.3020 -0.7123  0.4771
10299SOL    HW137243   4.538   5.802   6.262 -1.5290 -0.9757  1.7940
10299SOL    HW237244   4.411   5.868   6.215 -1.1490  0.2636  2.4764
10300SOL     OW37245   0.562   3.465   6.069  0.0068  0.4379 -0.3929
10300SOL    HW137246   0.638   3.524   6.075 -1.0901  1.7948  0.7997
10300SOL    HW237247   0.531   3.475   5.979  0.0104  1.4885 -0.2919
10301SOL     OW37248   4.024   1.183   1.544  0.0233 -0.8432 -0.0959
10301SOL    HW137249   4.000   1.238   1.618 -1.7024  0.6376 -1.6287
10301SOL    HW237250   4.105   1.221   1.511  1.2560 -2.0134  1.4300
10302SOL     OW37251   4.904   4.537   8.537 -0.3764  0.4841 -0.0844
10302SOL    HW137252   4.908   4.571   8.447 -1.5555 -0.4216 -0.4972
10302SOL    HW237253   4.952   4.455   8.534 -0.0058  0.6837  0.2404
10303SOL     OW37254   1.173   1.592   5.571 -0.1599  0.4107  0.6390
10303SOL    HW137255   1.105   1.552   5.517 -0.1095  1.6956 -0.4503
10303SOL    HW237256   1.194   1.526   5.637 -1.3094 -0.6296  0.0070
10304SOL     OW37257   5.546   9.211   1.796  0.0399 -0.2027  0.1933
10304SOL    HW137258   5.605   9.150   1.753  1.2744  0.2702  1.1364
10304SOL    HW237259   5.559   9.294   1.750 -0.2832 -0.2257  0.0628
10305SOL     OW37260   0.116   7.329   4.302  0.1562 -0.9682  0.3373
10305SOL    HW137261   0.115   7.400   4.366 -1.0618  0.9133 -1.5860
10305SOL    HW237262   0.081   7.254   4.348 -0.7841  0.3420  1.8616
10306SOL     OW37263   4.986   4.824   0.594  0.6827 -0.4444 -0.6959
10306SOL    HW137264   5.062   4.872   0.627  0.2719  0.3290 -0.8385
10306SOL    HW237265   5.016   4.734   0.584  1.4068 -0.2633 -0.1927
10307SOL     OW37266   8.907   1.710   8.184  0.4083 -0.2184  0.0966
10307SOL    HW137267   8.999   1.730   8.201  0.2761  1.4559 -0.9238
10307SOL    HW237268   8.870   1.793   8.154 -1.4239 -0.8864  0.4056
10308SOL     OW37269   0.288   2.461   8.708  0.2840 -0.6798  0.1272
10308SOL    HW137270   0.376   2.471   8.744  0.4140 -0.6516 -0.2006
10308SOL    HW237271   0.252   2.550   8.709  0.5396 -0.5667 -0.4592
10309SOL     OW37272   2.721   5.904   1.297 -0.1584 -0.2206 -0.1731
10309SOL    HW137273   2.681   5.924   1.213 -2.0376 -1.9425  0.2547
10309SOL    HW237274   2.708   5.810   1.308  4.3680 -1.0805 -0.1318
10310SOL     OW37275   4.277   1.249   1.556  0.3648 -1.0868  0.0099
10310SOL    HW137276   4.322   1.181   1.607 -0.7766 -2.7490 -1.0984
10310SOL    HW237277   4.323   1.249   1.472  0.1976 -0.6470 -0.0812
10311SOL     OW37278   6.417   1.162   0.580  0.0572  0.0134  0.4739
10311SOL    HW137279   6.389   1.244   0.541 -2.0974 -0.4875  0.8415
10311SOL    HW237280   6.359   1.150   0.655  0.9589 -1.3889  0.9883
10312SOL     OW37281   4.554   6.189   7.393  0.0709 -0.2712 -0.1515
10312SOL    HW137282   4.575   6.111   7.343 -0.5202 -0.9568  0.6473
10312SOL    HW237283   4.491   6.237   7.339 -0.0613 -0.6781 -0.3603
10313SOL     OW37284   3.724   1.230   0.052  0.6506 -0.2373  0.2947
10313SOL    HW137285   3.742   1.145   0.091  1.3955  0.0018  0.4959
10313SOL    HW237286   3.707   1.288   0.127 -0.3876 -0.3209  0.1345
10314SOL     OW37287   5.900   2.752   2.289  0.0074  0.2493 -0.5293
10314SOL    HW137288   5.847   2.750   2.209  1.1293  1.9969 -1.3692
10314SOL    HW237289   5.967   2.686   2.274 -0.5459 -0.3483 -0.4418
10315SOL     OW37290   2.709   6.881   5.161 -0.0330 -0.0852  0.1467
10315SOL    HW137291   2.648   6.883   5.087 -0.4155  1.2044  0.4850
10315SOL    HW237292   2.763   6.958   5.150 -0.0639  0.0948  1.1835
10316SOL     OW37293   0.281   1.636   5.396  0.2461  0.1731  0.2069
10316SOL    HW137294   0.319   1.720   5.368  0.5452  0.3001  0.9687
10316SOL    HW237295   0.207   1.623   5.337  0.7705  0.5019 -0.5389
10317SOL     OW37296   0.146   1.815   2.534 -0.1490 -0.0578  0.2390
10317SOL    HW137297   0.069   1.846   2.487  0.1966 -0.7293 -0.8035
10317SOL    HW237298   0.119   1.729   2.568 -0.9419  1.0791  2.6998
10318SOL     OW37299   0.256   9.083   7.320  0.0240 -0.8371 -0.2976
10318SOL    HW137300   0.307   9.010   7.284  0.8585 -0.6274  0.4366
10318SOL    HW237301   0.243   9.060   7.412  2.5475  1.1010  0.6545
10319SOL     OW37302   5.002   8.803   6.165  0.1777 -0.1290 -0.5548
10319SOL    HW137303   5.096   8.808   6.177  0.0999  0.7945 -0.2627
10319SOL    HW237304   4.991   8.766   6.078  0.8197  0.3871 -0.8642
10320SOL     OW37305   7.493   4.285   4.818  0.1596  0.3551  0.6262
10320SOL    HW137306   7.407   4.287   4.777  0.3103  1.2961  0.3173
10320SOL    HW237307   7.494   4.205   4.870 -1.0154  0.5038  0.8951
10321SOL     OW37308   0.450   8.968   0.504 -0.6390  0.2071  0.0246
10321SOL    HW137309   0.422   9.050   0.543 -1.2824 -0.4123  0.9121
10321SOL    HW237310   0.465   8.989   0.412 -1.6741  1.1186  0.0458
10322SOL     OW37311   4.111   8.838   6.709  0.2187 -0.1109 -0.3301
10322SOL    HW137312   4.177   8.907   6.715 -0.2216  0.4992 -2.0773
10322SOL    HW237313   4.158   8.763   6.673  0.8865 -1.0674  2.2852
10323SOL     OW37314   1.944   1.301   5.271  0.4185 -0.2735  1.0884
10323SOL    HW137315   1.877   1.364   5.245  0.9940  0.3611  1.1333
10323SOL    HW237316   2.027   1.343   5.250  0.8172 -0.9699  1.2203
10324SOL     OW37317   7.972   1.247   5.057 -0.4966 -0.2721 -0.4518
10324SOL    HW137318   7.932   1.188   5.121 -1.7972  0.4925 -0.5275
10324SOL    HW237319   7.967   1.199   4.974 -0.0414 -0.7123 -0.2315
10325SOL     OW37320   4.078   2.680   0.586  0.1429  0.1779  0.4989
10325SOL    HW137321   4.050   2.613   0.524  1.8681 -0.6251  0.5204
10325SOL    HW237322   3.997   2.724   0.613 -1.0640 -2.0083  0.6340
10326SOL     OW37323   5.600   4.456   3.738  0.5298 -0.6964 -0.7359
10326SOL    HW137324   5.595   4.372   3.785  1.0893 -0.3942 -0.1220
10326SOL    HW237325   5.691   4.463   3.710  0.7168  0.1027 -0.0041
10327SOL     OW37326   3.271   0.198   4.057  0.3911  0.3327  0.1574
10327SOL    HW137327   3.239   0.192   3.966  0.1922 -0.2617  0.2579
10327SOL    HW237328   3.226   0.127   4.102  0.1173  0.9374  0.8417
10328SOL     OW37329   3.909   2.234   0.158  0.3455  0.1234 -0.8221
10328SOL    HW137330   3.974   2.233   0.228  1.2642  1.2750 -1.6084
10328SOL    HW237331   3.904   2.143   0.128 -1.1125 -0.6684  1.6127
10329SOL     OW37332   3.633   8.912   0.062 -0.2384 -0.5065  0.1503
10329SOL    HW137333   3.686   8.942   0.136 -0.9129 -0.3067  0.5569
10329SOL    HW237334   3.689   8.928  -0.014  0.8288 -1.5562  0.6686
10330SOL     OW37335   8.534   9.143   4.996  0.3059 -0.2045  0.2006
10330SOL    HW137336   8.539   9.238   4.998  1.8113 -0.2664  0.3877
10330SOL    HW237337   8.548   9.116   5.087  2.0242 -0.6573 -0.1702
10331SOL     OW37338   1.312   1.419   3.575 -0.0036 -0.2737 -0.4573
10331SOL    HW137339   1.292   1.417   3.481  0.4727 -2.7665 -0.5862
10331SOL    HW237340   1.290   1.331   3.605  0.7826  0.1836  1.5851
10332SOL     OW37341   0.488   5.970   7.936  0.0327  0.0816 -0.4188
10332SOL    HW137342   0.496   6.053   7.982 -1.6099  0.2412 -0.3895
10332SOL    HW237343   0.444   5.991   7.854 -0.5560 -0.7735 -0.3402
10333SOL     OW37344   4.287   7.123   0.830  0.0593 -0.2262  0.0804
10333SOL    HW137345   4.344   7.072   0.887  1.5211  1.5236  0.2656
10333SOL    HW237346   4.283   7.073   0.749 -0.4300 -1.7447  0.9861
10334SOL     OW37347   0.469   8.109   3.161  0.1031 -0.3180  0.4511
10334SOL    HW137348   0.466   8.019   3.194  0.4494  0.3972  2.5241
10334SOL    HW237349   0.381   8.144   3.180  0.8819  0.6875  2.4744
10335SOL     OW37350   3.039   6.655   6.805 -0.1250  0.8852  0.3460
10335SOL    HW137351   2.960   6.642   6.752  0.5186 -0.0542 -0.4401
10335SOL    HW237352   3.009   6.702   6.883 -1.9382 -1.6192  1.2884
10336SOL     OW37353   0.538   1.378   1.958  0.6327  0.2736  0.2666
10336SOL    HW137354   0.536   1.419   1.872 -0.8859 -0.1463  0.0870
10336SOL    HW237355   0.449   1.349   1.974  1.2318 -1.1481  1.2738
10337SOL     OW37356   7.955   2.960   8.546 -0.5716 -0.7667  0.0251
10337SOL    HW137357   8.004   2.961   8.628  0.2315  1.0539 -0.4280
10337SOL    HW237358   7.958   3.050   8.515 -2.2744 -1.0680 -1.1960
10338SOL     OW37359   7.385   2.484   2.682  0.5309 -0.5071 -0.3899
10338SOL    HW137360   7.314   2.451   2.626 -0.3679 -0.4936  0.7003
10338SOL    HW237361   7.451   2.515   2.621 -1.6499  2.2751 -1.5682
10339SOL     OW37362   8.599   8.500   8.587 -0.0067  0.6811 -0.3820
10339SOL    HW137363   8.525   8.458   8.542 -2.1366  2.7667  0.9438
10339SOL    HW237364   8.560   8.575   8.632  3.0151  2.0468  0.1755
10340SOL     OW37365   9.158   3.065   6.101  0.3733 -0.0518 -0.0104
10340SOL    HW137366   9.209   3.014   6.038  0.5982 -0.9509  0.8873
10340SOL    HW237367   9.086   3.102   6.049  0.6901 -0.5758 -0.8405
10341SOL     OW37368   2.351   8.066   5.469 -0.3239  0.4106 -0.4546
10341SOL    HW137369   2.357   8.015   5.549  0.0026  1.3525  0.1368
10341SOL    HW237370   2.438   8.105   5.458  0.0598 -0.7645 -2.0112
10342SOL     OW37371   8.243   4.581   2.980  0.1470 -0.2477  0.3962
10342SOL    HW137372   8.201   4.664   3.006 -0.3304 -0.2978 -0.2070
10342SOL    HW237373   8.333   4.605   2.960 -0.6546  0.7027 -2.5900
10343SOL     OW37374   2.765   1.731   8.712 -0.4911  0.5780 -0.0284
10343SOL    HW137375   2.763   1.702   8.621  0.8092 -1.9721  0.6789
10343SOL    HW237376   2.679   1.708   8.747 -0.2375 -0.4907 -0.0710
10344SOL     OW37377   7.905   0.108   1.908 -0.7219  0.0454  0.0272
10344SOL    HW137378   7.964   0.174   1.946 -2.4113  1.8062 -0.2637
10344SOL    HW237379   7.909   0.124   1.814 -0.2637 -1.0868 -0.1621
10345SOL     OW37380   1.943   5.092   5.623  0.2567 -0.3586 -0.0012
10345SOL    HW137381   1.853   5.079   5.594 -0.2981  1.1589  0.8743
10345SOL    HW237382   1.994   5.028   5.575 -1.2499 -1.0366 -0.7588
10346SOL     OW37383   4.539   1.840   7.183  0.2871 -0.4867 -0.5859
10346SOL    HW137384   4.589   1.877   7.256 -1.1905 -1.0316  0.7636
10346SOL    HW237385   4.535   1.746   7.201 -0.1710 -0.6212 -1.3328
10347SOL     OW37386   1.638   7.280   6.465 -0.0560  0.0512 -0.1239
10347SOL    HW137387   1.731   7.298   6.480  0.4153 -1.6719 -0.6967
10347SOL    HW237388   1.592   7.354   6.504  1.5862  1.4077 -0.6595
10348SOL     OW37389   2.142   5.446   8.837 -1.0345  0.0874  0.4895
10348SOL    HW137390   2.049   5.428   8.851 -0.8511 -0.4195  1.0993
10348SOL    HW237391   2.187   5.392   8.902 -0.2079 -1.4268 -1.2172
10349SOL     OW37392   6.794   5.957   5.630 -0.5526  0.4463  0.1989
10349SOL    HW137393   6.842   6.019   5.574  0.9814 -0.6753  0.2256
10349SOL    HW237394   6.702   5.971   5.606 -0.0596  1.0378 -1.5476
10350SOL     OW37395   4.336   8.943   2.900  0.0423  0.0352  0.6937
10350SOL    HW137396   4.299   8.855   2.894 -1.3142  0.6820 -1.6600
10350SOL    HW237397   4.377   8.958   2.815 -0.9445  2.1415  0.5155
10351SOL     OW37398   5.492   2.774   5.298  0.3883  0.4657  0.3740
10351SOL    HW137399   5.486   2.848   5.359 -2.0012  1.1648 -0.6276
10351SOL    HW237400   5.472   2.812   5.213  1.6452 -0.8965 -0.5610
10352SOL     OW37401   2.702   6.765   4.427 -0.0950 -0.7076 -0.9567
10352SOL    HW137402   2.694   6.670   4.415 -1.3057 -0.7191 -0.2156
10352SOL    HW237403   2.631   6.802   4.374  0.0631 -0.2447 -0.8484
10353SOL     OW37404   7.006   4.576   8.322 -0.4237  0.3439 -0.5134
10353SOL    HW137405   6.990   4.646   8.258  0.7243  0.6579 -0.4799
10353SOL    HW237406   7.078   4.609   8.376 -0.0520 -0.7517 -0.3247
10354SOL     OW37407   8.767   1.880   1.935 -0.5915  0.5381 -0.0340
10354SOL    HW137408   8.815   1.925   1.865 -2.0913  1.1073 -0.7424
10354SOL    HW237409   8.726   1.951   1.984  0.5306  0.1451  1.5286
10355SOL     OW37410   6.234   0.462   5.444 -0.1946  0.3978 -0.1942
10355SOL    HW137411   6.270   0.509   5.520 -0.6096 -0.5896  0.6450
10355SOL    HW237412   6.267   0.510   5.368  0.6591  1.1132  0.6013
10356SOL     OW37413   4.449   8.455   1.331 -0.2454  0.1116 -0.3789
10356SOL    HW137414   4.447   8.519   1.260 -0.2422  1.9059  1.1718
10356SOL    HW237415   4.478   8.374   1.289  1.5448  1.5423 -2.0784
10357SOL     OW37416   9.084   0.537   4.207  0.1307  0.1700  0.0308
10357SOL    HW137417   8.997   0.571   4.228 -0.0042  0.7673 -1.3353
10357SOL    HW237418   9.126   0.523   4.291 -1.4935 -0.7025  0.7404
10358SOL     OW37419   5.318   8.204   8.663 -0.0704  0.2747 -0.3049
10358SOL    HW137420   5.350   8.266   8.598 -1.5283 -0.3798 -1.7064
10358SOL    HW237421   5.236   8.242   8.693  0.0116 -0.0203  0.2937
10359SOL     OW37422   1.900   1.287   1.503  0.1434 -0.4611 -0.3562
10359SOL    HW137423   1.934   1.219   1.562 -1.5189 -1.9458 -1.0048
10359SOL    HW237424   1.954   1.364   1.522  0.0292 -0.9896  2.7495
10360SOL     OW37425   7.694   9.114   1.948 -0.3105 -0.0677 -0.1268
10360SOL    HW137426   7.668   9.200   1.914 -0.7240 -0.0688  0.1811
10360SOL    HW237427   7.764   9.085   1.889 -0.9929 -0.0546 -0.9667
10361SOL     OW37428   8.196   7.730   0.109 -0.9195  0.0001  0.2709
10361SOL    HW137429   8.250   7.688   0.175 -2.6552  0.3221  2.0143
10361SOL    HW237430   8.162   7.658   0.056  0.5613 -0.2580 -0.3735
10362SOL     OW37431   2.331   1.463   9.046 -0.2785 -0.3313  0.0512
10362SOL    HW137432   2.418   1.470   9.006  0.3949 -0.2628  1.4686
10362SOL    HW237433   2.281   1.411   8.983  0.6238  0.0575 -1.0342
10363SOL     OW37434   7.703   8.093   3.679  0.1303  0.0429 -0.0187
10363SOL    HW137435   7.654   8.169   3.647  0.2622 -0.4491 -1.4484
10363SOL    HW237436   7.769   8.077   3.612  0.3537 -1.0987  0.4504
10364SOL     OW37437   1.257   0.189   8.564  0.4563  0.1704  0.5432
10364SOL    HW137438   1.210   0.272   8.574 -1.4890 -0.9401  1.3801
10364SOL    HW237439   1.290   0.190   8.475 -1.0232  1.1338 -0.0347
10365SOL     OW37440   7.239   0.218   8.901  0.1786 -0.2190 -0.3127
10365SOL    HW137441   7.205   0.278   8.834  0.2444  1.7372  1.3104
10365SOL    HW237442   7.326   0.252   8.922  0.4504 -1.2376  0.2622
10366SOL     OW37443   6.211   8.836   4.617 -0.8539 -0.9692 -0.0728
10366SOL    HW137444   6.287   8.784   4.643 -0.2037  0.4197  0.9922
10366SOL    HW237445   6.164   8.782   4.555 -1.0207 -3.4275  2.0267
10367SOL     OW37446   0.488   0.149   8.097 -0.5320  0.3180 -0.2483
10367SOL    HW137447   0.474   0.111   8.184  0.0697  0.4273 -0.0992
10367SOL    HW237448   0.544   0.085   8.052  3.0167  2.2603  0.9967
10368SOL     OW37449   2.029   1.703   4.191  0.0243 -0.0220 -0.0029
10368SOL    HW137450   2.099   1.765   4.210  0.2585 -1.0346  2.9145
10368SOL    HW237451   2.074   1.621   4.172 -0.3357  0.1310 -1.6457
10369SOL     OW37452   4.443   2.223   4.769  0.5336 -0.1105  0.4427
10369SOL    HW137453   4.495   2.302   4.780 -0.6747  0.6505  0.8969
10369SOL    HW237454   4.490   2.156   4.820  3.3323 -0.6233 -2.4885
10370SOL     OW37455   0.187   4.583   1.900  0.0413 -0.1702  0.0535
10370SOL    HW137456   0.207   4.578   1.807  1.1582  0.2873  0.2501
10370SOL    HW237457   0.261   4.631   1.938 -1.3864  1.5143  0.8507
10371SOL     OW37458   5.294   0.508   0.811  0.3620 -0.0367  0.4205
10371SOL    HW137459   5.228   0.440   0.823 -0.7672  1.0118  0.3589
10371SOL    HW237460   5.285   0.535   0.720  0.3316  0.6485  0.6193
10372SOL     OW37461   6.607   1.943   4.655 -0.3440  0.0368 -0.0301
10372SOL    HW137462   6.575   1.906   4.738 -0.0156 -0.4695 -0.1302
10372SOL    HW237463   6.628   1.867   4.601  1.1015  0.3492  0.0507
10373SOL     OW37464   4.260   7.267   8.053 -0.1984 -0.0457  0.1579
10373SOL    HW137465   4.272   7.362   8.054 -2.2424  0.2533  0.6558
10373SOL    HW237466   4.325   7.236   7.990 -0.5348  1.8537 -1.2264
10374SOL     OW37467   6.363   8.612   4.632 -0.5825 -0.2084 -0.0234
10374SOL    HW137468   6.291   8.597   4.571 -0.6279  0.0243 -0.0256
10374SOL    HW237469   6.395   8.524   4.652  0.4366 -0.2209 -1.5577
10375SOL     OW37470   4.239   6.767   1.212  1.0778  0.1276  0.1897
10375SOL    HW137471   4.150   6.801   1.207  0.4722 -1.4159 -0.1289
10375SOL    HW237472   4.282   6.800   1.133 -0.0844 -1.3503 -1.1406
10376SOL     OW37473   2.724   3.686   7.603  0.2144 -0.5458  0.1318
10376SOL    HW137474   2.811   3.723   7.591 -0.0403  0.0349  0.0267
10376SOL    HW237475   2.722   3.658   7.695 -0.9938  3.6455  1.6127
10377SOL     OW37476   5.351   4.872   8.733  0.1794 -0.1387  0.0362
10377SOL    HW137477   5.333   4.963   8.756  0.5950 -0.0833  0.1517
10377SOL    HW237478   5.290   4.853   8.661  1.0975  0.6993 -1.0115
10378SOL     OW37479   6.255   7.527   8.258 -0.1997 -0.6808 -0.0917
10378SOL    HW137480   6.201   7.501   8.332 -0.7152  1.4343  0.3135
10378SOL    HW237481   6.213   7.484   8.182 -0.2394 -2.0434  0.6609
10379SOL     OW37482   7.737   0.487   9.021  0.2582  0.3478 -0.6783
10379SOL    HW137483   7.718   0.397   9.048  0.5045  0.8183  1.2731
10379SOL    HW237484   7.825   0.482   8.983  1.0124 -0.0153  0.9926
10380SOL     OW37485   2.385   0.897   1.445  0.7475  0.0193  0.2297
10380SOL    HW137486   2.330   0.831   1.404  0.2009  0.4985  0.1742
10380SOL    HW237487   2.432   0.850   1.514  2.1676 -0.9393 -1.3220
10381SOL     OW37488   4.912   3.778   4.823 -0.2180  0.6798  0.2351
10381SOL    HW137489   4.859   3.713   4.870 -1.6251  2.8805  1.9016
10381SOL    HW237490   4.996   3.776   4.868 -1.2020  1.9842  2.2901
10382SOL     OW37491   5.304   6.513   1.237  0.0170 -0.0261  0.2172
10382SOL    HW137492   5.329   6.425   1.208  0.5204 -0.5958  2.2339
10382SOL    HW237493   5.387   6.558   1.249 -0.1785  0.2533  0.5395
10383SOL     OW37494   0.592   5.018   3.772  0.2580  0.4303  0.2413
10383SOL    HW137495   0.539   4.988   3.698 -0.7366  1.1711  0.6278
10383SOL    HW237496   0.578   4.952   3.839 -0.3930  0.7385  0.4232
10384SOL     OW37497   8.097   3.440   8.619 -0.2353  0.3811  0.1830
10384SOL    HW137498   8.067   3.490   8.543  0.1670  2.4528  1.3063
10384SOL    HW237499   8.150   3.370   8.582 -0.8846  0.7179 -1.4814
10385SOL     OW37500   8.749   5.377   3.957  0.3508 -0.2454 -0.0572
10385SOL    HW137501   8.687   5.317   3.916 -1.7433  0.5841  1.6973
10385SOL    HW237502   8.812   5.321   4.001 -0.4573 -1.1603 -0.0294
10386SOL     OW37503   8.434   9.060   7.715  0.2836 -0.0659  0.0301
10386SOL    HW137504   8.416   9.145   7.675  1.2524  0.4333  0.6112
10386SOL    HW237505   8.349   9.017   7.719 -0.0358  0.3736 -1.3899
10387SOL     OW37506   1.795   3.481   7.676  0.4967 -0.0852 -0.1314
10387SOL    HW137507   1.830   3.565   7.706 -1.0293  0.5855 -0.1420
10387SOL    HW237508   1.871   3.424   7.671  1.3756  0.9008  1.2222
10388SOL     OW37509   4.645   8.728   6.241 -0.0366  0.0443  0.1844
10388SOL    HW137510   4.668   8.750   6.151 -1.1267  1.6806  0.2546
10388SOL    HW237511   4.724   8.750   6.292  0.3676 -0.2924 -0.2964
10389SOL     OW37512   4.231   1.083   8.946  0.1530  0.3535  0.1884
10389SOL    HW137513   4.255   1.109   9.035  2.5833 -0.9317  0.0067
10389SOL    HW237514   4.230   0.987   8.949 -2.0488  0.3008 -0.6723
10390SOL     OW37515   3.488   0.802   6.436 -0.3433  0.1900  0.6334
10390SOL    HW137516   3.560   0.797   6.374 -0.3666  0.8196  0.5482
10390SOL    HW237517   3.444   0.885   6.415  0.6700  1.2989  2.5622
10391SOL     OW37518   8.706   7.278   2.457  0.0179 -0.0811  0.1476
10391SOL    HW137519   8.689   7.322   2.540  0.4225 -0.5870  0.5090
10391SOL    HW237520   8.785   7.227   2.473 -0.4445 -0.9514 -0.2469
10392SOL     OW37521   8.766   3.762   4.421 -0.0286  0.1273 -0.7020
10392SOL    HW137522   8.857   3.791   4.427 -0.0770  0.4417 -1.3682
10392SOL    HW237523   8.741   3.780   4.330 -0.4960 -0.7360 -0.7599
10393SOL     OW37524   7.843   2.288   3.149  0.8579  0.0941  0.2762
10393SOL    HW137525   7.907   2.218   3.162  1.0742  0.3869  0.8010
10393SOL    HW237526   7.884   2.366   3.187  0.6865  0.5456 -0.4576
10394SOL     OW37527   1.316   1.639   4.185  0.0528 -0.1913 -0.6315
10394SOL    HW137528   1.370   1.596   4.252  0.5013 -0.7438 -1.3283
10394SOL    HW237529   1.249   1.574   4.163 -0.6658  0.3371 -0.0710
10395SOL     OW37530   2.583   6.053   5.557 -0.2519  0.0404  0.3910
10395SOL    HW137531   2.572   6.028   5.466 -1.6576  1.9231 -0.0238
10395SOL    HW237532   2.678   6.055   5.570 -0.0511 -1.3078 -0.6945
10396SOL     OW37533   5.776   3.834   7.715  0.3145 -0.1500  0.0403
10396SOL    HW137534   5.695   3.846   7.665 -0.5851 -0.7624  1.2965
10396SOL    HW237535   5.835   3.900   7.680 -0.7403  0.3523 -0.8722
10397SOL     OW37536   4.794   1.375   8.176 -0.2776 -0.1415  0.3845
10397SOL    HW137537   4.724   1.407   8.233 -1.6432  1.1593 -1.8496
10397SOL    HW237538   4.771   1.284   8.157 -0.7924 -0.0353  0.4931
10398SOL     OW37539   1.558   7.392   8.631  0.2781  0.4048  0.4042
10398SOL    HW137540   1.629   7.327   8.641  0.6738  0.9887  1.6596
10398SOL    HW237541   1.506   7.359   8.558  1.3094 -0.5457  0.0554
10399SOL     OW37542   8.657   5.032   6.575 -0.7726  0.1843 -0.2015
10399SOL    HW137543   8.604   5.054   6.499 -1.5640 -0.0553  0.2708
10399SOL    HW237544   8.598   4.983   6.633  0.0598 -0.4155  0.1705
10400SOL     OW37545   2.401   5.105   5.972 -0.3571 -0.2107 -0.0623
10400SOL    HW137546   2.465   5.035   5.965 -1.5073 -1.4731  1.2512
10400SOL    HW237547   2.440   5.166   6.035  1.3176  1.2053 -2.3067
10401SOL     OW37548   6.435   1.767   2.472  0.0414 -0.2680  0.7237
10401SOL    HW137549   6.434   1.827   2.547  0.4339  1.1214 -0.3388
10401SOL    HW237550   6.463   1.684   2.509  0.3283  0.4117  2.1109
10402SOL     OW37551   5.556   6.859   0.767  0.3889  0.1648  0.0077
10402SOL    HW137552   5.588   6.801   0.836 -0.6221 -0.3830  0.0292
10402SOL    HW237553   5.559   6.806   0.688  0.3769  0.3994 -0.1505
10403SOL     OW37554   7.589   8.644   5.989  0.1459 -0.0882  0.1732
10403SOL    HW137555   7.550   8.700   5.922  0.7292 -0.5068 -0.5400
10403SOL    HW237556   7.521   8.579   6.009 -0.4388  0.7054  0.8186
10404SOL     OW37557   6.305   6.088   2.856  0.5264 -0.1248  0.0884
10404SOL    HW137558   6.298   6.036   2.775 -0.3447 -3.0875  1.9260
10404SOL    HW237559   6.269   6.174   2.832  0.3634 -0.8469 -2.6486
10405SOL     OW37560   8.205   0.880   8.899  0.6467  0.1628  0.5610
10405SOL    HW137561   8.284   0.873   8.953  1.6983 -0.9457 -0.9923
10405SOL    HW237562   8.194   0.974   8.884  1.9895  0.3264  0.4269
10406SOL     OW37563   2.283   3.589   7.782  0.4070 -0.0617  0.0964
10406SOL    HW137564   2.227   3.666   7.790  0.1638 -0.2647  0.4113
10406SOL    HW237565   2.355   3.605   7.842 -0.0564 -0.4219  0.7736
10407SOL     OW37566   1.694   3.573   0.114  0.6708 -0.0901  0.5183
10407SOL    HW137567   1.785   3.592   0.139  1.1424 -0.2029 -0.9879
10407SOL    HW237568   1.653   3.659   0.103  0.3792 -0.0395  1.8664
10408SOL     OW37569   7.652   8.515   9.124  0.2122 -0.3791 -0.1285
10408SOL    HW137570   7.567   8.471   9.128  0.1819 -0.2769  0.7289
10408SOL    HW237571   7.633   8.600   9.084 -0.0423 -0.4758 -0.2147
10409SOL     OW37572   1.537   3.617   5.414  0.4880 -0.3809 -0.4061
10409SOL    HW137573   1.510   3.684   5.351  1.8778  0.4669 -0.1282
10409SOL    HW237574   1.616   3.579   5.376  2.3488  1.3124  1.5499
10410SOL     OW37575   3.341   6.675   3.326 -0.3253 -0.0424  0.0183
10410SOL    HW137576   3.373   6.731   3.255  1.2759 -1.6418 -0.5660
10410SOL    HW237577   3.396   6.697   3.401  0.9589 -1.4815 -0.4777
10411SOL     OW37578   4.866   5.748   1.144 -0.0319 -0.3094 -0.3350
10411SOL    HW137579   4.828   5.682   1.086 -0.5617  2.5175 -3.4823
10411SOL    HW237580   4.790   5.786   1.189 -0.2788  0.9145 -1.7125
10412SOL     OW37581   7.682   8.450   6.656 -0.5878 -0.3758 -0.2135
10412SOL    HW137582   7.651   8.523   6.710  0.5278  0.6497 -0.9212
10412SOL    HW237583   7.629   8.376   6.685  0.8126 -0.2209  3.2436
10413SOL     OW37584   8.609   2.526   1.875 -0.0108  0.1547 -0.1877
10413SOL    HW137585   8.526   2.566   1.900  0.9895  0.9107  2.2184
10413SOL    HW237586   8.651   2.591   1.819 -0.8521 -0.0841 -1.1242
10414SOL     OW37587   6.923   2.498   4.304  0.2426  0.3607  0.4100
10414SOL    HW137588   6.994   2.561   4.294  0.5196 -0.0678 -0.3813
10414SOL    HW237589   6.853   2.547   4.348  1.0982  0.7268  1.4015
10415SOL     OW37590   7.867   4.138   0.774  0.4357  0.4937 -0.1468
10415SOL    HW137591   7.887   4.180   0.858 -1.1099  0.3852  0.3160
10415SOL    HW237592   7.875   4.044   0.792  0.5414  0.4872 -0.2329
10416SOL     OW37593   4.367   8.245   0.890 -1.0831 -0.3331 -0.2008
10416SOL    HW137594   4.313   8.182   0.843 -0.7095 -1.4823  0.8458
10416SOL    HW237595   4.405   8.195   0.962  0.3244  0.7607 -0.1320
10417SOL     OW37596   4.982   7.899   5.676  0.2099 -0.0265  0.1934
10417SOL    HW137597   5.004   7.981   5.721  1.2881  0.1051 -0.5362
10417SOL    HW237598   4.979   7.833   5.746  0.0734  0.4964  0.6877
10418SOL     OW37599   4.931   0.682   3.684 -0.3794 -0.1730  0.3039
10418SOL    HW137600   4.984   0.623   3.738 -1.1192 -0.9065  0.2397
10418SOL    HW237601   4.967   0.672   3.596 -0.4668 -0.4877  0.3025
10419SOL     OW37602   1.035   0.737   7.207  0.3530  0.1895  0.3508
10419SOL    HW137603   1.119   0.710   7.170  1.4057  3.0104  0.4115
10419SOL    HW237604   1.051   0.741   7.302 -0.0791  0.0247  0.4327
10420SOL     OW37605   3.941   8.000   0.881  0.5296 -0.9081  0.5220
10420SOL    HW137606   3.883   7.998   0.957  0.4965 -1.6386  0.4829
10420SOL    HW237607   3.891   7.956   0.812  0.9416 -1.1064  0.3485
10421SOL     OW37608   3.221   2.285   7.067  0.0732  0.4399  0.2898
10421SOL    HW137609   3.270   2.248   7.141  0.0894  0.7193  0.4198
10421SOL    HW237610   3.174   2.359   7.104  1.6483  1.8399 -0.3802
10422SOL     OW37611   3.527   7.123   3.285  0.5100 -0.5446  0.8922
10422SOL    HW137612   3.528   7.194   3.349  1.4972  1.1602 -0.9269
10422SOL    HW237613   3.618   7.095   3.277  0.6783  0.3704 -0.8842
10423SOL     OW37614   1.312   4.379   6.984  0.1104  0.0182 -0.0712
10423SOL    HW137615   1.267   4.343   7.061  0.7243 -1.3447 -0.3316
10423SOL    HW237616   1.323   4.472   7.005 -2.6099  0.3911  0.1049
10424SOL     OW37617   8.009   0.094   1.128  0.5315 -0.2359 -0.0024
10424SOL    HW137618   8.104   0.106   1.135  0.4339  0.3004  0.5092
10424SOL    HW237619   7.998   0.020   1.069  1.3161 -1.8270  1.7573
10425SOL     OW37620   4.663   4.709   8.539  0.1691 -0.1535  0.5351
10425SOL    HW137621   4.734   4.647   8.555  0.5730  0.7378  2.5271
10425SOL    HW237622   4.700   4.775   8.480  1.7027  1.3131  2.9681
10426SOL     OW37623   6.013   1.443   8.009  0.3995  0.2216  0.1368
10426SOL    HW137624   5.933   1.391   8.001  0.5414  0.0357 -0.1011
10426SOL    HW237625   5.987   1.519   8.061 -0.2617  0.8591 -1.1032
10427SOL     OW37626   2.438   1.298   8.748 -0.2338  0.7101 -0.2192
10427SOL    HW137627   2.528   1.292   8.780  0.7479  1.1696 -2.6235
10427SOL    HW237628   2.440   1.372   8.687 -2.2908  0.7815 -0.2674
10428SOL     OW37629   4.747   1.017   0.383  0.5259 -0.2445  0.1990
10428SOL    HW137630   4.661   0.975   0.376  0.4155  0.0549 -0.2520
10428SOL    HW237631   4.760   1.060   0.299  1.3339 -0.6782  0.0915
10429SOL     OW37632   3.507   7.222   3.002 -0.0650  0.2510 -0.0154
10429SOL    HW137633   3.534   7.314   2.996  1.4211 -0.1568  0.0190
10429SOL    HW237634   3.440   7.221   3.070 -0.8069  1.4477 -0.6934
10430SOL     OW37635   7.900   7.998   6.848 -0.1431  0.9590  0.1316
10430SOL    HW137636   7.940   7.913   6.866 -0.3127  0.8559  0.0205
10430SOL    HW237637   7.895   8.040   6.934  0.8681  1.2683  0.0484
10431SOL     OW37638   3.935   5.110   2.958  0.7764  0.2302 -0.0376
10431SOL    HW137639   3.851   5.072   2.930  1.2176  0.1128 -1.2815
10431SOL    HW237640   3.973   5.045   3.017  0.3984 -0.1227 -0.1800
10432SOL     OW37641   8.519   2.377   7.528 -0.2148 -0.1647  0.5387
10432SOL    HW137642   8.461   2.450   7.505  0.0340 -0.2287 -0.3449
10432SOL    HW237643   8.498   2.357   7.619 -1.9394 -0.5021  0.1137
10433SOL     OW37644   1.081   7.213   3.646  0.5427  0.0190  0.0447
10433SOL    HW137645   1.169   7.247   3.662  0.2260  0.5652  0.6740
10433SOL    HW237646   1.096   7.132   3.597  1.2931  1.3896 -2.1348
10434SOL     OW37647   3.403   6.051   4.597 -0.4690  0.4728 -0.4677
10434SOL    HW137648   3.423   5.961   4.623 -0.9597  0.8171  1.2326
10434SOL    HW237649   3.482   6.080   4.551  0.6580 -0.0845  1.0061
10435SOL     OW37650   0.500   2.159   0.520 -0.0651  0.0054  0.9093
10435SOL    HW137651   0.579   2.112   0.547 -0.0762  1.2074  3.2922
10435SOL    HW237652   0.531   2.220   0.453  1.0381  0.3651  1.7089
10436SOL     OW37653   4.862   8.952   1.783 -0.0094  0.7750 -0.3835
10436SOL    HW137654   4.932   8.975   1.721 -0.0356 -0.9799 -1.1278
10436SOL    HW237655   4.906   8.943   1.867  0.7940 -0.7824 -0.9347
10437SOL     OW37656   0.919   4.876   2.856 -0.0775  0.6453  0.1666
10437SOL    HW137657   0.992   4.832   2.811  0.0008  0.3048  0.6185
10437SOL    HW237658   0.924   4.967   2.827  0.3833  0.5747  0.0159
10438SOL     OW37659   1.457   6.418   6.964  0.0641  0.4201 -0.5293
10438SOL    HW137660   1.502   6.503   6.961 -0.8514  0.9384  0.0763
10438SOL    HW237661   1.524   6.357   6.995  0.0862  1.3882  1.4520
10439SOL     OW37662   5.041   3.838   0.958  0.2185  0.3046 -0.3431
10439SOL    HW137663   4.977   3.901   0.926  1.4613  1.5587 -0.4534
10439SOL    HW237664   5.105   3.830   0.887  0.7310 -0.1516  0.1535
10440SOL     OW37665   5.124   2.948   6.980 -0.0076 -0.4516  0.2398
10440SOL    HW137666   5.037   2.909   6.968  0.8495 -1.8877 -2.3197
10440SOL    HW237667   5.124   3.025   6.923  0.4513 -0.6052  0.0259
10441SOL     OW37668   3.766   4.486   4.053  0.1071  0.1248  0.3298
10441SOL    HW137669   3.821   4.542   4.106  0.1048 -1.1148  1.7194
10441SOL    HW237670   3.776   4.399   4.092 -2.0741 -0.3159  0.0571
10442SOL     OW37671   1.587   5.047   5.412 -0.1087  0.1214  0.4271
10442SOL    HW137672   1.491   5.047   5.421 -0.0484 -0.3813  1.1982
10442SOL    HW237673   1.617   4.993   5.485  0.7626  0.2063  0.1344
10443SOL     OW37674   1.958   1.501   7.328  0.4195  0.3607  0.0561
10443SOL    HW137675   2.042   1.545   7.335  0.8162 -0.5172  1.0268
10443SOL    HW237676   1.952   1.445   7.406 -0.4071 -0.6879 -0.7113
10444SOL     OW37677   7.618   2.230   5.108  0.1780 -0.7274  0.1667
10444SOL    HW137678   7.586   2.140   5.100 -1.5371 -0.1881  0.4995
10444SOL    HW237679   7.539   2.284   5.102  1.1453  0.7541  0.2014
10445SOL     OW37680   3.414   1.102   8.154 -0.1479  0.0062  0.0647
10445SOL    HW137681   3.436   1.008   8.150 -0.2288  0.0107 -0.5706
10445SOL    HW237682   3.369   1.119   8.071  0.6660  0.8050 -0.2264
10446SOL     OW37683   1.544   3.686   1.202  0.2917  0.5573  0.2168
10446SOL    HW137684   1.515   3.768   1.242  1.9840  0.0394  2.7688
10446SOL    HW237685   1.624   3.663   1.249  0.0032 -2.4721 -0.5242
10447SOL     OW37686   0.135   6.831   1.246  0.2229  0.0214  0.1795
10447SOL    HW137687   0.180   6.914   1.259  0.8134 -0.0307 -1.3912
10447SOL    HW237688   0.050   6.843   1.288  0.0870  1.6193 -0.5004
10448SOL     OW37689   3.384   9.084   3.983 -0.0831 -0.4758 -0.1781
10448SOL    HW137690   3.394   8.994   4.016  1.8957 -0.0289  0.5678
10448SOL    HW237691   3.382   9.074   3.888  1.1204 -1.2438 -0.1414
10449SOL     OW37692   3.031   2.294   4.226  0.2580 -0.3623  0.0905
10449SOL    HW137693   3.111   2.346   4.230 -1.0613  1.8203 -0.1100
10449SOL    HW237694   3.054   2.218   4.173  1.6428  1.3602 -1.9644
10450SOL     OW37695   3.161   3.971   0.580 -0.8367 -0.1686  0.0039
10450SOL    HW137696   3.069   3.996   0.567 -0.4957 -0.0643 -2.7395
10450SOL    HW237697   3.205   4.001   0.501  1.4113 -1.0856  0.8336
10451SOL     OW37698   3.593   1.297   8.230 -0.5413 -0.1521  0.5135
10451SOL    HW137699   3.540   1.348   8.292 -1.1892 -0.4882  0.2499
10451SOL    HW237700   3.543   1.217   8.217 -0.8666  0.2944 -1.1301
10452SOL     OW37701   7.697   5.570   5.263 -0.3379 -0.2455  0.2403
10452SOL    HW137702   7.722   5.659   5.288  0.7524 -0.4130 -0.2147
10452SOL    HW237703   7.738   5.515   5.329 -1.8297 -0.3768  1.1035
10453SOL     OW37704   8.577   8.211   4.097 -0.0305 -0.1828 -0.1634
10453SOL    HW137705   8.503   8.240   4.044  0.2023 -1.1642 -1.0629
10453SOL    HW237706   8.557   8.242   4.185 -1.6486 -0.6541 -0.3315
10454SOL     OW37707   6.511   3.449   7.141  0.9221  0.0182  0.0046
10454SOL    HW137708   6.419   3.474   7.129  0.3057 -2.4155 -0.9148
10454SOL    HW237709   6.558   3.496   7.071  0.2080  0.3410 -0.2673
10455SOL     OW37710   6.264   8.454   6.988  0.1001 -0.3443  0.1695
10455SOL    HW137711   6.196   8.425   7.049  0.1504  0.6970  0.7363
10455SOL    HW237712   6.341   8.402   7.011  0.4555  0.8510  1.7810
10456SOL     OW37713   3.586   2.343   0.251 -0.6601 -0.7706 -0.1182
10456SOL    HW137714   3.578   2.413   0.316  1.3411 -0.0994 -0.5462
10456SOL    HW237715   3.673   2.355   0.213 -1.4641 -1.6083 -2.3941
10457SOL     OW37716   3.974   8.657   5.960 -0.1515 -0.3294  0.2329
10457SOL    HW137717   4.037   8.619   5.899  0.3424  0.5346  0.1831
10457SOL    HW237718   3.920   8.715   5.906 -1.1182 -1.1780  0.2462
10458SOL     OW37719   1.009   2.905   2.009 -0.0205 -0.4753 -0.1342
10458SOL    HW137720   1.085   2.858   1.974  0.7979  0.4931  0.3090
10458SOL    HW237721   1.010   2.884   2.103 -0.3361 -0.5033 -0.1369
10459SOL     OW37722   0.410   7.992   0.808  0.2023  0.3658  0.0445
10459SOL    HW137723   0.391   8.044   0.730 -0.8379 -0.4151 -0.2490
10459SOL    HW237724   0.476   8.042   0.855  1.7489  0.3182 -1.9177
10460SOL     OW37725   8.762   1.217   0.329 -0.1336 -0.0413  0.0601
10460SOL    HW137726   8.737   1.152   0.395 -0.9950 -1.0969 -1.2499
10460SOL    HW237727   8.689   1.279   0.327  0.3373  0.5539  0.7640
10461SOL     OW37728   0.533   8.804   3.181 -0.1871 -0.1897  0.2869
10461SOL    HW137729   0.490   8.881   3.144 -1.2150 -0.6824  0.4221
10461SOL    HW237730   0.527   8.738   3.111  0.8369 -0.1089  0.1059
10462SOL     OW37731   0.381   4.886   9.189  0.0981 -0.1688 -1.0905
10462SOL    HW137732   0.379   4.937   9.108 -1.8574 -1.5266 -1.9896
10462SOL    HW237733   0.434   4.809   9.167  0.8751  0.2061 -0.5595
10463SOL     OW37734   4.087   3.202   1.883  0.1261  0.3572  0.7423
10463SOL    HW137735   4.076   3.154   1.801  1.1104 -1.5326  1.6531
10463SOL    HW237736   3.999   3.207   1.920 -0.0937 -0.1671  0.3018
10464SOL     OW37737   4.641   4.536   8.980 -0.3162 -0.0764  0.2049
10464SOL    HW137738   4.637   4.631   8.967  1.0007  0.2597  1.8764
10464SOL    HW237739   4.667   4.501   8.895  1.0855  1.2558  0.0562
10465SOL     OW37740   8.954   6.102   6.749 -0.0650  0.2754 -0.3142
10465SOL    HW137741   8.936   6.164   6.679  1.3578 -0.4715 -1.3885
10465SOL    HW237742   8.964   6.156   6.828  0.3149  1.3185 -1.0668
10466SOL     OW37743   8.399   6.893   5.211 -0.6455 -0.0831 -0.4502
10466SOL    HW137744   8.382   6.806   5.174  0.6099 -0.3905 -0.3471
10466SOL    HW237745   8.471   6.879   5.272  0.2713  1.2150 -1.2024
10467SOL     OW37746   2.375   2.633   6.389  0.3893 -0.4953 -0.4798
10467SOL    HW137747   2.402   2.598   6.304  0.9407 -2.0208  0.2878
10467SOL    HW237748   2.305   2.575   6.419 -1.8621  1.7016 -1.1114
10468SOL     OW37749   2.530   4.502   6.102 -0.1214 -0.0708 -0.2198
10468SOL    HW137750   2.450   4.497   6.154  0.5981  2.1511  1.2469
10468SOL    HW237751   2.514   4.572   6.039 -0.0995 -1.1256 -1.4396
10469SOL     OW37752   2.242   1.378   4.716  0.7649  0.3884 -0.0281
10469SOL    HW137753   2.300   1.452   4.732  1.2965 -0.3152  1.4410
10469SOL    HW237754   2.287   1.327   4.648  1.4395  0.3168  0.4644
10470SOL     OW37755   2.326   3.224   4.464 -0.8099  0.0889  0.2312
10470SOL    HW137756   2.246   3.177   4.485 -1.2014  0.4038 -0.4997
10470SOL    HW237757   2.396   3.175   4.508 -1.4141 -0.0947  1.0023
10471SOL     OW37758   6.928   2.589   2.593  0.4284 -0.1757  0.6126
10471SOL    HW137759   6.962   2.499   2.599 -0.6727 -0.5527  1.5076
10471SOL    HW237760   6.993   2.635   2.540  1.2587 -1.3816  0.5307
10472SOL     OW37761   2.008   1.084   1.701  0.3210 -0.0745 -0.4354
10472SOL    HW137762   2.072   1.106   1.769 -0.5586 -1.3173  0.8393
10472SOL    HW237763   2.042   1.006   1.659  0.2423 -0.0321 -0.5800
10473SOL     OW37764   2.686   7.930   0.956  0.1112 -0.1734  0.2882
10473SOL    HW137765   2.608   7.881   0.931 -0.3863  1.2747 -1.1449
10473SOL    HW237766   2.745   7.920   0.882  0.6206  0.1399  0.6486
10474SOL     OW37767   0.380   7.913   7.533 -0.5034 -0.2393 -0.1115
10474SOL    HW137768   0.367   7.991   7.479 -0.1092  0.7026  1.0926
10474SOL    HW237769   0.368   7.839   7.473 -0.1854  0.7542 -1.4435
10475SOL     OW37770   6.806   0.696   0.094 -0.2772  0.2079 -0.2390
10475SOL    HW137771   6.801   0.771   0.153  0.9184 -0.2677  0.5095
10475SOL    HW237772   6.889   0.709   0.047  0.1744 -0.8722  0.2353
10476SOL     OW37773   8.122   4.843   3.793  0.3938  0.0663  0.1483
10476SOL    HW137774   8.152   4.897   3.866 -0.1461 -0.4225  0.7450
10476SOL    HW237775   8.195   4.784   3.775  0.4028 -0.0357  0.5168
10477SOL     OW37776   5.275   2.586   5.940  0.0601 -0.5469  0.0346
10477SOL    HW137777   5.364   2.580   5.973  0.3955 -2.5675 -1.0887
10477SOL    HW237778   5.221   2.547   6.009  0.1813 -0.4118  0.2066
10478SOL     OW37779   1.013   6.850   7.127 -0.2792 -0.2692  0.3765
10478SOL    HW137780   1.097   6.810   7.149 -0.0316  0.3702  0.6129
10478SOL    HW237781   1.015   6.936   7.169 -0.6209  0.1703 -0.4764
10479SOL     OW37782   7.233   7.782   4.825 -0.3894  0.1357  0.0490
10479SOL    HW137783   7.291   7.706   4.815 -1.6263 -1.3685  3.0594
10479SOL    HW237784   7.292   7.855   4.843  0.7216 -0.9589  1.1034
10480SOL     OW37785   2.963   8.056   1.847 -0.1143 -0.0685 -0.0544
10480SOL    HW137786   3.058   8.048   1.853 -0.0459 -1.9243 -2.2004
10480SOL    HW237787   2.948   8.122   1.779 -0.3362 -0.5110 -0.4401
10481SOL     OW37788   7.639   4.534   5.558  0.4759  0.0839 -0.7657
10481SOL    HW137789   7.611   4.466   5.618  0.7622  0.9503  0.3955
10481SOL    HW237790   7.710   4.580   5.605 -0.6878  2.1023 -0.8646
10482SOL     OW37791   0.538   7.401   9.213 -0.2117  0.2412  0.2029
10482SOL    HW137792   0.564   7.339   9.281 -2.6722 -0.6648  0.3830
10482SOL    HW237793   0.524   7.483   9.260  0.0605  0.1525  0.4454
10483SOL     OW37794   1.846   0.860   0.992  0.2468 -0.2060 -0.0070
10483SOL    HW137795   1.910   0.797   1.025  2.2024  1.2266 -0.8685
10483SOL    HW237796   1.833   0.836   0.901  0.0767 -0.0840 -0.0149
10484SOL     OW37797   0.921   4.775   6.223 -0.1499  0.3939 -0.1703
10484SOL    HW137798   0.872   4.843   6.177  0.8671  0.0074 -1.9212
10484SOL    HW237799   1.013   4.800   6.212  0.1771 -0.6030  0.2110
10485SOL     OW37800   3.542   8.368   3.607 -0.5785 -0.1643 -0.0467
10485SOL    HW137801   3.533   8.455   3.570 -1.3275 -0.7811 -1.3852
10485SOL    HW237802   3.626   8.336   3.573  0.1263  0.3484  1.1625
10486SOL     OW37803   2.859   7.918   7.033 -0.7015 -0.2037  0.2003
10486SOL    HW137804   2.821   7.834   7.058  2.9273 -2.3484 -0.7839
10486SOL    HW237805   2.856   7.919   6.938  0.3004  0.2639  0.1646
10487SOL     OW37806   2.138   1.029   2.663 -0.5224 -0.5859 -0.3425
10487SOL    HW137807   2.062   1.087   2.655 -1.0322 -1.2112 -0.0405
10487SOL    HW237808   2.103   0.941   2.650 -0.3901 -1.1847  2.7930
10488SOL     OW37809   7.069   6.723   7.159  0.1699 -0.4157  0.2338
10488SOL    HW137810   7.041   6.636   7.131 -1.5777  0.1269  0.2179
10488SOL    HW237811   7.129   6.752   7.090 -1.4017 -0.4899 -1.2179
10489SOL     OW37812   8.541   2.855   0.365  0.3854 -0.2137 -0.3622
10489SOL    HW137813   8.632   2.862   0.396  0.9372  1.7564 -2.2188
10489SOL    HW237814   8.496   2.927   0.409  0.2735  0.2105 -1.1598
10490SOL     OW37815   6.268   8.718   3.599  0.2890  0.4844 -0.4588
10490SOL    HW137816   6.304   8.630   3.593  0.7432  0.6746 -0.5680
10490SOL    HW237817   6.343   8.773   3.622  0.1457  0.9425 -1.0660
10491SOL     OW37818   3.743   7.771   1.693 -0.2783 -0.4969 -0.2854
10491SOL    HW137819   3.697   7.837   1.744 -0.1715  0.3520 -1.2397
10491SOL    HW237820   3.690   7.761   1.614 -0.1834 -1.4161 -0.2374
10492SOL     OW37821   8.629   0.097   1.833 -0.0015 -0.2337 -0.0349
10492SOL    HW137822   8.555   0.062   1.782 -0.0963  0.5547 -0.4533
10492SOL    HW237823   8.686   0.022   1.847 -0.6815 -0.7663 -0.0677
10493SOL     OW37824   1.068   9.226   4.991 -0.0284 -0.4729 -0.1905
10493SOL    HW137825   0.984   9.189   4.965 -0.0080  0.0284 -1.0120
10493SOL    HW237826   1.053   9.262   5.078 -0.7079 -0.2546 -0.3927
10494SOL     OW37827   4.050   6.976   9.085  0.0546 -0.0988 -0.4546
10494SOL    HW137828   3.981   6.942   9.141  0.0546  0.5214 -0.0730
10494SOL    HW237829   4.033   6.937   8.999  0.5880 -1.7921  0.1628
10495SOL     OW37830   1.085   6.045   6.676 -0.1095 -0.1910 -0.4071
10495SOL    HW137831   1.089   5.954   6.705 -2.2796  0.0736  0.8858
10495SOL    HW237832   1.177   6.070   6.665  0.5328 -2.8324 -1.9384
10496SOL     OW37833   4.634   0.614   7.834  0.4604  0.2586 -0.4242
10496SOL    HW137834   4.684   0.608   7.916  1.1211  2.0998 -0.6454
10496SOL    HW237835   4.570   0.683   7.850  0.0542  0.0760 -1.1997
10497SOL     OW37836   4.383   4.649   5.931 -0.0267 -0.6142  0.0628
10497SOL    HW137837   4.385   4.556   5.910 -0.0036 -0.2626 -1.6528
10497SOL    HW237838   4.463   4.684   5.892 -0.3770  0.2248  0.0790
10498SOL     OW37839   2.740   4.358   9.088  0.2631 -0.0516  0.2873
10498SOL    HW137840   2.704   4.324   9.006 -1.1952 -0.0131  0.8760
10498SOL    HW237841   2.830   4.382   9.066  0.5021 -1.7541 -0.8200
10499SOL     OW37842   6.886   2.119   5.053  0.1888 -0.3472 -0.0589
10499SOL    HW137843   6.823   2.106   4.982  0.3078 -3.1727  0.2369
10499SOL    HW237844   6.902   2.031   5.087  0.2007  0.8688  3.4557
10500SOL     OW37845   1.133   3.959   6.524 -0.6346 -0.1981 -0.3185
10500SOL    HW137846   1.049   4.005   6.524 -1.0187 -0.8642 -0.7062
10500SOL    HW237847   1.181   3.996   6.597 -1.0141  0.6497 -0.4861
10501SOL     OW37848   8.507   7.718   4.968 -0.4823  0.1980  0.3061
10501SOL    HW137849   8.565   7.735   4.894 -0.7140 -0.3251  0.0004
10501SOL    HW237850   8.484   7.805   5.000 -0.4467  0.4311 -0.2873
10502SOL     OW37851   8.721   2.953   7.872  0.5726 -0.2067  0.3484
10502SOL    HW137852   8.703   3.042   7.841 -0.1627 -1.2540 -2.6266
10502SOL    HW237853   8.802   2.929   7.828  0.1106 -1.4014  0.1051
10503SOL     OW37854   1.435   2.522   6.635 -0.0184  0.6175  0.0915
10503SOL    HW137855   1.445   2.593   6.699 -2.0300  1.5639 -0.5597
10503SOL    HW237856   1.488   2.550   6.560 -1.4199  1.8945 -0.4790
10504SOL     OW37857   2.578   6.621   6.547 -0.0598  0.4669  0.2947
10504SOL    HW137858   2.584   6.534   6.507  0.2924  0.5531  0.1623
10504SOL    HW237859   2.503   6.614   6.607  0.4257 -0.1576  0.8521
10505SOL     OW37860   7.991   6.156   7.302  0.2316 -0.2145  0.0498
10505SOL    HW137861   8.072   6.110   7.278  0.6824 -0.1221  1.3486
10505SOL    HW237862   7.995   6.239   7.253  1.4456  0.2506  0.9008
10506SOL     OW37863   4.664   0.639   4.063  0.0673 -0.3781 -0.5642
10506SOL    HW137864   4.590   0.672   4.012  0.4919 -0.3029 -1.1301
10506SOL    HW237865   4.734   0.702   4.048  0.0122 -0.0140  0.6023
10507SOL     OW37866   4.220   0.360   6.830  1.1023 -0.2438 -0.2790
10507SOL    HW137867   4.257   0.430   6.777  3.1201 -1.2141 -0.2542
10507SOL    HW237868   4.168   0.405   6.897 -2.6047  1.0292 -3.5856
10508SOL     OW37869   2.063   8.000   2.712  0.3221  0.3625  0.4045
10508SOL    HW137870   2.034   8.076   2.662 -0.7887  0.6371  1.4040
10508SOL    HW237871   1.997   7.933   2.694  0.7502 -0.0421  0.3100
10509SOL     OW37872   0.712   4.890   5.386  0.3059 -0.0903 -0.0132
10509SOL    HW137873   0.641   4.936   5.431 -0.0526 -0.6209 -0.0234
10509SOL    HW237874   0.677   4.872   5.298  1.1887  1.4013 -0.7071
10510SOL     OW37875   4.499   6.980   6.992 -0.2584 -0.1737 -0.0847
10510SOL    HW137876   4.457   6.906   7.036 -1.4085  0.3876 -0.2003
10510SOL    HW237877   4.586   6.948   6.970  0.7318 -0.1727  3.3772
10511SOL     OW37878   8.022   5.713   1.481 -0.0123 -0.4082 -0.2114
10511SOL    HW137879   8.064   5.722   1.566  2.1967 -1.2514 -1.1471
10511SOL    HW237880   8.080   5.758   1.420 -1.3177 -0.2020 -1.3674
10512SOL     OW37881   2.150   2.593   3.804 -0.1606 -0.5796 -0.6684
10512SOL    HW137882   2.220   2.655   3.827 -1.5914  0.7273  0.3142
10512SOL    HW237883   2.113   2.627   3.722 -0.9018 -0.1526 -0.1655
10513SOL     OW37884   6.257   3.833   1.350  0.1960  0.2935 -0.2003
10513SOL    HW137885   6.305   3.776   1.291  2.1219  0.4761  1.0874
10513SOL    HW237886   6.227   3.905   1.295 -0.8123 -1.0749 -1.5120
10514SOL     OW37887   4.096   7.866   8.645 -0.0450 -0.2653 -0.1274
10514SOL    HW137888   4.162   7.892   8.709 -0.1831  0.4211 -0.2578
10514SOL    HW237889   4.128   7.783   8.609 -0.3572 -1.0930  1.4130
10515SOL     OW37890   5.064   1.097   5.233  0.2646  0.6912 -0.3117
10515SOL    HW137891   5.108   1.025   5.277 -0.1434  1.3069  1.1596
10515SOL    HW237892   5.112   1.108   5.151  4.4913  2.8466  2.1351
10516SOL     OW37893   2.814   4.049   6.490 -0.0605  0.1915  0.0379
10516SOL    HW137894   2.781   3.962   6.509  0.2427 -0.1028 -0.7435
10516SOL    HW237895   2.902   4.035   6.455  0.4908  0.9004  1.0933
10517SOL     OW37896   7.644   0.979   2.741  0.3349  0.6819 -0.7871
10517SOL    HW137897   7.576   1.011   2.681 -0.9119  0.3327  0.3839
10517SOL    HW237898   7.616   1.009   2.827 -0.2411 -2.3818  0.2213
10518SOL     OW37899   5.551   1.629   9.075  0.3734 -0.1362  0.5871
10518SOL    HW137900   5.617   1.688   9.109  3.1893 -2.8937  0.3685
10518SOL    HW237901   5.544   1.651   8.982  0.7833  0.3421  0.6676
10519SOL     OW37902   6.886   2.972   5.302  0.4943 -0.5827  0.5447
10519SOL    HW137903   6.843   2.887   5.311  2.5208 -1.6629  0.7290
10519SOL    HW237904   6.863   3.001   5.214 -0.9479 -0.8703  0.8030
10520SOL     OW37905   6.625   4.092   0.651 -0.5833  0.2076 -0.1075
10520SOL    HW137906   6.552   4.098   0.589 -1.5681  0.2935  1.0194
10520SOL    HW237907   6.703   4.110   0.598 -1.1444 -1.8579 -1.7595
10521SOL     OW37908   7.199   7.438   7.917 -0.3712  0.0455  0.4144
10521SOL    HW137909   7.189   7.534   7.916 -1.2645 -0.0072  1.6571
10521SOL    HW237910   7.292   7.424   7.934 -0.3298  0.7096  0.7917
10522SOL     OW37911   1.070   2.959   1.187 -0.2898  0.0193  0.2393
10522SOL    HW137912   1.013   2.884   1.204 -1.5172  0.8428 -0.0621
10522SOL    HW237913   1.019   3.014   1.126  0.3658  1.3123  0.8197
10523SOL     OW37914   0.348   7.412   1.342  0.2622 -0.2597  0.2776
10523SOL    HW137915   0.380   7.425   1.431 -0.9892  0.8248  0.5966
10523SOL    HW237916   0.392   7.332   1.312  2.3000  0.5047  1.0984
10524SOL     OW37917   3.432   0.826   7.209 -0.1086 -0.5389  0.1253
10524SOL    HW137918   3.491   0.845   7.136 -0.1688 -0.3628  0.1217
10524SOL    HW237919   3.447   0.897   7.271 -0.6529 -0.2347 -0.0812
10525SOL     OW37920   0.787   7.109   6.332 -0.2961 -0.3037  0.5815
10525SOL    HW137921   0.825   7.022   6.318  0.7404  0.3281 -0.8097
10525SOL    HW237922   0.770   7.142   6.243 -2.6115  0.1192  1.1285
10526SOL     OW37923   0.908   0.521   2.857  0.2670  0.7090  0.2535
10526SOL    HW137924   0.885   0.559   2.773 -0.7793  1.0342  0.6729
10526SOL    HW237925   0.832   0.539   2.913 -0.3083 -2.0231  0.4707
10527SOL     OW37926   3.708   7.482   7.371  0.0440  0.5151 -0.3634
10527SOL    HW137927   3.613   7.493   7.377 -0.2764 -1.9680  0.5540
10527SOL    HW237928   3.720   7.415   7.304  1.2119  1.1804 -0.8515
10528SOL     OW37929   5.701   5.822   4.223 -0.3777  0.3174 -0.4507
10528SOL    HW137930   5.735   5.835   4.134 -1.1130  0.6044 -0.6960
10528SOL    HW237931   5.660   5.736   4.221 -0.0220  0.1399 -0.2639
10529SOL     OW37932   5.514   4.413   0.254  0.1417 -0.2531 -0.1401
10529SOL    HW137933   5.557   4.415   0.169  0.3675 -1.2762 -0.0619
10529SOL    HW237934   5.584   4.430   0.317  0.4340 -1.7542 -0.0240
10530SOL     OW37935   2.935   6.373   1.646 -0.0422 -0.5178 -0.3283
10530SOL    HW137936   2.864   6.437   1.645  0.2837 -0.1587 -0.8776
10530SOL    HW237937   2.895   6.293   1.679  0.2153  0.7898  3.7262
10531SOL     OW37938   4.520   2.582   1.591  0.1890  0.3000 -0.0110
10531SOL    HW137939   4.432   2.575   1.627 -0.9292  0.5459 -2.4673
10531SOL    HW237940   4.539   2.675   1.591  0.1680  0.3044 -0.0907
10532SOL     OW37941   0.143   6.808   8.655  0.1508 -0.8646 -0.5326
10532SOL    HW137942   0.061   6.838   8.616  0.3582 -0.2610 -0.5139
10532SOL    HW237943   0.120   6.789   8.746  0.4486  1.2698  0.0413
10533SOL     OW37944   8.741   8.759   3.505  0.2166  0.4708  0.0448
10533SOL    HW137945   8.653   8.749   3.541  0.1660 -0.7218 -0.3470
10533SOL    HW237946   8.799   8.748   3.580  0.0431  0.6843  0.2105
10534SOL     OW37947   9.167   4.015   2.768 -0.2294 -0.3765 -0.7122
10534SOL    HW137948   9.073   4.006   2.788 -0.6136  2.8893 -0.5224
10534SOL    HW237949   9.200   4.074   2.835  1.4502  0.3092 -2.0807
10535SOL     OW37950   7.684   3.308   7.906 -0.6072  0.3496  0.4950
10535SOL    HW137951   7.699   3.394   7.945  1.0210  0.8250 -1.0940
10535SOL    HW237952   7.770   3.266   7.906 -0.9011 -0.3134 -0.9427
10536SOL     OW37953   4.176   5.069   5.658  0.2136 -0.3791 -0.4436
10536SOL    HW137954   4.213   5.153   5.684  2.3721 -1.1554 -0.8188
10536SOL    HW237955   4.174   5.017   5.739  3.3878 -1.5142 -0.9683
10537SOL     OW37956   3.945   0.835   2.615 -0.6175 -0.2944 -0.1425
10537SOL    HW137957   3.948   0.865   2.706 -0.0125 -0.6261 -0.0448
10537SOL    HW237958   4.016   0.881   2.572 -1.3005  0.3447 -0.6121
10538SOL     OW37959   3.918   0.056   6.859 -0.0386 -0.8160 -0.0569
10538SOL    HW137960   3.888  -0.033   6.840 -1.4918 -0.3776  0.0431
10538SOL    HW237961   3.957   0.086   6.777 -1.9057 -0.6481 -0.9556
10539SOL     OW37962   4.199   3.892   7.748 -0.1457  0.5797  1.0716
10539SOL    HW137963   4.274   3.833   7.756 -0.4802 -0.1917 -0.8793
10539SOL    HW237964   4.208   3.929   7.660 -2.2012  0.2111  0.6625
10540SOL     OW37965   3.671   3.844   4.620  0.2347 -0.4504  0.0920
10540SOL    HW137966   3.580   3.871   4.606 -0.6299 -3.2112 -0.2846
10540SOL    HW237967   3.679   3.833   4.715  0.7607  1.4654  0.3061
10541SOL     OW37968   3.678   1.041   4.619  0.0065 -0.0181 -0.3647
10541SOL    HW137969   3.593   1.079   4.641 -0.7478 -2.3057  1.0000
10541SOL    HW237970   3.741   1.101   4.661 -1.0209  0.6524  0.2951
10542SOL     OW37971   1.666   4.457   1.776 -0.2467  0.0078  0.1230
10542SOL    HW137972   1.645   4.525   1.840 -0.4438 -0.3278  0.4161
10542SOL    HW237973   1.726   4.500   1.714  0.5679  0.1187  0.9586
10543SOL     OW37974   7.310   5.358   8.838  0.0916 -0.2096  0.5459
10543SOL    HW137975   7.332   5.440   8.883 -2.3036  1.1175 -0.4867
10543SOL    HW237976   7.290   5.385   8.748  0.0249 -2.0657 -0.0350
10544SOL     OW37977   2.616   7.227   2.096  0.0175 -0.5049 -0.0331
10544SOL    HW137978   2.607   7.286   2.022  1.4055 -0.4496 -0.1826
10544SOL    HW237979   2.598   7.282   2.173  1.4650  0.2125 -0.1560
10545SOL     OW37980   6.977   4.099   8.435  0.3172 -0.5262 -0.1174
10545SOL    HW137981   6.973   4.011   8.472  0.0716 -0.1619  0.7821
10545SOL    HW237982   6.959   4.088   8.342 -0.2139 -1.3751  0.0728
10546SOL     OW37983   5.109   2.453   2.683  0.0724  0.4040  0.5878
10546SOL    HW137984   5.062   2.471   2.601  0.5207 -0.4929  0.1199
10546SOL    HW237985   5.130   2.359   2.679  0.6081  0.4714  1.4682
10547SOL     OW37986   6.085   2.245   0.340 -0.8008  0.7078 -0.4528
10547SOL    HW137987   6.132   2.278   0.264  1.9028 -0.6079  0.5099
10547SOL    HW237988   6.030   2.319   0.368  0.4547  2.2623 -1.8558
10548SOL     OW37989   0.492   5.813   4.640 -0.0854 -0.0660 -0.0657
10548SOL    HW137990   0.407   5.845   4.610 -0.0561 -0.7686 -0.9356
10548SOL    HW237991   0.552   5.886   4.627 -0.4655  0.2708  0.0899
10549SOL     OW37992   6.176   4.989   8.530 -0.7384 -0.0723 -0.2167
10549SOL    HW137993   6.083   4.995   8.510 -0.5812 -1.3775 -1.4391
10549SOL    HW237994   6.188   4.900   8.562 -0.1899  0.6210  1.7167
10550SOL     OW37995   4.409   7.407   6.808  0.7391  0.5291 -0.2834
10550SOL    HW137996   4.433   7.454   6.728  1.7827  0.2533 -0.1494
10550SOL    HW237997   4.490   7.363   6.835  0.1994 -0.0139  0.4938
10551SOL     OW37998   3.255   0.268   9.241  0.5471  0.0211 -0.0024
10551SOL    HW137999   3.226   0.177   9.248 -1.2164  0.5167 -0.3388
10551SOL    HW238000   3.269   0.281   9.147  1.6638 -0.1326  0.1298
10552SOL     OW38001   7.458   0.775   4.167 -0.4875  0.1508  0.2974
10552SOL    HW138002   7.496   0.855   4.132 -0.4022  0.3285  0.7902
10552SOL    HW238003   7.513   0.753   4.242 -0.1251 -0.7211 -0.2084
10553SOL     OW38004   5.799   6.715   3.973 -0.1414  0.3287 -0.5766
10553SOL    HW138005   5.838   6.767   3.903  1.1929 -0.5523 -0.5290
10553SOL    HW238006   5.857   6.728   4.048 -0.8452  0.2555 -0.0064
10554SOL     OW38007   9.002   5.315   0.555 -0.2369  0.1268  0.0932
10554SOL    HW138008   9.006   5.243   0.618  0.5012 -1.3812 -1.5840
10554SOL    HW238009   8.946   5.283   0.484  0.6941  0.8755 -1.0402
10555SOL     OW38010   4.650   9.148   6.469  0.3105 -0.0128  0.3931
10555SOL    HW138011   4.601   9.066   6.476  3.1647 -1.7142  3.6668
10555SOL    HW238012   4.698   9.141   6.387  0.5204 -1.6900  0.6250
10556SOL     OW38013   7.772   5.069   1.947 -0.6797  0.0729 -0.2069
10556SOL    HW138014   7.848   5.124   1.964 -0.3717 -0.4763  0.2376
10556SOL    HW238015   7.770   5.059   1.851  0.2455 -0.5121 -0.1738
10557SOL     OW38016   2.653   1.879   8.333 -0.6486 -0.0515  0.1707
10557SOL    HW138017   2.635   1.881   8.427  0.2236 -1.1568  0.3865
10557SOL    HW238018   2.573   1.910   8.292 -2.5583 -3.2735  1.1260
10558SOL     OW38019   7.530   6.699   5.142  0.5438  0.5615  0.4583
10558SOL    HW138020   7.603   6.715   5.081  0.7603  0.4930  0.6952
10558SOL    HW238021   7.493   6.786   5.158 -0.7183  0.3700 -1.2354
10559SOL     OW38022   0.776   0.502   0.315  0.0661 -0.6671  0.2899
10559SOL    HW138023   0.860   0.471   0.282 -1.4917 -3.2364 -1.5971
10559SOL    HW238024   0.783   0.597   0.313  2.7159 -0.7964 -0.2594
10560SOL     OW38025   8.006   5.951   4.016 -0.8004  0.2467  0.6671
10560SOL    HW138026   7.998   5.964   4.110 -0.4217  1.3749  0.5555
10560SOL    HW238027   7.916   5.955   3.984 -0.9858 -0.7174  1.0389
10561SOL     OW38028   0.732   0.965   6.242  1.4081 -0.9049 -0.6348
10561SOL    HW138029   0.667   0.993   6.307  0.3874 -0.7308 -1.7049
10561SOL    HW238030   0.801   1.032   6.247  0.1938  0.4504 -1.3888
10562SOL     OW38031   4.074   8.265   4.114  0.3784  0.1392 -0.2717
10562SOL    HW138032   4.128   8.345   4.107 -0.9556  1.0289 -0.8470
10562SOL    HW238033   4.122   8.200   4.062  1.0057  0.8466 -0.6092
10563SOL     OW38034   9.092   5.335   7.809  0.1819  0.2333 -0.7862
10563SOL    HW138035   9.124   5.339   7.719  0.5991 -0.2642 -0.6628
10563SOL    HW238036   9.004   5.299   7.801  0.0173  0.6767 -1.0356
10564SOL     OW38037   8.352   8.124   2.929 -0.2268 -0.3100 -0.4502
10564SOL    HW138038   8.323   8.041   2.967 -0.7830  0.0716 -0.0030
10564SOL    HW238039   8.446   8.127   2.946 -0.1865 -0.8933 -0.5579
10565SOL     OW38040   4.278   4.369   4.369  0.1767 -0.2514  0.6219
10565SOL    HW138041   4.277   4.277   4.396 -0.5143 -0.1985  0.7851
10565SOL    HW238042   4.241   4.368   4.281 -2.2731  0.1472  1.5699
10566SOL     OW38043   1.158   7.387   4.838 -0.4345  0.2559 -0.1921
10566SOL    HW138044   1.066   7.374   4.860  0.0579 -1.1342  1.2393
10566SOL    HW238045   1.176   7.477   4.865 -1.2483  0.3609  0.0341
10567SOL     OW38046   8.890   1.961   7.962  0.1400  0.1558 -0.7305
10567SOL    HW138047   8.916   1.945   7.871  0.2148 -0.0731 -0.6684
10567SOL    HW238048   8.802   1.923   7.968 -0.2379  0.9704 -0.9537
10568SOL     OW38049   5.739   4.383   0.865  0.0470 -0.1452 -0.0170
10568SOL    HW138050   5.794   4.360   0.940 -0.5605 -0.2828  0.3911
10568SOL    HW238051   5.663   4.425   0.903  0.7567  1.8741 -0.6954
10569SOL     OW38052   2.892   4.044   0.572 -0.1072 -0.2356 -0.2668
10569SOL    HW138053   2.870   4.003   0.656  1.2383  0.6255  0.5454
10569SOL    HW238054   2.840   4.125   0.572 -2.5525 -1.6708 -1.7474
10570SOL     OW38055   5.687   3.605   4.979  0.0380  0.9248  0.5164
10570SOL    HW138056   5.667   3.530   5.036  0.4751  1.4004  1.3087
10570SOL    HW238057   5.741   3.662   5.032  1.9581  0.5712 -0.9510
10571SOL     OW38058   5.332   6.737   1.473  0.2239  0.0784 -0.3848
10571SOL    HW138059   5.403   6.723   1.535  0.1793  1.4500  0.0270
10571SOL    HW238060   5.322   6.654   1.427  0.7271 -0.7488  0.9607
10572SOL     OW38061   6.627   1.017   4.618  0.0178 -0.3163 -0.7156
10572SOL    HW138062   6.635   1.022   4.522 -1.0502  0.7054 -0.7728
10572SOL    HW238063   6.627   0.923   4.637 -0.6535 -0.5580 -1.8116
10573SOL     OW38064   1.181   0.859   3.525 -0.4044 -0.6974  0.1045
10573SOL    HW138065   1.088   0.843   3.510 -0.3190 -1.8756  0.6612
10573SOL    HW238066   1.222   0.848   3.439 -0.8074  0.1581 -0.2058
10574SOL     OW38067   1.913   6.855   3.076 -0.2377 -0.1749 -0.0037
10574SOL    HW138068   1.850   6.782   3.082  0.9869 -1.2807 -0.1931
10574SOL    HW238069   1.916   6.876   2.983  1.4440 -1.7800 -0.3664
10575SOL     OW38070   5.262   9.221   4.319 -0.3479  0.0077 -0.5783
10575SOL    HW138071   5.312   9.171   4.383  0.2981  0.9616 -0.3211
10575SOL    HW238072   5.196   9.268   4.372  0.7854  1.5386 -0.4498
10576SOL     OW38073   1.046   5.606   9.196 -0.3017  0.1409  0.5555
10576SOL    HW138074   1.025   5.629   9.106  0.1274  0.5704  0.5619
10576SOL    HW238075   1.126   5.553   9.190 -0.6797 -0.4478  0.6292
10577SOL     OW38076   4.991   4.599   4.178  0.1754  0.4100 -0.7617
10577SOL    HW138077   5.045   4.556   4.245 -0.2096 -1.3344 -1.5101
10577SOL    HW238078   5.054   4.629   4.112  0.3840 -0.1270 -0.8185
10578SOL     OW38079   5.148   0.140   2.713  0.2331  0.2578 -0.1682
10578SOL    HW138080   5.077   0.204   2.719  0.7425  0.7100  1.4571
10578SOL    HW238081   5.115   0.063   2.760  0.0418 -0.2943 -1.1817
10579SOL     OW38082   0.917   6.702   6.928  0.0466  0.4716  0.2146
10579SOL    HW138083   0.948   6.770   6.987 -1.3677  0.7207  0.7067
10579SOL    HW238084   0.873   6.638   6.984  1.4964 -0.9867 -0.2157
10580SOL     OW38085   1.254   7.074   4.809  0.3080  0.1679  0.1308
10580SOL    HW138086   1.276   7.100   4.899  0.8385 -1.1808  0.4266
10580SOL    HW238087   1.168   7.112   4.794  0.3025  0.6038  1.1413
10581SOL     OW38088   0.582   8.253   3.512 -0.4841 -0.0120 -1.3266
10581SOL    HW138089   0.563   8.237   3.605  0.8806 -1.5392 -1.2673
10581SOL    HW238090   0.600   8.167   3.476 -0.7403  0.5972 -2.9717
10582SOL     OW38091   8.014   8.194   1.185  0.4487  0.0683 -0.6685
10582SOL    HW138092   7.929   8.207   1.143 -0.0477 -0.2984  0.2095
10582SOL    HW238093   7.996   8.137   1.259  0.9576  2.1615  1.1844
10583SOL     OW38094   8.262   0.139   7.242  0.2233 -0.1606 -0.3156
10583SOL    HW138095   8.344   0.158   7.288  0.8156 -1.0606 -0.9594
10583SOL    HW238096   8.209   0.093   7.307 -0.6498  2.2266  0.7820
10584SOL     OW38097   0.598   3.751   4.260 -0.0333  0.0858  0.0714
10584SOL    HW138098   0.652   3.673   4.246  0.9116  0.8441 -0.7019
10584SOL    HW238099   0.559   3.738   4.346  0.5661 -0.9667  0.2104
10585SOL     OW38100   7.881   4.173   3.081  0.1367 -0.4175 -0.1463
10585SOL    HW138101   7.909   4.187   2.990 -0.5678  1.7815 -0.0907
10585SOL    HW238102   7.921   4.245   3.129 -1.7804  0.1215  0.7464
10586SOL     OW38103   3.510   5.118   0.069 -0.0757  0.5110 -0.1210
10586SOL    HW138104   3.481   5.029   0.091  0.8540 -0.6104 -2.9799
10586SOL    HW238105   3.429   5.167   0.057 -0.6961 -0.7355 -1.2980
10587SOL     OW38106   6.428   7.066   9.247 -0.3190 -0.4884  0.2320
10587SOL    HW138107   6.455   7.047   9.158  0.0787 -2.7424  0.7573
10587SOL    HW238108   6.348   7.014   9.260 -0.4615 -0.0773  1.1300
10588SOL     OW38109   9.094   2.612   3.166 -0.7318  0.4011 -0.3095
10588SOL    HW138110   9.111   2.642   3.077 -1.3983  0.8194 -0.3004
10588SOL    HW238111   9.042   2.681   3.206 -1.4571 -0.3132  0.0185
10589SOL     OW38112   1.732   2.542   1.834  0.2987  0.6218  0.4478
10589SOL    HW138113   1.792   2.575   1.768  0.3908 -0.3657  0.0115
10589SOL    HW238114   1.788   2.515   1.906  0.3381  0.2448  0.2797
10590SOL     OW38115   2.239   5.370   0.420  0.0788  0.1750  0.3148
10590SOL    HW138116   2.228   5.296   0.360 -0.1538  0.7457 -0.3598
10590SOL    HW238117   2.210   5.446   0.370  0.3959  0.7388  0.9700
10591SOL     OW38118   6.734   4.924   5.923  0.1558 -0.1861  0.4465
10591SOL    HW138119   6.781   4.864   5.866  0.7753  1.4897 -0.9130
10591SOL    HW238120   6.721   4.876   6.005  0.4244 -2.1928 -0.6438
10592SOL     OW38121   2.902   4.095   2.644 -0.0457 -0.1206 -0.2850
10592SOL    HW138122   2.868   4.006   2.632  0.8883 -0.5709  0.3461
10592SOL    HW238123   2.986   4.083   2.687 -0.3528  1.1192  0.7092
10593SOL     OW38124   5.253   3.956   4.478 -0.5816  0.0821  0.5973
10593SOL    HW138125   5.265   4.009   4.556  1.4503  1.8329 -0.8059
10593SOL    HW238126   5.330   3.974   4.424 -1.2002 -2.1555 -1.2066
10594SOL     OW38127   4.509   4.798   7.257  0.4162  0.2454 -0.0500
10594SOL    HW138128   4.442   4.775   7.322  0.0148  0.8879 -0.2346
10594SOL    HW238129   4.548   4.879   7.289  1.3046 -0.2559  0.1933
10595SOL     OW38130   7.541   3.815   6.132 -0.6179 -0.4044 -0.4226
10595SOL    HW138131   7.576   3.802   6.044 -0.0526 -1.2928 -0.0789
10595SOL    HW238132   7.453   3.779   6.129 -1.3961  1.4423 -1.1726
10596SOL     OW38133   7.004   0.764   5.798  0.1188  0.1686 -0.6777
10596SOL    HW138134   6.951   0.841   5.777 -0.9651 -0.3278  0.1382
10596SOL    HW238135   6.958   0.691   5.755  0.5312 -0.1782 -0.5422
10597SOL     OW38136   7.857   9.089   5.830  0.1017 -0.1662 -0.4519
10597SOL    HW138137   7.909   9.079   5.910  0.6541 -0.3528 -0.8344
10597SOL    HW238138   7.848   9.184   5.820  0.6524 -0.1259 -0.5675
10598SOL     OW38139   3.731   0.996   1.931 -0.0542  0.0525 -0.2996
10598SOL    HW138140   3.688   0.972   2.013  1.0717 -2.1269 -0.2752
10598SOL    HW238141   3.659   1.004   1.868 -0.9078  1.5030  0.7934
10599SOL     OW38142   2.387   0.334   7.478 -0.5944  0.0940 -0.3389
10599SOL    HW138143   2.411   0.397   7.546 -1.9701  0.7575 -0.4473
10599SOL    HW238144   2.426   0.251   7.508 -1.6093  0.2378  1.5384
10600SOL     OW38145   2.794   0.720   5.243  0.2818  0.3535 -0.1390
10600SOL    HW138146   2.741   0.767   5.178 -1.9005 -0.8412  0.6765
10600SOL    HW238147   2.745   0.730   5.325  2.1348  0.4387  1.0059
10601SOL     OW38148   5.051   4.819   7.982  0.2420  0.2120  0.3281
10601SOL    HW138149   5.122   4.757   7.997 -0.3274 -1.0158 -1.7377
10601SOL    HW238150   4.971   4.769   7.999 -0.2028  1.1903  1.2697
10602SOL     OW38151   4.026   2.234   6.332 -0.8482  0.3674  0.2506
10602SOL    HW138152   3.999   2.199   6.417 -0.7136 -1.5752 -0.4493
10602SOL    HW238153   4.090   2.170   6.299  0.7436  2.1800 -0.3909
10603SOL     OW38154   5.217   8.734   2.166 -0.1237 -0.0124  0.1886
10603SOL    HW138155   5.256   8.663   2.116 -1.3577 -0.1191 -0.6875
10603SOL    HW238156   5.277   8.808   2.155  0.9682 -0.7874  0.7809
10604SOL     OW38157   7.314   0.810   0.607  0.2457 -0.3151 -0.0827
10604SOL    HW138158   7.300   0.720   0.638 -1.3733 -0.7955 -2.0569
10604SOL    HW238159   7.406   0.812   0.581  0.6961 -0.9329  1.3553
10605SOL     OW38160   0.322   8.963   2.144 -0.5676 -0.0753  0.0803
10605SOL    HW138161   0.250   8.989   2.087  0.2343  0.5356 -0.6781
10605SOL    HW238162   0.338   8.871   2.123 -0.3638  0.1087 -0.5972
10606SOL     OW38163   4.973   5.289   5.538  0.0254 -0.6826 -0.2212
10606SOL    HW138164   5.068   5.285   5.536  0.0212 -2.2059  0.7492
10606SOL    HW238165   4.950   5.361   5.479  1.7992  0.5699  0.5466
10607SOL     OW38166   4.801   6.101   3.552  0.1196  0.4224  0.5446
10607SOL    HW138167   4.740   6.085   3.480 -0.2419  0.2110  0.8940
10607SOL    HW238168   4.761   6.171   3.603  0.9353  1.3879 -0.0902
10608SOL     OW38169   8.101   4.258   1.534  0.1567 -0.4225  0.2048
10608SOL    HW138170   8.163   4.204   1.484  1.6672  0.0096  1.5239
10608SOL    HW238171   8.135   4.347   1.525 -1.3383  0.1031 -0.5315
10609SOL     OW38172   1.825   6.014   5.526 -0.3830 -0.3557 -0.3754
10609SOL    HW138173   1.876   5.956   5.582  0.1025 -0.0242 -0.4688
10609SOL    HW238174   1.739   5.972   5.520  0.4639 -2.0394 -1.9006
10610SOL     OW38175   6.772   1.811   7.204 -0.2814  0.0013 -0.2484
10610SOL    HW138176   6.681   1.841   7.204 -0.3296 -0.1328 -0.6185
10610SOL    HW238177   6.796   1.806   7.296 -0.6674 -0.0142 -0.1477
10611SOL     OW38178   1.183   5.756   8.334 -0.1955 -0.5345 -0.1527
10611SOL    HW138179   1.214   5.828   8.390  0.8117 -0.5865 -0.6288
10611SOL    HW238180   1.092   5.779   8.315  0.0783  0.5656 -0.2203
10612SOL     OW38181   8.565   8.270   7.499  0.2044  0.0531 -0.1637
10612SOL    HW138182   8.477   8.305   7.484  0.1165  0.0378  0.3128
10612SOL    HW238183   8.617   8.304   7.426  0.0385  0.8899  0.0968
10613SOL     OW38184   5.318   6.420   8.535  0.1191  0.0596 -0.1173
10613SOL    HW138185   5.306   6.480   8.609 -1.2592 -2.7381  2.1258
10613SOL    HW238186   5.395   6.367   8.560  0.4615 -0.0493 -1.3590
10614SOL     OW38187   4.927   1.636   4.395 -1.1047 -0.5626  0.2505
10614SOL    HW138188   4.952   1.562   4.451  2.3784  1.1307  1.1677
10614SOL    HW238189   4.942   1.713   4.449 -1.1832  0.9936 -1.8271
10615SOL     OW38190   7.778   5.928   2.129 -0.0026  0.6440  0.3466
10615SOL    HW138191   7.710   5.882   2.178  0.3620  1.2175  1.4091
10615SOL    HW238192   7.859   5.881   2.150  0.3648  1.6969  1.3850
10616SOL     OW38193   4.880   0.013   1.662  0.1215  0.3970  0.5942
10616SOL    HW138194   4.917  -0.067   1.625 -0.4056 -0.0746  1.0693
10616SOL    HW238195   4.952   0.077   1.658  2.4072 -1.4474  4.9317
10617SOL     OW38196   7.003   3.220   6.963 -0.0371  0.0074  0.4871
10617SOL    HW138197   7.030   3.306   6.931  2.0351 -0.4890  0.6974
10617SOL    HW238198   7.062   3.159   6.918 -0.4694 -1.1526  1.4401
10618SOL     OW38199   2.078   1.942   5.687  0.6005  0.9158 -0.1942
10618SOL    HW138200   2.143   1.906   5.748  1.2698  0.0122 -1.3853
10618SOL    HW238201   2.007   1.878   5.687  0.5729  0.9468 -0.3089
10619SOL     OW38202   4.482   2.275   4.265  0.1169  0.1124  0.1289
10619SOL    HW138203   4.461   2.348   4.206  1.0042  0.9294  0.7862
10619SOL    HW238204   4.560   2.235   4.227  1.7411  1.7049  1.5725
10620SOL     OW38205   7.607   0.028   0.694 -0.0939  0.4856 -0.1178
10620SOL    HW138206   7.550   0.070   0.630 -0.5358 -0.0973 -0.1116
10620SOL    HW238207   7.676   0.093   0.711 -0.3792  0.9283 -0.6276
10621SOL     OW38208   2.808   7.597   7.098 -1.0736  0.0367  0.7415
10621SOL    HW138209   2.742   7.553   7.152 -0.7833  0.1673  1.2056
10621SOL    HW238210   2.757   7.648   7.034 -1.4164 -0.1261  0.8819
10622SOL     OW38211   0.241   8.399   6.425  0.0797  0.3816  0.6790
10622SOL    HW138212   0.152   8.386   6.393  0.0280 -0.3284  1.0908
10622SOL    HW238213   0.288   8.321   6.398  0.4259  0.4761  1.0027
10623SOL     OW38214   2.897   8.145   7.737  0.1866 -0.1004 -0.8794
10623SOL    HW138215   2.820   8.155   7.682  0.1908 -1.5299 -1.1768
10623SOL    HW238216   2.964   8.109   7.679 -0.1747 -2.8904  0.2443
10624SOL     OW38217   2.231   3.653   2.661 -0.2629 -0.2562  0.2731
10624SOL    HW138218   2.215   3.747   2.674  1.4200  0.4030 -1.8270
10624SOL    HW238219   2.201   3.636   2.571  1.9163 -1.0791 -0.3437
10625SOL     OW38220   3.752   2.242   3.553 -0.6707 -0.6100 -0.4501
10625SOL    HW138221   3.701   2.316   3.519 -2.5242 -0.3400  2.6120
10625SOL    HW238222   3.703   2.164   3.525 -2.2078 -0.3894  1.4705
10626SOL     OW38223   6.090   1.570   0.503 -0.1735 -0.5410 -0.2004
10626SOL    HW138224   6.049   1.650   0.471  0.7894  0.4780  1.0019
10626SOL    HW238225   6.021   1.525   0.552 -1.3011 -1.5039 -2.5529
10627SOL     OW38226   0.546   3.523   5.207  0.1840  0.4220 -0.2397
10627SOL    HW138227   0.461   3.540   5.166  0.6130 -0.0535 -1.3791
10627SOL    HW238228   0.610   3.546   5.140  0.8749 -1.7678 -0.4175
10628SOL     OW38229   8.173   3.977   7.299  0.1558  0.2583 -0.1522
10628SOL    HW138230   8.222   3.992   7.380  0.9095 -1.1223 -0.3264
10628SOL    HW238231   8.172   3.882   7.288 -2.4575  0.2262 -0.2601
10629SOL     OW38232   5.539   0.079   2.978  0.3597 -0.1168 -0.7725
10629SOL    HW138233   5.533  -0.015   2.963  2.7486 -0.2771 -1.2248
10629SOL    HW238234   5.516   0.119   2.894  0.3238 -0.3662 -0.8799
10630SOL     OW38235   7.754   1.005   3.309 -0.2777 -0.4322 -0.4290
10630SOL    HW138236   7.821   0.965   3.254 -0.0152 -0.2311 -0.2514
10630SOL    HW238237   7.746   1.095   3.277 -0.7663 -0.5769 -0.7319
10631SOL     OW38238   1.428   2.397   2.456  0.5186 -0.0768  0.0024
10631SOL    HW138239   1.334   2.412   2.440  0.4438 -1.7786 -1.5538
10631SOL    HW238240   1.431   2.324   2.517  0.6790 -2.7298 -2.9033
10632SOL     OW38241   8.528   7.496   2.698  0.0199 -0.2861 -0.1892
10632SOL    HW138242   8.525   7.533   2.786  1.3195 -0.3039 -0.1130
10632SOL    HW238243   8.474   7.418   2.702 -0.5388  0.1305  0.3856
10633SOL     OW38244   5.672   8.708   6.928  0.5511  0.0229 -0.3759
10633SOL    HW138245   5.625   8.728   7.009  0.6563  1.8274 -0.7243
10633SOL    HW238246   5.659   8.614   6.915 -0.6323 -0.0299  0.9856
10634SOL     OW38247   0.585   7.890   8.062  0.3569  0.1269 -0.7998
10634SOL    HW138248   0.500   7.848   8.076  1.1337 -0.9550  1.0221
10634SOL    HW238249   0.646   7.818   8.051  1.1122  0.8887 -1.7957
10635SOL     OW38250   5.461   0.188   3.584  0.2438 -0.1046 -0.1050
10635SOL    HW138251   5.429   0.266   3.540  0.7774  0.4289  0.4340
10635SOL    HW238252   5.415   0.188   3.669  0.7168 -0.0233  0.1550
10636SOL     OW38253   2.665   7.156   2.491 -0.2116  0.3581  0.0761
10636SOL    HW138254   2.679   7.143   2.585  0.9314  1.3602  0.0848
10636SOL    HW238255   2.691   7.247   2.476 -4.3272  1.6082 -0.5231
10637SOL     OW38256   0.665   1.650   1.279 -0.1557  0.5065 -0.0097
10637SOL    HW138257   0.728   1.609   1.338  0.0666  1.3521  0.3583
10637SOL    HW238258   0.585   1.658   1.331 -0.1418  0.7058 -0.0188
10638SOL     OW38259   8.738   3.793   8.609  0.2735  0.0560  0.4081
10638SOL    HW138260   8.763   3.747   8.689  0.7005 -0.8340 -0.2289
10638SOL    HW238261   8.735   3.885   8.635  3.3478  0.1603  0.7830
10639SOL     OW38262   5.133   0.400   3.247 -0.2987  0.3540 -0.0686
10639SOL    HW138263   5.125   0.493   3.224 -0.4189  0.4184  0.2299
10639SOL    HW238264   5.079   0.354   3.183  0.4950  0.4098 -0.7896
10640SOL     OW38265   0.479   6.944   1.626  0.1206 -0.1687 -0.1341
10640SOL    HW138266   0.483   6.924   1.720 -0.4265 -1.6421 -0.3847
10640SOL    HW238267   0.539   7.017   1.614  1.6064 -1.1311  1.0799
10641SOL     OW38268   7.787   3.095   1.778  0.3943 -0.2553 -0.6065
10641SOL    HW138269   7.807   3.111   1.870 -0.6725  0.6964 -0.5178
10641SOL    HW238270   7.873   3.081   1.737  0.9673  0.3788  0.3331
10642SOL     OW38271   6.500   1.932   7.089 -0.0123 -0.4038 -0.3978
10642SOL    HW138272   6.448   1.940   7.009 -0.6533  0.7984  0.1082
10642SOL    HW238273   6.561   2.006   7.085  2.2440 -2.1762 -1.3293
10643SOL     OW38274   5.139   2.054   4.868  0.0290 -0.8551  0.2825
10643SOL    HW138275   5.051   2.017   4.858  0.3513 -1.5809  0.0816
10643SOL    HW238276   5.195   1.996   4.817  0.3193  0.8396 -1.4420
10644SOL     OW38277   0.044   8.701   7.277  0.2671  0.2483 -0.3821
10644SOL    HW138278   0.023   8.772   7.338  0.0469 -0.5763  0.5347
10644SOL    HW238279   0.138   8.708   7.264  0.0889  1.4335 -1.2573
10645SOL     OW38280   1.839   6.572   3.853 -0.6035 -0.1324  0.6414
10645SOL    HW138281   1.861   6.596   3.763 -0.2148  0.6108  0.9341
10645SOL    HW238282   1.832   6.655   3.900 -2.0496 -0.4527  1.0195
10646SOL     OW38283   2.736   2.152   8.747  0.6019  0.6475 -0.5627
10646SOL    HW138284   2.775   2.236   8.724  0.2358  0.9163 -0.2104
10646SOL    HW238285   2.694   2.167   8.831  1.3066 -0.1317 -0.0530
10647SOL     OW38286   6.731   6.965   0.919  0.1331  0.1201 -0.0020
10647SOL    HW138287   6.820   6.950   0.950 -0.5743 -1.4327  1.4922
10647SOL    HW238288   6.736   6.954   0.824  1.4862 -0.1749  0.0898
10648SOL     OW38289   4.791   4.544   0.550  0.4726 -0.1640 -0.0381
10648SOL    HW138290   4.854   4.472   0.552 -0.0652 -0.6167  1.1175
10648SOL    HW238291   4.750   4.543   0.637  0.9725  1.9983  0.2763
10649SOL     OW38292   8.892   6.147   4.566 -0.1246 -0.5106 -0.4791
10649SOL    HW138293   8.876   6.053   4.569 -0.5791 -0.4170  1.5411
10649SOL    HW238294   8.984   6.155   4.540 -0.5041 -1.4218 -2.2423
10650SOL     OW38295   3.712   4.640   8.910 -0.6607  0.0867 -0.1220
10650SOL    HW138296   3.616   4.644   8.914 -0.6641 -0.2441  2.5608
10650SOL    HW238297   3.739   4.731   8.903 -1.1581  0.1838 -0.9271
10651SOL     OW38298   5.704   3.513   7.994 -0.1561 -1.0231  0.0500
10651SOL    HW138299   5.738   3.591   8.037 -1.1751 -0.8984  0.6763
10651SOL    HW238300   5.777   3.451   7.994  0.0502 -0.8126  1.4476
10652SOL     OW38301   2.121   4.015   2.399 -0.1603 -0.6297  0.4923
10652SOL    HW138302   2.099   3.953   2.469  0.8179 -1.3086  0.2250
10652SOL    HW238303   2.144   4.095   2.445 -2.0518 -0.2153  0.8227
10653SOL     OW38304   3.628   6.629   5.914 -0.9598 -0.3267 -0.1760
10653SOL    HW138305   3.629   6.724   5.905 -0.1822 -0.2276  0.7434
10653SOL    HW238306   3.615   6.614   6.008  0.3504 -1.0822 -0.0837
10654SOL     OW38307   0.904   3.904   5.862 -0.1897  0.0888  0.0561
10654SOL    HW138308   0.959   3.895   5.784  1.4759 -0.6370  1.2524
10654SOL    HW238309   0.846   3.978   5.842  1.2277  0.9114 -1.2707
10655SOL     OW38310   4.014   8.744   4.352  0.1668 -0.1130 -0.1618
10655SOL    HW138311   3.946   8.679   4.372  0.1431 -0.9592 -2.6855
10655SOL    HW238312   4.081   8.729   4.419 -0.2240 -2.2054 -0.1680
10656SOL     OW38313   2.166   8.021   0.360 -0.0827  0.5469 -0.5262
10656SOL    HW138314   2.096   7.960   0.385 -0.8699  0.5397 -2.5438
10656SOL    HW238315   2.240   7.997   0.415 -0.1260 -2.7607 -1.6948
10657SOL     OW38316   2.310   0.897   6.686 -0.1129 -0.1487 -0.6887
10657SOL    HW138317   2.317   0.834   6.614  0.3120  0.7935 -1.4914
10657SOL    HW238318   2.220   0.928   6.683  0.1944  0.7078 -1.5421
10658SOL     OW38319   1.868   4.149   1.977  0.0088 -0.1271 -0.2503
10658SOL    HW138320   1.882   4.201   2.056 -0.0379 -1.7738  0.9151
10658SOL    HW238321   1.951   4.104   1.963 -1.0457 -2.7339  1.1510
10659SOL     OW38322   8.516   3.820   2.971 -0.3904  0.3120  0.0468
10659SOL    HW138323   8.578   3.891   2.990 -0.2447  0.2287 -0.1156
10659SOL    HW238324   8.482   3.794   3.057 -0.6974  0.8078  0.0800
10660SOL     OW38325   0.525   6.686   0.927 -0.5228  0.7687  0.1603
10660SOL    HW138326   0.562   6.606   0.889 -2.0088 -0.0114  0.2961
10660SOL    HW238327   0.600   6.744   0.938  0.4604 -0.2978 -0.7143
10661SOL     OW38328   2.394   2.966   3.009 -0.2186 -0.3507  0.4100
10661SOL    HW138329   2.362   3.056   3.012  2.1849  0.7255 -2.0760
10661SOL    HW238330   2.362   2.932   2.926  1.0161 -0.8589  0.1145
10662SOL     OW38331   6.338   9.147   1.260  1.1283 -0.7722  0.1846
10662SOL    HW138332   6.339   9.222   1.320 -0.9581 -1.0096  0.5678
10662SOL    HW238333   6.380   9.179   1.181  1.6590  0.3185  0.8831
10663SOL     OW38334   1.508   0.687   0.207 -0.0886  0.4394 -0.3935
10663SOL    HW138335   1.444   0.638   0.155 -1.8485  1.2734  0.8905
10663SOL    HW238336   1.519   0.769   0.160 -0.0632  0.3521 -0.5410
10664SOL     OW38337   3.789   0.028   8.636 -0.0397 -0.7734 -0.1826
10664SOL    HW138338   3.817   0.069   8.555  0.3277  0.8442  0.7162
10664SOL    HW238339   3.745   0.098   8.684  3.2648 -0.4111  2.7480
10665SOL     OW38340   4.946   9.037   6.548  0.1940 -0.5218  0.3216
10665SOL    HW138341   4.909   9.018   6.462 -1.2931  1.9308  0.3265
10665SOL    HW238342   4.938   8.955   6.596  0.8148 -1.8626 -1.7654
10666SOL     OW38343   1.544   8.265   5.342  0.6059 -0.3030 -0.0033
10666SOL    HW138344   1.594   8.346   5.353  0.4381 -0.1872 -0.0866
10666SOL    HW238345   1.550   8.246   5.248  0.4101 -0.2364 -0.0280
10667SOL     OW38346   4.537   0.094   0.058 -0.5302 -0.2637  0.4796
10667SOL    HW138347   4.492   0.014   0.085 -1.1307 -0.6168 -1.3820
10667SOL    HW238348   4.629   0.067   0.046 -0.8212 -0.8458 -0.6350
10668SOL     OW38349   7.754   7.060   0.655 -0.2444 -0.2084  0.1974
10668SOL    HW138350   7.739   7.008   0.733  1.7702  0.0445  0.8236
10668SOL    HW238351   7.757   7.150   0.686  2.7538 -0.2452  0.3072
10669SOL     OW38352   4.953   6.881   8.127 -0.1935  0.4363  0.2333
10669SOL    HW138353   4.871   6.925   8.105 -0.9315 -0.3592  1.3432
10669SOL    HW238354   4.999   6.874   8.043 -1.4029  0.5695 -0.4598
10670SOL     OW38355   3.440   2.462   5.425 -0.0709  0.2820  0.0090
10670SOL    HW138356   3.374   2.482   5.492  1.1561 -0.0507  1.3522
10670SOL    HW238357   3.446   2.367   5.424  0.7177  0.3233  0.2350
10671SOL     OW38358   7.699   3.404   4.390 -0.0009 -0.2530 -0.1306
10671SOL    HW138359   7.707   3.460   4.467 -0.4129  0.1493 -0.3761
10671SOL    HW238360   7.605   3.391   4.379  0.1118 -1.5282  0.2974
10672SOL     OW38361   6.765   2.718   3.922  0.1026  0.0550  0.1031
10672SOL    HW138362   6.811   2.729   3.839  1.2740 -0.6313  0.6461
10672SOL    HW238363   6.820   2.660   3.973 -0.0636  1.2872  1.7787
10673SOL     OW38364   2.539   1.417   6.975  0.1625 -0.1611 -0.2782
10673SOL    HW138365   2.522   1.505   7.009  3.0606 -0.1450  1.5370
10673SOL    HW238366   2.527   1.359   7.050  1.0595 -0.9350 -0.7075
10674SOL     OW38367   8.574   8.004   0.105  0.1177 -0.4871 -0.0815
10674SOL    HW138368   8.530   8.004   0.190  1.1019  0.5114  0.4453
10674SOL    HW238369   8.657   7.960   0.120  0.1294 -0.6615 -0.6256
10675SOL     OW38370   6.770   3.351   5.322 -0.3306  0.1484 -0.8642
10675SOL    HW138371   6.845   3.363   5.264  0.9016  1.8104  0.9097
10675SOL    HW238372   6.784   3.265   5.362  0.0959  0.0205 -1.2820
10676SOL     OW38373   2.554   3.230   7.894 -0.7823 -0.4621 -0.3117
10676SOL    HW138374   2.586   3.140   7.885 -1.5336 -0.8663  0.7688
10676SOL    HW238375   2.632   3.283   7.907 -0.4200 -1.1932  0.6302
10677SOL     OW38376   3.453   5.285   2.475  0.3047  0.3129 -0.0156
10677SOL    HW138377   3.408   5.203   2.454  1.0807 -0.2952  0.6631
10677SOL    HW238378   3.546   5.263   2.476  0.7013  1.6667 -1.8902
10678SOL     OW38379   7.917   7.691   3.216 -0.2320 -0.6505  0.3683
10678SOL    HW138380   7.845   7.653   3.266  0.3803 -0.0438  1.7965
10678SOL    HW238381   7.878   7.718   3.133 -1.5606 -0.6737  0.9546
10679SOL     OW38382   4.118   8.200   3.768  0.6600  0.2393 -0.4815
10679SOL    HW138383   4.160   8.135   3.825  0.9764  0.2117 -0.7420
10679SOL    HW238384   4.027   8.172   3.763  1.1626 -1.2976 -2.1197
10680SOL     OW38385   8.178   2.848   5.681  0.1645 -0.4937  0.2585
10680SOL    HW138386   8.108   2.789   5.709 -0.4375 -0.1262 -0.4377
10680SOL    HW238387   8.166   2.926   5.734 -0.9100  0.1616 -0.9094
10681SOL     OW38388   2.204   6.058   1.663 -0.6736  0.3242 -0.1013
10681SOL    HW138389   2.149   6.085   1.589 -0.2861 -0.0496 -0.5316
10681SOL    HW238390   2.142   6.016   1.724 -0.9625  0.4430 -0.3084
10682SOL     OW38391   6.790   6.512   7.530  0.0244 -0.4179  0.6366
10682SOL    HW138392   6.697   6.492   7.517 -0.0825  0.4684 -0.0129
10682SOL    HW238393   6.792   6.601   7.565  0.6791  0.2799 -1.0382
10683SOL     OW38394   8.192   7.036   7.865  0.3020 -0.1854 -0.4201
10683SOL    HW138395   8.230   6.955   7.901 -1.7339 -0.7142  0.7246
10683SOL    HW238396   8.179   7.017   7.772 -2.1913 -2.1260  0.2102
10684SOL     OW38397   6.543   1.610   5.506  0.7206  0.0844  0.3562
10684SOL    HW138398   6.556   1.686   5.564 -0.8650  1.6444 -1.1795
10684SOL    HW238399   6.623   1.559   5.515  1.9467  2.0356  1.3403
10685SOL     OW38400   7.757   8.711   2.107  0.4982  0.4194  0.4645
10685SOL    HW138401   7.694   8.773   2.143  1.3312  1.1624  0.6636
10685SOL    HW238402   7.834   8.764   2.086  0.9085 -0.4058 -0.1557
10686SOL     OW38403   9.163   7.707   0.792 -0.0015 -0.4478 -0.0896
10686SOL    HW138404   9.156   7.641   0.861 -0.0635 -0.5888 -0.2290
10686SOL    HW238405   9.102   7.677   0.725 -0.9124  0.3736  0.3496
10687SOL     OW38406   4.224   3.607   0.627  0.5501  0.3697 -0.4361
10687SOL    HW138407   4.261   3.603   0.716 -1.8185 -1.0434  0.5737
10687SOL    HW238408   4.255   3.691   0.593  1.7771  0.8342  1.6134
10688SOL     OW38409   6.735   1.682   0.731  0.0689 -0.4155  0.0779
10688SOL    HW138410   6.641   1.675   0.746 -0.2099  2.9058  0.6453
10688SOL    HW238411   6.743   1.692   0.636 -0.1270 -0.8105  0.0171
10689SOL     OW38412   7.716   1.438   8.879  0.6872 -0.1937  0.4083
10689SOL    HW138413   7.634   1.393   8.897 -0.0796  1.3668  1.0342
10689SOL    HW238414   7.751   1.395   8.801 -1.3099 -0.1595 -0.5713
10690SOL     OW38415   7.943   7.941   6.589  0.2174 -0.0373  0.0371
10690SOL    HW138416   7.998   8.014   6.560  0.6602 -0.7716 -1.0230
10690SOL    HW238417   7.919   7.963   6.679  0.7493  1.1728 -0.1009
10691SOL     OW38418   7.030   7.053   3.407 -0.1797 -0.2981  0.8833
10691SOL    HW138419   7.006   6.960   3.400 -0.4296 -0.2715  1.3516
10691SOL    HW238420   6.955   7.094   3.450 -0.1417  0.1559  0.5246
10692SOL     OW38421   0.105   8.146   8.820 -0.3815  0.3209  0.1660
10692SOL    HW138422   0.182   8.181   8.774 -0.7265  3.2406  1.5583
10692SOL    HW238423   0.037   8.143   8.753 -0.0883  1.6403 -0.2262
10693SOL     OW38424   7.766   9.021   1.337 -0.1993 -0.0626  0.2668
10693SOL    HW138425   7.839   8.962   1.322 -1.1948 -0.8986 -1.6260
10693SOL    HW238426   7.805   9.099   1.377  1.4993 -0.9873  0.4725
10694SOL     OW38427   8.731   1.572   5.352  0.4415 -0.2189 -1.0225
10694SOL    HW138428   8.765   1.559   5.440 -0.5164  1.7244 -0.3149
10694SOL    HW238429   8.777   1.649   5.319  0.9140 -1.0181 -2.3289
10695SOL     OW38430   6.950   7.336   1.942  0.0103 -0.6068 -0.3374
10695SOL    HW138431   6.956   7.261   1.882  1.2562  0.7181 -1.9357
10695SOL    HW238432   6.909   7.405   1.891 -0.0072  0.2088  0.7392
10696SOL     OW38433   0.486   2.566   8.211  0.0343 -0.0838  0.2422
10696SOL    HW138434   0.533   2.614   8.142  0.9061  0.5871  1.2704
10696SOL    HW238435   0.520   2.477   8.206 -0.1143 -0.1126 -0.3660
10697SOL     OW38436   2.896   1.187   1.153  0.0846  0.1347  0.3261
10697SOL    HW138437   2.834   1.247   1.194  0.0607  0.1987  0.1968
10697SOL    HW238438   2.980   1.232   1.159 -0.3160  1.4259 -2.1502
10698SOL     OW38439   8.188   9.003   8.090  0.3222  0.8312 -0.3071
10698SOL    HW138440   8.172   8.941   8.019 -0.5613 -0.4875  0.9934
10698SOL    HW238441   8.257   9.060   8.056 -1.3032  1.4219 -2.9084
10699SOL     OW38442   5.127   9.246   5.483  0.0542 -0.1136 -0.3352
10699SOL    HW138443   5.153   9.311   5.548  1.7152 -1.2503  0.2074
10699SOL    HW238444   5.070   9.293   5.422  0.1838  1.5031  0.7508
10700SOL     OW38445   3.227   3.576   1.342 -0.6800 -0.0440  0.4225
10700SOL    HW138446   3.226   3.512   1.414  0.2166 -1.1477 -0.5001
10700SOL    HW238447   3.213   3.660   1.385  1.4872 -0.4549  2.1505
10701SOL     OW38448   7.446   3.930   0.715 -0.4876 -0.4308  0.1700
10701SOL    HW138449   7.522   3.941   0.657  1.5671  1.4849  2.9481
10701SOL    HW238450   7.459   3.844   0.756 -1.3555 -1.2950 -1.2676
10702SOL     OW38451   7.869   2.270   3.738  0.1081 -0.6267 -0.2980
10702SOL    HW138452   7.897   2.335   3.674  1.9961  0.7386  1.8008
10702SOL    HW238453   7.945   2.214   3.751 -0.5557 -1.4798  0.0792
10703SOL     OW38454   4.483   0.721   8.182 -0.0184  0.6233  0.4186
10703SOL    HW138455   4.486   0.801   8.129  0.2160  0.6565  0.4822
10703SOL    HW238456   4.460   0.751   8.269  0.5034  0.6717  0.5418
10704SOL     OW38457   5.698   3.880   4.087 -0.2786  0.2699  0.2317
10704SOL    HW138458   5.755   3.891   4.012 -0.0051 -0.0424  0.3879
10704SOL    HW238459   5.723   3.794   4.123 -2.4376 -0.9994 -1.0739
10705SOL     OW38460   2.563   1.496   8.526  0.9580  0.3543  0.0694
10705SOL    HW138461   2.489   1.553   8.504  0.8584  0.2245  0.0678
10705SOL    HW238462   2.640   1.546   8.500  0.8108 -0.3104 -1.7994
10706SOL     OW38463   7.723   7.368   7.263  0.5778  0.1801  0.2355
10706SOL    HW138464   7.683   7.321   7.189 -0.6139  1.3711  0.0992
10706SOL    HW238465   7.669   7.345   7.338 -1.1674  2.6716 -0.1450
10707SOL     OW38466   8.676   0.678   0.353 -0.5824  0.3773  0.1192
10707SOL    HW138467   8.615   0.717   0.415 -0.3782  0.2947  0.3721
10707SOL    HW238468   8.743   0.746   0.340 -0.8529  0.5587 -0.3374
10708SOL     OW38469   5.837   9.161   2.787  0.1626 -0.7926 -0.0668
10708SOL    HW138470   5.870   9.233   2.840 -0.3869  0.1193 -0.9249
10708SOL    HW238471   5.804   9.097   2.850  0.1645 -0.0540  0.6882
10709SOL     OW38472   5.073   2.369   4.351  0.0251 -0.1687  0.2042
10709SOL    HW138473   5.041   2.328   4.430 -0.0182 -0.2252  0.1574
10709SOL    HW238474   5.041   2.460   4.356  0.2299 -0.1076  0.3672
10710SOL     OW38475   4.062   9.021   4.988 -0.3151 -0.4757  0.2825
10710SOL    HW138476   4.008   9.016   5.067  0.7061  0.0587  1.0484
10710SOL    HW238477   4.057   9.113   4.961  0.9051 -0.1923  0.9081
10711SOL     OW38478   2.373   8.915   1.422 -0.0315  0.6482 -0.2951
10711SOL    HW138479   2.392   8.989   1.480  0.1700  1.3180 -1.2003
10711SOL    HW238480   2.427   8.930   1.345 -0.4383 -0.1321 -0.7417
10712SOL     OW38481   3.920   6.778   9.211 -0.0922 -0.2585  0.2167
10712SOL    HW138482   3.884   6.693   9.187 -0.9635 -0.3713  1.7741
10712SOL    HW238483   3.843   6.833   9.227  0.4163  0.1105  1.5403
10713SOL     OW38484   1.683   4.934   5.176  0.8105  0.2790  0.1980
10713SOL    HW138485   1.639   4.850   5.167  3.7900 -1.8910  3.5051
10713SOL    HW238486   1.639   4.976   5.251  0.7711  0.6727 -0.0418
10714SOL     OW38487   5.929   8.819   5.808  0.0405 -0.3900  0.2953
10714SOL    HW138488   5.856   8.837   5.748  0.4593 -0.9532 -0.3930
10714SOL    HW238489   5.951   8.727   5.792  0.5433 -0.3842  0.9022
10715SOL     OW38490   5.207   1.315   5.807  0.5198 -0.1630  0.5153
10715SOL    HW138491   5.244   1.265   5.880  0.4816 -1.2791 -0.2115
10715SOL    HW238492   5.170   1.393   5.849 -1.7320 -1.9171  2.0657
10716SOL     OW38493   1.275   7.119   7.102 -0.3555 -0.3243 -0.2648
10716SOL    HW138494   1.184   7.121   7.072 -0.5983 -1.5651  0.3259
10716SOL    HW238495   1.269   7.100   7.195  0.5313 -0.8616 -0.3073
10717SOL     OW38496   3.414   7.265   5.690  0.1668 -0.2728 -0.1523
10717SOL    HW138497   3.416   7.256   5.595  0.1553  0.6781 -0.2517
10717SOL    HW238498   3.324   7.243   5.715 -0.1282  0.5309 -0.4821
10718SOL     OW38499   5.671   2.323   5.953  0.1946 -0.2078  0.0549
10718SOL    HW138500   5.744   2.263   5.942 -1.4084 -2.2122 -0.4596
10718SOL    HW238501   5.635   2.302   6.039  1.0670  1.8130  0.9695
10719SOL     OW38502   8.547   1.461   7.280  0.0766  0.3801 -0.3440
10719SOL    HW138503   8.544   1.556   7.273  1.7298  0.6081  1.3013
10719SOL    HW238504   8.639   1.440   7.291 -0.3980 -1.2588  0.9713
10720SOL     OW38505   5.150   2.892   0.759 -0.1075  0.5043  0.3781
10720SOL    HW138506   5.072   2.855   0.719 -0.0015  0.1124  0.5206
10720SOL    HW238507   5.222   2.841   0.722  0.0234  0.4154  0.7513
10721SOL     OW38508   2.521   2.600   5.915  0.1503 -0.3526  0.6809
10721SOL    HW138509   2.606   2.571   5.882  0.8046  0.7384  1.3218
10721SOL    HW238510   2.487   2.658   5.847  0.0086 -0.6427  0.5056
10722SOL     OW38511   8.677   7.615   1.823  0.1649 -0.2959 -0.8630
10722SOL    HW138512   8.720   7.700   1.816  0.8000 -0.6667 -1.5853
10722SOL    HW238513   8.731   7.556   1.770 -0.2168 -1.1699 -0.3049
10723SOL     OW38514   8.838   0.607   2.755  0.1272 -0.1937 -0.1291
10723SOL    HW138515   8.800   0.558   2.682 -0.9470  0.8147 -0.2961
10723SOL    HW238516   8.847   0.543   2.825 -1.0739 -0.6857 -0.3904
10724SOL     OW38517   8.620   7.249   1.503  0.0685  0.0461 -0.1494
10724SOL    HW138518   8.583   7.172   1.546 -0.2410  0.0799 -0.3491
10724SOL    HW238519   8.662   7.215   1.424  0.0218  0.0688 -0.1842
10725SOL     OW38520   6.987   3.899   0.506 -0.1219  0.1808  0.9839
10725SOL    HW138521   6.987   3.917   0.600 -0.7344  1.4101  0.7615
10725SOL    HW238522   6.897   3.875   0.486  0.1313 -0.6532  0.7967
10726SOL     OW38523   8.748   5.935   6.757  0.7154 -0.0705 -0.1413
10726SOL    HW138524   8.690   6.009   6.741 -0.5888 -0.7747  1.0508
10726SOL    HW238525   8.830   5.975   6.784  0.7911  0.9534 -1.7466
10727SOL     OW38526   4.114   2.684   6.467 -0.1839  0.1814  0.2474
10727SOL    HW138527   4.096   2.778   6.463 -0.4098  0.1576  0.6483
10727SOL    HW238528   4.053   2.651   6.533  1.6920  0.1610  2.0478
10728SOL     OW38529   5.547   4.834   8.922 -0.9180 -0.3093  0.9746
10728SOL    HW138530   5.534   4.740   8.935 -2.5844 -0.2522 -0.0197
10728SOL    HW238531   5.475   4.861   8.864  0.8556  1.1259 -0.7176
10729SOL     OW38532   2.179   1.132   3.553  0.4674  0.0827  0.2718
10729SOL    HW138533   2.085   1.143   3.561  0.6825  1.8075  0.9079
10729SOL    HW238534   2.205   1.187   3.479  1.0483  0.0961  0.4744
10730SOL     OW38535   6.790   7.528   1.334  0.4138 -0.6171  0.3002
10730SOL    HW138536   6.770   7.450   1.386 -0.6324 -0.5880 -0.0478
10730SOL    HW238537   6.711   7.581   1.338  0.6656 -0.1594 -0.5232
10731SOL     OW38538   2.406   5.552   9.132  0.3595  0.4589  0.1199
10731SOL    HW138539   2.395   5.564   9.227  1.8357 -2.4907  0.7894
10731SOL    HW238540   2.476   5.613   9.109  0.8203  0.3687  1.2014
10732SOL     OW38541   8.937   7.076   3.592 -0.0356 -0.4921  0.1928
10732SOL    HW138542   8.903   7.127   3.518 -0.1487 -0.3604  0.3355
10732SOL    HW238543   9.019   7.121   3.615  0.6702 -1.2824 -0.6703
10733SOL     OW38544   6.601   2.061   2.298  0.1936  0.5107  0.0051
10733SOL    HW138545   6.627   2.110   2.376 -2.7872 -0.0615  1.5209
10733SOL    HW238546   6.618   1.970   2.320 -2.2334  0.1776  0.8149
10734SOL     OW38547   1.235   0.960   0.296 -0.0673  0.1159  0.1637
10734SOL    HW138548   1.216   0.919   0.381  1.7081  0.4682  0.7718
10734SOL    HW238549   1.292   1.034   0.317 -1.1449  1.3847 -1.1732
10735SOL     OW38550   6.188   5.064   6.336  0.4499  0.6627  0.3877
10735SOL    HW138551   6.283   5.062   6.346  0.5344 -0.7182 -0.4198
10735SOL    HW238552   6.174   5.084   6.243 -0.0411  0.3106  0.3825
10736SOL     OW38553   6.991   8.746   0.713 -0.7736 -0.2824 -0.6313
10736SOL    HW138554   6.905   8.783   0.732 -0.1332  0.7619  0.3702
10736SOL    HW238555   7.014   8.782   0.627 -0.0432  1.9652  0.4433
10737SOL     OW38556   1.844   9.175   6.030  0.2236 -0.1495  0.3986
10737SOL    HW138557   1.771   9.178   6.092 -0.9802 -2.4285 -0.7646
10737SOL    HW238558   1.844   9.085   5.998  2.3311  0.3187 -1.1136
10738SOL     OW38559   2.029   5.329   1.523 -0.0048 -0.0423 -0.8378
10738SOL    HW138560   1.975   5.332   1.602  0.7777 -1.0711 -0.2411
10738SOL    HW238561   2.078   5.411   1.524  0.1752 -0.1483 -0.1181
10739SOL     OW38562   2.545   3.187   6.188  0.1530 -0.1183  0.0908
10739SOL    HW138563   2.563   3.104   6.233  0.0331 -0.5402 -0.6241
10739SOL    HW238564   2.470   3.223   6.235  1.6411  0.7607  1.9237
10740SOL     OW38565   4.962   9.243   0.070 -0.1066  0.1555 -0.2683
10740SOL    HW138566   4.899   9.191   0.019 -0.2132  0.1927 -0.1744
10740SOL    HW238567   4.983   9.317   0.013  0.0634 -0.0006 -0.4120
10741SOL     OW38568   4.847   1.426   4.938 -0.6883 -0.5530  0.2208
10741SOL    HW138569   4.760   1.422   4.980 -0.1126  0.0798  1.5288
10741SOL    HW238570   4.864   1.519   4.927 -1.0297 -0.7036 -1.9637
10742SOL     OW38571   2.393   2.308   1.080 -0.2844  0.2594 -0.1988
10742SOL    HW138572   2.397   2.384   1.137 -1.2610 -0.5796  1.0439
10742SOL    HW238573   2.474   2.312   1.028  1.6160  0.0857  2.5166
10743SOL     OW38574   2.235   7.992   7.228  0.1986 -1.1363 -0.1291
10743SOL    HW138575   2.243   7.916   7.286 -1.7425  0.4475  2.4403
10743SOL    HW238576   2.274   8.064   7.278 -2.0888  0.4244 -0.4492
10744SOL     OW38577   4.646   5.590   3.642  0.3103  0.4706 -0.1692
10744SOL    HW138578   4.586   5.577   3.716  0.3433  0.7077 -0.1006
10744SOL    HW238579   4.590   5.625   3.573  0.1704 -0.2690 -0.4382
10745SOL     OW38580   7.863   2.649   1.068  0.0192  0.5323 -0.4479
10745SOL    HW138581   7.790   2.635   1.007 -3.0229 -1.7788  3.2337
10745SOL    HW238582   7.846   2.735   1.106 -0.9654 -0.0259  0.4465
10746SOL     OW38583   5.830   2.270   4.056 -0.3414  0.0528 -0.0575
10746SOL    HW138584   5.898   2.202   4.051 -1.1544 -0.7884 -0.0435
10746SOL    HW238585   5.853   2.332   3.987  1.0085  0.3408  0.6087
10747SOL     OW38586   8.956   4.934   4.019 -0.0994 -0.3762 -0.5040
10747SOL    HW138587   8.927   4.895   3.936  0.2093 -1.3289 -0.1685
10747SOL    HW238588   9.043   4.897   4.034  0.0986  0.2607 -0.0558
10748SOL     OW38589   3.845   1.721   0.817 -0.0299 -0.1079  0.8276
10748SOL    HW138590   3.833   1.685   0.905  0.2174  1.2649  1.4413
10748SOL    HW238591   3.765   1.771   0.800  0.2953  0.3468  0.6225
10749SOL     OW38592   2.159   0.375   1.829 -0.3500  0.1363 -0.0446
10749SOL    HW138593   2.100   0.322   1.884 -1.8823  0.3768 -1.3641
10749SOL    HW238594   2.129   0.465   1.843 -1.4769  0.1175 -2.0012
10750SOL     OW38595   5.110   7.755   2.335 -0.1705  0.2364 -0.2048
10750SOL    HW138596   5.181   7.820   2.333 -0.0290  0.0884 -0.0545
10750SOL    HW238597   5.098   7.736   2.428 -1.5982  1.5481 -0.0800
10751SOL     OW38598   6.883   3.705   3.752 -0.2129 -0.0565  0.1791
10751SOL    HW138599   6.893   3.678   3.661  0.1544 -0.2637  0.2810
10751SOL    HW238600   6.906   3.628   3.803  2.6593  0.8931  0.5171
10752SOL     OW38601   3.074   0.034   4.147 -0.0830 -0.5463  0.1356
10752SOL    HW138602   3.053  -0.059   4.141  2.2963 -1.2865  1.5489
10752SOL    HW238603   3.063   0.055   4.240 -0.1618  0.4677 -0.0922
10753SOL     OW38604   6.169   1.158   3.854 -0.1232  0.3648  0.1966
10753SOL    HW138605   6.260   1.127   3.846  0.0181  1.1823 -2.2749
10753SOL    HW238606   6.165   1.234   3.796 -2.2422  0.7448  0.7754
10754SOL     OW38607   2.778   5.145   9.223 -0.0593  0.1594 -0.5522
10754SOL    HW138608   2.765   5.061   9.178  0.4226 -0.6348  0.7266
10754SOL    HW238609   2.716   5.204   9.181  0.2432 -0.5747 -2.1232
10755SOL     OW38610   0.704   1.477   2.140  0.2279  0.3065 -0.4753
10755SOL    HW138611   0.650   1.415   2.090 -0.7775 -0.5348  1.5110
10755SOL    HW238612   0.641   1.542   2.172  0.8264  0.7649 -0.2282
10756SOL     OW38613   5.981   1.216   0.218  0.1157 -0.4047  0.0367
10756SOL    HW138614   5.916   1.285   0.233 -1.0780 -1.3716 -0.5326
10756SOL    HW238615   6.048   1.257   0.163 -0.8444  0.1520 -0.7382
10757SOL     OW38616   3.831   6.148   7.700  0.0219  0.1391  0.2776
10757SOL    HW138617   3.845   6.054   7.703 -0.3901  0.0210 -1.0302
10757SOL    HW238618   3.785   6.168   7.782 -0.2637 -0.8564  0.3672
10758SOL     OW38619   1.466   3.263   0.404 -0.6017  0.5263  0.0276
10758SOL    HW138620   1.500   3.293   0.320 -0.2743  0.2585  0.0611
10758SOL    HW238621   1.491   3.170   0.409  1.8003  1.1589  1.5942
10759SOL     OW38622   0.189   1.081   0.411  0.5627 -0.0751  0.0147
10759SOL    HW138623   0.148   1.045   0.490  0.5095 -1.7434 -0.7186
10759SOL    HW238624   0.122   1.069   0.343  0.6089  1.3350 -0.3044
10760SOL     OW38625   5.736   7.509   7.812  0.2455 -0.4503  0.2052
10760SOL    HW138626   5.677   7.512   7.737  1.5105  1.5423 -0.7997
10760SOL    HW238627   5.691   7.454   7.876 -0.8238 -2.3569 -2.0262
10761SOL     OW38628   8.240   4.611   3.669 -0.2734 -0.3607 -0.5196
10761SOL    HW138629   8.146   4.594   3.668 -0.2987 -0.5114 -3.2975
10761SOL    HW238630   8.277   4.537   3.718 -1.4196 -1.6603 -1.5301
10762SOL     OW38631   3.923   0.860   3.649 -0.3525 -0.5576  0.0584
10762SOL    HW138632   3.835   0.878   3.683 -0.7631 -0.1201 -1.1902
10762SOL    HW238633   3.925   0.765   3.637  0.1944 -0.8764  2.2984
10763SOL     OW38634   0.369   5.385   5.603 -0.4244 -0.2149 -0.3112
10763SOL    HW138635   0.459   5.420   5.601 -0.6486  0.3527 -1.3050
10763SOL    HW238636   0.356   5.359   5.694  0.3017  0.8960  0.1429
10764SOL     OW38637   4.895   7.637   8.313 -0.0611  0.3356 -0.3113
10764SOL    HW138638   4.853   7.640   8.228  0.0222 -1.1794 -0.4336
10764SOL    HW238639   4.971   7.580   8.300 -0.6653 -0.8315  1.0170
10765SOL     OW38640   0.648   0.982   0.957  0.1089  0.0473 -0.3240
10765SOL    HW138641   0.711   0.965   1.027  1.4434  0.9727 -1.2563
10765SOL    HW238642   0.646   0.901   0.907 -1.5178 -0.9445  1.2161
10766SOL     OW38643   7.197   1.330   3.286  0.6945  0.4588  0.0495
10766SOL    HW138644   7.186   1.425   3.278 -0.1364  0.3814  0.2359
10766SOL    HW238645   7.161   1.295   3.204 -1.9627  0.0987  1.2929
10767SOL     OW38646   6.698   2.134   6.556  0.2091 -0.0080  0.0078
10767SOL    HW138647   6.679   2.041   6.570  0.0308 -0.2160 -1.4746
10767SOL    HW238648   6.678   2.175   6.640 -3.9118 -0.6881 -0.4353
10768SOL     OW38649   1.157   3.741   0.463  0.0736  0.7186  0.0356
10768SOL    HW138650   1.230   3.795   0.492  0.4162 -0.6872  1.9553
10768SOL    HW238651   1.138   3.683   0.537 -1.7373 -0.2617 -1.1100
10769SOL     OW38652   5.047   9.083   4.451  0.1375  0.4284 -0.2022
10769SOL    HW138653   5.140   9.085   4.432  0.5928  0.6441  1.8479
10769SOL    HW238654   5.005   9.100   4.367  2.0122  3.5114 -0.6634
10770SOL     OW38655   2.589   8.265   3.694  0.5712  0.3359 -0.0112
10770SOL    HW138656   2.509   8.306   3.728  1.8248  1.0383  2.3633
10770SOL    HW238657   2.645   8.256   3.771  1.4616 -3.4414 -0.9106
10771SOL     OW38658   6.764   4.994   8.930  0.5386 -0.1403 -0.3393
10771SOL    HW138659   6.852   5.019   8.900  0.9881 -0.4022  0.7181
10771SOL    HW238660   6.772   4.901   8.953  1.0122  0.6262  3.1830
10772SOL     OW38661   6.882   5.158   7.225 -0.4293 -0.1630 -0.1864
10772SOL    HW138662   6.965   5.201   7.207  0.1015 -1.7778 -1.8740
10772SOL    HW238663   6.862   5.180   7.316  0.2433  2.8177 -0.6696
10773SOL     OW38664   1.274   1.440   8.103  0.3801 -0.0949 -0.0575
10773SOL    HW138665   1.322   1.472   8.179  1.0257  1.9913 -1.2631
10773SOL    HW238666   1.182   1.442   8.130  0.7022 -0.9963  1.1939
10774SOL     OW38667   2.451   4.455   8.208  0.1696  0.5975 -0.2839
10774SOL    HW138668   2.439   4.550   8.218 -0.5563  0.5861 -0.9678
10774SOL    HW238669   2.374   4.426   8.159 -0.0511 -0.4897  0.6650
10775SOL     OW38670   3.896   8.923   6.254 -0.2164  0.3322 -0.1099
10775SOL    HW138671   3.887   8.939   6.348  0.8179  1.2537 -0.1560
10775SOL    HW238672   3.879   8.829   6.244  0.8372 -0.0242  1.1631
10776SOL     OW38673   8.014   1.928   1.306 -0.2621  0.0812  0.1328
10776SOL    HW138674   7.955   1.883   1.366 -1.6791 -1.6351 -2.3747
10776SOL    HW238675   8.097   1.881   1.314 -0.0331  0.6777  1.5877
10777SOL     OW38676   1.561   4.503   0.017  0.1698 -0.2863 -0.2756
10777SOL    HW138677   1.578   4.432  -0.044  0.2719  0.7315 -1.4666
10777SOL    HW238678   1.647   4.523   0.055  0.3182 -0.1283 -0.6933
10778SOL     OW38679   7.005   1.583   8.537 -0.4463  0.0913  0.2154
10778SOL    HW138680   6.921   1.562   8.497  0.0766 -0.0769 -0.8421
10778SOL    HW238681   7.039   1.499   8.568 -0.0565 -0.0770 -0.6206
10779SOL     OW38682   7.002   4.957   2.269 -0.3491 -0.6634  0.1379
10779SOL    HW138683   6.951   4.916   2.339  0.5000  1.4923  2.1696
10779SOL    HW238684   6.956   5.040   2.252  1.6042  0.6866  1.0603
10780SOL     OW38685   9.145   4.898   5.875  0.1393  0.0854  0.1788
10780SOL    HW138686   9.185   4.984   5.867  1.6672 -0.6598 -0.6210
10780SOL    HW238687   9.203   4.850   5.934 -0.7041 -0.4154  0.6262
10781SOL     OW38688   8.425   1.098   3.205 -0.0737  0.0520 -0.9727
10781SOL    HW138689   8.395   1.078   3.116 -0.0193 -0.9857 -0.7801
10781SOL    HW238690   8.438   1.193   3.206 -1.0960  0.2124 -1.7496
10782SOL     OW38691   2.286   4.036   5.138 -0.0676 -0.1350  0.1694
10782SOL    HW138692   2.335   4.108   5.096 -0.5485 -0.6383 -1.3288
10782SOL    HW238693   2.339   3.959   5.120  0.5831 -0.1582  2.0079
10783SOL     OW38694   8.055   7.396   1.366 -0.1916 -0.0524  0.0022
10783SOL    HW138695   8.145   7.364   1.355  0.1988  0.9364  0.1839
10783SOL    HW238696   8.046   7.407   1.461 -1.0516 -1.6158  0.1400
10784SOL     OW38697   5.210   0.231   1.926  0.2411 -0.2648  0.0388
10784SOL    HW138698   5.239   0.175   1.853  0.0313 -0.2308 -0.0720
10784SOL    HW238699   5.117   0.244   1.910  0.5741  1.3640 -0.7817
10785SOL     OW38700   5.746   2.167   8.651 -0.1096  0.7130 -0.2129
10785SOL    HW138701   5.666   2.194   8.606 -0.3985  0.8283  0.3542
10785SOL    HW238702   5.723   2.170   8.744  0.9977  2.2256  0.0484
10786SOL     OW38703   3.029   0.612   5.174 -0.0717  0.2695 -0.1212
10786SOL    HW138704   2.959   0.648   5.229 -1.1766 -0.9277 -0.7081
10786SOL    HW238705   2.988   0.539   5.128  1.2493  0.3041 -1.3999
10787SOL     OW38706   1.984   9.033   4.817  0.2386 -0.0119  0.0045
10787SOL    HW138707   1.992   9.113   4.764 -0.1480 -0.4247 -0.6914
10787SOL    HW238708   2.005   8.962   4.756 -2.7618 -0.7005 -0.3467
10788SOL     OW38709   2.774   7.855   5.755 -0.1499  0.1619 -0.4515
10788SOL    HW138710   2.777   7.943   5.792 -0.4744  0.1132 -0.3040
10788SOL    HW238711   2.856   7.814   5.783 -0.1778  0.2852 -0.1872
10789SOL     OW38712   2.305   2.642   6.768  0.3232  0.0024 -0.3351
10789SOL    HW138713   2.262   2.653   6.683  0.9212 -0.1104 -0.6570
10789SOL    HW238714   2.386   2.692   6.761  0.8478 -0.7977 -0.1809
10790SOL     OW38715   7.951   1.581   3.805  0.2052  0.1210  0.8972
10790SOL    HW138716   7.980   1.672   3.811  0.6904  0.3280 -2.6372
10790SOL    HW238717   7.863   1.586   3.767  0.2095 -0.8753  0.7276
10791SOL     OW38718   1.027   1.198   6.706  0.0709  0.0708  0.5187
10791SOL    HW138719   1.041   1.220   6.798  1.3553 -0.0543  0.3710
10791SOL    HW238720   1.047   1.104   6.701 -0.4568 -0.0316  0.1900
10792SOL     OW38721   3.565   7.728   1.505 -0.4780 -0.0322  0.4975
10792SOL    HW138722   3.552   7.811   1.459  0.2484 -0.0574  0.2257
10792SOL    HW238723   3.544   7.661   1.440 -0.0417 -0.0620  0.3799
10793SOL     OW38724   4.684   3.652   1.773  0.0047  0.1130 -0.1986
10793SOL    HW138725   4.776   3.669   1.750 -0.2579  1.0484 -0.6151
10793SOL    HW238726   4.677   3.681   1.864  0.0282  0.4618 -0.3032
10794SOL     OW38727   5.309   2.876   2.379 -0.1585 -0.8082 -0.7472
10794SOL    HW138728   5.360   2.836   2.308  0.2547 -1.2989 -0.1858
10794SOL    HW238729   5.238   2.815   2.396 -0.0415 -0.8731 -0.4879
10795SOL     OW38730   3.096   9.184   1.515  0.2250 -0.6963  0.0202
10795SOL    HW138731   3.003   9.196   1.501  0.1810 -1.3588 -0.2950
10795SOL    HW238732   3.121   9.252   1.577 -0.4020 -0.3179 -0.1471
10796SOL     OW38733   6.552   0.416   3.373 -0.1284 -0.0435 -0.1760
10796SOL    HW138734   6.554   0.395   3.279 -0.1909 -2.2994  0.2790
10796SOL    HW238735   6.605   0.496   3.380 -0.5448  0.4764 -2.1838
10797SOL     OW38736   6.756   8.280   0.845 -0.0204 -0.3571 -0.9441
10797SOL    HW138737   6.674   8.242   0.877  0.3030 -0.1149  0.2274
10797SOL    HW238738   6.737   8.373   0.837  0.2721 -0.2322 -0.2192
10798SOL     OW38739   8.891   1.867   1.535  0.0865  0.0267  0.5349
10798SOL    HW138740   8.853   1.784   1.506  1.1408 -0.3494  0.1882
10798SOL    HW238741   8.982   1.863   1.507 -0.1009  1.7733 -0.4768
10799SOL     OW38742   4.625   8.971   7.804 -0.4719 -0.0241 -0.3459
10799SOL    HW138743   4.575   8.889   7.806  0.6537 -0.7225  0.4222
10799SOL    HW238744   4.563   9.038   7.833 -1.4370 -0.5718 -1.0648
10800SOL     OW38745   7.893   8.738   4.526 -0.1990  0.9402 -0.8330
10800SOL    HW138746   7.816   8.764   4.576  0.4303  1.0458  0.0962
10800SOL    HW238747   7.961   8.724   4.591  0.2059 -0.5074 -1.5174
10801SOL     OW38748   6.765   4.168   7.563 -0.5953  0.4209  0.8511
10801SOL    HW138749   6.684   4.204   7.526  0.3378  0.4831 -1.2886
10801SOL    HW238750   6.835   4.203   7.507  1.0897  1.4224  3.3831
10802SOL     OW38751   8.587   1.333   2.335 -0.3604 -0.5152 -0.2920
10802SOL    HW138752   8.531   1.340   2.258 -0.5086  0.1727 -0.1326
10802SOL    HW238753   8.642   1.257   2.319 -0.0743 -0.1147 -1.2904
10803SOL     OW38754   5.939   7.770   6.282  0.2183 -0.0090 -0.0080
10803SOL    HW138755   5.962   7.753   6.191  0.1346  1.8660 -0.4318
10803SOL    HW238756   6.023   7.781   6.327  0.2703 -1.3167  0.2544
10804SOL     OW38757   8.750   2.081   5.137 -0.0736 -0.3297  0.2537
10804SOL    HW138758   8.785   1.995   5.112  1.8260  0.2099  0.8423
10804SOL    HW238759   8.828   2.137   5.144 -1.3767  2.1707 -2.7253
10805SOL     OW38760   2.137   8.530   8.661 -0.0082  0.1317 -0.3713
10805SOL    HW138761   2.202   8.551   8.728 -0.2991 -2.0918  0.7137
10805SOL    HW238762   2.095   8.614   8.641  1.2806  1.1508  0.9491
10806SOL     OW38763   1.301   1.672   7.009  0.2063  0.7984  0.3214
10806SOL    HW138764   1.237   1.709   6.948  3.4494  1.7263 -2.8515
10806SOL    HW238765   1.326   1.745   7.065  2.2076  2.0306 -1.9815
10807SOL     OW38766   3.462   2.492   0.848  0.1845 -0.4666 -0.7405
10807SOL    HW138767   3.473   2.400   0.873  0.0408 -0.4244 -0.5225
10807SOL    HW238768   3.513   2.541   0.913  0.2536 -0.3895 -0.8514
10808SOL     OW38769   4.474   8.286   8.497  0.0134  0.0079  0.1494
10808SOL    HW138770   4.392   8.278   8.449 -1.0599  1.9468  1.5142
10808SOL    HW238771   4.536   8.323   8.434 -0.2894 -0.8992 -0.7133
10809SOL     OW38772   5.680   3.555   2.779  0.1529  0.3123  0.5970
10809SOL    HW138773   5.678   3.624   2.713  0.0901  0.6462  0.9426
10809SOL    HW238774   5.597   3.509   2.768  0.9502 -0.8464 -0.8187
10810SOL     OW38775   5.634   1.557   5.620 -0.1925  0.3843  0.5152
10810SOL    HW138776   5.540   1.543   5.630 -0.6819  3.1046  0.3331
10810SOL    HW238777   5.674   1.479   5.660 -2.4760 -2.2066 -1.8837
10811SOL     OW38778   0.440   4.484   5.532 -0.2322  0.6828  0.1501
10811SOL    HW138779   0.415   4.430   5.607 -0.0066  1.2105  0.6101
10811SOL    HW238780   0.464   4.420   5.464  1.4860  0.1627  1.1717
10812SOL     OW38781   1.085   8.374   6.360  0.3062  0.3676 -0.2187
10812SOL    HW138782   1.075   8.315   6.286  0.3964  1.6249 -1.2689
10812SOL    HW238783   0.996   8.404   6.379  0.4161  0.9078 -0.5504
10813SOL     OW38784   8.967   3.778   6.663  0.1259 -0.6073  0.5496
10813SOL    HW138785   9.028   3.744   6.599  2.1220  0.5348  1.7382
10813SOL    HW238786   9.004   3.752   6.748  0.5572  2.4735  1.4127
10814SOL     OW38787   1.233   0.692   4.074 -0.1803  0.0629  0.4381
10814SOL    HW138788   1.165   0.661   4.133 -0.5987 -0.3126 -0.2222
10814SOL    HW238789   1.309   0.636   4.092 -1.1164 -1.8280 -1.1709
10815SOL     OW38790   3.662   2.568   3.506 -0.5066  0.2117 -0.0498
10815SOL    HW138791   3.568   2.584   3.507 -0.1087  3.3122  1.7816
10815SOL    HW238792   3.684   2.550   3.415 -2.7310  0.2874 -0.6348
10816SOL     OW38793   3.909   2.955   0.697 -0.2568 -0.3884  0.0698
10816SOL    HW138794   3.820   2.977   0.671 -0.5370 -0.1440  1.1509
10816SOL    HW238795   3.965   3.013   0.646 -0.7698 -0.0095 -0.0639
10817SOL     OW38796   5.167   7.609   5.228  0.6635 -0.1257 -0.1973
10817SOL    HW138797   5.148   7.675   5.161 -1.0261 -0.3543  0.0122
10817SOL    HW238798   5.132   7.647   5.309 -0.5411 -1.3275 -0.1105
10818SOL     OW38799   5.281   7.641   4.834 -0.3904 -0.5301  0.1553
10818SOL    HW138800   5.326   7.701   4.774 -0.1343  1.2498  1.9911
10818SOL    HW238801   5.250   7.698   4.905 -0.9453 -2.4750  1.5547
10819SOL     OW38802   6.188   1.988   1.021 -0.0466  0.0170 -0.8332
10819SOL    HW138803   6.097   1.962   1.034  0.4060 -0.0946  3.1960
10819SOL    HW238804   6.225   1.920   0.964 -2.0235 -0.8749 -1.1135
10820SOL     OW38805   7.019   7.709   6.130  0.7810 -0.5365 -0.0665
10820SOL    HW138806   7.070   7.678   6.204  1.3436  1.0269  0.2339
10820SOL    HW238807   6.928   7.693   6.155  0.9934 -0.5881  0.6971
10821SOL     OW38808   0.543   7.612   6.074 -0.1594  0.2327  0.1703
10821SOL    HW138809   0.482   7.549   6.115  0.5165  1.0575  2.6507
10821SOL    HW238810   0.619   7.559   6.052 -1.2425 -0.5859 -1.8676
10822SOL     OW38811   0.239   8.964   7.614 -0.1492 -0.2134  0.0340
10822SOL    HW138812   0.211   8.913   7.690  0.9172  0.6691  1.0390
10822SOL    HW238813   0.318   9.009   7.642 -1.1218  2.1331 -0.7696
10823SOL     OW38814   2.235   0.232   1.190  0.1222  0.1433 -0.1366
10823SOL    HW138815   2.324   0.197   1.186  0.2368  0.5399 -1.9301
10823SOL    HW238816   2.247   0.326   1.206 -0.0842 -0.1049  1.7136
10824SOL     OW38817   1.818   4.559   8.834  0.0592 -0.4674 -0.0214
10824SOL    HW138818   1.834   4.612   8.757 -1.4587  0.7665  0.4545
10824SOL    HW238819   1.851   4.611   8.907 -0.5734 -0.5916  0.3646
10825SOL     OW38820   3.469   0.825   8.181  0.1875 -0.0802 -0.1602
10825SOL    HW138821   3.414   0.773   8.122 -0.3343  0.0800  0.1767
10825SOL    HW238822   3.551   0.776   8.188  0.0457 -0.3772 -0.5835
10826SOL     OW38823   8.452   5.888   3.090 -0.0196 -0.3646 -0.5756
10826SOL    HW138824   8.395   5.817   3.118 -0.0290 -0.0341  0.2763
10826SOL    HW238825   8.530   5.880   3.144  0.7170 -0.7423 -1.6499
10827SOL     OW38826   1.592   6.745   3.924  0.7188  0.0280  0.6251
10827SOL    HW138827   1.608   6.837   3.941  0.8307 -0.1603  1.6127
10827SOL    HW238828   1.583   6.706   4.011  0.0508 -0.7791  0.2109
10828SOL     OW38829   4.950   0.400   1.791 -0.3900 -0.2307  0.3588
10828SOL    HW138830   4.993   0.382   1.707 -0.1242  0.1333  0.4122
10828SOL    HW238831   4.857   0.391   1.774 -0.3567  0.1961 -0.0680
10829SOL     OW38832   5.799   0.921   6.373 -0.3723  0.3108 -0.2467
10829SOL    HW138833   5.869   0.928   6.308 -0.5821  1.3914 -0.3740
10829SOL    HW238834   5.723   0.962   6.331 -1.5413 -2.1667 -0.6968
10830SOL     OW38835   7.886   6.893   3.497 -0.2020 -0.0157 -0.7240
10830SOL    HW138836   7.896   6.845   3.415  1.0040  0.4131 -0.8580
10830SOL    HW238837   7.948   6.851   3.557  1.1074  1.5226 -0.9399
10831SOL     OW38838   4.707   4.704   1.461 -0.0775 -0.1635  0.0678
10831SOL    HW138839   4.714   4.747   1.546 -0.5710 -0.1846  0.1215
10831SOL    HW238840   4.798   4.694   1.432  0.0390  2.9016 -0.9632
10832SOL     OW38841   4.058   4.234   6.928 -0.3992 -0.0204 -0.2714
10832SOL    HW138842   3.998   4.264   6.996  0.1352 -0.1024  0.2449
10832SOL    HW238843   4.079   4.143   6.952 -0.8835 -0.3356 -1.0251
10833SOL     OW38844   5.928   1.532   5.025 -0.7895 -0.2088 -0.2978
10833SOL    HW138845   5.864   1.546   5.095 -0.6147  0.3144 -0.2362
10833SOL    HW238846   5.956   1.441   5.035 -2.1756 -0.7276 -0.8760
10834SOL     OW38847   5.290   3.842   4.117 -0.0345  0.0297  0.0398
10834SOL    HW138848   5.349   3.888   4.176 -0.8880  0.3996  0.6237
10834SOL    HW238849   5.216   3.816   4.172 -0.1344 -0.9717 -0.5390
10835SOL     OW38850   6.162   1.545   4.466 -0.6497  0.2121  0.4515
10835SOL    HW138851   6.245   1.499   4.482 -1.2627 -1.3438 -0.5709
10835SOL    HW238852   6.169   1.576   4.376 -1.8496 -1.5672 -0.3122
10836SOL     OW38853   9.076   8.770   8.518 -0.0474  0.2823  0.0667
10836SOL    HW138854   9.021   8.695   8.496 -0.9244  0.0622  2.6230
10836SOL    HW238855   9.016   8.844   8.521  0.4409  0.7036 -0.4649
10837SOL     OW38856   3.893   0.634   0.789  0.6093  0.1017  0.1976
10837SOL    HW138857   3.899   0.667   0.699  0.0564 -0.7318 -0.1521
10837SOL    HW238858   3.854   0.707   0.838 -0.9853 -0.1388 -0.6519
10838SOL     OW38859   6.362   7.802   0.008 -0.0596 -0.2658  0.5057
10838SOL    HW138860   6.447   7.786  -0.032 -1.1637 -1.5632 -1.4867
10838SOL    HW238861   6.382   7.846   0.090  2.3672  3.4390 -1.7616
10839SOL     OW38862   8.573   2.223   1.013 -0.4212  0.4927 -0.7052
10839SOL    HW138863   8.631   2.205   0.939 -1.8628  0.6514 -1.9238
10839SOL    HW238864   8.630   2.264   1.079  0.8060  0.8437 -1.9312
10840SOL     OW38865   4.398   7.216   7.620 -0.2508  0.1700  0.7275
10840SOL    HW138866   4.437   7.202   7.707  1.1144 -0.6614  0.0230
10840SOL    HW238867   4.469   7.254   7.568 -0.7942 -0.1135 -0.2430
10841SOL     OW38868   5.037   8.166   7.305 -1.0451 -0.3295 -0.2286
10841SOL    HW138869   4.981   8.121   7.242 -1.9152  0.7913 -0.2786
10841SOL    HW238870   5.123   8.168   7.263 -1.3315 -0.6917 -0.8457
10842SOL     OW38871   5.933   8.260   2.322  0.3404 -0.2663 -0.3701
10842SOL    HW138872   5.843   8.290   2.337  0.8171  1.1662 -0.2364
10842SOL    HW238873   5.971   8.326   2.265  1.2671 -0.9468 -0.5577
10843SOL     OW38874   3.559   3.156   2.241  0.3466 -0.4363  0.2326
10843SOL    HW138875   3.586   3.079   2.292  0.2793  0.5104  1.7613
10843SOL    HW238876   3.619   3.225   2.271 -1.1513  0.7008  0.7031
10844SOL     OW38877   0.060   0.715   7.006 -0.2765 -0.2842  0.2566
10844SOL    HW138878  -0.004   0.745   6.942  0.9016  0.9945 -0.3646
10844SOL    HW238879   0.090   0.630   6.973 -0.9876 -0.4640  0.0734
10845SOL     OW38880   2.329   2.732   3.980 -0.5301  0.0498 -0.2611
10845SOL    HW138881   2.391   2.680   4.030 -1.1902  0.7288  1.3201
10845SOL    HW238882   2.382   2.800   3.938 -0.1204  0.2478  0.5740
10846SOL     OW38883   7.183   7.091   4.626  0.3147  0.2705  0.2803
10846SOL    HW138884   7.203   7.185   4.624 -0.4056  0.4225  0.0396
10846SOL    HW238885   7.177   7.070   4.720  1.4199  0.2477  0.3597
10847SOL     OW38886   4.107   3.629   6.112  0.0607 -0.3750  0.2745
10847SOL    HW138887   4.068   3.567   6.050  1.1060  0.2769 -1.0797
10847SOL    HW238888   4.156   3.574   6.173 -0.0275 -0.9601 -0.1699
10848SOL     OW38889   3.144   5.796   5.834  0.2830  0.1507 -0.3093
10848SOL    HW138890   3.159   5.708   5.870  0.4313 -0.1099 -0.9737
10848SOL    HW238891   3.139   5.781   5.739  1.2193  0.9770 -0.5085
10849SOL     OW38892   2.845   6.070   5.580 -0.0914  0.0397  0.3208
10849SOL    HW138893   2.922   6.046   5.529 -1.0790  0.7491 -1.6067
10849SOL    HW238894   2.880   6.127   5.649  0.9736  2.0750 -1.7156
10850SOL     OW38895   2.209   3.112   7.242  0.0453 -0.3976 -0.1834
10850SOL    HW138896   2.270   3.164   7.189  0.3381 -0.9414 -0.3885
10850SOL    HW238897   2.152   3.071   7.178 -0.2763 -0.2152 -0.0130
10851SOL     OW38898   6.496   2.717   4.310 -0.2095  0.3255 -0.2907
10851SOL    HW138899   6.497   2.633   4.264  1.3545  0.9769 -1.5467
10851SOL    HW238900   6.541   2.777   4.251 -0.3886  1.8151  1.0212
10852SOL     OW38901   8.554   5.416   0.430 -0.4223 -0.0128  0.0896
10852SOL    HW138902   8.487   5.472   0.391  0.2577 -0.2811 -1.5557
10852SOL    HW238903   8.622   5.477   0.459 -1.8667  0.3927  3.0259
10853SOL     OW38904   5.546   1.375   4.673 -0.6272 -0.2532  0.1658
10853SOL    HW138905   5.580   1.383   4.584 -1.9034 -1.2612 -0.4594
10853SOL    HW238906   5.607   1.316   4.718  1.1526  1.8162  0.6316
10854SOL     OW38907   5.499   3.508   0.883 -0.4719  0.0591 -0.3647
10854SOL    HW138908   5.435   3.562   0.928 -0.2376  1.0767 -1.2138
10854SOL    HW238909   5.584   3.544   0.908 -0.3398  0.7585 -1.7117
10855SOL     OW38910   1.480   3.335   5.906  0.4417  0.2850 -0.4090
10855SOL    HW138911   1.564   3.381   5.904  0.8786 -0.5336 -1.4505
10855SOL    HW238912   1.437   3.360   5.824  0.9302 -1.5499 -1.2876
10856SOL     OW38913   1.287   2.113   3.763 -0.0572 -0.0246 -0.3127
10856SOL    HW138914   1.281   2.042   3.698  0.0692 -0.7195  0.4193
10856SOL    HW238915   1.350   2.175   3.725  0.2040 -0.5439 -0.7443
10857SOL     OW38916   3.908   4.925   1.113  0.1797 -0.4358  0.0959
10857SOL    HW138917   3.953   5.004   1.142 -1.1020  0.5018 -0.3490
10857SOL    HW238918   3.943   4.855   1.168  1.9514  0.2763 -0.0560
10858SOL     OW38919   0.746   0.519   4.248 -0.8571 -0.0025  0.3403
10858SOL    HW138920   0.749   0.425   4.232 -0.4322 -0.2447  1.7384
10858SOL    HW238921   0.718   0.527   4.339 -0.1714  1.2062  0.4686
10859SOL     OW38922   3.664   1.523   2.000 -0.2332  0.4396 -0.9323
10859SOL    HW138923   3.694   1.605   1.961  1.2809 -0.7276 -2.3777
10859SOL    HW238924   3.663   1.461   1.927 -1.4218 -0.8305  0.1102
10860SOL     OW38925   0.183   0.965   1.951  0.0929  0.1474 -0.0468
10860SOL    HW138926   0.110   0.904   1.968  1.1142 -0.5811  2.0873
10860SOL    HW238927   0.146   1.052   1.969 -0.1214 -0.2737  1.8053
10861SOL     OW38928   9.038   6.787   9.058  0.1437  0.3740  0.2524
10861SOL    HW138929   8.962   6.838   9.087  0.1260  0.4920  0.0000
10861SOL    HW238930   9.100   6.794   9.131  0.7478  2.0171 -0.3768
10862SOL     OW38931   7.762   0.666   6.922 -0.5931  0.2314  0.4382
10862SOL    HW138932   7.715   0.596   6.967 -0.8651 -1.0564 -1.6711
10862SOL    HW238933   7.855   0.645   6.935 -0.6277  0.8916  1.8428
10863SOL     OW38934   1.145   7.299   2.319  0.1328  0.2208 -0.6161
10863SOL    HW138935   1.093   7.309   2.398 -0.3120  0.7938 -0.9743
10863SOL    HW238936   1.128   7.378   2.268  0.8739  0.1357 -1.0198
10864SOL     OW38937   4.851   7.708   5.242 -0.1580  0.5435 -0.0189
10864SOL    HW138938   4.936   7.702   5.198  0.6983 -0.9260  1.7155
10864SOL    HW238939   4.870   7.752   5.325 -1.1433  0.4045  0.2852
10865SOL     OW38940   8.857   8.039   3.125  0.0388 -0.0583 -0.0450
10865SOL    HW138941   8.916   7.969   3.094  1.9495  1.2737  0.4195
10865SOL    HW238942   8.788   8.042   3.059 -0.1026 -2.3596 -0.0924
10866SOL     OW38943   4.983   4.093   6.979  0.0543 -0.0996  0.4623
10866SOL    HW138944   4.964   4.021   7.039  1.3005 -0.7014  0.1587
10866SOL    HW238945   4.945   4.065   6.896  1.3731 -0.8821  0.0931
10867SOL     OW38946   4.752   6.571   5.153 -0.1370 -0.1098 -0.7239
10867SOL    HW138947   4.711   6.484   5.160  0.1879 -0.1756  0.5144
10867SOL    HW238948   4.827   6.557   5.095 -1.0530 -0.2800 -1.9142
10868SOL     OW38949   6.281   0.803   2.706  0.5764  0.5556  0.5015
10868SOL    HW138950   6.293   0.887   2.751 -1.2863  1.6217 -0.8887
10868SOL    HW238951   6.197   0.771   2.737  1.4341 -1.0369  1.2993
10869SOL     OW38952   2.854   8.878   3.859  0.8586  0.1665  0.2455
10869SOL    HW138953   2.836   8.944   3.793  0.3428  0.1179  0.3383
10869SOL    HW238954   2.895   8.927   3.931  0.4895  0.3834  0.3092
10870SOL     OW38955   5.425   4.258   1.023  0.3243  0.1383  0.2093
10870SOL    HW138956   5.363   4.325   1.050  0.1431 -0.4016  1.1927
10870SOL    HW238957   5.417   4.255   0.927 -3.5173 -2.0466  0.3711
10871SOL     OW38958   4.607   3.576   9.170 -0.3917  0.1247 -0.2696
10871SOL    HW138959   4.567   3.648   9.122 -1.0049 -0.5257 -0.7504
10871SOL    HW238960   4.653   3.524   9.104 -1.5223 -0.9664 -0.2364
10872SOL     OW38961   0.295   6.095   5.655 -0.0367  0.8285  0.2754
10872SOL    HW138962   0.253   6.069   5.737 -1.0717 -0.3355 -0.5909
10872SOL    HW238963   0.307   6.190   5.663  0.0672  0.6963  1.8403
10873SOL     OW38964   6.306   1.502   7.204 -0.1577 -0.8071 -0.1059
10873SOL    HW138965   6.258   1.582   7.185  0.7143  0.0074  1.0260
10873SOL    HW238966   6.279   1.478   7.293  1.6269 -0.2069  0.6536
10874SOL     OW38967   0.627   6.521   0.031 -0.5379  0.3641  0.1093
10874SOL    HW138968   0.589   6.511  -0.056 -0.4091 -2.1710  0.2754
10874SOL    HW238969   0.563   6.481   0.090 -0.0249  0.8687  1.0331
10875SOL     OW38970   2.607   2.467   6.555  0.4389 -0.1659 -0.0197
10875SOL    HW138971   2.588   2.561   6.548 -0.0917 -0.2059  0.7273
10875SOL    HW238972   2.685   2.454   6.501  0.8715  0.8121  0.3401
10876SOL     OW38973   4.730   7.354   6.211  0.2831  0.1078 -0.0603
10876SOL    HW138974   4.644   7.315   6.224  0.4786 -0.1071  0.6345
10876SOL    HW238975   4.758   7.379   6.299  0.7190  0.6267 -0.3430
10877SOL     OW38976   3.833   3.880   2.452 -0.4417  0.1894 -0.2910
10877SOL    HW138977   3.780   3.956   2.430  1.2623  1.5016 -0.0335
10877SOL    HW238978   3.881   3.905   2.531  0.2050 -1.1383 -0.2218
10878SOL     OW38979   7.813   1.997   7.810 -0.3620 -0.4644 -0.0891
10878SOL    HW138980   7.769   2.030   7.889  1.4615  0.7793  0.4719
10878SOL    HW238981   7.742   1.980   7.749 -1.7265  0.0095  1.2875
10879SOL     OW38982   4.388   4.979   8.604 -0.0056 -0.6846  0.0201
10879SOL    HW138983   4.403   4.984   8.698  0.0285  0.9083 -0.0472
10879SOL    HW238984   4.474   4.957   8.567  1.0716  2.8050  0.0883
10880SOL     OW38985   1.898   1.822   0.024 -0.0771  0.1257  0.3311
10880SOL    HW138986   1.915   1.768  -0.053  0.8543 -2.7128  2.3285
10880SOL    HW238987   1.852   1.764   0.084  0.3875  1.7691  2.4070
10881SOL     OW38988   2.384   0.961   3.515  0.3879 -0.5448  0.6417
10881SOL    HW138989   2.322   1.032   3.533 -0.3655 -1.1964  0.6817
10881SOL    HW238990   2.462   0.984   3.564  0.4360  0.6424  0.0514
10882SOL     OW38991   1.990   8.616   2.473  0.0156 -0.0065  0.3425
10882SOL    HW138992   1.955   8.538   2.516  0.7493 -0.9034 -0.6074
10882SOL    HW238993   1.987   8.594   2.379 -0.4678  1.4189 -0.0076
10883SOL     OW38994   4.555   7.199   1.691 -0.0013  0.3735 -0.0475
10883SOL    HW138995   4.562   7.202   1.787 -0.5407 -0.1149  0.0056
10883SOL    HW238996   4.589   7.284   1.663  0.7111  0.2953  0.5424
10884SOL     OW38997   4.330   6.910   3.883 -0.0452  0.3106  0.1504
10884SOL    HW138998   4.366   6.887   3.969  1.6291  0.4160 -0.4937
10884SOL    HW238999   4.305   6.826   3.844 -0.7030  0.2538  0.6738
10885SOL     OW39000   8.876   0.826   0.030 -0.0996  0.4103  0.2482
10885SOL    HW139001   8.902   0.735   0.017 -0.0085  0.4743 -0.0323
10885SOL    HW239002   8.935   0.875  -0.028 -1.3518  0.5043 -0.9966
10886SOL     OW39003   2.629   3.484   2.100 -0.0069  0.0822 -0.4868
10886SOL    HW139004   2.629   3.411   2.162 -0.9680  1.5844  1.3895
10886SOL    HW239005   2.568   3.547   2.138  2.7433  3.0305 -0.5477
10887SOL     OW39006   3.865   1.977   0.083  0.5068  0.1989 -0.0323
10887SOL    HW139007   3.948   1.938   0.111  0.0521 -0.4577  0.4239
10887SOL    HW239008   3.807   1.964   0.157 -0.8447 -1.8939 -1.3426
10888SOL     OW39009   8.541   6.845   1.022  0.3256  0.6677 -0.0959
10888SOL    HW139010   8.488   6.925   1.027  0.8873  1.1583 -1.6289
10888SOL    HW239011   8.606   6.855   1.092  0.7115  1.8043 -0.6025
10889SOL     OW39012   1.995   3.510   7.327  0.1019 -0.4042  0.0993
10889SOL    HW139013   1.910   3.499   7.370  0.4764  0.3707  1.1016
10889SOL    HW239014   2.046   3.435   7.358 -0.5396 -1.5282 -1.4310
10890SOL     OW39015   6.929   6.723   6.059 -0.7455 -0.0487 -0.4129
10890SOL    HW139016   6.957   6.751   5.971 -0.0830 -0.4612 -0.3461
10890SOL    HW239017   6.971   6.785   6.118  1.1335 -1.3904 -0.2336
10891SOL     OW39018   4.716   9.183   4.064  0.7390  0.0548  0.2004
10891SOL    HW139019   4.707   9.277   4.078 -0.8719 -0.0532  0.1027
10891SOL    HW239020   4.689   9.169   3.974 -0.2726 -0.6284  0.5853
10892SOL     OW39021   1.542   1.417   0.283  0.1125 -0.2424  0.2794
10892SOL    HW139022   1.613   1.406   0.220  0.1431 -0.0172  0.2740
10892SOL    HW239023   1.582   1.464   0.356  0.2396 -1.0600  0.7495
10893SOL     OW39024   2.513   5.861   8.126  0.1107  0.6060 -0.1277
10893SOL    HW139025   2.444   5.913   8.168  1.1823  1.1328  1.0420
10893SOL    HW239026   2.527   5.787   8.186  1.3149  1.0956  0.2112
10894SOL     OW39027   7.604   2.539   6.347 -0.7029 -0.3063  0.0883
10894SOL    HW139028   7.544   2.464   6.345 -0.0918 -0.8336  0.8010
10894SOL    HW239029   7.669   2.520   6.280 -0.8504 -0.1450 -0.1025
10895SOL     OW39030   2.193   5.333   2.244 -0.0049  0.2239 -0.3097
10895SOL    HW139031   2.219   5.386   2.168  0.1912 -0.3458 -0.6503
10895SOL    HW239032   2.220   5.244   2.220  3.7318  0.5249  2.0207
10896SOL     OW39033   7.974   7.951   8.018 -0.7353 -0.0268  0.5947
10896SOL    HW139034   7.916   8.002   8.075 -0.1006  1.1770  0.2066
10896SOL    HW239035   7.984   8.005   7.940  2.3286  0.7328  1.3659
10897SOL     OW39036   1.818   4.029   4.825  0.0682  0.0120  0.1136
10897SOL    HW139037   1.840   4.061   4.912  0.6456 -1.1678  0.4213
10897SOL    HW239038   1.902   4.023   4.780 -0.0391 -0.8517  0.0050
10898SOL     OW39039   4.893   5.102   7.195  0.2002  0.6236 -0.0689
10898SOL    HW139040   4.932   5.022   7.160 -1.2374 -0.1367 -0.0288
10898SOL    HW239041   4.915   5.100   7.288 -0.5260 -0.1809  0.0989
10899SOL     OW39042   9.019   6.179   8.475  0.1939  0.0766 -0.0769
10899SOL    HW139043   9.025   6.261   8.426 -2.1833  1.1816  1.2979
10899SOL    HW239044   8.929   6.149   8.460  0.0034 -0.5364  2.0083
10900SOL     OW39045   1.923   8.672   4.884 -0.3539 -0.7680 -0.5061
10900SOL    HW139046   2.017   8.691   4.877 -0.1365 -0.9952  1.3579
10900SOL    HW239047   1.880   8.756   4.871  0.2409 -0.2432  0.7623
10901SOL     OW39048   6.191   2.549   5.420  0.1047  0.0883  0.5290
10901SOL    HW139049   6.280   2.585   5.420 -0.2069  0.8924  1.0331
10901SOL    HW239050   6.179   2.516   5.510  0.2466 -0.9416  0.1819
10902SOL     OW39051   5.011   7.844   3.437 -0.0336  0.3990 -0.3455
10902SOL    HW139052   5.093   7.837   3.387  0.2303 -2.0764  0.2617
10902SOL    HW239053   4.987   7.753   3.454 -1.6883  1.1200  1.5006
10903SOL     OW39054   7.732   7.654   0.876  0.3709  0.6766 -0.3558
10903SOL    HW139055   7.738   7.717   0.948  1.1980  0.4933 -0.2472
10903SOL    HW239056   7.824   7.634   0.854  0.1256 -0.3049 -0.5497
10904SOL     OW39057   2.660   2.779   5.394 -0.0207  0.2797  0.4782
10904SOL    HW139058   2.665   2.721   5.319  0.1439  0.8129  0.0724
10904SOL    HW239059   2.738   2.759   5.445  0.7533  1.0982 -0.3619
10905SOL     OW39060   8.336   2.157   6.363  0.2931  0.0250  0.1061
10905SOL    HW139061   8.356   2.206   6.283 -0.7308  1.0535  0.4524
10905SOL    HW239062   8.298   2.075   6.332 -0.5827  0.6263 -0.4884
10906SOL     OW39063   1.534   0.710   8.797 -0.4192  0.2200  0.2110
10906SOL    HW139064   1.591   0.670   8.732  1.0408  2.9932 -0.3458
10906SOL    HW239065   1.449   0.668   8.783  0.2064 -0.3120 -2.5220
10907SOL     OW39066   5.935   9.172   7.188  0.0995 -0.2067  0.9081
10907SOL    HW139067   5.942   9.203   7.098  0.9621  2.5620  1.8241
10907SOL    HW239068   5.846   9.196   7.214  0.4235  0.6175  1.2963
10908SOL     OW39069   0.867   2.319   3.616  0.3032  0.4022 -0.0277
10908SOL    HW139070   0.866   2.402   3.568 -0.4411  0.6385  0.3906
10908SOL    HW239071   0.820   2.258   3.559 -0.2676  0.5920  0.2399
10909SOL     OW39072   1.204   0.298   1.446  0.7493  0.6499  0.4608
10909SOL    HW139073   1.119   0.341   1.447  0.3950  0.0595 -1.6598
10909SOL    HW239074   1.185   0.205   1.444  1.4824  0.4630  1.3763
10910SOL     OW39075   8.332   0.604   9.020 -0.4600 -0.0791  0.0032
10910SOL    HW139076   8.256   0.653   8.988 -0.0032 -0.6653 -2.1143
10910SOL    HW239077   8.407   0.658   8.997 -0.1709  0.5010  2.1031
10911SOL     OW39078   2.448   9.200   7.039  0.2425 -0.0393  0.0279
10911SOL    HW139079   2.452   9.110   7.072 -1.2129 -0.5791 -1.1536
10911SOL    HW239080   2.397   9.194   6.958 -1.4721  2.0875  0.8495
10912SOL     OW39081   0.056   2.359   5.729  0.3423  0.5907 -0.1233
10912SOL    HW139082   0.057   2.264   5.746  1.8813  0.7484  0.8373
10912SOL    HW239083   0.123   2.371   5.662  0.5062  1.0694  0.1286
10913SOL     OW39084   7.250   6.301   8.921  0.2091  0.3158  0.4845
10913SOL    HW139085   7.276   6.386   8.886  2.1724 -0.6421 -0.5774
10913SOL    HW239086   7.325   6.244   8.901 -1.5659 -1.9569 -0.0078
10914SOL     OW39087   0.607   0.777   7.320  0.2178  0.1597 -0.6526
10914SOL    HW139088   0.521   0.795   7.357 -0.1066 -0.2581 -1.1891
10914SOL    HW239089   0.664   0.765   7.396  0.1246  1.8372 -0.2778
10915SOL     OW39090   2.447   2.870   8.120 -0.2640  0.2553  0.2340
10915SOL    HW139091   2.430   2.836   8.208  0.5620 -0.9057 -0.0370
10915SOL    HW239092   2.389   2.821   8.063  2.0674 -1.9976 -0.3761
10916SOL     OW39093   0.991   8.933   6.248 -0.5474  0.4291 -0.3425
10916SOL    HW139094   1.086   8.922   6.246 -0.5602 -0.2797  1.1576
10916SOL    HW239095   0.964   8.892   6.331 -1.9979  1.8663 -0.0502
10917SOL     OW39096   5.040   2.670   3.035  0.4250  0.0560 -0.4964
10917SOL    HW139097   5.040   2.765   3.048  0.6687  0.0118 -0.1453
10917SOL    HW239098   4.949   2.644   3.045  0.6672 -0.0905  2.1911
10918SOL     OW39099   1.464   8.792   9.213 -0.3745  0.0718 -0.2022
10918SOL    HW139100   1.478   8.841   9.132  3.1124  1.2780  0.9737
10918SOL    HW239101   1.521   8.833   9.277 -0.7939 -2.6567  2.1390
10919SOL     OW39102   4.218   0.875   2.122  0.5948 -0.2303 -0.1596
10919SOL    HW139103   4.197   0.783   2.139 -0.1480  0.0889  0.7198
10919SOL    HW239104   4.145   0.924   2.161  0.5871  0.7012 -1.2933
10920SOL     OW39105   6.966   1.718   2.215 -0.2709  0.1244  0.2980
10920SOL    HW139106   7.012   1.789   2.170 -0.4108 -0.4696 -0.8116
10920SOL    HW239107   6.934   1.758   2.295  2.4164  0.5054  1.2915
10921SOL     OW39108   7.862   5.588   3.937  0.2016 -0.3541  0.1632
10921SOL    HW139109   7.923   5.650   3.896  0.4811 -1.1544 -0.6739
10921SOL    HW239110   7.917   5.535   3.995 -0.0281  0.1425  0.8402
10922SOL     OW39111   1.209   0.316   7.119  0.3239 -0.4038  0.4822
10922SOL    HW139112   1.128   0.287   7.161 -0.4341 -1.2830 -1.4795
10922SOL    HW239113   1.182   0.352   7.035  1.8514  0.6376  0.3947
10923SOL     OW39114   6.291   4.010   4.940  0.5750  0.0750  0.4835
10923SOL    HW139115   6.295   3.924   4.900  2.7207  1.3634 -2.4691
10923SOL    HW239116   6.222   4.056   4.892  0.7674  0.5778  0.6788
10924SOL     OW39117   1.902   8.874   1.362 -0.3214  0.3326 -0.1924
10924SOL    HW139118   1.982   8.924   1.379 -0.2930  0.1918  0.0976
10924SOL    HW239119   1.924   8.819   1.287  0.4585 -1.0036  0.9549
10925SOL     OW39120   2.306   2.475   6.979  0.6097  0.4995  0.5516
10925SOL    HW139121   2.333   2.545   6.920  0.2946  0.4783  0.3808
10925SOL    HW239122   2.223   2.443   6.943 -0.0361  1.0690  1.4687
10926SOL     OW39123   0.216   6.895   6.970 -0.2133  0.3715 -0.1352
10926SOL    HW139124   0.158   6.886   7.045  1.1898  2.6761  1.3678
10926SOL    HW239125   0.286   6.832   6.985 -1.2494 -1.0022 -0.9146
10927SOL     OW39126   1.148   4.096   5.990  0.1235 -0.5204 -0.1800
10927SOL    HW139127   1.085   4.070   6.057 -0.7474  2.6363  0.4029
10927SOL    HW239128   1.094   4.138   5.922  1.4295  0.9042 -0.3870
10928SOL     OW39129   8.761   1.830   0.856 -0.1719 -0.2165  0.2288
10928SOL    HW139130   8.714   1.865   0.932 -0.2282 -1.2419  0.6756
10928SOL    HW239131   8.777   1.738   0.878 -1.8792 -1.0760 -1.7953
10929SOL     OW39132   5.630   2.186   2.018 -0.1218 -0.2021  0.9109
10929SOL    HW139133   5.724   2.186   2.036  0.3766  1.1545 -1.3059
10929SOL    HW239134   5.597   2.264   2.063  0.0440  0.0028  0.6774
10930SOL     OW39135   2.388   0.238   6.060 -0.7216 -0.6985  0.5708
10930SOL    HW139136   2.341   0.237   5.976  1.2191 -0.8351 -0.5638
10930SOL    HW239137   2.340   0.302   6.113 -1.8418 -0.4159 -0.7244
10931SOL     OW39138   8.650   8.134   6.552  0.0283 -0.3869 -0.3840
10931SOL    HW139139   8.669   8.199   6.620  0.2762 -0.2551 -0.5764
10931SOL    HW239140   8.571   8.167   6.509  1.5200  1.1415 -2.1186
10932SOL     OW39141   8.266   3.208   0.825 -0.4182 -0.0498 -0.2223
10932SOL    HW139142   8.204   3.262   0.875 -0.3711 -0.9547  0.8610
10932SOL    HW239143   8.213   3.134   0.794  0.4215 -1.8962  2.3930
10933SOL     OW39144   1.364   8.019   8.981 -0.3311 -0.2559  0.4143
10933SOL    HW139145   1.425   8.038   8.909 -1.0687  0.8120  0.0438
10933SOL    HW239146   1.393   7.934   9.015  1.2709  0.1534  0.1585
10934SOL     OW39147   6.624   7.239   7.738  0.3027  0.2463 -0.1944
10934SOL    HW139148   6.693   7.182   7.705  0.2996  1.0195 -1.5814
10934SOL    HW239149   6.669   7.321   7.759 -0.4391  1.4953 -3.0745
10935SOL     OW39150   0.461   6.910   1.977 -0.4888  0.0503 -0.8176
10935SOL    HW139151   0.413   6.948   2.051  0.0313 -0.8663  0.0124
10935SOL    HW239152   0.553   6.931   1.996 -0.2666 -0.9791 -0.7196
10936SOL     OW39153   0.951   0.257   2.601 -0.1184 -0.0513  0.1985
10936SOL    HW139154   1.005   0.253   2.522  0.7772  1.2862  0.6931
10936SOL    HW239155   0.935   0.350   2.614 -1.6850 -0.3604  0.6751
10937SOL     OW39156   6.189   1.733   7.112  0.5966  0.4737  0.6596
10937SOL    HW139157   6.118   1.696   7.061  1.8258 -0.1011 -0.6899
10937SOL    HW239158   6.211   1.814   7.067  1.3150  0.2463  0.5881
10938SOL     OW39159   3.314   5.445   7.465  0.2375  0.0692  0.0098
10938SOL    HW139160   3.254   5.497   7.518  0.3110 -1.6650  1.9205
10938SOL    HW239161   3.273   5.360   7.458  1.5650 -0.5761 -0.3013
10939SOL     OW39162   2.241   2.679   2.049  0.3808  0.1102 -0.0589
10939SOL    HW139163   2.304   2.723   2.106 -0.2268  0.8492  0.0640
10939SOL    HW239164   2.171   2.744   2.036 -0.0685 -0.4790 -0.6676
10940SOL     OW39165   4.648   1.522   1.659  0.2243 -0.3330  0.9202
10940SOL    HW139166   4.635   1.430   1.683 -0.6702 -0.0400  1.6212
10940SOL    HW239167   4.716   1.520   1.592  0.4944 -1.4705  1.2085
10941SOL     OW39168   3.567   1.149   0.694  0.1079  0.2273 -0.2201
10941SOL    HW139169   3.581   1.083   0.761  1.0276  1.5736  0.9512
10941SOL    HW239170   3.544   1.229   0.742  2.8530  1.7910 -1.2901
10942SOL     OW39171   0.812   8.313   8.444 -0.0926 -0.1026 -0.4860
10942SOL    HW139172   0.906   8.298   8.444 -0.3227 -1.7499  0.6048
10942SOL    HW239173   0.781   8.273   8.363  0.1913  0.9902 -1.1596
10943SOL     OW39174   6.859   5.273   5.009  0.1288  0.0090 -0.1302
10943SOL    HW139175   6.804   5.283   4.932 -0.2039 -2.2757 -0.2511
10943SOL    HW239176   6.921   5.204   4.986  1.2782  0.6212  0.9869
10944SOL     OW39177   9.021   5.908   5.425 -0.5313 -0.0977  0.0359
10944SOL    HW139178   8.984   5.949   5.347 -1.0292  1.9302  1.2600
10944SOL    HW239179   8.969   5.828   5.437  0.2841 -1.0577 -2.2621
10945SOL     OW39180   8.874   7.170   0.721  0.7295 -0.1918  0.1790
10945SOL    HW139181   8.959   7.146   0.756  0.1494 -0.8123  1.1962
10945SOL    HW239182   8.871   7.265   0.728  1.5352 -0.1134 -0.3618
10946SOL     OW39183   9.241   6.868   4.846  0.1841 -0.0461 -0.1865
10946SOL    HW139184   9.147   6.849   4.848  0.6418 -2.9917 -1.0724
10946SOL    HW239185   9.282   6.787   4.877  2.4823  0.3713 -1.8808
10947SOL     OW39186   8.679   8.561   2.171 -0.8841  0.2344 -0.5333
10947SOL    HW139187   8.637   8.643   2.197 -0.8955  1.0054 -2.7453
10947SOL    HW239188   8.608   8.512   2.129 -0.2974  0.2196 -1.5216
10948SOL     OW39189   4.350   2.471   8.192 -0.0203  0.0330 -0.4671
10948SOL    HW139190   4.365   2.452   8.285  1.8715  1.4428 -0.4316
10948SOL    HW239191   4.321   2.387   8.155  2.9201 -1.6487  0.6488
10949SOL     OW39192   1.670   8.336   8.537 -0.2404 -0.4256 -0.0824
10949SOL    HW139193   1.641   8.247   8.518 -2.5654  0.3627 -0.6311
10949SOL    HW239194   1.596   8.376   8.583  0.7378  1.2168  0.1564
10950SOL     OW39195   3.206   8.392   9.091 -0.4857  0.0453  0.4849
10950SOL    HW139196   3.245   8.306   9.081 -1.0544 -0.0476 -1.4158
10950SOL    HW239197   3.112   8.375   9.102 -0.7354  0.4020 -0.8602
10951SOL     OW39198   4.742   4.464   1.126  0.5604  0.0718  0.9000
10951SOL    HW139199   4.665   4.443   1.072  0.6979  0.5737  0.5094
10951SOL    HW239200   4.719   4.545   1.171  0.6145 -0.1186  1.2828
10952SOL     OW39201   8.768   7.539   3.190 -0.6876  0.0859  0.4135
10952SOL    HW139202   8.835   7.476   3.166 -0.3416  0.3768  0.6070
10952SOL    HW239203   8.752   7.589   3.110  1.1800  1.7157  0.9909
10953SOL     OW39204   1.380   6.703   1.013 -0.8873 -0.6551 -0.0369
10953SOL    HW139205   1.353   6.626   0.964 -3.1228  0.1130 -0.1381
10953SOL    HW239206   1.300   6.734   1.056  0.6216 -0.3887  2.8709
10954SOL     OW39207   0.798   1.970   3.844  0.2341  0.3429  0.0466
10954SOL    HW139208   0.853   1.898   3.813  1.0626  1.1862 -0.4919
10954SOL    HW239209   0.859   2.043   3.856 -0.7433  1.2521 -0.3888
10955SOL     OW39210   0.329   0.771   7.595  0.0496 -0.0956  0.2214
10955SOL    HW139211   0.291   0.708   7.656  1.9635  0.2820  1.9032
10955SOL    HW239212   0.421   0.746   7.588  0.7538  2.1846  0.5549
10956SOL     OW39213   8.100   0.701   2.021  0.2289 -0.2166  0.3724
10956SOL    HW139214   8.103   0.657   2.106 -0.2875 -0.3630  0.3193
10956SOL    HW239215   8.039   0.648   1.969  0.2174  0.1128  0.0498
10957SOL     OW39216   1.601   0.713   5.979 -0.4156 -0.0718 -0.0687
10957SOL    HW139217   1.659   0.751   5.913 -1.2169  1.3776  0.0154
10957SOL    HW239218   1.595   0.620   5.955  0.9313  0.0050 -0.7989
10958SOL     OW39219   3.866   2.456   4.721  0.7797 -0.0011 -0.0408
10958SOL    HW139220   3.787   2.412   4.691  0.5683 -0.5087  1.2203
10958SOL    HW239221   3.877   2.529   4.660 -1.6156  1.1091  0.7180
10959SOL     OW39222   5.800   5.919   2.518  0.4166  0.2578 -0.2152
10959SOL    HW139223   5.860   5.963   2.580  0.5257 -0.4721  0.2138
10959SOL    HW239224   5.772   5.840   2.565 -1.2480  0.8025 -0.2308
10960SOL     OW39225   6.091   8.453   3.590 -0.1350  0.1949 -0.1711
10960SOL    HW139226   5.997   8.449   3.571  0.1980 -0.2123 -1.9229
10960SOL    HW239227   6.118   8.539   3.557  0.3246 -0.2052 -0.8685
10961SOL     OW39228   2.431   2.769   1.403  0.3002  0.0516  0.4719
10961SOL    HW139229   2.349   2.818   1.404  0.6858  0.7336  0.1528
10961SOL    HW239230   2.471   2.791   1.318 -0.0392 -1.7296 -0.1977
10962SOL     OW39231   0.859   4.922   7.702 -0.3059  0.4411  0.5377
10962SOL    HW139232   0.787   4.965   7.748 -1.3980 -1.3218  0.5724
10962SOL    HW239233   0.819   4.888   7.622 -0.0907 -2.4007  1.5294
10963SOL     OW39234   3.340   0.967   5.467 -0.2971 -0.2035 -0.0307
10963SOL    HW139235   3.273   0.954   5.400  0.1579 -0.0657 -0.5226
10963SOL    HW239236   3.414   1.005   5.420  0.2767 -0.7309  0.4254
10964SOL     OW39237   5.658   1.856   2.558 -0.2849 -0.1028 -0.3296
10964SOL    HW139238   5.688   1.821   2.642 -0.5861 -1.7655 -0.8695
10964SOL    HW239239   5.637   1.778   2.506 -3.0292  0.9105 -0.9085
10965SOL     OW39240   6.387   4.363   7.845 -0.0627  0.0856  0.4108
10965SOL    HW139241   6.390   4.267   7.849 -1.0676  0.0535  0.7147
10965SOL    HW239242   6.310   4.382   7.790 -0.3180  0.7207  0.9734
10966SOL     OW39243   5.711   3.879   1.022 -0.0325  0.0200  0.2227
10966SOL    HW139244   5.756   3.957   1.054 -2.6523  3.0525 -2.6735
10966SOL    HW239245   5.633   3.872   1.077  0.4524 -0.9456  0.8083
10967SOL     OW39246   1.926   6.505   6.241  0.2192  0.4542  0.3621
10967SOL    HW139247   1.922   6.581   6.183  0.0928 -0.2108 -0.5239
10967SOL    HW239248   2.011   6.466   6.223 -0.6472 -0.9315 -0.9255
10968SOL     OW39249   6.591   4.043   3.369 -0.3503  0.1136 -0.2263
10968SOL    HW139250   6.598   4.097   3.290 -0.9298  0.4739 -0.0325
10968SOL    HW239251   6.544   4.097   3.432  0.3926 -0.0421  0.4890
10969SOL     OW39252   2.629   1.845   5.971 -0.2426  0.5720 -0.2052
10969SOL    HW139253   2.578   1.886   6.041 -0.2583  0.3945 -0.1113
10969SOL    HW239254   2.715   1.830   6.010 -0.3026  0.3172 -0.1680
10970SOL     OW39255   6.316   0.702   4.616 -0.5694 -0.0596 -0.1535
10970SOL    HW139256   6.308   0.761   4.690  0.0350  0.6530 -0.6302
10970SOL    HW239257   6.279   0.751   4.542 -0.8426 -0.6165 -0.3899
10971SOL     OW39258   3.759   3.741   2.907 -0.2157 -0.0911  0.0921
10971SOL    HW139259   3.762   3.656   2.863 -0.3772  0.4876 -1.0822
10971SOL    HW239260   3.723   3.800   2.842 -0.0190  0.9066  0.8630
10972SOL     OW39261   0.943   3.899   2.384 -0.3090 -0.7080 -0.8356
10972SOL    HW139262   0.980   3.814   2.363 -0.2056 -0.5100 -1.5038
10972SOL    HW239263   0.961   3.953   2.306  0.8192  0.3211  0.0981
10973SOL     OW39264   9.035   6.717   6.253 -0.4053  0.0704  0.2572
10973SOL    HW139265   8.995   6.780   6.194 -3.4964 -0.1380  1.9366
10973SOL    HW239266   9.084   6.771   6.316  0.4695  0.4562 -0.7212
10974SOL     OW39267   4.451   4.894   1.238 -0.4205  0.3440  0.2174
10974SOL    HW139268   4.377   4.927   1.187 -0.3050  1.2056  0.5814
10974SOL    HW239269   4.445   4.941   1.321  1.2229  1.3478 -0.1890
10975SOL     OW39270   6.828   6.930   7.784  0.2568 -0.2650  0.7413
10975SOL    HW139271   6.822   6.943   7.690 -0.7568 -0.1301  0.8131
10975SOL    HW239272   6.914   6.965   7.808 -0.3719  1.7690  0.1909
10976SOL     OW39273   8.724   1.958   5.492 -0.0687  0.3511 -0.2660
10976SOL    HW139274   8.726   1.902   5.569 -0.8395  0.0238 -0.4678
10976SOL    HW239275   8.632   1.956   5.463 -0.1088  1.6500 -0.3232
10977SOL     OW39276   3.180   0.708   3.650  0.3290 -0.7095 -0.2935
10977SOL    HW139277   3.193   0.708   3.555  2.5243 -0.7202 -0.0307
10977SOL    HW239278   3.088   0.682   3.661 -0.7589  1.7865 -2.4570
10978SOL     OW39279   2.635   4.961   7.984  0.3493  0.3195  0.0342
10978SOL    HW139280   2.684   5.028   8.031  1.9842 -0.4814 -0.4752
10978SOL    HW239281   2.544   4.992   7.986  1.0102  2.3730  0.0736
10979SOL     OW39282   2.029   1.170   4.025 -0.0622 -0.6802  0.5631
10979SOL    HW139283   2.032   1.240   4.090 -1.4369 -0.4500  0.4054
10979SOL    HW239284   1.955   1.193   3.969  0.4608 -1.4288 -0.4539
10980SOL     OW39285   6.441   1.725   0.687 -0.2752  0.0785  0.2333
10980SOL    HW139286   6.489   1.790   0.636  0.1389 -0.0823  0.4065
10980SOL    HW239287   6.427   1.652   0.627 -0.2106  0.0863  0.2087
10981SOL     OW39288   3.160   0.042   2.094  0.5922  0.2242  0.2566
10981SOL    HW139289   3.225  -0.027   2.108  0.3511 -0.0672 -0.0517
10981SOL    HW239290   3.124   0.058   2.181  0.8600  0.1739  0.3800
10982SOL     OW39291   6.443   7.287   7.538 -0.3820 -0.3115 -0.4958
10982SOL    HW139292   6.366   7.247   7.578 -0.1027 -0.0400  0.3334
10982SOL    HW239293   6.516   7.260   7.593 -0.1960  1.3924  0.1666
10983SOL     OW39294   8.552   0.464   0.664  0.2883  0.0290 -0.3048
10983SOL    HW139295   8.617   0.534   0.667 -0.4638  0.8775 -2.0371
10983SOL    HW239296   8.539   0.439   0.756  1.4814  1.2983  0.2473
10984SOL     OW39297   8.362   4.742   4.087 -0.2879  0.1722  0.5765
10984SOL    HW139298   8.421   4.676   4.050 -1.2767  0.1751 -1.1220
10984SOL    HW239299   8.282   4.693   4.108 -0.1117  0.3768  1.7442
10985SOL     OW39300   6.542   1.906   3.080 -0.0555  0.0763 -0.0538
10985SOL    HW139301   6.461   1.955   3.090  0.3440  0.8548 -0.5387
10985SOL    HW239302   6.520   1.817   3.108 -0.6455  0.6497  1.4203
10986SOL     OW39303   0.127   6.286   1.903 -0.4798 -0.2593  0.1989
10986SOL    HW139304   0.168   6.286   1.990  1.4734 -0.3958 -0.6674
10986SOL    HW239305   0.163   6.363   1.860  1.7377 -2.2307 -1.8155
10987SOL     OW39306   4.310   9.148   4.461 -0.1582 -0.6109 -0.0292
10987SOL    HW139307   4.270   9.177   4.379  1.3233 -0.2625 -0.6636
10987SOL    HW239308   4.378   9.213   4.479 -0.0750 -1.0039  1.1734
10988SOL     OW39309   3.476   5.023   3.369  0.7653 -0.7091  0.9767
10988SOL    HW139310   3.483   4.981   3.455 -0.6200 -1.3483  0.8130
10988SOL    HW239311   3.382   5.042   3.360  0.8315 -0.9824 -0.5363
10989SOL     OW39312   4.197   6.027   3.850 -0.3964 -0.1279  0.1456
10989SOL    HW139313   4.259   6.098   3.864  0.4458 -1.2169  2.2662
10989SOL    HW239314   4.118   6.055   3.896 -0.4987 -0.0237 -0.0909
10990SOL     OW39315   3.719   4.669   6.410 -0.2060  0.0663 -0.2854
10990SOL    HW139316   3.624   4.683   6.406 -0.2543 -0.2678 -0.3304
10990SOL    HW239317   3.757   4.755   6.389 -0.4912 -0.1220 -1.6815
10991SOL     OW39318   4.394   4.739   3.493  0.1548 -0.6050 -0.3197
10991SOL    HW139319   4.392   4.769   3.583  0.2005 -1.1587 -0.1303
10991SOL    HW239320   4.473   4.684   3.487  1.6350  1.4899 -1.3766
10992SOL     OW39321   1.283   5.410   8.747 -0.8238  1.2725 -0.4588
10992SOL    HW139322   1.352   5.419   8.813 -0.4330 -0.2130 -0.6367
10992SOL    HW239323   1.299   5.482   8.686  0.3068  1.2222 -0.2466
10993SOL     OW39324   1.810   1.844   5.400  0.2120  0.2733 -0.0723
10993SOL    HW139325   1.905   1.836   5.407  0.1653  0.6502  1.1248
10993SOL    HW239326   1.782   1.765   5.354  0.9063 -0.8395  1.3457
10994SOL     OW39327   8.403   8.974   5.880 -0.7124 -0.7330  1.0716
10994SOL    HW139328   8.413   8.879   5.875 -1.6474 -0.7865 -0.4846
10994SOL    HW239329   8.488   9.006   5.910  0.2176 -1.9520 -0.1478
10995SOL     OW39330   5.003   3.604   6.185 -0.0206  0.4997  0.3853
10995SOL    HW139331   5.001   3.595   6.090  2.1561  0.3183  0.2964
10995SOL    HW239332   5.000   3.514   6.217 -1.9252  0.5991  0.5750
10996SOL     OW39333   1.722   0.290   7.713  0.2425  1.0802  0.6755
10996SOL    HW139334   1.760   0.294   7.625 -1.5188 -1.2268 -0.2865
10996SOL    HW239335   1.674   0.372   7.722 -1.3178  0.4805 -1.4386
10997SOL     OW39336   2.079   2.864   8.694  0.2498  0.7026 -0.5230
10997SOL    HW139337   2.059   2.770   8.691  2.2732  0.0758  2.2129
10997SOL    HW239338   2.172   2.869   8.670  0.4214  1.8720  0.3071
10998SOL     OW39339   7.266   5.093   4.790 -0.2056  0.4489  0.1277
10998SOL    HW139340   7.324   5.170   4.793  1.0256 -0.4738  1.2908
10998SOL    HW239341   7.226   5.097   4.703  1.6307  1.1239 -0.7528
10999SOL     OW39342   1.567   0.054   8.266 -0.0181  0.3756 -0.0687
10999SOL    HW139343   1.551   0.099   8.183 -0.8597  0.2057  0.0022
10999SOL    HW239344   1.567  -0.039   8.244  0.5187  0.3560 -0.0036
11000SOL     OW39345   7.228   6.733   1.571 -0.2148  0.0352  0.2772
11000SOL    HW139346   7.178   6.765   1.646 -0.5621  0.4308 -0.1153
11000SOL    HW239347   7.315   6.773   1.582 -0.7878  1.5657 -0.4731
11001SOL     OW39348   3.097   6.414   8.306  0.6510  0.4524  0.0074
11001SOL    HW139349   3.108   6.319   8.311 -0.3455  0.2292 -1.3668
11001SOL    HW239350   3.097   6.434   8.212 -0.8209  1.5676  0.1922
11002SOL     OW39351   4.423   4.931   0.132  0.3397  0.3270 -0.4128
11002SOL    HW139352   4.473   4.946   0.053 -1.8569 -2.7596 -2.6232
11002SOL    HW239353   4.343   4.983   0.121  0.5965  0.9303  0.4509
11003SOL     OW39354   0.822   3.931   3.494  0.9146 -0.5462 -0.2326
11003SOL    HW139355   0.763   3.887   3.555 -2.3846  0.7131 -2.2629
11003SOL    HW239356   0.851   3.861   3.435  0.7275 -1.0391  0.2527
11004SOL     OW39357   5.734   6.924   2.601 -0.6816 -0.2555  0.4323
11004SOL    HW139358   5.743   6.829   2.611 -1.7119 -0.6793 -1.9197
11004SOL    HW239359   5.689   6.934   2.517 -2.1245  2.2606  1.4148
11005SOL     OW39360   0.276   6.618   4.668 -0.2223 -0.4968 -0.2394
11005SOL    HW139361   0.317   6.552   4.724 -1.0795 -0.4133  0.5169
11005SOL    HW239362   0.183   6.595   4.667 -0.5919  0.8599  0.2984
11006SOL     OW39363   3.924   5.819   1.695  0.5721  0.1747  0.3425
11006SOL    HW139364   3.999   5.857   1.740  0.2794  0.1240  0.8805
11006SOL    HW239365   3.848   5.851   1.744  0.0892  2.0759 -1.5198
11007SOL     OW39366   2.917   4.056   1.245  0.0166 -0.2038 -0.1461
11007SOL    HW139367   2.845   4.107   1.208 -0.7924 -1.4298 -0.3302
11007SOL    HW239368   2.960   4.018   1.169  0.7592  0.3796 -0.0238
11008SOL     OW39369   4.320   8.536   5.066  0.8134  0.1565  0.1590
11008SOL    HW139370   4.226   8.544   5.080  0.5528 -0.3119 -1.1910
11008SOL    HW239371   4.358   8.605   5.119 -0.2576  0.0864  1.0580
11009SOL     OW39372   7.317   1.116   5.970  0.4040  0.1970 -0.0686
11009SOL    HW139373   7.353   1.170   6.041  0.4615  1.2308 -0.8557
11009SOL    HW239374   7.341   1.027   5.993  2.2510  0.7119  0.1753
11010SOL     OW39375   5.242   0.692   1.598 -0.2286 -0.5287  0.4561
11010SOL    HW139376   5.166   0.731   1.642  0.3514 -0.5593  1.5268
11010SOL    HW239377   5.231   0.716   1.506 -0.3104  1.5072  0.9466
11011SOL     OW39378   2.653   0.442   0.647 -0.1960  0.0463  0.3646
11011SOL    HW139379   2.654   0.464   0.554  2.0948 -2.5904 -0.3830
11011SOL    HW239380   2.714   0.503   0.687  2.0127 -1.3302 -0.7010
11012SOL     OW39381   2.696   7.132   9.132 -0.0521  0.3483 -0.0954
11012SOL    HW139382   2.669   7.100   9.047 -1.0132  1.2764 -0.1588
11012SOL    HW239383   2.684   7.227   9.127  2.1530  0.7024  0.2707
11013SOL     OW39384   7.416   8.820   1.091 -0.5547  0.0611  0.2505
11013SOL    HW139385   7.341   8.856   1.138 -1.8958 -2.7735  0.5232
11013SOL    HW239386   7.398   8.838   0.999 -1.5544 -0.4958  0.3237
11014SOL     OW39387   7.809   4.338   4.115  0.0911 -0.6371 -0.1438
11014SOL    HW139388   7.820   4.416   4.170  1.9464 -0.7525 -0.2842
11014SOL    HW239389   7.786   4.268   4.177  0.5076 -0.4184  0.2625
11015SOL     OW39390   7.896   1.087   2.754 -0.1318  0.0842 -0.4939
11015SOL    HW139391   7.807   1.052   2.750  0.0130 -0.3148 -0.2462
11015SOL    HW239392   7.941   1.046   2.679  0.2032 -0.7384  0.1415
11016SOL     OW39393   6.309   3.195   6.499  0.8865 -0.2871 -0.9240
11016SOL    HW139394   6.317   3.289   6.510 -1.4754 -0.3103  2.8590
11016SOL    HW239395   6.258   3.184   6.419 -2.3054  2.0321  0.5564
11017SOL     OW39396   2.875   1.535   8.253  0.3232 -0.6303  0.2137
11017SOL    HW139397   2.864   1.589   8.174  2.0336 -0.7449 -0.1271
11017SOL    HW239398   2.811   1.464   8.241  0.2638 -0.4163 -0.8665
11018SOL     OW39399   6.497   5.235   1.440  0.0205  0.3614  0.4201
11018SOL    HW139400   6.575   5.188   1.410 -0.1812  0.4387 -0.2283
11018SOL    HW239401   6.442   5.167   1.479  0.1980  0.2351  0.4547
11019SOL     OW39402   6.589   7.114   1.811  0.2619  0.3077 -0.2464
11019SOL    HW139403   6.679   7.113   1.781  0.0655 -0.5944 -0.8193
11019SOL    HW239404   6.564   7.207   1.810  1.1836  0.5637 -0.0409
11020SOL     OW39405   0.912   6.600   6.272 -0.0775  0.1723 -0.0626
11020SOL    HW139406   0.991   6.633   6.229  1.4326 -1.5830  1.2146
11020SOL    HW239407   0.920   6.504   6.268 -2.5828 -0.1039 -0.6233
11021SOL     OW39408   9.057   2.557   0.721  0.1286  0.0004 -0.1149
11021SOL    HW139409   8.968   2.588   0.740 -0.9719 -2.8100 -0.1392
11021SOL    HW239410   9.049   2.511   0.638  1.7217  0.0437 -0.3203
11022SOL     OW39411   1.900   1.047   8.438 -0.2612 -0.1668  0.1875
11022SOL    HW139412   1.834   1.032   8.506 -1.4640  0.1573 -0.8551
11022SOL    HW239413   1.907   0.963   8.393  0.9502 -0.5407  1.0400
11023SOL     OW39414   5.867   7.025   8.777 -0.0795 -0.0549  0.0878
11023SOL    HW139415   5.935   6.974   8.820 -1.4558 -0.9499  1.3239
11023SOL    HW239416   5.894   7.116   8.788  2.0769 -0.4372 -1.5656
11024SOL     OW39417   5.525   6.634   6.176  0.0467 -0.4198 -0.1865
11024SOL    HW139418   5.497   6.627   6.267  0.1734 -1.4941 -0.2175
11024SOL    HW239419   5.613   6.595   6.175 -0.2327 -1.0537 -0.8929
11025SOL     OW39420   3.833   2.465   6.880 -0.0426 -0.4060 -1.1386
11025SOL    HW139421   3.789   2.550   6.871  0.4444 -0.2687 -2.4849
11025SOL    HW239422   3.775   2.414   6.936  0.9046  1.6490  1.9856
11026SOL     OW39423   8.756   9.127   0.080 -0.0622 -0.1834  0.2851
11026SOL    HW139424   8.802   9.061   0.132  0.8144 -0.7862 -1.1927
11026SOL    HW239425   8.795   9.119  -0.007 -0.2823  1.9660 -0.0461
11027SOL     OW39426   6.309   2.810   4.480  0.6744  0.2173 -0.2726
11027SOL    HW139427   6.221   2.807   4.444  0.9485  3.3496 -1.5814
11027SOL    HW239428   6.366   2.786   4.407  0.9889 -2.5371  0.7663
11028SOL     OW39429   4.335   0.532   2.257 -0.0798 -0.8771  0.0360
11028SOL    HW139430   4.263   0.468   2.256  0.7100 -1.7948 -1.5713
11028SOL    HW239431   4.357   0.545   2.165 -0.2709  1.8515  0.3043
11029SOL     OW39432   6.380   4.027   0.275  0.1470 -0.2331 -0.4942
11029SOL    HW139433   6.396   4.110   0.319  0.6689 -0.3869 -0.3843
11029SOL    HW239434   6.467   3.998   0.247  0.1672 -1.4777  0.7874
11030SOL     OW39435   7.808   0.053   5.622  0.7720  0.0709  0.4877
11030SOL    HW139436   7.724   0.055   5.576  0.5922  1.8142  0.8429
11030SOL    HW239437   7.860  -0.011   5.574 -1.2375 -2.2501  1.1756
11031SOL     OW39438   0.750   6.393   7.373  0.4736 -0.0422  0.3285
11031SOL    HW139439   0.739   6.484   7.401  0.1373  0.5396 -1.5466
11031SOL    HW239440   0.724   6.341   7.449  0.3569  1.4178  1.3284
11032SOL     OW39441   2.270   6.764   3.999  0.2355 -0.0938 -0.5883
11032SOL    HW139442   2.306   6.831   4.057 -1.1735  0.1751 -0.0036
11032SOL    HW239443   2.287   6.797   3.911  1.1311  0.1654 -0.3325
11033SOL     OW39444   1.517   3.852   3.358 -0.1956 -0.6927 -0.1240
11033SOL    HW139445   1.555   3.914   3.421 -0.5345 -0.8194  0.2103
11033SOL    HW239446   1.503   3.772   3.409  2.6219 -1.9669 -1.1222
11034SOL     OW39447   9.045   4.540   8.464  0.2155 -0.6099 -0.1546
11034SOL    HW139448   9.139   4.526   8.464  0.1143 -1.4268  0.9570
11034SOL    HW239449   9.027   4.578   8.550 -0.2633  1.1741 -0.9921
11035SOL     OW39450   1.804   8.353   1.313 -0.0215 -0.5758 -0.4164
11035SOL    HW139451   1.880   8.404   1.342 -0.5875 -0.1801  0.4125
11035SOL    HW239452   1.823   8.263   1.340  0.2836 -0.5336 -0.4865
11036SOL     OW39453   5.872   4.613   9.017 -0.1690 -0.7836 -0.0626
11036SOL    HW139454   5.946   4.557   8.993 -0.3603 -0.3114 -1.8917
11036SOL    HW239455   5.822   4.623   8.937  1.3289  4.2033 -0.7530
11037SOL     OW39456   8.556   5.605   8.808 -0.5273  0.9726 -0.2954
11037SOL    HW139457   8.576   5.683   8.756  0.9484 -0.0310 -1.3028
11037SOL    HW239458   8.480   5.566   8.764 -1.5667  2.0406  0.4840
11038SOL     OW39459   1.117   4.565   0.913  0.1519 -0.1146 -0.0422
11038SOL    HW139460   1.059   4.640   0.897 -2.3745 -1.7080  1.0817
11038SOL    HW239461   1.143   4.574   1.004  0.0795 -0.4434  0.0125
11039SOL     OW39462   8.825   8.341   3.688 -0.0913  0.1139 -0.0295
11039SOL    HW139463   8.837   8.347   3.593 -0.1220  0.9762  0.0162
11039SOL    HW239464   8.913   8.349   3.724  0.0605 -1.3222 -0.0164
11040SOL     OW39465   0.594   0.369   1.338  0.5405 -0.2609  0.0360
11040SOL    HW139466   0.630   0.376   1.426  0.9058 -1.3358 -0.0099
11040SOL    HW239467   0.660   0.320   1.289  0.8067  1.1748 -1.1134
11041SOL     OW39468   3.242   4.493   1.420 -0.1340 -0.5028  0.1948
11041SOL    HW139469   3.221   4.400   1.431 -0.2368 -0.5566 -0.4335
11041SOL    HW239470   3.161   4.539   1.445  0.4368 -0.4831  2.1651
11042SOL     OW39471   0.441   8.557   8.919  0.8024 -0.2367 -0.6970
11042SOL    HW139472   0.382   8.573   8.846  0.1365  0.3272 -0.0444
11042SOL    HW239473   0.524   8.531   8.877  0.0411 -1.2632 -1.6047
11043SOL     OW39474   2.495   8.700   7.061  0.1283 -0.7902 -0.5343
11043SOL    HW139475   2.496   8.778   7.116  0.6137  0.9664 -2.8602
11043SOL    HW239476   2.415   8.707   7.009  0.9827 -0.9189 -1.9370
11044SOL     OW39477   7.338   1.088   8.559 -0.0585 -0.5738  0.2115
11044SOL    HW139478   7.321   1.152   8.490 -0.3119 -0.3800  0.4506
11044SOL    HW239479   7.424   1.112   8.593  0.8354 -1.6761 -1.1354
11045SOL     OW39480   6.784   0.378   1.780 -0.2059 -0.0283 -0.0787
11045SOL    HW139481   6.813   0.337   1.698 -3.1681 -0.9239 -0.7804
11045SOL    HW239482   6.694   0.406   1.763 -0.3489  1.2763  2.3805
11046SOL     OW39483   0.209   1.287   0.759 -0.3739  0.1377 -0.4811
11046SOL    HW139484   0.123   1.283   0.802  0.4373  1.8226  1.4106
11046SOL    HW239485   0.217   1.202   0.715 -2.4744 -0.5373  0.3075
11047SOL     OW39486   1.879   1.907   3.361  0.4085  0.1229  0.0023
11047SOL    HW139487   1.938   1.983   3.362 -0.2703  0.6606 -0.3370
11047SOL    HW239488   1.867   1.886   3.453  0.9356  0.1565  0.0861
11048SOL     OW39489   3.989   0.928   1.485 -0.2272  0.2621 -0.3041
11048SOL    HW139490   4.058   0.879   1.530 -0.3473 -0.5203 -0.9338
11048SOL    HW239491   3.997   1.017   1.518  1.1472  0.2119 -0.4534
11049SOL     OW39492   5.681   9.014   7.071  0.2951 -0.2506  0.0022
11049SOL    HW139493   5.653   9.103   7.050  0.7659 -0.2635 -0.6985
11049SOL    HW239494   5.716   8.979   6.989  0.8763 -0.7887  0.4706
11050SOL     OW39495   4.448   1.228   5.563 -0.3410 -0.4140  0.2965
11050SOL    HW139496   4.520   1.291   5.568 -0.6106 -0.0814  0.0208
11050SOL    HW239497   4.429   1.221   5.470 -2.2782  1.3617  0.4781
11051SOL     OW39498   1.857   1.150   7.394  0.5350  0.0008 -0.7879
11051SOL    HW139499   1.921   1.191   7.336  1.4792 -0.2841  0.0288
11051SOL    HW239500   1.882   1.057   7.396 -0.0503 -0.1607 -0.6446
11052SOL     OW39501   2.572   2.837   0.580 -0.2623  0.3932  0.1495
11052SOL    HW139502   2.632   2.879   0.518  0.1041 -1.1395 -0.5950
11052SOL    HW239503   2.561   2.748   0.546 -1.8084  0.1903  1.0948
11053SOL     OW39504   8.182   4.132   4.524 -0.2590  0.9408 -0.0219
11053SOL    HW139505   8.219   4.079   4.594  2.6369  4.6853  1.6473
11053SOL    HW239506   8.210   4.089   4.443  1.6353 -0.2868  1.2040
11054SOL     OW39507   3.677   1.438   8.865  0.1685 -0.0907  0.5959
11054SOL    HW139508   3.649   1.383   8.938 -1.8658 -1.7068 -1.2923
11054SOL    HW239509   3.617   1.513   8.867 -2.4741 -1.9512 -1.4802
11055SOL     OW39510   3.558   4.923   7.891  0.1771 -0.0446 -0.9465
11055SOL    HW139511   3.570   4.934   7.797 -1.1186 -0.9929 -1.2471
11055SOL    HW239512   3.628   4.864   7.918 -1.1093 -2.1201 -1.8825
11056SOL     OW39513   6.896   6.002   7.775 -0.6223 -0.1701  0.5844
11056SOL    HW139514   6.862   5.913   7.771  2.8660 -1.6628  0.2229
11056SOL    HW239515   6.959   6.000   7.847  0.0414  1.7975  0.1303
11057SOL     OW39516   1.372   4.384   7.659  0.2227  0.4461  0.5671
11057SOL    HW139517   1.347   4.366   7.750  0.5066  0.1962  0.5960
11057SOL    HW239518   1.308   4.335   7.607  0.3096  0.2617  0.6349
11058SOL     OW39519   2.390   1.326   4.470 -0.3542 -0.4758 -0.6281
11058SOL    HW139520   2.483   1.346   4.462 -0.3222  0.7642  1.8151
11058SOL    HW239521   2.361   1.307   4.381  1.9073  0.5863 -1.6532
11059SOL     OW39522   5.268   0.016   5.746  0.0205  0.7748 -0.3119
11059SOL    HW139523   5.184   0.059   5.761  0.6571  1.5349  1.2372
11059SOL    HW239524   5.267  -0.060   5.804  0.7247  1.2323  0.3025
11060SOL     OW39525   0.514   8.416   4.009  0.4838 -0.2382  0.0115
11060SOL    HW139526   0.429   8.382   4.037  1.4215 -2.4279  0.4327
11060SOL    HW239527   0.565   8.423   4.090  1.6618 -1.9829 -0.5100
11061SOL     OW39528   0.529   7.208   1.338  0.2973 -0.5584  0.1183
11061SOL    HW139529   0.587   7.228   1.264 -0.2032 -1.9392 -0.6688
11061SOL    HW239530   0.587   7.213   1.415  0.9235  0.4421 -0.3933
11062SOL     OW39531   7.657   1.163   4.183  0.3022 -0.2350  0.1354
11062SOL    HW139532   7.569   1.196   4.167  0.3479  0.8386  1.8157
11062SOL    HW239533   7.665   1.162   4.278  2.7985  1.7257  0.0646
11063SOL     OW39534   1.229   3.341   6.025  0.3921 -0.4697  0.4510
11063SOL    HW139535   1.224   3.435   6.008 -0.5313 -0.1990  1.9916
11063SOL    HW239536   1.321   3.318   6.009  0.3295  0.3640 -1.3630
11064SOL     OW39537   2.481   6.099   1.800 -0.1624  0.3542  0.1683
11064SOL    HW139538   2.482   6.008   1.828  0.2577  0.1891 -0.3639
11064SOL    HW239539   2.407   6.105   1.739 -0.2370  0.3858  0.2622
11065SOL     OW39540   7.034   1.069   0.871 -0.1382 -0.2254 -0.0506
11065SOL    HW139541   7.007   1.031   0.955 -1.6678 -0.4615 -0.6111
11065SOL    HW239542   6.974   1.030   0.807  0.7163  0.2847 -1.1904
11066SOL     OW39543   7.003   3.906   1.017 -0.6403  0.3838  0.3620
11066SOL    HW139544   6.980   3.981   1.072  1.9961  0.9238  0.8227
11066SOL    HW239545   7.073   3.861   1.064 -1.9546 -2.3079 -0.0225
11067SOL     OW39546   7.653   4.832   5.802 -0.5833  0.2649  0.4830
11067SOL    HW139547   7.623   4.747   5.833 -0.9332  0.4684  0.7004
11067SOL    HW239548   7.575   4.874   5.766 -0.6938  1.0065  1.5312
11068SOL     OW39549   2.047   0.607   6.262  0.0415  0.1832 -0.0040
11068SOL    HW139550   1.978   0.649   6.312  0.8443 -0.0350  1.3238
11068SOL    HW239551   2.021   0.515   6.257  0.8470 -0.1654  1.6388
11069SOL     OW39552   2.165   3.596   3.385 -0.4665 -0.4410  0.5812
11069SOL    HW139553   2.144   3.626   3.474  0.3825  0.9824  0.3279
11069SOL    HW239554   2.088   3.619   3.333 -0.1385  0.6097  0.5498
11070SOL     OW39555   4.560   8.645   3.010 -0.3953 -0.7373  0.6987
11070SOL    HW139556   4.619   8.644   3.085  0.5358  0.4772  0.0109
11070SOL    HW239557   4.542   8.552   2.993 -0.7419 -1.0374  2.4751
11071SOL     OW39558   2.716   6.234   6.162 -1.1003  0.1525 -0.0671
11071SOL    HW139559   2.756   6.277   6.238 -0.4537  0.0301 -0.3266
11071SOL    HW239560   2.768   6.155   6.149 -0.2076  0.9154 -1.5385
11072SOL     OW39561   8.717   6.411   1.580 -0.3788  0.5615  0.3853
11072SOL    HW139562   8.656   6.459   1.636  0.2772 -0.4181  1.9940
11072SOL    HW239563   8.796   6.465   1.580  0.5042 -0.6287  2.5331
11073SOL     OW39564   3.768   3.324   8.036  0.0947 -0.0208 -0.1657
11073SOL    HW139565   3.696   3.260   8.038 -0.8589  0.7313 -3.5745
11073SOL    HW239566   3.847   3.271   8.039 -0.6639 -1.3660 -1.8708
11074SOL     OW39567   5.120   1.531   5.585 -0.4213  0.4213  0.0874
11074SOL    HW139568   5.097   1.611   5.538 -1.9907  0.5502  1.0106
11074SOL    HW239569   5.036   1.494   5.612  0.3495 -0.7548  0.9525
11075SOL     OW39570   0.059   4.565   2.696 -0.2401 -0.2566  0.0354
11075SOL    HW139571   0.122   4.522   2.753 -1.7971  0.6367  2.5724
11075SOL    HW239572   0.083   4.657   2.699 -1.0535 -0.0441  0.2278
11076SOL     OW39573   2.878   5.498   1.757  0.0098  0.1609 -0.0423
11076SOL    HW139574   2.915   5.411   1.772 -1.4084 -0.7100 -1.2765
11076SOL    HW239575   2.796   5.498   1.805 -0.7086  0.2497 -1.2219
11077SOL     OW39576   1.221   2.382   1.793 -0.0298 -0.2440 -0.0421
11077SOL    HW139577   1.243   2.289   1.786 -0.3716 -0.3211 -0.0883
11077SOL    HW239578   1.285   2.417   1.855 -0.9964 -0.8718  1.3460
11078SOL     OW39579   3.504   8.137   5.363 -0.1938 -0.1281  0.2209
11078SOL    HW139580   3.444   8.175   5.298 -1.4159 -0.8442  0.8780
11078SOL    HW239581   3.571   8.203   5.376  0.2004 -0.0282 -1.9010
11079SOL     OW39582   3.683   8.885   3.409  0.7249 -0.3578  0.6776
11079SOL    HW139583   3.657   8.875   3.500  1.8150 -0.6926  0.9621
11079SOL    HW239584   3.656   8.974   3.386  2.5111  0.5964  2.0455
11080SOL     OW39585   1.928   6.606   5.700 -0.0351  0.5192 -0.2998
11080SOL    HW139586   1.949   6.686   5.653  0.5441 -0.0205 -0.9692
11080SOL    HW239587   1.874   6.555   5.640 -1.2539  0.8133  0.4904
11081SOL     OW39588   8.899   6.608   7.751  0.0701 -0.2131  0.2202
11081SOL    HW139589   8.900   6.594   7.845 -1.1264 -0.8140  0.1706
11081SOL    HW239590   8.888   6.520   7.714  2.6608 -0.2695 -0.6031
11082SOL     OW39591   5.287   5.219   7.259 -0.5977 -0.0904  0.0289
11082SOL    HW139592   5.197   5.249   7.272 -0.0900  1.5077  0.0601
11082SOL    HW239593   5.333   5.295   7.223  0.0579 -1.7038 -2.9588
11083SOL     OW39594   7.851   7.181   5.472 -0.1980 -0.1504 -0.4662
11083SOL    HW139595   7.767   7.225   5.481  0.6386  1.2162  1.2320
11083SOL    HW239596   7.896   7.228   5.402 -0.0416  0.4924  0.0605
11084SOL     OW39597   0.144   8.660   4.443  0.0718  0.0409 -0.1616
11084SOL    HW139598   0.123   8.622   4.357  0.8092 -1.3045  0.2189
11084SOL    HW239599   0.168   8.584   4.497  1.6895  1.0535  0.6100
11085SOL     OW39600   2.211   6.749   0.916 -0.1360 -0.1842  0.0986
11085SOL    HW139601   2.152   6.728   0.988  0.0477 -2.0209 -0.2279
11085SOL    HW239602   2.275   6.677   0.915  1.3978  1.1269 -0.3095
11086SOL     OW39603   3.649   7.274   1.332  0.1956 -0.2907 -0.4542
11086SOL    HW139604   3.681   7.291   1.420 -1.1005 -1.7378  0.3383
11086SOL    HW239605   3.708   7.207   1.298  0.1319 -0.4018 -0.3440
11087SOL     OW39606   3.575   6.877   8.110  0.4469 -0.0468  0.2540
11087SOL    HW139607   3.556   6.913   8.196  2.0721  2.1851 -0.2329
11087SOL    HW239608   3.489   6.861   8.071 -0.3125 -0.5973  2.0344
11088SOL     OW39609   3.775   2.570   8.144  0.1028  0.0455  0.4832
11088SOL    HW139610   3.788   2.528   8.059 -1.9936  0.7552 -0.2584
11088SOL    HW239611   3.861   2.607   8.166  0.4214  0.9387 -1.9545
11089SOL     OW39612   3.317   2.152   1.786 -0.6067 -0.1902  0.0942
11089SOL    HW139613   3.395   2.117   1.742 -0.3494  0.9855 -0.4367
11089SOL    HW239614   3.349   2.181   1.872 -0.1649  1.3128 -0.5306
11090SOL     OW39615   3.956   4.258   5.277  0.0542 -0.4710  0.4379
11090SOL    HW139616   3.971   4.307   5.197 -0.7734  0.2612  0.7123
11090SOL    HW239617   3.934   4.325   5.342  1.2138 -1.0025  1.4070
11091SOL     OW39618   7.537   1.863   2.522  0.3081 -0.3402  0.4831
11091SOL    HW139619   7.559   1.867   2.615 -0.4394 -0.2413  0.6645
11091SOL    HW239620   7.473   1.934   2.509  1.3565  0.4781 -0.3848
11092SOL     OW39621   5.610   7.299   8.554 -0.1960 -0.5734  0.0935
11092SOL    HW139622   5.665   7.220   8.549 -0.2306 -0.5346 -1.4760
11092SOL    HW239623   5.550   7.290   8.480 -0.1359  0.9783 -0.1656
11093SOL     OW39624   6.911   1.500   4.279 -0.5317  0.4826 -0.0914
11093SOL    HW139625   6.902   1.553   4.200 -1.9514 -0.8010 -0.8547
11093SOL    HW239626   6.959   1.422   4.251 -2.2148 -0.6184 -0.0703
11094SOL     OW39627   8.581   7.483   6.334  0.4662  0.4257 -0.1990
11094SOL    HW139628   8.622   7.495   6.419  2.4529  0.9061 -1.1777
11094SOL    HW239629   8.602   7.562   6.285 -0.2041 -0.0559 -1.3194
11095SOL     OW39630   2.808   2.702   8.571 -0.0754  0.0749 -0.6541
11095SOL    HW139631   2.886   2.758   8.574  0.3956 -0.5148 -1.3346
11095SOL    HW239632   2.774   2.714   8.483  0.5666 -1.3778 -1.1338
11096SOL     OW39633   4.659   2.170   5.585 -0.2011  0.8933 -0.9941
11096SOL    HW139634   4.741   2.217   5.599  0.3693 -0.3197 -0.1205
11096SOL    HW239635   4.648   2.168   5.490 -0.1345  2.5774 -1.0706
11097SOL     OW39636   3.904   5.724   0.052 -0.1906 -0.7143  0.1413
11097SOL    HW139637   3.855   5.675   0.118 -0.9135  0.6911  0.6846
11097SOL    HW239638   3.837   5.757  -0.008  0.1668  0.4375  0.3526
11098SOL     OW39639   1.426   3.436   3.134  0.6161  0.0333  0.3137
11098SOL    HW139640   1.420   3.524   3.171 -0.4557 -0.0423  0.3306
11098SOL    HW239641   1.428   3.378   3.210 -0.8113 -0.0752  0.2856
11099SOL     OW39642   6.967   1.296   5.064 -0.1092 -0.5356  0.3230
11099SOL    HW139643   6.932   1.345   5.138 -1.0585 -1.0739  0.2430
11099SOL    HW239644   7.012   1.221   5.104 -0.0848 -0.4931  0.3755
11100SOL     OW39645   3.404   7.132   4.572  0.2618 -0.7513  0.3745
11100SOL    HW139646   3.426   7.173   4.655 -0.7605  0.4090  0.1051
11100SOL    HW239647   3.451   7.184   4.507 -1.6948  0.6035 -0.0431
11101SOL     OW39648   5.080   0.339   7.340 -0.5183  0.6643 -0.3587
11101SOL    HW139649   5.046   0.369   7.424 -0.0353  2.3881 -0.7525
11101SOL    HW239650   5.007   0.290   7.301 -0.1586 -1.8801  1.8189
11102SOL     OW39651   6.779   7.341   3.853 -0.0194  0.4458  0.2025
11102SOL    HW139652   6.829   7.340   3.935 -0.4580  0.6581  0.4774
11102SOL    HW239653   6.723   7.264   3.858  1.9387 -1.1897 -1.1788
11103SOL     OW39654   6.347   9.063   2.456  0.8235 -0.4939 -0.3831
11103SOL    HW139655   6.324   8.982   2.411 -1.3872 -0.2863  0.2533
11103SOL    HW239656   6.268   9.117   2.449  0.7814  0.0070  2.6878
11104SOL     OW39657   3.388   7.549   4.751 -0.1025 -0.2627 -0.3591
11104SOL    HW139658   3.292   7.553   4.745 -0.0050  0.1366 -2.3353
11104SOL    HW239659   3.418   7.570   4.663  1.9172  3.4709  0.9916
11105SOL     OW39660   1.800   3.783   6.076  0.4375 -0.1626 -0.6460
11105SOL    HW139661   1.718   3.830   6.084 -0.1690 -0.7110 -2.9373
11105SOL    HW239662   1.863   3.835   6.127 -1.0021  1.0093  0.0039
11106SOL     OW39663   1.820   6.072   2.557  0.2476  0.5198 -0.6769
11106SOL    HW139664   1.772   6.153   2.573  0.2073  0.1934  1.1209
11106SOL    HW239665   1.851   6.045   2.644  0.1038 -1.4664 -1.1865
11107SOL     OW39666   6.957   8.234   7.361  0.0620 -0.4798  0.0592
11107SOL    HW139667   6.865   8.259   7.361  0.6447  1.9837  0.2474
11107SOL    HW239668   6.995   8.283   7.288  1.3315 -0.9332  0.3887
11108SOL     OW39669   3.562   5.946   4.220  0.0455  0.4408 -0.1793
11108SOL    HW139670   3.635   5.929   4.279  0.8238  0.9126 -0.9779
11108SOL    HW239671   3.484   5.919   4.269  0.8758 -1.8256  0.0045
11109SOL     OW39672   3.110   6.409   2.091  0.2507 -0.3042  0.3034
11109SOL    HW139673   3.015   6.402   2.098  0.0771 -0.6076 -1.7460
11109SOL    HW239674   3.144   6.345   2.153 -0.9271 -1.7378 -0.4823
11110SOL     OW39675   2.879   7.105   4.686  0.6741  0.1581  0.1933
11110SOL    HW139676   2.837   7.183   4.723  1.5220  0.6429  0.1581
11110SOL    HW239677   2.972   7.121   4.695  0.8661 -0.9143  0.2826
11111SOL     OW39678   5.362   2.346   8.834 -0.4008 -0.1060 -0.0750
11111SOL    HW139679   5.346   2.361   8.927 -0.3854 -0.7629  0.0359
11111SOL    HW239680   5.449   2.306   8.830  0.5371  1.8691 -0.5488
11112SOL     OW39681   2.290   1.688   0.121 -0.6781 -0.2930 -0.1686
11112SOL    HW139682   2.357   1.622   0.134 -0.3140  0.2473  0.8403
11112SOL    HW239683   2.237   1.685   0.201 -1.4239 -0.2146 -0.6422
11113SOL     OW39684   8.372   4.265   0.772  0.4042  0.0756  0.5625
11113SOL    HW139685   8.346   4.238   0.683  0.3130 -0.3275  0.7103
11113SOL    HW239686   8.370   4.184   0.823  1.1530  0.1778  0.7702
11114SOL     OW39687   3.292   4.871   7.307  0.1001  0.1282 -0.1548
11114SOL    HW139688   3.201   4.900   7.295 -0.2685 -1.1900 -0.7291
11114SOL    HW239689   3.291   4.825   7.391  0.0223 -0.6536 -0.5770
11115SOL     OW39690   2.479   5.797   7.038  0.3741 -0.3132 -0.5919
11115SOL    HW139691   2.472   5.759   6.950  1.1336  1.0153 -1.2633
11115SOL    HW239692   2.573   5.805   7.053  0.2815 -1.3479  0.7424
11116SOL     OW39693   5.510   4.177   0.755 -0.5457  0.0520  0.4812
11116SOL    HW139694   5.591   4.227   0.752 -0.4925 -0.0741 -1.6518
11116SOL    HW239695   5.538   4.086   0.745 -0.9425  0.0800 -1.3375
11117SOL     OW39696   7.322   4.517   7.781  0.0037 -0.2666  0.6024
11117SOL    HW139697   7.392   4.580   7.764  1.3148 -1.6812  0.5131
11117SOL    HW239698   7.249   4.545   7.726  1.3064 -0.0599 -1.0691
11118SOL     OW39699   2.449   2.239   1.921  0.4057 -0.1440 -0.1887
11118SOL    HW139700   2.461   2.243   2.016 -0.8737  0.9853 -0.0556
11118SOL    HW239701   2.401   2.318   1.899 -1.0100 -1.3110 -1.5140
11119SOL     OW39702   1.967   4.690   2.799 -0.2806  0.3189 -0.4582
11119SOL    HW139703   1.997   4.671   2.888 -1.3428 -0.5180 -0.2507
11119SOL    HW239704   1.915   4.770   2.808  0.9001  1.1262 -0.6215
11120SOL     OW39705   6.588   1.031   3.603  0.1074 -0.4173 -0.5112
11120SOL    HW139706   6.555   1.094   3.667 -0.9859 -0.7892 -0.6993
11120SOL    HW239707   6.682   1.024   3.622 -0.3134 -1.0624  1.5390
11121SOL     OW39708   2.986   3.502   5.958  0.0640 -0.1935  0.1199
11121SOL    HW139709   2.966   3.526   6.049  0.6467 -1.1321  0.5099
11121SOL    HW239710   3.039   3.574   5.925 -1.7963  1.1197 -0.1349
11122SOL     OW39711   7.807   5.013   5.416  0.1104 -0.5932 -0.2783
11122SOL    HW139712   7.779   5.025   5.506 -0.0979 -1.1457 -0.2656
11122SOL    HW239713   7.806   5.101   5.378 -0.9240 -0.5037 -0.0697
11123SOL     OW39714   4.530   1.168   3.846 -0.1675 -0.3076  0.0326
11123SOL    HW139715   4.486   1.085   3.865  1.4224 -0.8629  1.6039
11123SOL    HW239716   4.588   1.148   3.772  0.2568 -0.6370  0.4456
11124SOL     OW39717   7.363   8.149   0.402 -0.1018  0.1401  0.0211
11124SOL    HW139718   7.320   8.215   0.347 -0.1401 -2.1343 -2.9768
11124SOL    HW239719   7.447   8.135   0.359  0.6969 -0.4397  1.7153
11125SOL     OW39720   5.428   0.910   8.663  0.0265 -0.6343  0.2149
11125SOL    HW139721   5.402   0.857   8.738  1.2852 -2.3544 -0.4888
11125SOL    HW239722   5.506   0.958   8.693 -1.0471  0.8184  0.8163
11126SOL     OW39723   9.168   3.268   5.055  0.2082  0.8006 -0.2706
11126SOL    HW139724   9.114   3.231   5.125  1.6179  1.2875  1.1350
11126SOL    HW239725   9.105   3.296   4.988 -1.0461 -1.6919 -0.2270
11127SOL     OW39726   3.499   7.984   5.583 -0.5233 -0.1055 -0.1938
11127SOL    HW139727   3.513   8.024   5.497  0.9469  0.5820  0.3329
11127SOL    HW239728   3.541   7.899   5.577 -0.4466 -0.0695 -0.1643
11128SOL     OW39729   4.596   5.270   9.149 -0.3836 -0.7039 -0.4773
11128SOL    HW139730   4.625   5.283   9.239 -0.5471 -0.7649 -0.4147
11128SOL    HW239731   4.543   5.347   9.130  1.1522  0.2164 -1.1471
11129SOL     OW39732   3.547   4.577   2.288 -1.0361 -0.3832  0.1455
11129SOL    HW139733   3.589   4.501   2.329 -0.5241  0.0896  0.4979
11129SOL    HW239734   3.619   4.637   2.268 -1.6189  0.8727  1.6484
11130SOL     OW39735   9.109   5.752   4.959 -0.0219 -0.3551 -0.0996
11130SOL    HW139736   9.175   5.794   4.903  1.2335 -0.0130  1.5646
11130SOL    HW239737   9.061   5.824   4.999  1.8369 -0.3846  2.4111
11131SOL     OW39738   0.066   0.570   0.937  0.6845 -0.6029  0.7982
11131SOL    HW139739   0.079   0.539   0.847 -0.2475  1.7066 -0.2193
11131SOL    HW239740   0.019   0.499   0.981  0.8042 -1.6146 -0.6585
11132SOL     OW39741   0.377   2.934   2.610 -0.6592  0.1080 -0.2567
11132SOL    HW139742   0.472   2.935   2.623 -0.5855 -2.5976  0.1109
11132SOL    HW239743   0.362   2.862   2.548 -2.4091  1.2246 -1.2130
11133SOL     OW39744   0.131   8.856   3.452 -0.3291 -0.1624  0.4365
11133SOL    HW139745   0.106   8.860   3.359  0.8265 -2.1474 -0.0096
11133SOL    HW239746   0.216   8.899   3.455 -0.5908  0.3497  0.6925
11134SOL     OW39747   7.972   7.616   3.534 -0.4802 -0.1842 -0.2202
11134SOL    HW139748   8.042   7.551   3.527  0.7403  1.2256 -2.8599
11134SOL    HW239749   7.911   7.594   3.465  1.4049  2.8561 -3.1797
11135SOL     OW39750   7.542   8.458   8.776 -0.6102  0.2255 -0.0714
11135SOL    HW139751   7.571   8.448   8.866  0.5450 -1.0352 -0.5548
11135SOL    HW239752   7.577   8.543   8.749 -0.8181  0.5282  0.5955
11136SOL     OW39753   4.045   0.240   7.527  0.5384  0.0737 -0.4332
11136SOL    HW139754   4.045   0.336   7.524 -0.8058  0.1351  0.4164
11136SOL    HW239755   4.094   0.213   7.449 -1.2831  1.4490 -2.1734
11137SOL     OW39756   5.761   4.965   8.991 -0.4081  0.3263  0.0842
11137SOL    HW139757   5.759   5.028   8.919  0.1192 -2.0061 -2.0999
11137SOL    HW239758   5.681   4.913   8.980 -0.4930  0.1376  1.4078
11138SOL     OW39759   8.156   5.357   9.168  0.0674 -0.1557 -0.0079
11138SOL    HW139760   8.142   5.449   9.189 -0.7980 -0.3494  0.3122
11138SOL    HW239761   8.072   5.315   9.187  1.5930 -1.8377  4.3612
11139SOL     OW39762   8.221   4.605   7.028 -0.5289  0.1360 -0.0238
11139SOL    HW139763   8.155   4.567   7.087  0.4998  0.1833  1.2083
11139SOL    HW239764   8.242   4.534   6.967  1.6565 -1.6019  2.4746
11140SOL     OW39765   0.582   1.926   3.482 -0.1494  0.2598 -0.0450
11140SOL    HW139766   0.544   1.983   3.415 -0.0842  1.4969  0.9229
11140SOL    HW239767   0.507   1.895   3.532 -0.1365 -0.0175 -0.1963
11141SOL     OW39768   2.368   0.048   7.361  0.5320  0.2337  0.1563
11141SOL    HW139769   2.435  -0.002   7.313 -0.8726 -0.3135 -1.3186
11141SOL    HW239770   2.350   0.124   7.307 -1.8830 -0.9560 -0.8702
11142SOL     OW39771   8.100   2.951   2.782 -0.0391  0.2287 -0.2772
11142SOL    HW139772   8.194   2.930   2.782 -0.2403 -1.1652 -3.2057
11142SOL    HW239773   8.061   2.887   2.841  0.7234  0.2532  0.2713
11143SOL     OW39774   6.287   8.098   3.964 -0.3039  0.2908 -0.0052
11143SOL    HW139775   6.341   8.025   3.994 -2.3246 -1.1543  0.3043
11143SOL    HW239776   6.301   8.101   3.869 -1.6446 -1.8012 -0.3207
11144SOL     OW39777   3.809   0.065   3.670 -0.7105  0.0945 -0.1392
11144SOL    HW139778   3.828  -0.003   3.735  0.2671  0.3177 -0.1763
11144SOL    HW239779   3.863   0.041   3.595 -0.3702  0.8915 -0.1565
11145SOL     OW39780   4.540   5.802   0.386  0.1982 -0.3186 -0.0135
11145SOL    HW139781   4.525   5.805   0.291  1.2915 -0.5449 -0.2094
11145SOL    HW239782   4.494   5.879   0.420 -0.2805 -0.2841 -0.7113
11146SOL     OW39783   0.554   6.093   0.744 -0.1499 -0.0978 -0.0499
11146SOL    HW139784   0.502   6.166   0.710 -0.9079 -1.4154 -1.9104
11146SOL    HW239785   0.528   6.018   0.691 -0.4496 -2.1023  2.7112
11147SOL     OW39786   4.581   8.261   5.321 -0.4420  0.1024  0.0010
11147SOL    HW139787   4.646   8.304   5.377 -1.2079  1.2724  0.0297
11147SOL    HW239788   4.606   8.287   5.232 -0.1700 -0.4417 -0.0849
11148SOL     OW39789   7.594   5.219   0.471 -0.2047  0.2434 -0.1127
11148SOL    HW139790   7.549   5.149   0.423 -0.3967  1.6459 -2.0851
11148SOL    HW239791   7.526   5.282   0.492  0.0379  0.0630  1.3383
11149SOL     OW39792   2.421   1.002   6.075 -0.0647 -0.2518 -0.1817
11149SOL    HW139793   2.370   0.969   6.002  1.1022  0.2268 -1.2388
11149SOL    HW239794   2.500   0.948   6.076  1.0419  1.2850 -0.8285
11150SOL     OW39795   0.870   3.684   5.192 -0.2942 -0.2003 -0.5882
11150SOL    HW139796   0.856   3.726   5.278  0.6971  0.4869 -0.7483
11150SOL    HW239797   0.952   3.636   5.202 -0.5841 -0.7665 -0.9183
11151SOL     OW39798   2.700   8.560   1.895 -0.6783 -0.0683 -0.1033
11151SOL    HW139799   2.625   8.614   1.920 -1.8748 -1.6890 -0.0376
11151SOL    HW239800   2.775   8.619   1.904 -1.8130  1.3386  0.7667
11152SOL     OW39801   7.706   1.663   7.708  0.1388  0.2525 -0.6660
11152SOL    HW139802   7.742   1.649   7.621  0.0274  0.1078 -0.6877
11152SOL    HW239803   7.640   1.731   7.696 -0.6446 -0.5339 -0.8854
11153SOL     OW39804   8.690   4.701   7.189  0.0568  0.0712 -0.0981
11153SOL    HW139805   8.658   4.789   7.168 -1.4341 -0.1599  1.0528
11153SOL    HW239806   8.620   4.662   7.241  0.1838 -2.2195 -1.4849
11154SOL     OW39807   8.444   2.930   6.787 -0.2803  0.0310  0.0322
11154SOL    HW139808   8.420   2.974   6.705  0.8193  0.3049 -0.1464
11154SOL    HW239809   8.368   2.875   6.806  0.4030 -2.0085 -2.5237
11155SOL     OW39810   6.374   4.734   8.492 -0.2992 -0.1511  0.5587
11155SOL    HW139811   6.387   4.724   8.397  0.5024  1.3509  0.4787
11155SOL    HW239812   6.282   4.710   8.506 -1.3806  2.5226 -1.1237
11156SOL     OW39813   3.423   0.106   4.820 -0.0253  0.5373  0.0362
11156SOL    HW139814   3.518   0.119   4.831  0.3336 -1.0859 -0.8732
11156SOL    HW239815   3.411   0.091   4.727 -1.4833  2.6482 -0.1772
11157SOL     OW39816   8.936   2.847   0.547 -0.0818  0.5277 -0.1251
11157SOL    HW139817   8.984   2.885   0.621  2.0329  0.1243 -1.1844
11157SOL    HW239818   8.901   2.765   0.581  0.3662  0.6239  0.5970
11158SOL     OW39819   5.638   3.369   4.038 -0.5678  0.2967 -0.1471
11158SOL    HW139820   5.615   3.453   4.077 -1.9266 -0.3706  0.5479
11158SOL    HW239821   5.554   3.323   4.027 -0.0060 -0.4076 -1.8589
11159SOL     OW39822   9.179   9.100   1.407 -0.0144  0.0862 -0.1722
11159SOL    HW139823   9.135   9.168   1.356 -2.8509 -0.7592  0.9741
11159SOL    HW239824   9.158   9.121   1.498  4.5176  1.2962  0.8512
11160SOL     OW39825   0.866   0.629   4.782  0.0009  0.2182  0.6880
11160SOL    HW139826   0.826   0.556   4.735  0.1566 -0.2261  1.2310
11160SOL    HW239827   0.829   0.624   4.870  0.4828  0.4104  0.9062
11161SOL     OW39828   2.289   3.447   5.646 -0.1491  0.5350  0.2744
11161SOL    HW139829   2.346   3.382   5.687  0.7047  0.6535 -0.6924
11161SOL    HW239830   2.223   3.395   5.600  0.2887  0.3466 -0.1526
11162SOL     OW39831   7.134   8.775   9.024 -0.4703  0.4280  0.4210
11162SOL    HW139832   7.208   8.744   9.077 -0.0788 -0.3029 -0.5253
11162SOL    HW239833   7.064   8.712   9.041 -0.8049  0.9793  1.1254
11163SOL     OW39834   7.976   8.885   0.812 -0.1030  1.0866  0.1955
11163SOL    HW139835   7.989   8.815   0.876  1.7921 -0.6715 -1.8956
11163SOL    HW239836   7.958   8.963   0.864 -1.0751 -0.6827  2.7080
11164SOL     OW39837   4.528   8.249   7.437  0.7932  0.0447 -0.1274
11164SOL    HW139838   4.516   8.329   7.387  2.5668  0.4677  0.0680
11164SOL    HW239839   4.440   8.224   7.465  0.1084  1.3457 -1.0539
11165SOL     OW39840   2.584   2.019   6.796  0.3940  0.7465  0.4067
11165SOL    HW139841   2.618   2.038   6.708  0.9086 -0.4506  0.3316
11165SOL    HW239842   2.604   2.098   6.847 -0.1089  1.5469 -0.5912
11166SOL     OW39843   3.350   8.584   5.727 -0.5478  0.2812  0.0340
11166SOL    HW139844   3.391   8.510   5.682  1.7625  1.2912  0.3280
11166SOL    HW239845   3.342   8.652   5.660 -0.1601  0.6595  0.3627
11167SOL     OW39846   5.936   6.289   1.372  0.5287 -0.3050  0.1075
11167SOL    HW139847   5.958   6.212   1.319  0.9461  0.7217 -1.2861
11167SOL    HW239848   5.970   6.363   1.321 -1.2330  0.9258  0.6241
11168SOL     OW39849   6.982   0.554   1.543  0.0343 -0.4677  0.3767
11168SOL    HW139850   6.963   0.522   1.631  1.3611 -0.4570  0.6941
11168SOL    HW239851   6.990   0.649   1.553 -1.4523 -0.2735 -0.0904
11169SOL     OW39852   5.343   1.466   9.182  0.1705 -0.0704  0.3165
11169SOL    HW139853   5.302   1.501   9.261  0.2978 -0.0020  0.3533
11169SOL    HW239854   5.415   1.526   9.164  1.2020 -1.0232  1.1208
11170SOL     OW39855   5.527   9.105   5.326  0.1709  0.3308  0.7758
11170SOL    HW139856   5.445   9.121   5.280  0.1028  1.8388  1.3701
11170SOL    HW239857   5.556   9.019   5.295 -0.1537  1.0260 -1.6609
11171SOL     OW39858   5.594   4.962   3.431 -0.3978 -0.4094 -0.1426
11171SOL    HW139859   5.627   4.872   3.428  0.4160 -0.0991 -0.6415
11171SOL    HW239860   5.564   4.979   3.342 -0.8584 -0.2956  0.0342
11172SOL     OW39861   4.889   1.159   4.146  0.1471 -0.6129  0.0757
11172SOL    HW139862   4.938   1.236   4.118  0.0242 -0.6531 -0.2613
11172SOL    HW239863   4.839   1.189   4.223  0.3646 -0.4546  0.1558
11173SOL     OW39864   9.114   7.829   0.134  0.1385 -0.4625 -1.1791
11173SOL    HW139865   9.159   7.870   0.060 -0.3804  1.7651 -0.3596
11173SOL    HW239866   9.184   7.803   0.194  0.5590 -2.2266 -2.3581
11174SOL     OW39867   6.641   2.076   8.047 -0.2134 -0.2314  0.3445
11174SOL    HW139868   6.631   2.125   8.128  2.7149 -0.4791  0.9589
11174SOL    HW239869   6.735   2.080   8.027 -0.7968 -0.1680 -3.0647
11175SOL     OW39870   8.643   5.332   7.010  0.4821 -0.0490 -0.1226
11175SOL    HW139871   8.702   5.367   7.076  0.4645  0.0458 -0.1567
11175SOL    HW239872   8.564   5.307   7.059 -1.2861  3.8843 -0.5804
11176SOL     OW39873   5.220   1.105   8.631 -0.2464 -0.1403 -0.4452
11176SOL    HW139874   5.300   1.053   8.641 -0.9258 -1.5494 -1.8347
11176SOL    HW239875   5.243   1.171   8.565  0.1098  0.2098  0.0276
11177SOL     OW39876   0.389   7.725   1.371 -0.2040  0.2216 -0.4345
11177SOL    HW139877   0.479   7.757   1.378 -0.3724  0.4076  1.4254
11177SOL    HW239878   0.392   7.657   1.303  1.0657  1.0610 -1.2618
11178SOL     OW39879   9.156   0.864   6.767  0.2124  0.2233 -0.5493
11178SOL    HW139880   9.174   0.916   6.688  0.3270  0.1665 -0.5595
11178SOL    HW239881   9.067   0.890   6.792  0.5712  1.0313 -0.0813
11179SOL     OW39882   7.422   1.453   1.728  0.4397 -0.1724  0.2535
11179SOL    HW139883   7.373   1.433   1.808  1.5301  0.2450  1.0565
11179SOL    HW239884   7.362   1.507   1.676  0.0601  0.4014  1.2515
11180SOL     OW39885   1.609   2.176   4.099 -0.1938 -0.6149 -0.7939
11180SOL    HW139886   1.525   2.217   4.078 -0.6806 -0.4868  1.2193
11180SOL    HW239887   1.673   2.244   4.078 -0.9680  1.2566  2.2232
11181SOL     OW39888   7.239   7.115   1.017  0.3494  0.0423  0.3937
11181SOL    HW139889   7.240   7.211   1.018 -1.7142  0.1055  0.4314
11181SOL    HW239890   7.269   7.090   1.104  1.9006  0.5885  0.0563
11182SOL     OW39891   2.407   7.962   5.876  0.0537  0.0386 -0.4087
11182SOL    HW139892   2.466   7.978   5.950  0.1188 -1.8380 -0.0082
11182SOL    HW239893   2.353   8.041   5.871  0.4127  0.4326  1.2807
11183SOL     OW39894   0.266   0.654   5.508  0.0274 -0.3771  0.0007
11183SOL    HW139895   0.338   0.598   5.480 -0.2003 -1.2156  1.0552
11183SOL    HW239896   0.297   0.743   5.491  1.4168 -0.7069  0.6741
11184SOL     OW39897   3.699   5.460   9.141  0.7092 -0.3563 -0.2351
11184SOL    HW139898   3.689   5.367   9.124  0.7638 -0.6107  1.0144
11184SOL    HW239899   3.791   5.478   9.118  0.4895 -0.4370 -1.1956
11185SOL     OW39900   4.434   8.559   6.214  0.2597  0.4287 -0.5877
11185SOL    HW139901   4.364   8.606   6.170 -0.2767  2.3737  2.1119
11185SOL    HW239902   4.502   8.625   6.229  1.9039 -0.9832 -1.4615
11186SOL     OW39903   5.118   1.023   4.372  0.6210 -0.2596 -0.4367
11186SOL    HW139904   5.075   0.942   4.345 -0.3818 -0.4193  1.4691
11186SOL    HW239905   5.069   1.092   4.329 -0.4073 -0.5425  0.2506
11187SOL     OW39906   7.528   3.101   2.384 -0.1767  0.2758  0.0146
11187SOL    HW139907   7.604   3.152   2.356  0.4935 -0.1400  1.0028
11187SOL    HW239908   7.505   3.136   2.470  0.4716 -1.2217  0.8409
11188SOL     OW39909   4.716   5.589   3.172  0.0966  0.0767 -0.3773
11188SOL    HW139910   4.621   5.591   3.172  0.0918 -0.0344 -0.8250
11188SOL    HW239911   4.742   5.668   3.123  0.2583  0.7370  0.7343
11189SOL     OW39912   3.892   1.734   5.895 -0.1051  0.4849  0.2933
11189SOL    HW139913   3.820   1.678   5.925  0.7712 -0.6679  0.3006
11189SOL    HW239914   3.968   1.703   5.943  0.5896  1.0749 -0.4041
11190SOL     OW39915   7.185   2.522   6.485  0.3883 -0.3843 -0.1686
11190SOL    HW139916   7.228   2.488   6.407  3.2745  0.0261  1.1242
11190SOL    HW239917   7.178   2.616   6.469  1.9010 -0.1510  0.4293
11191SOL     OW39918   7.623   5.163   5.175 -0.2836 -0.0622  0.0851
11191SOL    HW139919   7.683   5.203   5.237 -0.0971  0.7893 -0.6156
11191SOL    HW239920   7.662   5.078   5.154  0.5367  0.3741 -0.1640
11192SOL     OW39921   4.035   0.063   1.759  0.7977  0.8090 -0.3434
11192SOL    HW139922   3.944   0.091   1.746  0.9486  0.8541 -1.3685
11192SOL    HW239923   4.045   0.060   1.854 -1.5509 -3.2812 -0.0018
11193SOL     OW39924   7.378   6.217   3.992  0.3193 -0.7454  0.5051
11193SOL    HW139925   7.332   6.301   3.993  1.5832 -0.0330  1.3867
11193SOL    HW239926   7.310   6.152   4.010 -0.8359 -0.0314 -1.0158
11194SOL     OW39927   2.404   1.802   4.450  0.3841 -0.1514  0.0645
11194SOL    HW139928   2.436   1.767   4.367 -0.9023 -0.0343 -0.4990
11194SOL    HW239929   2.470   1.775   4.514  0.8313 -1.2250 -0.8117
11195SOL     OW39930   0.414   7.976   4.870  0.0505 -0.4035  0.1712
11195SOL    HW139931   0.336   7.941   4.826  0.0976  0.7288 -0.8325
11195SOL    HW239932   0.479   7.987   4.801  0.5735  0.1535  0.7365
11196SOL     OW39933   7.854   1.322   6.834 -0.2543  0.4743 -0.5598
11196SOL    HW139934   7.848   1.380   6.909  1.4077  1.1852 -0.9367
11196SOL    HW239935   7.792   1.359   6.770 -0.3885  0.8912 -0.1928
11197SOL     OW39936   4.091   7.383   6.350  0.0860  0.2568 -0.2948
11197SOL    HW139937   4.080   7.454   6.413  0.0254 -0.3906  0.4374
11197SOL    HW239938   4.140   7.317   6.398  0.1145 -0.2077 -0.9627
11198SOL     OW39939   8.383   8.855   8.468 -0.3154 -0.1541 -0.1783
11198SOL    HW139940   8.444   8.839   8.396  0.7339 -1.5619  0.9489
11198SOL    HW239941   8.299   8.869   8.426  0.1711 -1.4247 -1.6624
11199SOL     OW39942   7.009   6.846   8.390  0.2587  0.3107 -0.4354
11199SOL    HW139943   7.020   6.756   8.421  1.8608  0.6909  0.1955
11199SOL    HW239944   6.919   6.869   8.413 -0.1642 -1.1208 -0.6039
11200SOL     OW39945   0.169   5.090   3.047  0.6818 -0.0587 -0.2676
11200SOL    HW139946   0.148   5.174   3.005  0.1028  0.3997  0.8840
11200SOL    HW239947   0.111   5.027   3.006  0.0787  0.3968 -0.1369
11201SOL     OW39948   2.502   2.059   0.257  0.2361 -0.2468  0.6152
11201SOL    HW139949   2.576   2.020   0.211  1.4934  2.5688  0.0579
11201SOL    HW239950   2.454   2.106   0.190  0.9520  2.2509  1.7308
11202SOL     OW39951   6.324   1.240   1.735 -0.2822 -0.1377  0.4094
11202SOL    HW139952   6.354   1.181   1.805 -0.3144  1.5008  1.8781
11202SOL    HW239953   6.378   1.319   1.746  0.6782 -0.2959 -2.3150
11203SOL     OW39954   7.541   3.219   7.510  0.2325  0.8221 -0.1447
11203SOL    HW139955   7.561   3.196   7.420  1.7551  2.8260 -0.3984
11203SOL    HW239956   7.491   3.301   7.503 -1.2386  0.0543  0.8035
11204SOL     OW39957   8.351   7.390   1.034 -0.1752  0.4922  0.2187
11204SOL    HW139958   8.439   7.358   1.054 -0.4251 -0.7431 -0.5498
11204SOL    HW239959   8.353   7.410   0.941 -0.8523 -0.0829  0.0689
11205SOL     OW39960   3.419   7.726   8.881  0.0142  0.2119 -0.4588
11205SOL    HW139961   3.420   7.797   8.817  0.5733 -0.8974 -1.7590
11205SOL    HW239962   3.479   7.753   8.949  0.4760  0.8522 -1.1057
11206SOL     OW39963   2.356   6.616   8.661  0.1230  0.3820 -0.6113
11206SOL    HW139964   2.261   6.610   8.657  0.0747  1.4781 -1.3089
11206SOL    HW239965   2.378   6.581   8.748 -0.9882  0.9801 -0.0708
11207SOL     OW39966   8.736   3.952   7.717 -0.1603  0.2169  0.9612
11207SOL    HW139967   8.768   4.040   7.698 -1.8919  0.4999 -1.0452
11207SOL    HW239968   8.646   3.966   7.749 -0.7998 -0.8080 -0.2941
11208SOL     OW39969   6.306   5.294   4.508  0.1149  0.1061 -0.0588
11208SOL    HW139970   6.395   5.283   4.542  0.5291 -1.9108 -1.5809
11208SOL    HW239971   6.314   5.363   4.442 -0.0811  1.8999  1.7169
11209SOL     OW39972   8.319   9.065   0.131 -0.4249 -0.4330  0.3447
11209SOL    HW139973   8.325   9.088   0.038  0.5397  4.5096  1.3600
11209SOL    HW239974   8.247   9.118   0.165  1.2977  0.4573  2.9380
11210SOL     OW39975   7.143   6.882   2.493 -0.2009 -0.2520  0.2933
11210SOL    HW139976   7.082   6.863   2.421  0.5959 -0.0345 -0.4663
11210SOL    HW239977   7.098   6.946   2.547 -0.3738  0.4373 -0.6423
11211SOL     OW39978   8.235   6.024   7.844 -0.1283  0.1923  0.5567
11211SOL    HW139979   8.238   5.937   7.885  1.5783  0.6535  1.5159
11211SOL    HW239980   8.142   6.040   7.830 -0.4600 -2.0249 -0.2154
11212SOL     OW39981   8.012   3.432   5.103  0.2293  0.6132 -0.6158
11212SOL    HW139982   8.031   3.521   5.133  0.5910  0.5539 -0.6642
11212SOL    HW239983   7.930   3.440   5.055 -0.3322  0.7169  0.3497
11213SOL     OW39984   2.738   3.920   6.798 -0.3841 -0.0834 -0.4703
11213SOL    HW139985   2.755   3.891   6.888  0.1051 -1.1825 -0.9008
11213SOL    HW239986   2.822   3.911   6.753 -0.8592 -0.5103 -1.2912
11214SOL     OW39987   1.592   6.816   3.630 -0.1530 -0.6607  0.5218
11214SOL    HW139988   1.591   6.796   3.724  0.6654  0.5365  0.8000
11214SOL    HW239989   1.596   6.911   3.625 -0.2737 -0.7000 -0.7389
11215SOL     OW39990   4.633   3.628   3.520  1.0804  0.1250 -0.0663
11215SOL    HW139991   4.630   3.535   3.499 -0.7585  0.1993 -0.2864
11215SOL    HW239992   4.706   3.636   3.583  0.3819 -1.7029  1.0566
11216SOL     OW39993   2.315   3.236   1.517 -0.0178  0.0279 -0.0974
11216SOL    HW139994   2.298   3.329   1.505 -0.3808  0.0341  0.4561
11216SOL    HW239995   2.302   3.198   1.430  1.3929  0.6763 -0.6128
11217SOL     OW39996   5.246   0.691   2.732 -0.4809 -0.5919  0.0165
11217SOL    HW139997   5.340   0.676   2.743  0.1747  2.2339 -0.9616
11217SOL    HW239998   5.231   0.685   2.638 -0.9284  0.5944 -0.0044
11218SOL     OW39999   6.901   7.840   2.839 -0.1298  0.1297  0.9675
11218SOL    HW140000   6.985   7.795   2.848 -0.3269 -0.9983 -1.6924
11218SOL    HW240001   6.898   7.901   2.912  4.4481  2.5486 -0.4681
11219SOL     OW40002   0.350   2.304   7.917 -0.1899  0.2217 -0.1999
11219SOL    HW140003   0.385   2.273   7.834  0.0558 -3.3859  1.0734
11219SOL    HW240004   0.403   2.381   7.938 -0.3371  1.2966 -3.3395
11220SOL     OW40005   5.021   3.323   3.566  0.1152  0.1010  0.0636
11220SOL    HW140006   4.999   3.239   3.525  0.6794 -0.9744  1.8097
11220SOL    HW240007   5.102   3.350   3.524  0.7402 -1.0252  0.5048
11221SOL     OW40008   0.857   8.857   5.533  0.1605  0.6846 -0.6208
11221SOL    HW140009   0.892   8.871   5.621 -0.5980  1.0618 -0.3766
11221SOL    HW240010   0.801   8.780   5.541  1.3122 -0.2590 -1.1338
11222SOL     OW40011   7.106   5.503   0.896  0.1044  0.2898 -0.0840
11222SOL    HW140012   7.047   5.550   0.955 -0.3946  0.9561 -1.0814
11222SOL    HW240013   7.106   5.555   0.816 -0.0378 -1.1334 -1.0466
11223SOL     OW40014   5.579   3.495   3.713 -0.5710  0.2351 -0.6889
11223SOL    HW140015   5.637   3.459   3.780  0.6308 -0.3588 -2.0078
11223SOL    HW240016   5.492   3.489   3.752  0.1141  0.1995  0.9373
11224SOL     OW40017   4.132   8.517   4.781  0.3455  0.7981 -0.4883
11224SOL    HW140018   4.127   8.592   4.840  1.5619  1.1189 -0.7737
11224SOL    HW240019   4.045   8.477   4.786  0.1536  1.3267  0.8465
11225SOL     OW40020   6.141   5.347   2.658  0.1102  0.7050  0.2059
11225SOL    HW140021   6.132   5.303   2.573  0.0222 -0.2578  0.7005
11225SOL    HW240022   6.080   5.300   2.716  1.7979 -0.1547  1.3715
11226SOL     OW40023   7.157   9.143   8.818 -0.4566 -0.4403 -0.1184
11226SOL    HW140024   7.179   9.234   8.835 -1.4807  0.1476 -1.7279
11226SOL    HW240025   7.223   9.093   8.865 -0.5046  1.0938  1.6680
11227SOL     OW40026   4.421   9.139   0.401 -0.2249  0.0985 -0.2221
11227SOL    HW140027   4.370   9.201   0.349  0.5439 -0.5494 -1.8041
11227SOL    HW240028   4.381   9.142   0.488 -0.4060  2.5666 -0.3217
11228SOL     OW40029   5.391   1.467   3.638  0.1031 -0.4646 -0.0486
11228SOL    HW140030   5.477   1.485   3.677 -0.5341 -2.7003  2.6399
11228SOL    HW240031   5.411   1.442   3.547  2.0655  0.9193 -0.0567
11229SOL     OW40032   0.608   7.840   6.359  0.3734 -0.1021  0.2713
11229SOL    HW140033   0.575   7.816   6.446  1.2551 -1.1683  0.3393
11229SOL    HW240034   0.651   7.761   6.328  0.4059  0.3920 -0.9863
11230SOL     OW40035   7.961   6.681   5.706 -0.8239 -0.1128 -0.0841
11230SOL    HW140036   8.014   6.644   5.636 -1.4788 -1.5835  0.1760
11230SOL    HW240037   7.883   6.626   5.710 -0.5483 -0.4558  2.1760
11231SOL     OW40038   4.953   4.195   5.934  0.1832 -0.1320 -0.2654
11231SOL    HW140039   5.027   4.151   5.976 -1.7219 -2.1988  1.1982
11231SOL    HW240040   4.990   4.235   5.856  2.7657 -1.4038  0.1958
11232SOL     OW40041   6.876   4.357   1.968 -0.1436 -0.4662  0.7224
11232SOL    HW140042   6.965   4.343   2.000  0.2566 -0.3846 -0.3158
11232SOL    HW240043   6.868   4.452   1.958  0.3981 -0.5588 -1.1250
11233SOL     OW40044   0.864   1.820   7.056 -0.3721 -0.2627 -0.2401
11233SOL    HW140045   0.910   1.904   7.050  2.4075 -1.7205 -1.6034
11233SOL    HW240046   0.792   1.826   6.993  0.1635  0.9071 -0.7589
11234SOL     OW40047   6.346   6.559   7.181  0.1345  0.3021 -0.4429
11234SOL    HW140048   6.307   6.472   7.193 -1.8978  1.3566  1.0864
11234SOL    HW240049   6.285   6.605   7.124 -0.4415  1.6808  1.2209
11235SOL     OW40050   1.265   5.248   0.322 -0.2369 -0.0644  0.0737
11235SOL    HW140051   1.194   5.274   0.380 -0.2658  1.3358 -0.5572
11235SOL    HW240052   1.249   5.155   0.306 -2.4550  0.3887 -0.7426
11236SOL     OW40053   4.588   6.198   6.656 -0.1283 -0.1527 -0.2299
11236SOL    HW140054   4.607   6.135   6.587 -0.2586  0.9241 -1.2968
11236SOL    HW240055   4.578   6.282   6.610  1.9869  1.0359  1.3020
11237SOL     OW40056   7.718   4.631   6.442 -0.3464  0.1531 -0.2455
11237SOL    HW140057   7.758   4.545   6.438  0.4325  0.5307 -1.0121
11237SOL    HW240058   7.790   4.692   6.420 -0.6333  1.0723  1.2062
11238SOL     OW40059   0.140   4.815   7.654  0.2496 -0.2443  0.0565
11238SOL    HW140060   0.183   4.825   7.570 -0.2504  1.6837 -0.0195
11238SOL    HW240061   0.047   4.827   7.636 -0.1037 -1.8264  0.6065
11239SOL     OW40062   3.180   3.316   5.550 -0.0622  0.1859 -0.1970
11239SOL    HW140063   3.176   3.374   5.473 -2.4724 -1.1205 -1.1504
11239SOL    HW240064   3.211   3.233   5.514 -0.5144 -0.2325  0.3759
11240SOL     OW40065   7.732   7.768   9.117 -0.0229 -0.1400  0.3310
11240SOL    HW140066   7.787   7.845   9.133 -0.5404  0.1098  0.9594
11240SOL    HW240067   7.793   7.695   9.115  0.2772  0.0534  1.6519
11241SOL     OW40068   0.431   0.643   4.340  0.6706 -0.1422  0.1854
11241SOL    HW140069   0.446   0.572   4.402 -0.6129 -2.4974 -1.9961
11241SOL    HW240070   0.344   0.626   4.304  1.6998  0.4380 -2.9336
11242SOL     OW40071   2.999   6.742   9.030  0.3023  0.2644  0.2178
11242SOL    HW140072   2.916   6.759   8.985  0.2524  0.4039  0.3589
11242SOL    HW240073   3.058   6.712   8.961 -0.0256 -0.3765  0.2106
11243SOL     OW40074   4.546   3.664   4.196 -0.4553 -0.0864  0.5450
11243SOL    HW140075   4.505   3.615   4.267 -0.7755 -1.0291 -0.2678
11243SOL    HW240076   4.478   3.725   4.166 -0.0616  0.8905  1.5455
11244SOL     OW40077   5.659   5.598   2.376  0.0150 -0.3248 -0.1291
11244SOL    HW140078   5.724   5.545   2.424  0.0075 -1.2809 -1.1321
11244SOL    HW240079   5.706   5.630   2.299 -0.0154  1.0821  0.4053
11245SOL     OW40080   8.781   2.137   6.329  0.7597 -0.5672 -0.0214
11245SOL    HW140081   8.714   2.168   6.390  2.1420  1.4040  0.6080
11245SOL    HW240082   8.860   2.129   6.382  1.5331 -0.7503 -1.1653
11246SOL     OW40083   5.869   3.195   8.899 -0.1190 -0.4148 -0.0646
11246SOL    HW140084   5.789   3.147   8.922  0.4123 -1.3475 -0.1281
11246SOL    HW240085   5.932   3.127   8.878  0.5106  0.3400 -0.6345
11247SOL     OW40086   7.278   2.473   8.975  0.1778 -0.0578 -0.2622
11247SOL    HW140087   7.336   2.404   8.943  0.8098 -0.1100  0.9368
11247SOL    HW240088   7.299   2.549   8.920  1.0154 -0.2207 -0.1783
11248SOL     OW40089   2.733   6.604   7.905 -0.8138 -0.2058  0.5628
11248SOL    HW140090   2.731   6.667   7.977 -0.9634 -1.1158  1.3791
11248SOL    HW240091   2.693   6.650   7.831  2.1333  1.8555  0.0907
11249SOL     OW40092   1.419   7.948   3.871 -0.4996 -0.9391  0.1947
11249SOL    HW140093   1.410   7.860   3.907  3.6332 -0.9441  1.7818
11249SOL    HW240094   1.472   7.937   3.792 -1.7521 -0.0160 -0.8193
11250SOL     OW40095   3.994   8.345   0.591 -0.1114  0.3176 -0.5181
11250SOL    HW140096   4.006   8.294   0.670  0.7583  0.0052 -0.8425
11250SOL    HW240097   3.916   8.308   0.549  0.1294 -0.3105 -0.4183
11251SOL     OW40098   1.124   1.410   2.843  0.1341 -0.2804  0.0418
11251SOL    HW140099   1.199   1.469   2.834  0.7660 -0.7633  1.8124
11251SOL    HW240100   1.070   1.429   2.766  1.1242  1.4268 -0.2941
11252SOL     OW40101   4.025   3.481   8.907 -0.2791  0.1074  0.3478
11252SOL    HW140102   4.110   3.463   8.867 -0.1165 -1.7863  1.4310
11252SOL    HW240103   4.046   3.524   8.990 -0.3286 -0.7950  0.8408
11253SOL     OW40104   0.496   7.129   6.348 -0.3774 -0.0742 -0.5038
11253SOL    HW140105   0.432   7.135   6.419  0.3569  1.9346  0.0484
11253SOL    HW240106   0.561   7.197   6.368 -0.2484  0.7124 -3.2106
11254SOL     OW40107   6.055   9.189   8.350 -0.1698 -0.1029 -0.1812
11254SOL    HW140108   5.978   9.243   8.370  0.6753  0.2423  2.4751
11254SOL    HW240109   6.029   9.100   8.372  0.0646 -0.0416  0.3431
11255SOL     OW40110   6.279   7.125   7.660  0.0001 -0.3747 -0.1951
11255SOL    HW140111   6.191   7.137   7.624 -1.1838 -0.0914  2.5411
11255SOL    HW240112   6.290   7.030   7.663 -0.7403 -0.4525  0.5288
11256SOL     OW40113   4.481   2.768   3.324 -0.7456  0.6956 -0.1102
11256SOL    HW140114   4.576   2.781   3.331 -0.7938  1.8540 -1.1444
11256SOL    HW240115   4.471   2.678   3.293 -0.0343  0.2591  0.8813
11257SOL     OW40116   3.110   5.836   7.420  0.4762 -0.1876  0.1692
11257SOL    HW140117   3.096   5.866   7.330  0.9145  0.0828  0.1883
11257SOL    HW240118   3.042   5.882   7.471 -1.4248 -2.2517 -0.3668
11258SOL     OW40119   1.270   7.306   8.224 -0.2276  0.2070  0.6864
11258SOL    HW140120   1.333   7.357   8.274 -0.5083 -1.0873  2.4115
11258SOL    HW240121   1.322   7.240   8.179 -0.1535  0.3800  0.5143
11259SOL     OW40122   3.770   0.218   9.097 -0.2071 -0.5178 -0.4806
11259SOL    HW140123   3.779   0.250   9.187 -1.8359  0.4705 -0.6357
11259SOL    HW240124   3.685   0.174   9.096 -0.1196 -0.6923 -1.4983
11260SOL     OW40125   3.334   2.477   0.573  0.4442 -0.0839 -0.0885
11260SOL    HW140126   3.368   2.491   0.661  0.8105 -0.0512 -0.2351
11260SOL    HW240127   3.245   2.445   0.587  0.1359  0.8907  0.2784
11261SOL     OW40128   8.852   4.308   0.041  0.3297 -0.1388 -0.6111
11261SOL    HW140129   8.827   4.395   0.012 -0.4456 -0.9657 -2.6170
11261SOL    HW240130   8.920   4.280  -0.020  1.3219 -0.5815  0.6323
11262SOL     OW40131   7.701   0.247   2.077  0.0055  0.0648 -0.4864
11262SOL    HW140132   7.638   0.227   2.009  0.3031 -1.1792 -0.4151
11262SOL    HW240133   7.778   0.195   2.055 -0.1330 -0.8982  1.1481
11263SOL     OW40134   2.084   2.272   7.776  0.5400  0.1136 -0.0799
11263SOL    HW140135   2.178   2.285   7.794  0.2440  0.2809  1.4749
11263SOL    HW240136   2.069   2.318   7.694  1.8132  0.1272 -0.3267
11264SOL     OW40137   7.016   0.721   9.004  0.6745  0.0809  0.1755
11264SOL    HW140138   6.944   0.777   8.975  0.2607 -0.0972  0.8299
11264SOL    HW240139   7.078   0.721   8.931  0.3547  0.8304 -0.1045
11265SOL     OW40140   6.066   2.886   5.970  0.1499  0.0467 -0.6140
11265SOL    HW140141   6.104   2.876   6.057 -2.3290  0.7112  0.6101
11265SOL    HW240142   6.030   2.799   5.949 -1.3059  0.4724  0.0648
11266SOL     OW40143   3.203   4.004   7.865 -0.1399 -0.3507 -0.3323
11266SOL    HW140144   3.234   4.091   7.892  0.6836 -0.8199  0.2897
11266SOL    HW240145   3.278   3.965   7.820 -0.8361 -0.3659 -1.5235
11267SOL     OW40146   0.266   0.609   0.413  0.5487  0.0567  0.4105
11267SOL    HW140147   0.335   0.662   0.373 -0.1919  1.7230  1.2179
11267SOL    HW240148   0.186   0.661   0.401  0.0068 -0.2112  2.4078
11268SOL     OW40149   3.589   1.960   4.239 -0.4613 -0.6956  0.4877
11268SOL    HW140150   3.672   1.941   4.195  1.1342  0.9213  2.5933
11268SOL    HW240151   3.525   1.909   4.190  1.3872 -0.3966 -2.5482
11269SOL     OW40152   0.864   6.577   0.982 -0.3349  0.3428  0.2073
11269SOL    HW140153   0.851   6.524   0.904 -1.0674  1.7931 -0.7001
11269SOL    HW240154   0.927   6.528   1.034  0.7455 -0.3201 -1.6347
11270SOL     OW40155   3.263   7.438   8.700 -0.5018 -0.2116  0.1830
11270SOL    HW140156   3.241   7.520   8.743 -0.0330 -0.1446  0.3030
11270SOL    HW240157   3.214   7.371   8.749 -1.8905  0.1154 -0.7022
11271SOL     OW40158   3.615   8.369   8.407 -0.1347  0.1086  0.0694
11271SOL    HW140159   3.594   8.439   8.468 -0.5706  0.3686 -0.3748
11271SOL    HW240160   3.582   8.290   8.449  1.4516 -0.0298  1.1469
11272SOL     OW40161   6.574   8.884   0.568  0.2016 -0.5054 -0.1206
11272SOL    HW140162   6.485   8.850   0.565  0.0947 -0.2128 -0.2961
11272SOL    HW240163   6.612   8.845   0.646 -0.6911  0.8867  1.0520
11273SOL     OW40164   6.765   7.647   4.550 -0.4152 -0.0765  0.3063
11273SOL    HW140165   6.743   7.641   4.457  2.4934  0.9415 -0.5493
11273SOL    HW240166   6.831   7.579   4.564  1.7977  2.0043  0.6560
11274SOL     OW40167   6.554   1.600   7.431 -0.0304  0.3387  0.1485
11274SOL    HW140168   6.497   1.676   7.418 -1.2824  0.0413  2.9925
11274SOL    HW240169   6.506   1.528   7.390 -0.0599  0.6535 -0.3795
11275SOL     OW40170   3.574   8.168   8.123  0.3209  0.2466  0.0862
11275SOL    HW140171   3.603   8.250   8.084  0.9867  0.4509  0.9743
11275SOL    HW240172   3.623   8.162   8.205  1.0756 -1.5514 -0.4450
11276SOL     OW40173   7.596   0.352   7.983  0.3633 -0.0258 -0.1712
11276SOL    HW140174   7.671   0.409   7.967  0.2834  0.5577  1.3439
11276SOL    HW240175   7.531   0.379   7.918  1.2776 -0.2143 -1.1833
11277SOL     OW40176   3.998   6.839   1.784 -1.1175  0.2457 -0.2470
11277SOL    HW140177   4.066   6.900   1.812  1.1580 -1.2740 -2.0999
11277SOL    HW240178   3.943   6.890   1.723  0.5463  0.5926 -1.5235
11278SOL     OW40179   5.805   5.670   1.276 -0.1435 -0.7969  0.1218
11278SOL    HW140180   5.801   5.580   1.311  3.3573 -0.9922  0.3688
11278SOL    HW240181   5.854   5.719   1.342 -0.7026  0.9529 -0.7086
11279SOL     OW40182   6.893   3.908   1.642  0.5218  0.6382  0.0828
11279SOL    HW140183   6.816   3.892   1.587  0.6965 -0.0262  0.0280
11279SOL    HW240184   6.953   3.956   1.585  0.1070  1.2686  0.1622
11280SOL     OW40185   6.367   1.888   6.253  0.1409 -0.1078 -0.0671
11280SOL    HW140186   6.372   1.805   6.206 -1.1355 -0.9049  1.1327
11280SOL    HW240187   6.450   1.931   6.234  0.0623 -0.7891 -2.2645
11281SOL     OW40188   2.920   0.071   3.747 -0.1577  0.0033  0.0979
11281SOL    HW140189   2.965   0.120   3.815  1.1376 -0.9797 -0.0206
11281SOL    HW240190   2.845   0.126   3.723 -0.1452  0.7621  1.6875
11282SOL     OW40191   0.887   6.732   5.522  0.2044  0.1107 -0.1671
11282SOL    HW140192   0.840   6.650   5.510 -1.1143  0.8812 -0.4426
11282SOL    HW240193   0.938   6.719   5.603 -0.8766 -0.5628  0.4277
11283SOL     OW40194   5.274   0.129   3.810 -0.3252  0.2260  0.3841
11283SOL    HW140195   5.288   0.136   3.904  1.7621  0.2906  0.1107
11283SOL    HW240196   5.181   0.148   3.798 -1.0227 -1.4507  2.5723
11284SOL     OW40197   5.934   3.334   1.788 -0.3357  0.3053 -0.2741
11284SOL    HW140198   5.989   3.410   1.771 -1.1153  0.8789 -0.3031
11284SOL    HW240199   5.845   3.369   1.793 -1.4960 -1.1121 -5.1530
11285SOL     OW40200   8.385   1.326   7.442 -0.0726 -0.4930 -0.4673
11285SOL    HW140201   8.434   1.262   7.494  0.0055  0.1771  0.3077
11285SOL    HW240202   8.452   1.384   7.405 -0.2213 -0.0314 -0.0267
11286SOL     OW40203   4.298   6.751   0.313  0.3421 -0.3716  0.6152
11286SOL    HW140204   4.277   6.749   0.220  1.2974  0.1281  0.3742
11286SOL    HW240205   4.369   6.815   0.321  0.8492 -1.0108  1.5618
11287SOL     OW40206   4.287   4.118   7.819 -0.4873  0.0246  0.4941
11287SOL    HW140207   4.224   4.190   7.824 -1.6065 -0.8864  0.0317
11287SOL    HW240208   4.239   4.047   7.777  1.0698 -0.4869 -0.5198
11288SOL     OW40209   3.926   6.123   8.280  0.0933 -0.5349 -0.2527
11288SOL    HW140210   3.964   6.036   8.265 -0.4979 -0.8437 -0.0031
11288SOL    HW240211   3.900   6.121   8.372 -1.1562 -0.5895 -0.5859
11289SOL     OW40212   7.852   2.433   7.280  0.4924  0.1405 -0.3612
11289SOL    HW140213   7.886   2.412   7.193 -3.0070 -4.1049 -1.0730
11289SOL    HW240214   7.793   2.508   7.265  0.0230 -0.4546 -1.6956
11290SOL     OW40215   9.162   8.407   3.367  0.0117 -0.5849  0.0725
11290SOL    HW140216   9.237   8.358   3.400 -0.5955 -0.0287  2.4210
11290SOL    HW240217   9.113   8.343   3.315  1.8822 -1.0420 -1.2361
11291SOL     OW40218   8.239   0.048   0.726 -0.6239  0.1676 -0.1475
11291SOL    HW140219   8.314   0.093   0.763 -1.7347  1.7666  0.2549
11291SOL    HW240220   8.272  -0.040   0.704  1.0066  0.4032  1.1701
11292SOL     OW40221   2.324   1.290   6.550  0.3078 -0.0121  0.4593
11292SOL    HW140222   2.351   1.238   6.475 -0.8701  0.8380 -0.5953
11292SOL    HW240223   2.403   1.333   6.580  0.5268  0.8777 -1.2992
11293SOL     OW40224   3.612   0.243   5.893  0.0321  0.3337 -0.7283
11293SOL    HW140225   3.555   0.168   5.908  1.7583 -0.7994  0.5644
11293SOL    HW240226   3.594   0.302   5.967  0.7298 -0.1753 -0.1383
11294SOL     OW40227   2.272   0.212   3.640 -0.2263  0.2083  0.4156
11294SOL    HW140228   2.275   0.263   3.560  0.0949  1.5831  1.2732
11294SOL    HW240229   2.217   0.137   3.618 -1.1221  1.1641 -0.7454
11295SOL     OW40230   2.295   0.616   4.638 -0.0873 -0.2378 -0.3042
11295SOL    HW140231   2.336   0.531   4.651 -1.1660 -0.5261  1.8275
11295SOL    HW240232   2.201   0.597   4.632 -0.3963  0.7854  0.7023
11296SOL     OW40233   8.444   5.027   4.073 -0.7118 -0.4630  0.1806
11296SOL    HW140234   8.494   5.042   3.992 -0.4303 -0.0958  0.4175
11296SOL    HW240235   8.415   4.936   4.066 -1.5000 -0.1569 -0.7673
11297SOL     OW40236   5.234   0.889   6.329  0.5019  0.4039 -0.4197
11297SOL    HW140237   5.215   0.970   6.282  0.1035 -0.1893 -1.3238
11297SOL    HW240238   5.274   0.917   6.411  0.3858  1.5080 -0.7252
11298SOL     OW40239   1.063   3.933   8.674  0.0570 -0.4251 -0.6487
11298SOL    HW140240   1.067   4.020   8.714  1.4441  0.1523 -1.9627
11298SOL    HW240241   1.049   3.874   8.749 -1.8747  0.9401  0.1753
11299SOL     OW40242   5.267   5.774   5.074  0.1255 -0.3202  0.0521
11299SOL    HW140243   5.361   5.786   5.066 -0.1276  0.5821 -2.8199
11299SOL    HW240244   5.241   5.830   5.147  1.5454  1.0837 -0.4699
11300SOL     OW40245   5.506   1.923   9.001 -0.3515 -0.3858  0.0323
11300SOL    HW140246   5.510   1.865   8.925 -0.1337 -1.8219  1.0967
11300SOL    HW240247   5.413   1.927   9.023 -0.7916  2.2591 -1.9012
11301SOL     OW40248   7.099   5.323   3.688 -0.0302 -0.2496  0.1662
11301SOL    HW140249   7.082   5.251   3.627 -0.4817 -0.2450  0.2828
11301SOL    HW240250   7.029   5.386   3.671  0.5332  0.3017 -0.1398
11302SOL     OW40251   4.525   8.900   0.571  0.4301  0.5770 -0.5841
11302SOL    HW140252   4.616   8.896   0.543  1.3734  0.3321  2.1532
11302SOL    HW240253   4.524   8.968   0.639 -0.8547 -1.0697  1.1570
11303SOL     OW40254   5.435   1.757   0.361 -0.0403  0.1675  0.2963
11303SOL    HW140255   5.420   1.763   0.266  0.5883  0.8311  0.2222
11303SOL    HW240256   5.478   1.840   0.383 -1.3736  0.5877  1.4060
11304SOL     OW40257   4.929   6.203   6.311 -0.2592 -0.2714 -0.0089
11304SOL    HW140258   4.974   6.287   6.302  0.1085 -0.5535 -0.9515
11304SOL    HW240259   4.889   6.206   6.398 -0.8130  1.1508 -0.2773
11305SOL     OW40260   7.284   6.939   4.915  0.1903 -0.5828  0.2101
11305SOL    HW140261   7.209   6.997   4.922 -1.3903 -2.6457  1.4568
11305SOL    HW240262   7.320   6.934   5.003  1.0848 -0.5421 -0.1363
11306SOL     OW40263   2.984   3.683   2.243  0.1176  0.4092 -0.3552
11306SOL    HW140264   3.032   3.659   2.323  1.4079  2.1648 -0.5487
11306SOL    HW240265   2.937   3.763   2.267  0.7895  1.1411 -1.4485
11307SOL     OW40266   3.126   3.889   3.179 -0.2668  0.3382 -0.2734
11307SOL    HW140267   3.142   3.855   3.090 -2.3327  0.6332 -0.8052
11307SOL    HW240268   3.036   3.863   3.198  0.0793  0.4699  1.6835
11308SOL     OW40269   1.017   3.295   1.808 -0.3573  0.2414  0.1689
11308SOL    HW140270   0.994   3.203   1.821 -1.2162  0.4099 -0.0545
11308SOL    HW240271   0.945   3.329   1.754  0.9788  0.5549 -1.4763
11309SOL     OW40272   1.072   5.789   6.790 -0.6402  0.3398  0.6600
11309SOL    HW140273   1.082   5.841   6.870  3.2624  0.5777  0.1738
11309SOL    HW240274   1.126   5.712   6.804  0.5114  0.5869 -1.8411
11310SOL     OW40275   4.438   1.611   4.368  0.5146  0.2549  0.2660
11310SOL    HW140276   4.437   1.559   4.448 -0.1180  0.8801  0.6710
11310SOL    HW240277   4.418   1.700   4.396  0.1028  0.4533 -0.6141
11311SOL     OW40278   6.641   4.025   7.249  0.1957 -0.4953 -0.5851
11311SOL    HW140279   6.587   4.104   7.245  1.7941  0.8339  1.4363
11311SOL    HW240280   6.723   4.050   7.207  0.7386 -1.0525  0.1076
11312SOL     OW40281   6.667   3.257   6.348 -0.1237  0.1490 -0.2707
11312SOL    HW140282   6.657   3.267   6.443  0.9432 -0.6362 -0.0668
11312SOL    HW240283   6.600   3.315   6.312  0.1532  1.3030  0.9495
11313SOL     OW40284   6.628   1.605   1.966 -0.3823 -0.0014 -0.2581
11313SOL    HW140285   6.677   1.543   2.019 -0.0376  0.2592 -0.2640
11313SOL    HW240286   6.595   1.669   2.029  1.9652  1.6247 -0.5427
11314SOL     OW40287   0.229   0.129   4.517  0.5714  0.2648  0.7011
11314SOL    HW140288   0.250   0.070   4.590 -0.8447  0.5384  1.3506
11314SOL    HW240289   0.289   0.203   4.529  0.9731 -0.1057  1.0475
11315SOL     OW40290   4.175   2.885   3.708 -0.6123 -0.1468 -0.1159
11315SOL    HW140291   4.172   2.810   3.648 -0.5607 -0.8839  0.7698
11315SOL    HW240292   4.260   2.877   3.751  0.4276  1.7678 -1.6313
11316SOL     OW40293   2.344   5.007   2.467 -0.1871  0.4024 -0.2055
11316SOL    HW140294   2.396   5.085   2.486 -1.0245  1.2685 -1.3984
11316SOL    HW240295   2.267   5.015   2.523 -0.7959  0.9873 -1.1253
11317SOL     OW40296   7.434   1.449   1.351 -0.3594 -0.0552 -0.4141
11317SOL    HW140297   7.505   1.488   1.401 -1.2741  0.0332  0.8886
11317SOL    HW240298   7.434   1.357   1.378 -0.5747 -0.1098 -0.5929
11318SOL     OW40299   3.713   2.151   5.971 -0.1188  0.0836 -0.6856
11318SOL    HW140300   3.667   2.214   5.916 -1.2409 -0.3216 -0.2332
11318SOL    HW240301   3.769   2.205   6.027 -1.5408  0.7458  0.1332
11319SOL     OW40302   2.191   1.367   8.776 -0.2141 -0.3661  0.1097
11319SOL    HW140303   2.271   1.322   8.749 -0.0574 -1.6236  2.3645
11319SOL    HW240304   2.167   1.422   8.701  2.6972  0.0040 -0.6722
11320SOL     OW40305   8.334   2.161   3.161 -0.9109 -0.2876  0.0215
11320SOL    HW140306   8.333   2.066   3.155 -2.9823 -0.2730 -0.8116
11320SOL    HW240307   8.372   2.180   3.247 -0.5004 -1.8437  0.2107
11321SOL     OW40308   8.283   4.622   1.826  0.5909  0.7680  0.3768
11321SOL    HW140309   8.253   4.713   1.834  0.8538  0.7603  1.7162
11321SOL    HW240310   8.283   4.589   1.916 -2.4864 -1.5367 -0.2769
11322SOL     OW40311   5.898   8.528   4.383 -0.9819  0.4053 -0.5334
11322SOL    HW140312   5.844   8.594   4.341 -1.8884  2.2384  3.1363
11322SOL    HW240313   5.839   8.484   4.445  0.5936 -1.0201  0.0484
11323SOL     OW40314   2.913   3.917   2.336 -0.3755  0.2947 -0.7271
11323SOL    HW140315   2.841   3.930   2.274 -1.7083  1.5397  0.9702
11323SOL    HW240316   2.869   3.897   2.419  1.3362 -0.8589 -0.0503
11324SOL     OW40317   5.468   1.976   8.123  0.2101 -0.3702 -0.1124
11324SOL    HW140318   5.403   2.036   8.158 -0.4221  0.1608 -2.0732
11324SOL    HW240319   5.420   1.896   8.104  0.7614 -1.0311  1.1543
11325SOL     OW40320   6.272   8.447   2.493  0.1613 -0.0114  0.0718
11325SOL    HW140321   6.350   8.464   2.440  0.5663 -1.0812  0.2927
11325SOL    HW240322   6.202   8.498   2.451  0.3310 -1.2558 -1.8585
11326SOL     OW40323   4.287   2.124   2.138 -0.0153  0.6432 -0.9269
11326SOL    HW140324   4.192   2.121   2.140 -0.0245 -0.3084  1.9733
11326SOL    HW240325   4.314   2.037   2.170  1.7697  1.3559 -0.3675
11327SOL     OW40326   8.318   2.996   2.046 -0.4760 -0.0834  0.1563
11327SOL    HW140327   8.269   3.067   2.086  0.9166  2.5981 -2.4987
11327SOL    HW240328   8.382   2.970   2.112 -1.6774  0.3611  1.5419
11328SOL     OW40329   2.383   5.905   1.512  0.5442 -0.4216 -0.3695
11328SOL    HW140330   2.351   5.956   1.587  0.0187 -1.3295  0.0381
11328SOL    HW240331   2.303   5.873   1.470  0.8791 -1.8135  0.0213
11329SOL     OW40332   6.469   6.225   0.867  0.2519  0.0435  0.6112
11329SOL    HW140333   6.533   6.296   0.865  0.1351  0.1459  0.4716
11329SOL    HW240334   6.461   6.197   0.776 -0.5237  0.5939  0.4962
11330SOL     OW40335   8.903   9.026   5.041 -0.2192 -0.4630 -0.4151
11330SOL    HW140336   8.810   9.006   5.046 -0.1043 -1.1676 -1.0224
11330SOL    HW240337   8.942   8.980   5.116 -0.3352 -0.2643 -0.2306
11331SOL     OW40338   3.973   5.362   8.099 -0.6238  0.0135  0.2498
11331SOL    HW140339   3.885   5.326   8.088  0.1046 -1.7165 -0.2203
11331SOL    HW240340   4.013   5.307   8.166  1.1988 -1.4332 -1.9085
11332SOL     OW40341   0.792   1.960   6.376  0.2536  0.2225  0.6869
11332SOL    HW140342   0.733   1.972   6.451  0.8153  0.0492  1.1637
11332SOL    HW240343   0.876   1.936   6.416  0.1770 -1.3751 -0.0491
11333SOL     OW40344   5.864   6.268   5.341  0.6989 -0.1408  0.2070
11333SOL    HW140345   5.820   6.240   5.260 -1.1052 -0.1585  1.1444
11333SOL    HW240346   5.871   6.363   5.332 -1.2625  0.1154  0.7865
11334SOL     OW40347   7.278   5.340   0.992  0.2531 -0.1285  0.6782
11334SOL    HW140348   7.224   5.273   1.032  0.2019 -0.5493 -0.0857
11334SOL    HW240349   7.216   5.402   0.954  0.2856 -0.7617 -0.4487
11335SOL     OW40350   7.164   2.370   4.043  0.2418 -0.1387 -0.1301
11335SOL    HW140351   7.107   2.318   4.100 -0.1752  1.6382  1.1319
11335SOL    HW240352   7.209   2.430   4.101  1.2513  0.4562 -1.4673
11336SOL     OW40353   3.750   0.640   2.511  0.8511  0.0622  0.4009
11336SOL    HW140354   3.780   0.594   2.433  0.3281  0.7327 -0.2037
11336SOL    HW240355   3.812   0.711   2.523 -1.1168  2.2794 -1.6318
11337SOL     OW40356   0.818   8.715   8.945 -0.0378  0.3118  0.3402
11337SOL    HW140357   0.793   8.796   8.990  0.4566  0.0197  1.1679
11337SOL    HW240358   0.835   8.653   9.016 -0.1009 -0.4266 -0.2791
11338SOL     OW40359   4.490   1.601   7.817 -0.1276  0.3354  0.3671
11338SOL    HW140360   4.438   1.548   7.757  1.6065 -1.7569  0.5925
11338SOL    HW240361   4.524   1.672   7.762 -1.1813  0.3164 -0.3454
11339SOL     OW40362   8.358   1.307   8.614  0.0518 -0.3191  0.1352
11339SOL    HW140363   8.394   1.220   8.594  1.3761  0.4281 -0.9253
11339SOL    HW240364   8.408   1.337   8.690  0.2165 -0.1385 -0.0425
11340SOL     OW40365   8.585   7.343   6.614 -0.3902  0.5291  0.2414
11340SOL    HW140366   8.591   7.274   6.679 -1.0252  0.2764  0.0447
11340SOL    HW240367   8.612   7.422   6.660  1.7679 -0.0548  0.0822
11341SOL     OW40368   5.765   4.623   8.783  0.1305 -0.2277 -0.9407
11341SOL    HW140369   5.766   4.697   8.722  1.4355 -0.4747 -1.2508
11341SOL    HW240370   5.683   4.577   8.764  0.3664 -0.1134 -2.2840
11342SOL     OW40371   3.522   7.131   8.568  0.0762  0.4786  0.4545
11342SOL    HW140372   3.498   7.039   8.560 -0.7147  0.7020  0.1295
11342SOL    HW240373   3.486   7.157   8.653 -0.2162  0.6310  0.2867
11343SOL     OW40374   8.858   5.106   5.039 -0.6921  0.0954  0.2611
11343SOL    HW140375   8.817   5.030   5.080  1.4704 -0.6017  1.2806
11343SOL    HW240376   8.929   5.129   5.098 -0.3354  1.9722 -0.8302
11344SOL     OW40377   0.449   8.386   0.118 -0.5744 -0.1426 -0.6890
11344SOL    HW140378   0.357   8.412   0.112 -0.4660  0.0386 -1.8358
11344SOL    HW240379   0.495   8.449   0.063  0.1935 -0.4304 -0.3871
11345SOL     OW40380   1.851   5.228   0.081  0.0641 -0.0469 -0.1395
11345SOL    HW140381   1.759   5.253   0.079  0.1545  0.3752  0.6154
11345SOL    HW240382   1.850   5.136   0.107 -0.1114  0.1988  0.7513
11346SOL     OW40383   0.468   4.363   5.786  0.2174  0.0083 -0.7180
11346SOL    HW140384   0.558   4.367   5.753  0.7640  0.5946  0.7603
11346SOL    HW240385   0.456   4.445   5.833 -0.4622 -0.8161  0.6209
11347SOL     OW40386   5.549   0.042   4.847  0.3286 -0.2342  0.2477
11347SOL    HW140387   5.471   0.085   4.813 -0.9009 -1.7603  1.0001
11347SOL    HW240388   5.545   0.056   4.942  3.2510  3.2311  0.0369
11348SOL     OW40389   0.214   5.448   7.118  0.4656  0.1375  0.5735
11348SOL    HW140390   0.168   5.464   7.201 -0.1928 -1.9827  0.6575
11348SOL    HW240391   0.152   5.400   7.064  2.1330 -1.7662  0.2448
11349SOL     OW40392   9.092   9.093   7.332 -0.1187 -0.1679  0.5169
11349SOL    HW140393   9.125   9.024   7.390  0.8480  0.8594  1.2283
11349SOL    HW240394   9.114   9.063   7.244 -0.4947 -1.1668  0.7496
11350SOL     OW40395   0.774   1.937   7.307  0.3270 -0.2688  0.4237
11350SOL    HW140396   0.729   1.902   7.384 -0.0708  0.1675  0.3967
11350SOL    HW240397   0.774   1.865   7.244  1.2004 -0.8248  1.0467
11351SOL     OW40398   7.610   3.766   8.905 -0.1763 -0.5289 -0.2169
11351SOL    HW140399   7.702   3.741   8.920 -0.2356 -1.1587 -0.8588
11351SOL    HW240400   7.559   3.701   8.953 -0.3040 -0.7219 -0.6140
11352SOL     OW40401   3.264   6.282   5.830  0.1945 -0.4155 -0.0867
11352SOL    HW140402   3.305   6.196   5.829 -2.8827 -2.0819  1.7853
11352SOL    HW240403   3.217   6.286   5.913  0.0754  3.0581 -0.1715
11353SOL     OW40404   1.998   0.461   4.176  0.1557  0.4694  0.5976
11353SOL    HW140405   1.906   0.436   4.187  0.0422  0.7933  0.3981
11353SOL    HW240406   2.001   0.554   4.199  0.7562  0.0638  2.2774
11354SOL     OW40407   3.106   3.705   7.746  0.6012 -0.0412  0.0417
11354SOL    HW140408   3.137   3.655   7.821 -0.1917 -1.2682 -0.4235
11354SOL    HW240409   3.160   3.785   7.746  2.6918 -1.3879  0.1461
11355SOL     OW40410   8.592   7.151   6.820 -0.1492  0.1037 -0.0680
11355SOL    HW140411   8.643   7.072   6.801 -0.0227  0.4323 -1.1433
11355SOL    HW240412   8.609   7.169   6.913 -0.7180 -1.5126  0.3915
11356SOL     OW40413   2.366   3.823   3.650 -0.2547  0.2509  0.2434
11356SOL    HW140414   2.345   3.860   3.564  0.0108 -0.8893 -0.3271
11356SOL    HW240415   2.449   3.777   3.637 -0.1816  0.1112  1.1244
11357SOL     OW40416   8.492   8.833   2.388 -0.0885 -0.5001  0.2016
11357SOL    HW140417   8.448   8.914   2.363  0.8110  0.5640  1.9358
11357SOL    HW240418   8.577   8.838   2.345 -0.3317 -0.9409 -0.3514
11358SOL     OW40419   9.230   5.787   7.577 -0.4099 -0.3316  0.3636
11358SOL    HW140420   9.317   5.800   7.614 -0.5912 -1.5300  1.2397
11358SOL    HW240421   9.231   5.840   7.497  1.5591 -1.3318 -0.3341
11359SOL     OW40422   2.611   2.176   6.548  0.0823  0.1033  0.1163
11359SOL    HW140423   2.613   2.271   6.555  0.2860  0.1611 -0.6547
11359SOL    HW240424   2.695   2.152   6.508  1.0330 -0.6061  2.3695
11360SOL     OW40425   8.998   1.730   5.952  0.2314 -0.5209 -0.3797
11360SOL    HW140426   8.932   1.671   5.914 -0.0749 -0.6902  0.3875
11360SOL    HW240427   8.958   1.817   5.947  0.2512 -0.5230 -0.5730
11361SOL     OW40428   8.726   4.761   4.463  0.5289 -0.5785 -0.1450
11361SOL    HW140429   8.769   4.729   4.542  2.7149  1.4886 -0.3680
11361SOL    HW240430   8.658   4.821   4.496  2.1634  1.1549  0.2676
11362SOL     OW40431   5.008   1.486   6.258 -0.0586  0.8884  0.2195
11362SOL    HW140432   5.080   1.547   6.243 -0.6512  1.0755 -2.2597
11362SOL    HW240433   5.050   1.400   6.256  0.5051  1.0963  1.8697
11363SOL     OW40434   0.193   4.766   5.120  0.4206 -0.2772 -0.3298
11363SOL    HW140435   0.102   4.793   5.110  0.2392  0.1352  1.8625
11363SOL    HW240436   0.230   4.831   5.179  1.6069 -1.5322  0.3504
11364SOL     OW40437   5.908   4.198   3.755  0.4922  0.6063  0.1004
11364SOL    HW140438   5.987   4.223   3.804  0.5070  2.9015 -0.9621
11364SOL    HW240439   5.940   4.142   3.685  0.6869 -1.2789  1.6088
11365SOL     OW40440   1.417   7.151   8.476 -0.0110  0.2280 -0.5895
11365SOL    HW140441   1.332   7.195   8.483 -0.0730  0.0986 -0.5293
11365SOL    HW240442   1.403   7.065   8.516  0.6611  0.9307  1.3040
11366SOL     OW40443   5.944   2.617   5.313 -0.5668  0.6810 -0.4401
11366SOL    HW140444   6.029   2.612   5.356 -0.1079  1.6597 -1.1870
11366SOL    HW240445   5.943   2.703   5.271 -1.3647  0.1460 -1.5830
11367SOL     OW40446   2.804   6.280   6.435  0.1477  0.0108  0.3079
11367SOL    HW140447   2.842   6.271   6.522  0.5835  0.9880  0.2366
11367SOL    HW240448   2.712   6.300   6.450 -0.0532 -1.0216  0.5091
11368SOL     OW40449   4.578   8.799   5.922  0.7420 -0.4458  0.5703
11368SOL    HW140450   4.551   8.863   5.988  0.8075  0.3429 -0.1531
11368SOL    HW240451   4.499   8.783   5.870  1.0993  0.2074 -0.1932
11369SOL     OW40452   8.221   1.743   5.909 -0.3986  0.2972  0.3849
11369SOL    HW140453   8.306   1.701   5.897 -1.0528 -1.1976  0.7811
11369SOL    HW240454   8.242   1.833   5.936  1.0580 -0.5094  2.0865
11370SOL     OW40455   2.466   6.726   1.410 -0.1155 -0.4471 -0.0183
11370SOL    HW140456   2.460   6.715   1.505  1.1375 -0.6489  0.0512
11370SOL    HW240457   2.558   6.713   1.390 -0.3351 -0.2305 -1.2510
11371SOL     OW40458   4.298   3.231   2.069  0.0350 -0.4336  0.3274
11371SOL    HW140459   4.286   3.199   2.158 -0.4820  1.2859  0.9051
11371SOL    HW240460   4.224   3.195   2.020  0.1035 -1.0519  0.6601
11372SOL     OW40461   7.426   3.094   1.864  0.0291 -0.6070 -0.1013
11372SOL    HW140462   7.431   3.176   1.913  0.6093  0.6627 -2.1683
11372SOL    HW240463   7.344   3.100   1.815 -1.2972 -2.5088  1.6919
11373SOL     OW40464   8.505   7.025   3.930 -0.2349  0.1355  0.3873
11373SOL    HW140465   8.522   6.931   3.923 -0.8558 -0.0862  1.7169
11373SOL    HW240466   8.562   7.063   3.863  1.7157 -1.0044  1.2843
11374SOL     OW40467   5.377   4.724   5.647 -0.6616 -0.2565 -0.0374
11374SOL    HW140468   5.445   4.721   5.714  0.1127  1.3186 -0.6840
11374SOL    HW240469   5.315   4.656   5.672  0.3580 -0.6922  1.4398
11375SOL     OW40470   8.709   0.188   2.429  0.0287 -0.2696 -0.2700
11375SOL    HW140471   8.702   0.110   2.484 -0.5091  1.4856  2.3226
11375SOL    HW240472   8.791   0.177   2.381  0.3204 -2.0784  0.5743
11376SOL     OW40473   7.721   5.532   3.014 -0.2930 -0.1362  0.5793
11376SOL    HW140474   7.638   5.484   3.005  1.3587 -2.9045 -1.5008
11376SOL    HW240475   7.707   5.612   2.963 -2.0727  0.1286  1.3967
11377SOL     OW40476   2.994   4.171   0.034  0.2487  0.4940  0.2397
11377SOL    HW140477   3.004   4.120   0.114  0.0934 -1.0714 -0.7076
11377SOL    HW240478   2.905   4.151   0.003  1.6331 -2.1570 -2.4274
11378SOL     OW40479   2.126   2.602   0.135 -0.3518 -0.0220  0.0603
11378SOL    HW140480   2.090   2.514   0.140  1.8593 -0.9576  0.6886
11378SOL    HW240481   2.108   2.631   0.046 -1.5920 -0.8739  0.0169
11379SOL     OW40482   4.674   5.346   7.584  0.7649  0.4013 -0.0123
11379SOL    HW140483   4.695   5.399   7.507  1.1140  2.2007  1.2832
11379SOL    HW240484   4.582   5.365   7.602 -0.4353 -2.6833 -1.9418
11380SOL     OW40485   2.922   7.310   3.160 -0.1675  0.3864  0.6197
11380SOL    HW140486   2.932   7.244   3.229 -1.2818 -0.6269 -0.1241
11380SOL    HW240487   2.921   7.394   3.206  0.6156 -0.1613  1.6652
11381SOL     OW40488   6.094   9.201   4.311 -0.5526 -0.2121 -0.1545
11381SOL    HW140489   6.121   9.281   4.357  3.1160 -1.1070 -0.4523
11381SOL    HW240490   6.036   9.232   4.242  0.3464  2.1470  0.0399
11382SOL     OW40491   0.200   6.908   2.169 -0.0748 -0.1758  0.3789
11382SOL    HW140492   0.138   6.880   2.103 -0.1189  0.0250  0.3364
11382SOL    HW240493   0.213   7.002   2.153 -0.2356 -0.0851  0.7758
11383SOL     OW40494   6.251   0.308   4.712 -0.3687  0.0619 -0.3837
11383SOL    HW140495   6.306   0.332   4.786 -0.0914  0.0835 -0.5967
11383SOL    HW240496   6.167   0.350   4.731 -0.2656  0.1627 -0.1388
11384SOL     OW40497   3.917   5.898   3.000 -0.6937 -0.9463  0.8686
11384SOL    HW140498   3.988   5.843   2.967 -2.4516 -3.2123  0.5821
11384SOL    HW240499   3.875   5.844   3.067 -1.8885  0.4990  1.3375
11385SOL     OW40500   6.955   0.470   1.967  0.3414 -0.0501 -0.1883
11385SOL    HW140501   6.892   0.438   1.903  1.2059 -1.4800 -0.3591
11385SOL    HW240502   6.946   0.565   1.963 -2.5234 -0.1869  0.5385
11386SOL     OW40503   1.472   1.886   8.629  0.5296  0.3032  0.5828
11386SOL    HW140504   1.421   1.953   8.676 -0.1670  0.5223 -0.4481
11386SOL    HW240505   1.505   1.931   8.551 -0.1615 -0.6005 -0.2560
11387SOL     OW40506   1.923   6.057   7.562 -0.2195 -0.1357  0.0998
11387SOL    HW140507   1.897   6.059   7.655 -0.2541 -0.0777  0.0891
11387SOL    HW240508   1.994   6.120   7.556 -1.0153  0.7614 -0.1562
11388SOL     OW40509   1.137   4.229   6.727  0.2655 -0.5314  0.2430
11388SOL    HW140510   1.192   4.265   6.796  0.8632 -2.5696  0.9175
11388SOL    HW240511   1.094   4.153   6.768 -1.2032 -0.4029 -0.9613
11389SOL     OW40512   4.315   6.936   8.736 -0.4391  0.1038 -0.4747
11389SOL    HW140513   4.285   6.865   8.680  0.4207 -2.4221  2.0164
11389SOL    HW240514   4.242   6.954   8.795 -1.1251  2.3282 -1.8568
11390SOL     OW40515   5.080   1.221   4.761 -0.7325  0.0933 -0.1469
11390SOL    HW140516   5.162   1.226   4.710 -0.5096  0.6092  0.2508
11390SOL    HW240517   5.109   1.209   4.851 -1.1187 -0.3599 -0.0829
11391SOL     OW40518   0.525   5.444   9.025 -0.0927 -0.1945 -0.6357
11391SOL    HW140519   0.595   5.382   9.047  0.5923  0.2925 -1.3786
11391SOL    HW240520   0.568   5.530   9.029 -1.1853  0.3369  1.0909
11392SOL     OW40521   6.396   3.430   5.665 -0.1924  0.5237  0.3113
11392SOL    HW140522   6.400   3.335   5.676  0.5448  0.5361  0.1881
11392SOL    HW240523   6.309   3.454   5.699 -0.8484 -0.3207 -0.7118
11393SOL     OW40524   3.630   2.937   9.045 -0.0689 -0.0047  0.0471
11393SOL    HW140525   3.659   3.028   9.045 -1.6058  0.5748  2.1831
11393SOL    HW240526   3.666   2.900   8.964  1.5251  2.1701 -0.3303
11394SOL     OW40527   2.148   2.563   1.385 -0.4191 -0.6579 -0.0466
11394SOL    HW140528   2.187   2.500   1.445  1.7133  0.9105  0.3278
11394SOL    HW240529   2.216   2.578   1.319 -1.0189  0.9423 -0.3362
11395SOL     OW40530   1.315   3.760   0.928 -0.2813 -0.1002  0.3289
11395SOL    HW140531   1.268   3.806   0.998  0.7216  2.1110 -0.3647
11395SOL    HW240532   1.399   3.735   0.966 -0.8752 -1.5882  0.7460
11396SOL     OW40533   7.359   4.074   5.262 -0.2358 -0.0263 -0.8708
11396SOL    HW140534   7.346   3.988   5.302  1.3809  0.6537  1.3086
11396SOL    HW240535   7.370   4.056   5.169  0.8497 -2.2787 -0.3805
11397SOL     OW40536   6.985   3.192   6.586  0.6330 -0.7855  0.2591
11397SOL    HW140537   7.066   3.169   6.632  1.3909  0.2022 -0.5280
11397SOL    HW240538   6.998   3.159   6.497  0.1340 -0.6865  0.1459
11398SOL     OW40539   0.619   7.766   9.054  0.2021  0.0291 -0.0301
11398SOL    HW140540   0.567   7.841   9.026  1.4311  1.3754  1.1019
11398SOL    HW240541   0.639   7.719   8.973 -1.9221 -0.0238 -0.5934
11399SOL     OW40542   4.314   8.238   1.642 -0.0717 -0.2614  0.1818
11399SOL    HW140543   4.394   8.285   1.619  1.3678 -1.3240  2.7202
11399SOL    HW240544   4.252   8.307   1.664  0.7414  0.5315  0.0539
11400SOL     OW40545   4.435   5.067   3.489 -0.0862  0.2455 -0.0753
11400SOL    HW140546   4.446   5.112   3.405 -0.1363  0.6326  0.1234
11400SOL    HW240547   4.505   5.001   3.490 -0.1645  0.1481 -0.4745
11401SOL     OW40548   7.393   4.959   5.438 -0.4732 -0.4860 -0.2020
11401SOL    HW140549   7.398   4.976   5.532  0.1720 -0.3301 -0.2571
11401SOL    HW240550   7.388   5.046   5.398  1.3971 -0.4346 -0.4109
11402SOL     OW40551   5.905   6.142   0.591 -0.2923 -0.6662  0.2258
11402SOL    HW140552   5.883   6.212   0.653 -0.7894 -1.7017  1.2356
11402SOL    HW240553   6.001   6.144   0.586 -0.3146  0.2921 -0.0094
11403SOL     OW40554   2.476   8.135   5.137  0.3078 -0.5883  0.0823
11403SOL    HW140555   2.469   8.175   5.050 -2.2428  0.8404  0.8344
11403SOL    HW240556   2.528   8.197   5.188  0.5568 -0.6924 -0.0459
11404SOL     OW40557   3.846   6.271   6.738  0.6994 -0.1504 -0.3303
11404SOL    HW140558   3.824   6.298   6.827 -0.2357  0.6372 -0.7842
11404SOL    HW240559   3.863   6.177   6.745 -0.4439 -0.3178  0.4890
11405SOL     OW40560   5.303   6.095   6.415  0.7456 -0.1082 -0.7432
11405SOL    HW140561   5.324   6.154   6.342 -2.5328  0.5849 -1.2623
11405SOL    HW240562   5.296   6.153   6.491 -0.5437 -0.0822 -0.8646
11406SOL     OW40563   6.016   1.510   3.871 -0.0405  0.3626  0.2463
11406SOL    HW140564   6.075   1.471   3.807 -1.7309  0.4140 -1.4389
11406SOL    HW240565   6.033   1.604   3.866 -0.4039  0.4029 -0.4348
11407SOL     OW40566   4.842   3.357   8.082 -0.3303  0.0534  0.6437
11407SOL    HW140567   4.815   3.298   8.012 -1.2663  0.3245  0.7624
11407SOL    HW240568   4.886   3.429   8.036  1.0348 -0.8345  0.5198
11408SOL     OW40569   6.207   7.899   2.384  0.1685  0.0491  0.1670
11408SOL    HW140570   6.173   7.948   2.459 -2.5016  1.1086 -1.5585
11408SOL    HW240571   6.227   7.966   2.319  1.2396 -0.9117 -0.5358
11409SOL     OW40572   5.899   4.842   4.622  0.3951  0.2908  0.0793
11409SOL    HW140573   5.987   4.876   4.613  0.8791 -1.0659 -0.7010
11409SOL    HW240574   5.871   4.823   4.532  0.7826 -2.7098  0.4714
11410SOL     OW40575   6.165   5.344   3.296  0.6773 -0.1876 -0.0765
11410SOL    HW140576   6.254   5.311   3.312  0.3542 -0.3211  1.5757
11410SOL    HW240577   6.157   5.419   3.355 -0.5940 -0.6824  0.4112
11411SOL     OW40578   5.220   3.741   6.252 -0.7542 -0.5786  1.0220
11411SOL    HW140579   5.132   3.704   6.247 -1.7760  1.8438 -1.9069
11411SOL    HW240580   5.274   3.683   6.198 -1.0836 -0.7674  0.8942
11412SOL     OW40581   4.605   5.291   3.660  0.3045  0.0099 -0.2366
11412SOL    HW140582   4.630   5.354   3.592  0.3893 -0.5406 -0.7201
11412SOL    HW240583   4.511   5.278   3.646  0.5293 -0.9525 -0.9811
11413SOL     OW40584   3.147   0.774   8.944  0.0452  0.2303 -0.2083
11413SOL    HW140585   3.106   0.802   9.026 -0.3097 -0.1952 -0.2356
11413SOL    HW240586   3.083   0.798   8.877 -1.1330 -2.2502 -0.0883
11414SOL     OW40587   4.063   4.195   6.677 -0.6527  0.6333 -0.2138
11414SOL    HW140588   4.062   4.277   6.627 -0.4560  0.7192 -0.0776
11414SOL    HW240589   4.078   4.222   6.767  0.6264  0.3615 -0.3357
11415SOL     OW40590   2.526   0.681   1.649 -0.7731  0.4139 -0.0634
11415SOL    HW140591   2.454   0.620   1.661  0.9508 -1.4231  1.9068
11415SOL    HW240592   2.605   0.628   1.666  0.9636  2.6532 -0.6696
11416SOL     OW40593   6.495   7.141   5.098 -0.1826 -0.0081 -0.2805
11416SOL    HW140594   6.579   7.135   5.053  1.4754 -1.2041  2.7240
11416SOL    HW240595   6.444   7.067   5.064  0.2467  0.2430 -1.5153
11417SOL     OW40596   3.104   1.697   3.472  0.2162 -0.0285  0.0209
11417SOL    HW140597   3.100   1.792   3.464 -1.2031 -0.1972 -2.1795
11417SOL    HW240598   3.196   1.676   3.455  0.1380  0.8470 -1.7057
11418SOL     OW40599   3.358   4.609   7.730  0.3766  0.0978 -0.4299
11418SOL    HW140600   3.410   4.615   7.811  1.7743  0.1167 -1.2992
11418SOL    HW240601   3.387   4.528   7.689 -1.1146 -0.4651 -0.4062
11419SOL     OW40602   7.956   3.215   8.908  0.2324 -0.1958  0.8203
11419SOL    HW140603   7.908   3.150   8.857  0.7837 -2.5095  3.0150
11419SOL    HW240604   7.937   3.192   8.999  1.1155  2.2719  1.7017
11420SOL     OW40605   3.319   5.687   5.134 -0.5375 -0.4668  0.5047
11420SOL    HW140606   3.339   5.762   5.078  0.2745  0.7982  2.3703
11420SOL    HW240607   3.361   5.613   5.090  3.0488  1.0309  1.0037
11421SOL     OW40608   7.448   1.222   4.785  0.2296 -0.0740  0.0708
11421SOL    HW140609   7.359   1.253   4.803  0.4429  1.2126 -0.9017
11421SOL    HW240610   7.492   1.224   4.869 -0.9492 -1.7812  0.7720
11422SOL     OW40611   7.869   9.092   6.255 -0.6205  0.1315 -0.4505
11422SOL    HW140612   7.782   9.078   6.293  0.0736  0.2890  1.2589
11422SOL    HW240613   7.888   9.185   6.272  0.9594 -0.5011  1.6469
11423SOL     OW40614   0.662   0.118   8.349  0.2906  0.0041 -0.3107
11423SOL    HW140615   0.612   0.037   8.360 -2.5488  1.5875 -0.4055
11423SOL    HW240616   0.627   0.176   8.416  1.6937  1.3967 -0.7435
11424SOL     OW40617   5.274   1.100   6.816 -0.4325  0.2947 -0.4130
11424SOL    HW140618   5.257   1.103   6.722 -1.6367  2.8353 -0.1755
11424SOL    HW240619   5.362   1.136   6.825 -0.3600  0.1526 -0.5363
11425SOL     OW40620   5.402   3.225   4.024  0.6722 -0.2021  0.0006
11425SOL    HW140621   5.326   3.170   4.038  1.2706 -0.7467  1.2188
11425SOL    HW240622   5.374   3.313   4.050 -0.0452 -0.0407 -1.2205
11426SOL     OW40623   8.926   2.061   2.239 -0.3063  0.2452  0.3343
11426SOL    HW140624   8.857   2.063   2.172  1.1100  0.7272 -1.1679
11426SOL    HW240625   8.878   2.053   2.322 -2.2125  1.3491 -0.5860
11427SOL     OW40626   6.066   3.956   2.092  0.1900 -0.1171  0.2676
11427SOL    HW140627   6.006   3.938   2.164 -0.0240  2.0534  0.6848
11427SOL    HW240628   6.026   3.913   2.016 -2.0978  1.5098  0.4708
11428SOL     OW40629   6.844   1.565   6.010  0.1434 -0.1014 -0.0030
11428SOL    HW140630   6.751   1.574   5.990 -0.0899 -2.7570 -0.4629
11428SOL    HW240631   6.852   1.596   6.100 -1.3932 -0.6460  0.3587
11429SOL     OW40632   7.356   2.574   5.817  0.4111 -0.3586 -0.3293
11429SOL    HW140633   7.335   2.490   5.859  0.9777 -0.8786 -1.0517
11429SOL    HW240634   7.273   2.603   5.779  0.5846 -1.5398 -1.6914
11430SOL     OW40635   4.677   0.624   1.713  0.3920 -0.0565 -0.0392
11430SOL    HW140636   4.689   0.531   1.732 -1.0720  0.0257  1.4947
11430SOL    HW240637   4.677   0.666   1.799  2.3037  1.5750 -0.7481
11431SOL     OW40638   3.697   1.561   1.306 -0.0586 -0.7994 -0.3776
11431SOL    HW140639   3.765   1.560   1.374  2.0335  1.0873 -2.3029
11431SOL    HW240640   3.623   1.606   1.347  1.5145  1.2096  0.4182
11432SOL     OW40641   4.791   9.039   3.287  0.2790 -0.1385 -0.4921
11432SOL    HW140642   4.707   9.005   3.254 -0.5170  1.6253 -0.4117
11432SOL    HW240643   4.766   9.110   3.346  1.8265 -0.3134  0.4265
11433SOL     OW40644   2.908   8.522   2.383 -0.4715 -0.4176 -0.6691
11433SOL    HW140645   2.908   8.485   2.294 -3.0193  0.2971 -1.0282
11433SOL    HW240646   2.882   8.613   2.371  1.4883  0.3748  0.6396
11434SOL     OW40647   8.264   5.680   1.697  0.0948 -0.5442 -0.0577
11434SOL    HW140648   8.275   5.707   1.788  0.5917  3.1342 -1.0455
11434SOL    HW240649   8.339   5.621   1.680  1.9059  1.2986  1.0969
11435SOL     OW40650   3.995   4.955   3.763  0.4648  0.0530 -0.1508
11435SOL    HW140651   3.946   4.874   3.772  0.6165  0.0143  0.3442
11435SOL    HW240652   4.027   4.954   3.672 -0.2346 -0.0321 -0.4018
11436SOL     OW40653   8.291   5.315   3.671 -0.1970 -0.2234 -0.0821
11436SOL    HW140654   8.267   5.286   3.583  0.4254 -1.5344  0.1690
11436SOL    HW240655   8.222   5.280   3.728  1.4918 -2.9100  0.4686
11437SOL     OW40656   3.485   5.022   5.340  0.5004  0.7044 -0.4624
11437SOL    HW140657   3.466   4.997   5.250 -0.3156 -1.3042  0.2192
11437SOL    HW240658   3.540   4.951   5.374  0.5121  1.2562  0.7227
11438SOL     OW40659   7.425   2.041   0.251  0.6996 -0.3870  0.7769
11438SOL    HW140660   7.334   2.015   0.233  0.1259  2.5991 -1.6293
11438SOL    HW240661   7.417   2.118   0.307  1.8034 -0.6198  1.2753
11439SOL     OW40662   6.142   0.079   9.239  0.5778  0.2291  0.0275
11439SOL    HW140663   6.153   0.133   9.161 -1.8090  0.3272 -0.3297
11439SOL    HW240664   6.063   0.028   9.222  1.0839 -1.1700  1.6053
11440SOL     OW40665   0.965   2.253   6.006  0.4751  0.1695  0.1398
11440SOL    HW140666   0.962   2.218   6.095 -1.5823  0.1548  0.1124
11440SOL    HW240667   0.926   2.340   6.013 -1.9303 -0.7042 -1.0420
11441SOL     OW40668   1.151   7.971   1.898  0.1150  0.3457  0.9560
11441SOL    HW140669   1.166   8.037   1.831 -0.2161 -1.8422 -1.4248
11441SOL    HW240670   1.075   8.003   1.946  0.1728  1.8298  0.1267
11442SOL     OW40671   5.284   6.919   5.303 -0.0779 -0.2059  0.8588
11442SOL    HW140672   5.275   6.837   5.352 -0.5216  0.0906  1.2876
11442SOL    HW240673   5.234   6.905   5.223 -1.2905  0.1084  1.5382
11443SOL     OW40674   4.527   8.896   6.439 -0.2676  0.4721 -0.1795
11443SOL    HW140675   4.481   8.855   6.512 -0.1554  1.2241  0.3261
11443SOL    HW240676   4.558   8.822   6.386  0.2795 -0.1158  0.9207
11444SOL     OW40677   9.209   4.614   1.228  0.4598  0.0781 -0.0425
11444SOL    HW140678   9.284   4.600   1.285  1.1637 -0.8495 -1.1491
11444SOL    HW240679   9.233   4.572   1.145 -1.9807 -1.8388  0.0850
11445SOL     OW40680   5.644   6.505   8.657  0.0346  0.3914 -0.0727
11445SOL    HW140681   5.739   6.507   8.657  0.0927 -0.9232  0.7930
11445SOL    HW240682   5.622   6.414   8.679 -1.4074  0.9505  0.9425
11446SOL     OW40683   8.811   5.369   1.502 -0.2443  0.5792  0.0439
11446SOL    HW140684   8.833   5.351   1.594 -2.5019 -0.5334  0.4361
11446SOL    HW240685   8.892   5.403   1.464  1.0809 -0.0572  2.1426
11447SOL     OW40686   5.382   2.681   2.555 -0.0796 -0.2811  0.0731
11447SOL    HW140687   5.356   2.761   2.511  0.9418 -0.9977 -1.9587
11447SOL    HW240688   5.475   2.670   2.532  0.0915 -1.4917  1.1885
11448SOL     OW40689   5.133   2.261   5.504 -0.3564 -0.1546 -1.0898
11448SOL    HW140690   5.205   2.323   5.502  0.4200 -0.9904 -0.1225
11448SOL    HW240691   5.165   2.186   5.452 -1.1025  0.0429 -1.8630
11449SOL     OW40692   6.478   6.203   2.587  0.1474  0.2665 -0.1176
11449SOL    HW140693   6.515   6.180   2.502 -1.4621  0.9211 -1.0360
11449SOL    HW240694   6.429   6.125   2.613  0.0431  0.3308 -0.1240
11450SOL     OW40695   4.824   4.496   5.096  0.5571  0.1565 -0.0120
11450SOL    HW140696   4.771   4.487   5.176 -0.5769 -0.6705 -0.8313
11450SOL    HW240697   4.914   4.504   5.129  0.2727 -1.4466  1.3489
11451SOL     OW40698   5.036   0.150   4.415 -0.1489 -0.4129  0.2996
11451SOL    HW140699   5.012   0.218   4.351  0.1498 -0.5007  0.0912
11451SOL    HW240700   4.954   0.106   4.435 -0.4662  0.4177  0.9209
11452SOL     OW40701   4.916   1.412   7.370  0.3721 -0.2398  0.3464
11452SOL    HW140702   4.892   1.338   7.426  1.1966 -0.4783  0.4087
11452SOL    HW240703   4.988   1.378   7.316 -1.7891 -0.7095 -2.4409
11453SOL     OW40704   5.492   0.848   4.411  0.2631  0.5231  0.5573
11453SOL    HW140705   5.515   0.799   4.332 -1.8287 -0.6751  0.6311
11453SOL    HW240706   5.432   0.915   4.381 -0.2385  0.3040  1.0686
11454SOL     OW40707   9.183   4.024   4.910  0.0366  0.3182  0.2502
11454SOL    HW140708   9.116   4.061   4.853  0.4771 -0.6837 -0.9613
11454SOL    HW240709   9.151   3.937   4.931  0.0652  0.5416  1.2421
11455SOL     OW40710   1.950   5.615   4.617 -0.5088 -0.2490 -0.0392
11455SOL    HW140711   1.891   5.650   4.550  1.4358  1.3796 -1.0038
11455SOL    HW240712   2.038   5.631   4.582  0.5527 -0.4750  2.3599
11456SOL     OW40713   1.273   1.204   2.669 -0.3922  0.0782  0.4451
11456SOL    HW140714   1.323   1.230   2.747  1.0393  0.8349 -0.6729
11456SOL    HW240715   1.225   1.283   2.644 -2.3729 -0.7005  1.6222
11457SOL     OW40716   5.285   8.147   2.441 -0.2232  0.1626 -0.4427
11457SOL    HW140717   5.295   8.073   2.502  0.7227 -0.0197 -0.8018
11457SOL    HW240718   5.194   8.175   2.452  0.0112  0.3456  1.2827
11458SOL     OW40719   8.301   3.751   2.039  0.1752 -0.1416  0.4594
11458SOL    HW140720   8.316   3.668   2.085 -0.6438 -0.2914  0.4662
11458SOL    HW240721   8.215   3.741   1.999  0.2232  0.5781  0.1636
11459SOL     OW40722   7.304   8.216   4.359  0.1748 -0.2685 -0.2020
11459SOL    HW140723   7.355   8.136   4.349  0.0132 -0.2924 -0.8750
11459SOL    HW240724   7.332   8.272   4.287  0.2263  0.2541  0.2148
11460SOL     OW40725   7.026   7.942   0.123 -0.5464  0.1291  0.3411
11460SOL    HW140726   7.073   7.992   0.056  1.1137  2.3279  2.9640
11460SOL    HW240727   7.088   7.874   0.151  0.1156  1.3421  1.9319
11461SOL     OW40728   5.884   2.765   4.678  0.2878 -0.1484  0.8361
11461SOL    HW140729   5.884   2.729   4.589  1.0427 -0.7807  1.0922
11461SOL    HW240730   5.961   2.822   4.681 -0.8455  1.5085  0.4552
11462SOL     OW40731   9.246   7.009   7.744  0.5600  0.1146 -0.0278
11462SOL    HW140732   9.278   6.927   7.780  1.4749  0.5894  0.2747
11462SOL    HW240733   9.155   6.991   7.719  1.1894 -1.4169 -1.3889
11463SOL     OW40734   3.652   8.547   1.832  0.9811  0.0864  0.1133
11463SOL    HW140735   3.663   8.640   1.848  0.6026 -0.1647  2.0179
11463SOL    HW240736   3.576   8.541   1.774 -0.1875  0.8824  1.5187
11464SOL     OW40737   2.136   4.206   0.743  0.0198  0.3868 -0.4166
11464SOL    HW140738   2.073   4.267   0.705 -0.8354  0.3933  0.9470
11464SOL    HW240739   2.138   4.228   0.836  0.9859 -0.5478 -0.1974
11465SOL     OW40740   2.973   8.182   8.854 -0.0173 -0.3651 -0.0098
11465SOL    HW140741   3.000   8.095   8.883  0.2016 -0.2102  0.2569
11465SOL    HW240742   2.979   8.237   8.933  1.6085  0.3005 -0.5672
11466SOL     OW40743   4.886   2.221   8.026 -0.3961 -0.1828  0.2869
11466SOL    HW140744   4.942   2.176   8.090 -2.0164 -0.3184  1.6794
11466SOL    HW240745   4.817   2.262   8.079 -0.6647  1.4169 -1.2255
11467SOL     OW40746   1.641   4.102   2.795 -0.1741 -0.7274  0.0992
11467SOL    HW140747   1.718   4.113   2.851 -0.1327 -1.3590  0.1656
11467SOL    HW240748   1.570   4.144   2.845  0.0309 -0.5398  0.2392
11468SOL     OW40749   0.002   7.831   5.503 -0.4007 -0.4347 -0.1015
11468SOL    HW140750   0.057   7.753   5.503  1.0245  0.4772 -2.4594
11468SOL    HW240751  -0.076   7.806   5.553  1.9006 -1.9037  3.0177
11469SOL     OW40752   7.253   9.073   2.844  0.2594 -0.0139 -0.4796
11469SOL    HW140753   7.174   9.113   2.880  1.1908 -0.5679  2.4513
11469SOL    HW240754   7.231   9.053   2.753 -2.5695  0.8172 -0.0656
11470SOL     OW40755   1.555   4.514   5.441  0.3546 -0.2519  0.3930
11470SOL    HW140756   1.559   4.419   5.430  2.3261 -0.5274  2.6399
11470SOL    HW240757   1.477   4.530   5.493  0.2382 -0.6831  0.3517
11471SOL     OW40758   3.113   9.020   5.311 -0.1319 -0.1608  0.3070
11471SOL    HW140759   3.121   8.926   5.300 -0.6349 -0.3483  1.4591
11471SOL    HW240760   3.195   9.055   5.277  0.3180 -1.0546  0.4537
11472SOL     OW40761   0.232   0.656   7.315 -0.1761  0.3215 -0.2130
11472SOL    HW140762   0.221   0.711   7.393 -2.7576 -1.6623  0.9883
11472SOL    HW240763   0.155   0.675   7.261 -0.0846 -0.6676 -0.7159
11473SOL     OW40764   3.321   3.459   5.317  0.3892  0.0746  0.0954
11473SOL    HW140765   3.398   3.504   5.351  0.8470  0.1858 -1.0375
11473SOL    HW240766   3.299   3.507   5.237 -1.0712  0.2594  0.5767
11474SOL     OW40767   2.901   3.222   3.237  0.0034  0.2823 -0.1399
11474SOL    HW140768   2.831   3.265   3.188 -0.2807  1.3274  1.1154
11474SOL    HW240769   2.870   3.133   3.252 -0.4239  0.3158 -0.8283
11475SOL     OW40770   8.855   0.802   3.305  0.4629  0.1548 -0.2371
11475SOL    HW140771   8.781   0.848   3.265 -0.9539 -1.2952  0.6128
11475SOL    HW240772   8.824   0.779   3.393  2.0604 -0.2062  0.2583
11476SOL     OW40773   4.331   8.130   1.383 -0.1441 -0.3000  0.3742
11476SOL    HW140774   4.306   8.135   1.475  0.4151  0.0480  0.5111
11476SOL    HW240775   4.413   8.179   1.378 -0.6808  0.5554 -0.4916
11477SOL     OW40776   6.615   3.754   7.244 -0.4727 -0.5012  0.2837
11477SOL    HW140777   6.543   3.735   7.184 -0.9171  1.2608  0.2078
11477SOL    HW240778   6.637   3.845   7.227  0.0454 -0.2409  2.1044
11478SOL     OW40779   5.537   3.888   4.671  0.1411  0.2706  0.2446
11478SOL    HW140780   5.456   3.837   4.672 -0.1066  0.6537  0.2004
11478SOL    HW240781   5.536   3.936   4.754  0.0830  0.6355  0.0377
11479SOL     OW40782   7.681   6.518   2.529 -0.6046  0.2199  0.5824
11479SOL    HW140783   7.661   6.445   2.471 -1.6670  0.4325  0.6478
11479SOL    HW240784   7.665   6.596   2.475 -1.2272  0.4120  1.0325
11480SOL     OW40785   2.789   5.461   1.492  0.5832 -0.2438 -0.1840
11480SOL    HW140786   2.796   5.497   1.580 -0.1616  1.5593 -0.8223
11480SOL    HW240787   2.862   5.500   1.444  1.5392 -1.9183 -0.1968
11481SOL     OW40788   7.557   5.624   7.437  0.2984  0.3346 -0.0992
11481SOL    HW140789   7.519   5.596   7.354  0.1583  1.0937 -0.2981
11481SOL    HW240790   7.493   5.600   7.503  0.5495 -0.5613 -0.1673
11482SOL     OW40791   4.582   4.010   2.428  0.1298  0.0055  0.4477
11482SOL    HW140792   4.623   3.945   2.371 -0.5473 -1.7289  1.8588
11482SOL    HW240793   4.503   4.037   2.381 -0.3237 -1.2670  0.4464
11483SOL     OW40794   0.115   1.703   5.702 -0.2872  0.0417 -0.0475
11483SOL    HW140795   0.053   1.629   5.698  0.8985 -1.0084  0.2614
11483SOL    HW240796   0.117   1.727   5.794 -0.5467  0.3540 -0.1226
11484SOL     OW40797   3.008   3.496   4.625  0.5061 -0.3122 -0.2035
11484SOL    HW140798   3.018   3.585   4.593 -1.5863  0.8241  1.9382
11484SOL    HW240799   2.924   3.467   4.589  0.5682 -0.9464  0.1371
11485SOL     OW40800   2.566   0.951   7.705  0.2237  0.0353 -0.8435
11485SOL    HW140801   2.643   0.949   7.761 -0.8458 -0.9510  0.6692
11485SOL    HW240802   2.575   1.032   7.654  1.9896  0.1817 -0.3467
11486SOL     OW40803   1.323   2.780   8.596  0.1129 -0.4579 -0.1869
11486SOL    HW140804   1.414   2.780   8.627  0.4547 -0.0648 -1.1400
11486SOL    HW240805   1.293   2.870   8.610  0.6183  0.0260 -1.8837
11487SOL     OW40806   5.707   2.733   4.153  0.1769  0.0727 -0.9097
11487SOL    HW140807   5.689   2.640   4.142 -0.2367 -0.0637  0.6486
11487SOL    HW240808   5.657   2.775   4.083 -0.2590 -0.8257 -1.1562
11488SOL     OW40809   5.827   8.401   7.049 -0.2663  0.0915  0.3881
11488SOL    HW140810   5.774   8.356   7.114 -1.6361  1.4829  0.2954
11488SOL    HW240811   5.902   8.433   7.097  1.5892 -3.4397  0.1921
11489SOL     OW40812   0.642   8.115   2.198 -0.5428  0.5197  0.6985
11489SOL    HW140813   0.701   8.187   2.220 -0.5095  0.1576  1.8645
11489SOL    HW240814   0.626   8.071   2.281 -1.9052  0.1833  0.2845
11490SOL     OW40815   5.592   0.866   6.566  0.3498  0.2316 -0.2795
11490SOL    HW140816   5.679   0.846   6.532  0.9920 -0.3991  1.6086
11490SOL    HW240817   5.574   0.796   6.628 -0.6658  1.4014  0.7968
11491SOL     OW40818   3.674   5.258   8.135 -0.2344 -0.8165  0.5599
11491SOL    HW140819   3.685   5.163   8.140  1.2739 -0.7602 -0.7694
11491SOL    HW240820   3.700   5.290   8.222 -1.3179 -1.6250  1.2071
11492SOL     OW40821   1.193   4.358   7.923 -0.0347  0.5277 -0.1336
11492SOL    HW140822   1.161   4.411   7.996 -0.2500  0.6708 -0.3301
11492SOL    HW240823   1.238   4.285   7.964 -0.1990  0.5806  0.1437
11493SOL     OW40824   4.863   6.468   2.034 -0.4368 -0.2904 -0.5178
11493SOL    HW140825   4.773   6.452   2.005 -1.9372  1.9580  2.3444
11493SOL    HW240826   4.877   6.408   2.107  0.0879 -0.0303 -0.3964
11494SOL     OW40827   4.028   2.151   4.043 -0.8187 -0.0238  0.3603
11494SOL    HW140828   4.116   2.145   4.080 -0.2425  1.4712 -0.6652
11494SOL    HW240829   3.970   2.163   4.118  0.1678  1.6460  0.8845
11495SOL     OW40830   1.337   1.702   1.813 -0.6165 -0.2413 -0.4920
11495SOL    HW140831   1.418   1.653   1.823 -1.1054 -1.0166 -0.2242
11495SOL    HW240832   1.365   1.791   1.789  0.3325 -0.3118  0.2918
11496SOL     OW40833   6.763   6.915   8.587  0.2344  0.0586  0.4775
11496SOL    HW140834   6.687   6.926   8.530  0.6547 -0.0365 -0.1102
11496SOL    HW240835   6.800   7.003   8.596  0.1110  0.0905  0.6938
11497SOL     OW40836   6.113   1.376   0.026 -0.3703  0.0069  0.1243
11497SOL    HW140837   6.109   1.305  -0.038 -0.4043 -1.0813  1.2812
11497SOL    HW240838   6.166   1.443  -0.016  1.8176 -1.7271 -0.1084
11498SOL     OW40839   1.475   8.299   0.246 -0.4520  0.3270 -0.2572
11498SOL    HW140840   1.514   8.258   0.169 -1.3400  1.4216 -1.3340
11498SOL    HW240841   1.526   8.378   0.260  0.2115 -0.2659  0.7993
11499SOL     OW40842   4.636   3.280   7.310 -0.2394 -0.5379 -0.8798
11499SOL    HW140843   4.649   3.344   7.240  0.7665 -0.2416 -0.4279
11499SOL    HW240844   4.669   3.198   7.273 -0.2352 -0.5011 -0.9584
11500SOL     OW40845   1.530   1.374   2.413  0.5154 -0.0869 -0.1919
11500SOL    HW140846   1.619   1.406   2.401  0.2635  1.0612  0.8051
11500SOL    HW240847   1.479   1.416   2.344  0.7036 -0.6339 -0.6743
11501SOL     OW40848   1.004   3.477   0.219  0.0993 -0.2128  0.1206
11501SOL    HW140849   1.070   3.418   0.182 -0.0729 -0.9171  0.9129
11501SOL    HW240850   1.026   3.563   0.183  0.6377 -0.6731 -0.6864
11502SOL     OW40851   4.257   7.203   1.594 -0.0677 -0.3798  0.0780
11502SOL    HW140852   4.340   7.205   1.643  1.3346 -1.3825 -2.1055
11502SOL    HW240853   4.222   7.291   1.603  0.2575 -0.4120  2.5583
11503SOL     OW40854   5.811   8.257   0.427 -0.7587  0.0471  0.0852
11503SOL    HW140855   5.780   8.172   0.459  1.2470 -0.3409  1.2196
11503SOL    HW240856   5.890   8.236   0.377 -1.6652  1.0460 -1.8354
11504SOL     OW40857   8.164   1.207   9.185 -0.0942  0.0631 -0.6644
11504SOL    HW140858   8.243   1.217   9.131 -0.1135  0.8576 -0.5634
11504SOL    HW240859   8.098   1.261   9.141 -1.0817 -1.8735 -1.6549
11505SOL     OW40860   0.156   7.306   4.799  0.6298  0.1558  0.1917
11505SOL    HW140861   0.145   7.213   4.779 -0.7169  0.5315 -0.9919
11505SOL    HW240862   0.095   7.322   4.871  1.0369  0.0801  0.5566
11506SOL     OW40863   3.033   8.670   0.671 -0.2963  0.2804 -0.2021
11506SOL    HW140864   3.052   8.592   0.723 -2.0168 -0.0562 -0.0239
11506SOL    HW240865   3.112   8.684   0.619  0.5999 -0.7033  0.8386
11507SOL     OW40866   0.611   8.699   7.343  0.4913  0.4472 -0.5273
11507SOL    HW140867   0.569   8.618   7.370 -1.0017  0.7023 -1.9220
11507SOL    HW240868   0.661   8.727   7.419 -0.4167 -0.8414  0.5801
11508SOL     OW40869   8.270   2.574   8.796  0.2963 -0.1438  0.0287
11508SOL    HW140870   8.267   2.492   8.748 -0.6247 -0.0699 -0.0455
11508SOL    HW240871   8.324   2.555   8.873  0.0104 -0.8374  0.0621
11509SOL     OW40872   2.278   2.587   7.323  0.1721  0.2823 -0.2074
11509SOL    HW140873   2.185   2.595   7.347  0.4338 -1.2856  1.6064
11509SOL    HW240874   2.277   2.572   7.229 -1.4095  0.4690 -0.2551
11510SOL     OW40875   3.471   6.222   7.595 -0.4524 -0.6423 -0.0040
11510SOL    HW140876   3.447   6.212   7.503  0.0843  1.0647 -0.3607
11510SOL    HW240877   3.554   6.270   7.593  0.3999 -1.9752  1.3382
11511SOL     OW40878   7.760   8.481   1.832  0.0668  0.2118  0.2110
11511SOL    HW140879   7.697   8.493   1.903 -1.3307  0.5078 -1.0316
11511SOL    HW240880   7.766   8.387   1.821 -1.9268  0.1803 -1.1136
11512SOL     OW40881   1.093   6.191   2.941 -1.1600 -0.5724 -0.4124
11512SOL    HW140882   1.096   6.229   3.029 -2.2197 -0.2306 -0.5124
11512SOL    HW240883   1.185   6.177   2.918 -0.8206  0.3653  0.2988
11513SOL     OW40884   6.252   6.680   1.279  0.3853  0.0720  0.1164
11513SOL    HW140885   6.174   6.629   1.257  0.4350 -1.4887  3.1091
11513SOL    HW240886   6.222   6.771   1.284 -0.8824 -0.3168 -0.2487
11514SOL     OW40887   4.793   0.342   8.695 -0.1805  0.0894 -0.0252
11514SOL    HW140888   4.761   0.389   8.773  0.8958  0.0683  0.4395
11514SOL    HW240889   4.819   0.256   8.728  2.3601  0.8133  0.0483
11515SOL     OW40890   8.262   0.228   6.835 -0.6163  0.1187 -0.5255
11515SOL    HW140891   8.187   0.283   6.814 -0.3684  0.6061 -0.1355
11515SOL    HW240892   8.336   0.288   6.842  0.1513 -0.5002 -2.4489
11516SOL     OW40893   2.424   4.886   7.386 -0.3273 -0.3998  0.3550
11516SOL    HW140894   2.407   4.930   7.470  0.7036 -1.7060  1.2927
11516SOL    HW240895   2.338   4.881   7.344 -0.6269  1.6519  0.5970
11517SOL     OW40896   1.156   8.594   3.334 -0.6314 -0.2396  0.0330
11517SOL    HW140897   1.116   8.630   3.255  0.5739  0.7676 -0.1483
11517SOL    HW240898   1.108   8.636   3.406 -1.6798 -1.1006 -0.1407
11518SOL     OW40899   2.929   5.302   3.573  0.0180  0.0820 -0.4714
11518SOL    HW140900   2.889   5.220   3.602 -1.3050  0.9693  0.3348
11518SOL    HW240901   2.869   5.336   3.507  0.3456  0.6126 -0.5036
11519SOL     OW40902   6.003   0.950   4.661  0.4273  0.0840  0.2665
11519SOL    HW140903   6.063   0.930   4.590 -0.7153 -0.7590 -0.4994
11519SOL    HW240904   5.929   0.994   4.618  0.9681  2.1929  1.3340
11520SOL     OW40905   0.956   0.381   1.466 -0.0604  0.6894 -0.1065
11520SOL    HW140906   0.887   0.387   1.532  0.4973 -0.7849  0.6575
11520SOL    HW240907   0.917   0.330   1.395 -0.4493  1.7301 -0.6628
11521SOL     OW40908   5.844   5.364   8.645  0.2192 -0.6109 -0.3995
11521SOL    HW140909   5.786   5.441   8.644  1.3264  0.2548 -0.7762
11521SOL    HW240910   5.899   5.378   8.723  1.2992 -0.3181 -1.1863
11522SOL     OW40911   8.109   2.948   0.710 -0.6531  0.2738  0.3215
11522SOL    HW140912   8.081   2.997   0.633 -1.3585 -1.5919 -0.6468
11522SOL    HW240913   8.037   2.888   0.729  0.1861 -0.4153  1.4706
11523SOL     OW40914   2.267   7.648   5.697 -0.0527  0.8079 -0.0017
11523SOL    HW140915   2.182   7.648   5.741 -0.2844 -0.0154 -0.4206
11523SOL    HW240916   2.249   7.683   5.610 -0.0942  0.0866 -0.2961
11524SOL     OW40917   8.717   1.537   8.498  0.7095 -0.2373 -0.2726
11524SOL    HW140918   8.743   1.628   8.481 -0.1387 -0.2481 -1.8659
11524SOL    HW240919   8.664   1.513   8.422  0.2172 -1.8067  0.5224
11525SOL     OW40920   6.918   1.589   5.224 -0.1796  0.1450 -0.0726
11525SOL    HW140921   6.989   1.647   5.200  1.2305 -0.9410  1.2613
11525SOL    HW240922   6.961   1.514   5.265 -1.8671 -2.1696 -2.2563
11526SOL     OW40923   7.157   8.325   2.703 -0.6052  0.0972 -0.3528
11526SOL    HW140924   7.236   8.380   2.702 -0.5377  0.0118  0.0515
11526SOL    HW240925   7.098   8.366   2.640 -0.8495  1.0739  0.4897
11527SOL     OW40926   0.311   7.256   5.483  0.2275 -0.2568  0.4812
11527SOL    HW140927   0.316   7.337   5.534 -1.0308  0.5248 -0.5669
11527SOL    HW240928   0.252   7.277   5.411  0.7287 -1.8052 -0.4169
11528SOL     OW40929   4.960   6.553   7.299 -0.0648  0.0820 -0.5559
11528SOL    HW140930   5.052   6.580   7.302  0.0637 -0.4575  1.5235
11528SOL    HW240931   4.959   6.476   7.243  0.8220 -0.1458 -0.2610
11529SOL     OW40932   3.020   8.837   2.704 -0.4341 -0.3368 -0.7790
11529SOL    HW140933   3.041   8.801   2.791  0.0569 -0.4134 -0.9248
11529SOL    HW240934   3.070   8.918   2.699  0.1638 -0.7225 -1.2883
11530SOL     OW40935   0.153   0.317   7.313  0.4807 -0.2845 -0.1247
11530SOL    HW140936   0.203   0.398   7.324 -0.0655  0.3490 -1.9336
11530SOL    HW240937   0.220   0.248   7.307  1.1063  0.3760 -1.1017
11531SOL     OW40938   5.706   8.958   2.975 -0.2807 -0.7115 -0.5320
11531SOL    HW140939   5.733   8.931   3.062 -0.8756 -2.1556 -0.7584
11531SOL    HW240940   5.610   8.950   2.976 -0.2053 -2.4838 -1.8066
11532SOL     OW40941   4.404   3.192   8.732  0.3559  0.0060  0.0133
11532SOL    HW140942   4.352   3.116   8.706 -0.1235  0.0025  0.9659
11532SOL    HW240943   4.493   3.171   8.702 -0.1960  0.1339 -1.8661
11533SOL     OW40944   6.225   0.758   0.125 -0.3914 -0.5359 -0.4140
11533SOL    HW140945   6.207   0.793   0.213 -1.0957 -0.9597 -0.3879
11533SOL    HW240946   6.308   0.799   0.101 -0.7000  0.3930  0.0226
11534SOL     OW40947   7.696   8.262   3.314  0.4294 -0.3015 -0.3293
11534SOL    HW140948   7.733   8.174   3.316 -0.7207 -0.7910 -0.0921
11534SOL    HW240949   7.682   8.284   3.406 -1.3999 -0.8071 -0.4488
11535SOL     OW40950   6.759   6.154   5.001  0.3669  0.3338 -1.0671
11535SOL    HW140951   6.719   6.239   5.015 -1.0033 -0.2947 -1.0773
11535SOL    HW240952   6.750   6.108   5.084 -2.4993 -1.2245 -2.0812
11536SOL     OW40953   3.099   2.553   2.835  0.1401 -0.3983  0.1384
11536SOL    HW140954   3.109   2.578   2.927 -0.8828 -1.1427  0.4620
11536SOL    HW240955   3.171   2.599   2.791  0.8056 -0.2333  1.3333
11537SOL     OW40956   2.648   7.057   6.017 -0.2500  0.5713  0.6269
11537SOL    HW140957   2.641   7.151   5.999 -0.4805  0.2167 -1.3828
11537SOL    HW240958   2.727   7.049   6.069 -0.3527  1.9062  1.0429
11538SOL     OW40959   3.248   2.131   9.201  0.0454  0.1435 -0.2626
11538SOL    HW140960   3.303   2.067   9.247 -0.3370 -0.1253 -0.1743
11538SOL    HW240961   3.297   2.213   9.206  0.5501 -0.1453 -0.3876
11539SOL     OW40962   8.223   0.260   2.592 -0.2097  1.1787  0.0773
11539SOL    HW140963   8.229   0.169   2.565 -1.7827  1.3165 -0.8809
11539SOL    HW240964   8.294   0.272   2.655  0.0216 -0.6932  0.2086
11540SOL     OW40965   2.123   7.262   5.536 -0.0222 -0.0683 -0.2756
11540SOL    HW140966   2.102   7.306   5.454  0.2703 -0.3730 -0.5155
11540SOL    HW240967   2.211   7.292   5.558  0.9861 -1.9967 -1.4485
11541SOL     OW40968   3.173   7.722   7.374 -0.1187  0.4022 -0.6566
11541SOL    HW140969   3.080   7.745   7.382 -0.3659 -0.9016  0.5915
11541SOL    HW240970   3.212   7.795   7.325 -1.0209  2.8987  2.0785
11542SOL     OW40971   2.172   7.515   5.377  0.6681  0.3384 -0.5683
11542SOL    HW140972   2.117   7.514   5.455 -0.9761  1.1456 -1.6385
11542SOL    HW240973   2.237   7.583   5.394  0.1148  0.7470 -0.0196
11543SOL     OW40974   2.633   0.227   6.342 -0.2821  0.1079  0.0343
11543SOL    HW140975   2.677   0.303   6.305 -0.3466 -0.9130 -2.3597
11543SOL    HW240976   2.570   0.262   6.404  0.2105  1.9372 -0.4571
11544SOL     OW40977   2.117   5.462   4.083 -0.2228  0.3429 -0.3865
11544SOL    HW140978   2.178   5.506   4.143  1.4609 -1.0222 -1.0032
11544SOL    HW240979   2.113   5.372   4.115 -1.7836  0.3547 -0.5009
11545SOL     OW40980   5.233   4.657   9.109  0.1131  0.1497 -0.5330
11545SOL    HW140981   5.194   4.569   9.110  2.0670 -0.7599 -0.4597
11545SOL    HW240982   5.176   4.707   9.051 -1.9141 -0.7248  0.5947
11546SOL     OW40983   4.289   2.628   0.380  0.0899  0.2736  0.0341
11546SOL    HW140984   4.247   2.700   0.426  0.5856  0.9358 -0.5177
11546SOL    HW240985   4.217   2.570   0.356 -0.4139  0.9492 -0.1352
11547SOL     OW40986   3.308   0.936   4.058  0.2179  0.1075  0.1375
11547SOL    HW140987   3.239   0.883   4.099  0.8888  0.5082  1.8878
11547SOL    HW240988   3.288   1.026   4.085  2.6924  0.0036  2.8029
11548SOL     OW40989   2.026   3.170   4.228  0.1936 -0.1571 -0.0984
11548SOL    HW140990   2.049   3.253   4.270  0.4025 -0.6433  0.7667
11548SOL    HW240991   2.082   3.167   4.150  0.3921  0.3778  0.0160
11549SOL     OW40992   2.063   3.725   5.636 -0.5887  0.1815 -0.2880
11549SOL    HW140993   2.036   3.634   5.621  0.4590 -1.1798  4.5523
11549SOL    HW240994   1.990   3.765   5.684 -1.4547  2.4261 -3.1333
11550SOL     OW40995   5.853   6.631   4.635  0.6123  0.3412  0.3540
11550SOL    HW140996   5.873   6.623   4.542  0.0796 -1.5168  0.3658
11550SOL    HW240997   5.827   6.543   4.662 -1.8415  1.3811  1.6575
11551SOL     OW40998   2.431   8.048   0.200 -0.7561  0.2277 -0.5125
11551SOL    HW140999   2.385   8.023   0.120  1.0552  1.6096 -2.0871
11551SOL    HW241000   2.522   8.057   0.173 -0.4396  3.1302  1.1196
11552SOL     OW41001   1.488   9.149   7.264 -0.2791 -0.2823 -0.3163
11552SOL    HW141002   1.529   9.186   7.342  2.1082 -1.6301 -0.8649
11552SOL    HW241003   1.464   9.226   7.211 -0.5756  0.5928  1.0362
11553SOL     OW41004   0.423   2.924   7.577 -0.1130 -0.9071 -0.1132
11553SOL    HW141005   0.403   2.830   7.584  0.5010 -0.9631  0.9797
11553SOL    HW241006   0.433   2.939   7.483 -0.7309 -1.8252 -0.3402
11554SOL     OW41007   5.717   0.448   9.157  0.2005  0.2406 -0.5495
11554SOL    HW141008   5.633   0.435   9.201 -0.9283  1.5155 -2.2325
11554SOL    HW241009   5.712   0.393   9.079  1.5646 -0.8129  0.0648
11555SOL     OW41010   8.126   6.243   4.931  0.5442 -0.3560  0.3083
11555SOL    HW141011   8.197   6.179   4.928 -0.0296 -0.9704 -2.0607
11555SOL    HW241012   8.156   6.315   4.877 -0.2254 -0.1761  0.1141
11556SOL     OW41013   7.706   4.909   3.242 -0.1970 -0.1965  0.5536
11556SOL    HW141014   7.681   4.818   3.257  0.5373 -0.4593  0.2728
11556SOL    HW241015   7.713   4.947   3.329  0.7168 -0.7621  0.7433
11557SOL     OW41016   6.826   5.175   2.263 -0.2397  0.2301  0.1495
11557SOL    HW141017   6.869   5.248   2.218  0.2360  0.1120  0.4063
11557SOL    HW241018   6.733   5.187   2.244 -0.1926  1.0342  0.3656
11558SOL     OW41019   6.736   1.263   4.672  0.2560 -0.2009 -0.4145
11558SOL    HW141020   6.710   1.334   4.613 -1.7052  0.8254  1.5403
11558SOL    HW241021   6.699   1.184   4.633  0.6219  0.1516 -1.5111
11559SOL     OW41022   4.899   1.478   2.754 -0.3306  0.1389  0.1777
11559SOL    HW141023   4.859   1.503   2.671 -0.4388  1.3792  0.5755
11559SOL    HW241024   4.825   1.468   2.814 -0.1558  1.1446  0.5860
11560SOL     OW41025   7.341   2.046   7.857 -0.2691 -0.0537  0.3702
11560SOL    HW141026   7.301   2.126   7.893  0.8562  1.3261 -1.2690
11560SOL    HW241027   7.354   2.065   7.764 -1.7503 -2.9416 -0.5471
11561SOL     OW41028   1.451   8.562   1.159  0.0942 -0.3424  0.1536
11561SOL    HW141029   1.482   8.641   1.204 -2.0531  0.2211  0.7746
11561SOL    HW241030   1.405   8.596   1.082 -0.8252 -0.9761  0.4118
11562SOL     OW41031   7.859   2.832   6.140  0.7119  0.5850 -0.0292
11562SOL    HW141032   7.871   2.896   6.070 -0.6679 -0.2074 -1.0479
11562SOL    HW241033   7.811   2.760   6.098  0.7341 -0.3546  1.4997
11563SOL     OW41034   8.596   2.318   2.341  0.1095  0.4040 -0.1692
11563SOL    HW141035   8.593   2.396   2.397  2.3961  1.1274 -0.9281
11563SOL    HW241036   8.680   2.277   2.363 -0.1126 -0.6947 -1.2804
11564SOL     OW41037   7.324   5.584   6.298 -0.4854 -0.0369  0.6935
11564SOL    HW141038   7.364   5.507   6.258 -0.4892 -0.5050  1.5805
11564SOL    HW241039   7.394   5.626   6.347 -0.7560 -0.1379  1.1787
11565SOL     OW41040   3.041   7.875   2.971 -0.5147 -0.1612  0.3106
11565SOL    HW141041   2.956   7.900   2.936 -0.4413 -1.0074 -0.5130
11565SOL    HW241042   3.022   7.815   3.043 -0.6523 -2.8496 -1.7914
11566SOL     OW41043   0.441   1.194   2.475  0.2280 -0.1349  0.0735
11566SOL    HW141044   0.374   1.168   2.411 -0.1227  2.1497 -0.5678
11566SOL    HW241045   0.404   1.168   2.559 -0.8865 -0.0936 -0.3800
11567SOL     OW41046   6.974   2.834   6.448  0.2873  0.1517 -0.0521
11567SOL    HW141047   6.963   2.745   6.413 -0.1703  0.4157 -0.5954
11567SOL    HW241048   7.068   2.841   6.465  0.7177  0.3343 -2.1624
11568SOL     OW41049   4.977   9.076   7.023  0.2862  0.0017 -0.5722
11568SOL    HW141050   4.909   9.112   6.966  1.2741  1.0358 -1.1484
11568SOL    HW241051   4.971   9.127   7.104 -0.9063 -1.2509  0.1643
11569SOL     OW41052   3.039   4.273   3.112  0.5405 -0.4298  0.6848
11569SOL    HW141053   3.114   4.302   3.060 -0.6922 -0.2791 -1.0884
11569SOL    HW241054   3.049   4.179   3.119  0.3791 -0.5421 -0.4392
11570SOL     OW41055   2.247   5.002   7.670  0.2267 -0.4132 -0.2796
11570SOL    HW141056   2.181   5.071   7.661  0.2475 -0.5977 -2.3062
11570SOL    HW241057   2.197   4.926   7.700 -0.1536 -0.0543  0.0054
11571SOL     OW41058   3.031   0.862   8.025 -0.5180  0.0072 -0.0548
11571SOL    HW141059   2.944   0.843   7.990 -0.7597  1.2424 -0.2015
11571SOL    HW241060   3.016   0.885   8.117  0.1149 -3.2384  0.9752
11572SOL     OW41061   0.369   2.140   5.528 -0.8226  0.1341  0.0576
11572SOL    HW141062   0.418   2.142   5.446 -0.3399  0.9636  0.3506
11572SOL    HW241063   0.405   2.065   5.576 -0.3120  0.3240 -0.0198
11573SOL     OW41064   0.549   3.546   2.517  0.1962 -0.8215  0.3873
11573SOL    HW141065   0.531   3.469   2.572 -0.3277  0.5528  2.2176
11573SOL    HW241066   0.643   3.561   2.528 -0.3264  1.0399  3.2158
11574SOL     OW41067   7.588   0.845   3.109 -0.3995  0.3978  0.2494
11574SOL    HW141068   7.510   0.835   3.163 -1.1467  0.8815 -0.7033
11574SOL    HW241069   7.596   0.940   3.097 -0.1600  0.3046 -0.3440
11575SOL     OW41070   0.093   3.040   8.386 -0.1237  0.4401  0.0881
11575SOL    HW141071   0.058   3.047   8.475  2.2178 -1.1516  1.2460
11575SOL    HW241072   0.072   3.124   8.345 -1.7527  1.0074  1.9250
11576SOL     OW41073   8.564   6.249   6.957  0.0938 -0.1563 -0.3914
11576SOL    HW141074   8.493   6.193   6.925 -0.8057  1.2556 -1.0013
11576SOL    HW241075   8.566   6.234   7.051 -0.0993 -1.2215 -0.5437
11577SOL     OW41076   4.501   0.415   3.789 -0.3289  0.0536 -0.5637
11577SOL    HW141077   4.419   0.366   3.782  0.8498 -2.1715  0.4124
11577SOL    HW241078   4.524   0.436   3.699 -1.9793  0.7947 -0.8495
11578SOL     OW41079   1.892   7.418   4.497 -0.2976  0.2666  0.1180
11578SOL    HW141080   1.959   7.362   4.536 -0.7336  0.8502  1.7874
11578SOL    HW241081   1.859   7.368   4.423  0.7153 -0.8028  0.3558
11579SOL     OW41082   7.250   3.998   2.927 -0.0705  0.0631 -0.0920
11579SOL    HW141083   7.245   4.073   2.986  0.6784  0.3477 -0.3709
11579SOL    HW241084   7.344   3.984   2.916 -0.2033 -1.0374  0.1047
11580SOL     OW41085   2.002   4.086   9.048 -0.1998  0.0688 -0.4797
11580SOL    HW141086   1.951   4.140   9.107  0.8409  1.6517 -0.9607
11580SOL    HW241087   2.013   4.003   9.095 -1.3390  0.4572  0.5296
11581SOL     OW41088   4.884   8.782   6.395 -0.5800  0.1568  0.2209
11581SOL    HW141089   4.902   8.702   6.445 -0.4461  0.4282  0.6113
11581SOL    HW241090   4.942   8.777   6.319  1.5129  1.2277  1.6614
11582SOL     OW41091   0.989   2.717   7.588  0.1917  0.3815  0.0676
11582SOL    HW141092   0.963   2.800   7.549  0.6979  1.0744  1.1618
11582SOL    HW241093   0.909   2.683   7.629  0.6830  2.1159  2.7243
11583SOL     OW41094   3.570   6.735   0.520 -0.2002 -0.0184  0.4511
11583SOL    HW141095   3.614   6.684   0.589  0.7819  0.5430  0.2620
11583SOL    HW241096   3.642   6.769   0.466 -0.7806  1.7532  0.7099
11584SOL     OW41097   6.680   3.603   6.317  0.0324 -0.4688 -0.1108
11584SOL    HW141098   6.666   3.658   6.394 -0.1214  1.1436 -1.2299
11584SOL    HW241099   6.598   3.555   6.307  0.2062 -1.0113  0.9541
11585SOL     OW41100   1.700   2.393   2.503  0.0175  0.9868 -0.0739
11585SOL    HW141101   1.736   2.313   2.466  0.4080  1.5866 -1.0300
11585SOL    HW241102   1.608   2.392   2.476  0.2917  1.4038 -1.0709
11586SOL     OW41103   8.765   3.631   3.015  0.5916 -0.5099  0.6819
11586SOL    HW141104   8.843   3.633   2.960 -0.1854 -2.4473 -0.6015
11586SOL    HW241105   8.713   3.705   2.985  0.7206 -0.8343 -0.3921
11587SOL     OW41106   6.366   0.557   1.667  0.1643  0.6354 -0.3649
11587SOL    HW141107   6.334   0.617   1.734 -1.0943 -2.2118  1.8202
11587SOL    HW241108   6.289   0.507   1.640  1.4534 -1.5821 -0.2568
11588SOL     OW41109   9.085   2.151   7.783 -0.3198  0.0321 -0.6229
11588SOL    HW141110   9.007   2.182   7.736 -1.1248 -0.8149  0.1187
11588SOL    HW241111   9.156   2.205   7.748 -1.3936  1.5518 -0.5899
11589SOL     OW41112   5.356   3.591   5.214 -0.0626 -0.4778 -0.1654
11589SOL    HW141113   5.419   3.637   5.269  0.9282  0.1532 -1.7611
11589SOL    HW241114   5.318   3.659   5.158  0.7191 -1.4104 -1.9048
11590SOL     OW41115   3.179   4.014   5.577 -0.4016 -0.0584  0.0837
11590SOL    HW141116   3.196   4.106   5.559 -3.6769  0.5330 -0.5945
11590SOL    HW241117   3.147   3.979   5.493 -0.0342 -1.5842  0.5529
11591SOL     OW41118   0.606   8.601   1.004 -0.5748  0.1123 -0.3945
11591SOL    HW141119   0.635   8.579   1.093  0.2291  2.0307 -0.1210
11591SOL    HW241120   0.683   8.585   0.949 -0.8491 -0.3986 -0.6302
11592SOL     OW41121   8.807   3.872   3.662  0.2274  0.1694 -0.7335
11592SOL    HW141122   8.810   3.824   3.744  2.1747 -1.5493 -1.7205
11592SOL    HW241123   8.885   3.928   3.664 -1.4892  2.7517 -0.0252
11593SOL     OW41124   4.231   1.502   2.634 -0.5826  0.1282  1.1487
11593SOL    HW141125   4.177   1.519   2.710 -0.3074 -0.8788  1.5935
11593SOL    HW241126   4.300   1.444   2.666  0.4668  0.9624  0.4857
11594SOL     OW41127   4.053   5.497   6.714  0.9081 -0.0818 -0.3242
11594SOL    HW141128   4.074   5.571   6.772 -0.4164 -1.6610  2.3538
11594SOL    HW241129   4.111   5.427   6.743 -0.4488 -1.1975 -0.2479
11595SOL     OW41130   6.437   2.801   6.714  0.3119  0.2400 -0.4014
11595SOL    HW141131   6.380   2.765   6.781  0.0503  0.3733 -0.5490
11595SOL    HW241132   6.389   2.789   6.632  0.5820  0.1720 -0.5514
11596SOL     OW41133   6.639   6.257   3.977 -0.2584 -0.9764 -0.3359
11596SOL    HW141134   6.568   6.317   3.953 -0.8838 -1.6178 -0.1112
11596SOL    HW241135   6.654   6.204   3.898  0.5365 -0.3063 -0.6521
11597SOL     OW41136   1.678   2.586   2.703  0.1200 -0.5231 -0.1067
11597SOL    HW141137   1.749   2.600   2.765  1.2983  1.1387 -1.7023
11597SOL    HW241138   1.718   2.540   2.630  0.0030  1.6173 -1.6291
11598SOL     OW41139   0.172   4.447   8.223  0.6533  0.2811  0.7346
11598SOL    HW141140   0.114   4.517   8.193  0.8943  0.2873  0.2805
11598SOL    HW241141   0.114   4.371   8.231  0.3941  0.5318  1.2239
11599SOL     OW41142   3.125   5.685   0.095  0.4563 -0.0701 -0.1706
11599SOL    HW141143   3.131   5.631   0.174  1.0606 -2.2186 -1.6047
11599SOL    HW241144   3.216   5.704   0.071  0.3557  4.4078  1.9787
11600SOL     OW41145   1.717   3.446   7.352  0.8084  0.4273  0.0526
11600SOL    HW141146   1.725   3.351   7.341  0.6389  0.1666  1.7944
11600SOL    HW241147   1.682   3.456   7.441 -1.1174  2.0595 -0.8139
11601SOL     OW41148   4.819   5.093   1.477 -0.8743  0.0729 -0.5175
11601SOL    HW141149   4.758   5.059   1.543  0.9587  0.1399  1.2957
11601SOL    HW241150   4.891   5.031   1.475 -0.3124  0.7201 -1.5967
11602SOL     OW41151   5.832   0.776   3.877 -0.1006  0.3246 -0.0979
11602SOL    HW141152   5.864   0.850   3.825  0.0053  0.8660  0.7211
11602SOL    HW241153   5.860   0.795   3.966 -2.0389  0.4732  0.5461
11603SOL     OW41154   7.664   2.414   0.066  0.5100 -0.3387 -0.0610
11603SOL    HW141155   7.606   2.406   0.142 -1.2871  0.6483 -1.2718
11603SOL    HW241156   7.699   2.325   0.054  0.0486 -0.7335  1.2905
11604SOL     OW41157   0.605   6.736   2.882  0.2460  0.0670 -0.3482
11604SOL    HW141158   0.534   6.790   2.849  0.6779  0.7802 -0.1420
11604SOL    HW241159   0.667   6.799   2.919  0.6651 -0.5864  0.0799
11605SOL     OW41160   8.873   6.618   1.721 -0.0579  0.3103  0.2706
11605SOL    HW141161   8.826   6.621   1.804 -1.6857 -3.2906 -0.3419
11605SOL    HW241162   8.957   6.578   1.743  0.5351  1.6209  0.4925
11606SOL     OW41163   1.146   4.864   2.666  0.2591 -0.1960  0.0645
11606SOL    HW141164   1.231   4.876   2.624  0.0667  0.8762 -0.0704
11606SOL    HW241165   1.134   4.770   2.672  2.7002 -0.4698  2.6469
11607SOL     OW41166   3.803   7.528   1.813 -0.3237 -0.2921 -0.4074
11607SOL    HW141167   3.773   7.561   1.897  2.1998 -0.0873  0.4901
11607SOL    HW241168   3.804   7.605   1.756  0.8657  0.2205  0.2773
11608SOL     OW41169   3.483   7.491   8.554 -0.0236 -0.1123 -0.5128
11608SOL    HW141170   3.555   7.483   8.617 -1.0622  3.9284  1.5828
11608SOL    HW241171   3.405   7.463   8.602 -0.5114  0.6544 -0.8254
11609SOL     OW41172   3.870   8.831   8.011  0.3176 -0.1681 -0.4396
11609SOL    HW141173   3.899   8.913   8.052  0.9305 -0.7873  0.3988
11609SOL    HW241174   3.859   8.771   8.084 -0.5178 -0.7249 -1.0143
11610SOL     OW41175   7.593   0.037   8.800 -0.2751  0.2522 -0.1994
11610SOL    HW141176   7.594   0.056   8.706  2.9698 -0.1172 -0.3573
11610SOL    HW241177   7.680   0.002   8.818 -0.9767 -0.1778  2.8833
11611SOL     OW41178   3.018   6.061   0.113 -0.0608 -0.0407 -0.2730
11611SOL    HW141179   3.077   6.122   0.070  1.2931  0.5137  2.2084
11611SOL    HW241180   3.064   5.977   0.112 -0.2366 -0.1393 -0.3052
11612SOL     OW41181   4.845   5.973   8.803  0.0277  0.3270 -0.1267
11612SOL    HW141182   4.920   5.948   8.748  0.5010  0.8254  0.2853
11612SOL    HW241183   4.872   6.055   8.845 -1.0968  1.0010 -0.6651
11613SOL     OW41184   6.403   0.355   7.598 -0.0034 -0.4724  0.5067
11613SOL    HW141185   6.344   0.424   7.627  2.1772  2.1703 -0.8322
11613SOL    HW241186   6.374   0.333   7.509  0.6875  0.5283  0.0089
11614SOL     OW41187   2.853   8.224   5.504  0.0512  0.1256 -0.2645
11614SOL    HW141188   2.875   8.275   5.582  0.4733  1.2685 -1.0980
11614SOL    HW241189   2.907   8.262   5.435 -0.3213 -0.8571 -1.1163
11615SOL     OW41190   7.471   1.259   0.249 -0.2599  0.1472 -0.0964
11615SOL    HW141191   7.385   1.278   0.210  0.1910 -0.3357 -1.3650
11615SOL    HW241192   7.456   1.181   0.303 -1.0159  1.1481  1.2185
11616SOL     OW41193   6.755   8.098   8.853  0.5752  0.2466 -0.2205
11616SOL    HW141194   6.702   8.020   8.871  2.6181 -0.6523  2.5601
11616SOL    HW241195   6.752   8.107   8.758 -1.1232 -2.2020 -0.5021
11617SOL     OW41196   6.579   8.471   1.613  0.0509  0.3318 -0.0562
11617SOL    HW141197   6.501   8.520   1.640  0.0176 -0.4116  1.3171
11617SOL    HW241198   6.558   8.380   1.633  2.0156  0.2988  2.4543
11618SOL     OW41199   8.712   8.356   1.118  0.3979  0.4107 -0.6783
11618SOL    HW141200   8.695   8.310   1.036  0.1703 -0.3245 -0.2326
11618SOL    HW241201   8.771   8.297   1.166 -1.7658 -0.6149  0.9111
11619SOL     OW41202   4.110   3.246   3.670 -0.5899 -0.0235  0.6477
11619SOL    HW141203   4.101   3.280   3.581 -2.3022 -1.4038  0.2308
11619SOL    HW241204   4.109   3.324   3.725  0.3648  0.8516 -0.5133
11620SOL     OW41205   4.288   5.406   4.701  0.3574  0.5690 -0.4638
11620SOL    HW141206   4.208   5.451   4.727 -0.7215  0.2674 -2.9323
11620SOL    HW241207   4.358   5.470   4.716 -0.3971  1.0541  1.1528
11621SOL     OW41208   7.611   8.175   5.245  0.0619  0.1023  0.0476
11621SOL    HW141209   7.599   8.111   5.315 -1.9041  1.3308  0.9275
11621SOL    HW241210   7.536   8.163   5.187 -0.1891  1.3815  0.0711
11622SOL     OW41211   5.413   1.535   2.257  0.0906  0.6921  0.3623
11622SOL    HW141212   5.442   1.444   2.263 -2.3820 -0.2977 -1.2463
11622SOL    HW241213   5.332   1.537   2.307  1.5518  2.8327  2.9013
11623SOL     OW41214   1.444   7.549   1.358 -0.4919  0.6361 -0.5412
11623SOL    HW141215   1.536   7.523   1.364  0.2024  3.0041  0.4195
11623SOL    HW241216   1.438   7.600   1.277 -0.6531  1.4168 -0.0566
11624SOL     OW41217   5.561   2.556   6.373  0.7757 -0.5013  0.7206
11624SOL    HW141218   5.500   2.627   6.354 -1.2075 -2.0788  0.7911
11624SOL    HW241219   5.613   2.547   6.293  0.3631  0.3759  0.3408
11625SOL     OW41220   0.427   4.245   7.154  0.1192 -0.1739 -0.3610
11625SOL    HW141221   0.495   4.274   7.215 -1.9517  1.6535  1.2279
11625SOL    HW241222   0.357   4.309   7.163 -1.1701 -1.0166 -3.1884
11626SOL     OW41223   3.809   2.657   0.342  0.4426  0.9834  0.3359
11626SOL    HW141224   3.723   2.646   0.384  0.1195 -0.7641 -0.6662
11626SOL    HW241225   3.819   2.751   0.332 -3.2821  1.3216 -3.1790
11627SOL     OW41226   2.550   7.905   6.368  0.1910 -0.1880 -0.3142
11627SOL    HW141227   2.481   7.871   6.425  1.1060 -2.2667 -0.3620
11627SOL    HW241228   2.520   7.883   6.279 -0.6190  1.9036 -0.6272
11628SOL     OW41229   7.323   2.942   5.574  0.4191  0.3104 -0.1552
11628SOL    HW141230   7.229   2.929   5.589  0.5140 -0.5576 -0.2381
11628SOL    HW241231   7.342   3.026   5.616 -0.0671 -0.2879  1.3459
11629SOL     OW41232   3.846   2.848   8.392  0.3447  0.5571  0.3807
11629SOL    HW141233   3.763   2.892   8.411 -0.4162 -0.5276 -0.3162
11629SOL    HW241234   3.856   2.856   8.297  0.2818 -0.5972  0.2637
11630SOL     OW41235   6.509   1.332   0.296  0.2859 -0.1191  0.1068
11630SOL    HW141236   6.448   1.405   0.292 -0.9270 -1.1695 -1.4085
11630SOL    HW241237   6.461   1.257   0.260  1.1546 -1.9310  2.4354
11631SOL     OW41238   6.247   5.019   5.965 -0.2863  0.4341  0.0268
11631SOL    HW141239   6.334   5.049   5.937  1.0538  0.2384  3.4636
11631SOL    HW241240   6.263   4.935   6.008 -1.9350  0.8813  1.6865
11632SOL     OW41241   1.111   4.596   2.660  0.2918 -0.2272 -0.1700
11632SOL    HW141242   1.163   4.567   2.585 -1.7038 -2.0149 -0.9382
11632SOL    HW241243   1.144   4.545   2.734 -0.4651 -1.5560 -0.7093
11633SOL     OW41244   2.542   2.050   8.556  0.0484  0.2934 -0.7210
11633SOL    HW141245   2.584   2.120   8.507 -0.8758  1.4268  0.0580
11633SOL    HW241246   2.580   2.056   8.644 -1.1669  0.8609 -0.2153
11634SOL     OW41247   5.874   2.395   0.297  0.2651  0.2550  0.2719
11634SOL    HW141248   5.871   2.470   0.238  2.9377 -1.4769 -2.2896
11634SOL    HW241249   5.795   2.345   0.276  0.9655 -0.1235 -1.6696
11635SOL     OW41250   6.393   6.016   6.868 -0.0752 -0.2876  0.3398
11635SOL    HW141251   6.416   5.964   6.945 -1.0362 -0.6761  0.3757
11635SOL    HW241252   6.467   6.075   6.857  0.1883 -0.3805  1.4282
11636SOL     OW41253   6.781   0.298   5.369  0.8311  0.6075  0.0838
11636SOL    HW141254   6.815   0.262   5.451 -1.4221  1.3486  1.4435
11636SOL    HW241255   6.832   0.378   5.354  2.0133 -0.1138  0.1098
11637SOL     OW41256   2.790   8.195   0.608 -0.3137  0.0344 -0.7650
11637SOL    HW141257   2.863   8.166   0.663 -0.2362  0.7817 -0.4565
11637SOL    HW241258   2.767   8.281   0.643 -1.5586 -0.3242 -0.6595
11638SOL     OW41259   8.558   0.088   6.768  0.1350 -0.3323  0.0213
11638SOL    HW141260   8.561   0.048   6.682 -0.9134 -0.2237 -0.0802
11638SOL    HW241261   8.465   0.086   6.792  0.3668 -0.0182  0.9799
11639SOL     OW41262   7.841   1.978   4.215  0.4325 -0.0475  0.1857
11639SOL    HW141263   7.840   2.039   4.141 -0.3754 -0.8338 -0.4697
11639SOL    HW241264   7.762   1.925   4.203  1.1217 -1.2225  0.7551
11640SOL     OW41265   8.122   6.296   7.012  0.1212 -0.9545 -0.0891
11640SOL    HW141266   8.179   6.348   7.068  0.4334  0.7827 -1.9335
11640SOL    HW241267   8.151   6.205   7.026  2.1107 -0.2962  0.3785
11641SOL     OW41268   6.080   0.487   3.967  0.1350 -0.4379 -0.4550
11641SOL    HW141269   6.014   0.522   4.028  1.2764  0.4965  0.3033
11641SOL    HW241270   6.131   0.564   3.942  0.1748 -0.9466 -2.0085
11642SOL     OW41271   5.194   1.108   8.296  0.0469  0.1481  0.2610
11642SOL    HW141272   5.163   1.050   8.226  1.7118 -0.7423  0.1992
11642SOL    HW241273   5.185   1.056   8.376  0.9880  0.0167  0.2881
11643SOL     OW41274   4.668   7.214   5.940  0.3049 -0.7757  0.6192
11643SOL    HW141275   4.719   7.263   6.005  0.1823  0.9613 -0.5168
11643SOL    HW241276   4.583   7.201   5.982  0.4517 -0.2884  1.0870
11644SOL     OW41277   9.113   7.915   6.803  0.0114 -0.2151  0.1245
11644SOL    HW141278   9.185   7.876   6.753 -0.8019 -0.7081 -0.6912
11644SOL    HW241279   9.034   7.888   6.756 -0.6168  2.1548 -0.3103
11645SOL     OW41280   1.293   4.212   4.793 -0.5090  0.0105  0.6071
11645SOL    HW141281   1.372   4.162   4.771 -1.1708 -0.3128 -1.2197
11645SOL    HW241282   1.243   4.153   4.851 -0.9114 -1.1866 -0.8826
11646SOL     OW41283   1.442   7.489   8.373 -0.1333 -0.7522 -0.1710
11646SOL    HW141284   1.534   7.466   8.390 -0.1579  0.1866  1.4274
11646SOL    HW241285   1.444   7.583   8.358 -0.7789 -0.8203 -0.7163
11647SOL     OW41286   0.416   1.472   1.560  0.1453 -0.4813  0.2507
11647SOL    HW141287   0.384   1.463   1.471 -0.7316 -1.1514  0.6098
11647SOL    HW241288   0.366   1.406   1.610  1.0776 -0.5643  1.1044
11648SOL     OW41289   5.862   1.491   1.717  0.7589 -0.4806  0.3130
11648SOL    HW141290   5.936   1.440   1.684 -1.5056 -3.3229 -0.7331
11648SOL    HW241291   5.844   1.554   1.646  0.9224 -1.1337 -0.3249
11649SOL     OW41292   3.373   8.363   1.013 -0.4121 -0.4868  0.4666
11649SOL    HW141293   3.397   8.443   1.059 -1.0065 -0.0430  0.0065
11649SOL    HW241294   3.457   8.320   0.995 -0.1131 -0.1638  1.0484
11650SOL     OW41295   7.770   2.677   5.533  0.0903  0.3330  0.2265
11650SOL    HW141296   7.759   2.660   5.440 -0.8986  0.2494  0.3464
11650SOL    HW241297   7.691   2.641   5.573 -0.3891  2.0297  0.8988
11651SOL     OW41298   3.126   2.097   8.496  0.3544 -0.0940  0.6910
11651SOL    HW141299   3.030   2.095   8.493  0.3627 -0.1154  0.4938
11651SOL    HW241300   3.154   2.020   8.447  0.4961  0.6546 -0.4296
11652SOL     OW41301   6.425   7.700   3.578  0.2355  0.3164  0.0011
11652SOL    HW141302   6.496   7.661   3.630  1.0964  0.7495 -0.8137
11652SOL    HW241303   6.385   7.764   3.636 -0.7050 -1.1947  1.1032
11653SOL     OW41304   3.451   7.286   6.805  0.3575 -0.0778  0.0973
11653SOL    HW141305   3.377   7.244   6.761  0.0627 -0.1505  0.6467
11653SOL    HW241306   3.411   7.351   6.863  0.7844  0.5727 -0.3334
11654SOL     OW41307   6.718   7.577   6.907  0.1996  0.5065  0.0272
11654SOL    HW141308   6.712   7.664   6.869  0.3042  0.4356 -0.1517
11654SOL    HW241309   6.753   7.591   6.995 -0.1407  0.6791  0.1396
11655SOL     OW41310   6.412   7.524   8.722 -0.1543 -0.4936 -0.4821
11655SOL    HW141311   6.463   7.443   8.727  1.8523  0.5364 -2.3018
11655SOL    HW241312   6.478   7.593   8.711 -1.8957  1.0462 -1.9509
11656SOL     OW41313   4.069   2.208   0.374  0.7071  0.4787  0.9102
11656SOL    HW141314   4.040   2.267   0.444 -0.2225 -0.9941  1.8191
11656SOL    HW241315   4.087   2.125   0.418  1.6480 -0.0315 -0.3884
11657SOL     OW41316   6.997   8.688   7.032 -0.1221  0.2447 -0.0650
11657SOL    HW141317   6.979   8.688   7.126  0.1129  0.1993 -0.0195
11657SOL    HW241318   6.922   8.733   6.993  0.9513  2.5487  0.3794
11658SOL     OW41319   8.060   3.713   8.850  0.2691  0.4377 -0.0316
11658SOL    HW141320   8.013   3.746   8.773  0.7916  0.8281 -0.1976
11658SOL    HW241321   7.992   3.690   8.913 -0.2154 -0.7346 -0.9421
11659SOL     OW41322   8.680   0.564   1.880  0.0965 -0.3629  0.0034
11659SOL    HW141323   8.647   0.475   1.868  1.1662 -0.9208  1.0550
11659SOL    HW241324   8.616   0.606   1.938  0.1333 -0.7718  0.3426
11660SOL     OW41325   0.611   3.341   4.869  0.0749 -0.0467  0.0900
11660SOL    HW141326   0.630   3.256   4.828 -1.0602 -0.6443  0.7442
11660SOL    HW241327   0.697   3.381   4.883  0.5314  0.0035 -2.4466
11661SOL     OW41328   4.165   7.828   6.545 -0.2346  0.3206  0.2403
11661SOL    HW141329   4.152   7.799   6.635 -0.9577  1.1551  0.4217
11661SOL    HW241330   4.152   7.923   6.548 -1.4655  0.2344 -0.9349
11662SOL     OW41331   2.411   4.780   8.665 -0.2651  0.4812  0.1901
11662SOL    HW141332   2.333   4.826   8.635 -1.6566 -1.8161 -0.0252
11662SOL    HW241333   2.394   4.764   8.758  0.1890  0.4106  0.2616
11663SOL     OW41334   1.656   7.901   4.189 -0.1259  0.3721 -0.2797
11663SOL    HW141335   1.668   7.846   4.111  0.3377 -0.9015  0.6546
11663SOL    HW241336   1.708   7.979   4.172  0.1832 -0.0102 -1.1442
11664SOL     OW41337   3.799   6.639   1.338  0.0016  0.4414  0.1392
11664SOL    HW141338   3.709   6.668   1.348 -0.8726 -2.0357  0.1937
11664SOL    HW241339   3.822   6.601   1.423  0.2091 -1.1246 -0.5772
11665SOL     OW41340   0.953   0.658   5.463  0.3758 -0.1752  0.4356
11665SOL    HW141341   0.979   0.705   5.383 -0.1119 -0.7376 -0.0661
11665SOL    HW241342   1.033   0.615   5.493  0.4510 -0.3570 -0.0245
11666SOL     OW41343   6.158   5.090   8.866 -0.0483  0.4265  0.2324
11666SOL    HW141344   6.130   5.002   8.891 -0.4191  0.8756  1.4662
11666SOL    HW241345   6.096   5.148   8.909 -0.5400  1.2819 -1.5495
11667SOL     OW41346   5.050   0.286   6.218  0.3604 -0.0925  0.0653
11667SOL    HW141347   5.085   0.314   6.302 -0.4916  0.3569  0.2792
11667SOL    HW241348   5.008   0.202   6.235 -1.1867  0.7227  0.4547
11668SOL     OW41349   8.525   7.295   8.529  0.5893  0.2489  0.4184
11668SOL    HW141350   8.551   7.385   8.547  0.8833  0.0428  1.0787
11668SOL    HW241351   8.552   7.246   8.607  0.2261 -0.3694  0.1698
11669SOL     OW41352   6.535   3.578   4.966 -0.2645 -0.6336 -0.1682
11669SOL    HW141353   6.592   3.656   4.973 -0.6102 -0.5058  1.5599
11669SOL    HW241354   6.590   3.506   4.996 -0.6429 -0.6921  0.3929
11670SOL     OW41355   5.798   8.938   5.067 -0.0730 -0.1387 -0.1812
11670SOL    HW141356   5.811   9.030   5.045 -0.9088  0.2295  0.7821
11670SOL    HW241357   5.731   8.939   5.135 -1.6365 -1.5932 -1.6080
11671SOL     OW41358   7.667   8.969   2.641  0.1853 -0.1307  0.7203
11671SOL    HW141359   7.599   9.006   2.585  0.2356  2.2227  2.0807
11671SOL    HW241360   7.741   9.030   2.633  0.5350 -0.2660  2.5343
11672SOL     OW41361   5.779   8.052   7.448 -0.4599 -0.0040 -0.3843
11672SOL    HW141362   5.782   7.996   7.525  0.4233  1.0170  0.3510
11672SOL    HW241363   5.707   8.112   7.465  0.1923  0.6864 -0.0031
11673SOL     OW41364   3.277   5.311   2.231 -0.2721 -0.0631 -0.3421
11673SOL    HW141365   3.332   5.292   2.308 -0.0527  0.1905 -0.4341
11673SOL    HW241366   3.197   5.349   2.268 -1.0292 -1.7975 -0.1033
11674SOL     OW41367   6.886   1.885   3.633  0.1656 -0.2276 -0.5360
11674SOL    HW141368   6.955   1.937   3.590 -0.7311  1.5354  0.0734
11674SOL    HW241369   6.830   1.856   3.561  0.2845  0.2665 -0.8361
11675SOL     OW41370   6.536   8.231   3.140  0.2128 -0.0800 -0.3511
11675SOL    HW141371   6.496   8.218   3.226 -0.4444  2.2475 -0.2429
11675SOL    HW241372   6.463   8.227   3.078  0.6081 -1.2078 -0.7709
11676SOL     OW41373   9.021   7.840   8.681  0.3946  0.2041  0.0995
11676SOL    HW141374   8.954   7.873   8.620 -1.2733  0.4341  1.9303
11676SOL    HW241375   8.980   7.849   8.767  2.4812 -0.5304  1.2271
11677SOL     OW41376   1.096   8.102   2.303  0.2307  0.1226  0.3256
11677SOL    HW141377   1.170   8.044   2.322 -0.3966 -1.6311 -2.1155
11677SOL    HW241378   1.050   8.110   2.387  1.1398 -1.7836  1.0783
11678SOL     OW41379   4.376   7.035   2.808 -0.0326 -0.2138 -0.1411
11678SOL    HW141380   4.301   7.092   2.788  0.2018  0.8934  1.9207
11678SOL    HW241381   4.445   7.066   2.749 -0.7951 -0.3891 -1.1543
11679SOL     OW41382   1.656   4.876   4.858 -0.3219 -0.3383  0.2895
11679SOL    HW141383   1.575   4.829   4.880 -0.4297 -0.3264 -0.0806
11679SOL    HW241384   1.723   4.834   4.912 -0.8015  0.5345  1.6075
11680SOL     OW41385   5.497   4.078   2.660  0.3467 -0.0046 -0.3676
11680SOL    HW141386   5.516   4.154   2.714  2.7112  0.3970 -1.6252
11680SOL    HW241387   5.459   4.014   2.720 -0.3905  1.6586  0.9903
11681SOL     OW41388   1.961   5.017   1.905 -0.0331 -0.5374 -0.3417
11681SOL    HW141389   2.014   5.076   1.851 -2.1441  1.7888 -0.0695
11681SOL    HW241390   1.958   5.060   1.991 -2.4309 -0.4850 -0.4047
11682SOL     OW41391   0.670   8.120   7.887  0.0481 -0.0994  0.5952
11682SOL    HW141392   0.622   8.121   7.804  2.5810  0.1233 -1.0032
11682SOL    HW241393   0.626   8.054   7.940 -0.7261 -1.4239 -1.5509
11683SOL     OW41394   2.524   3.572   1.286  0.4100 -0.4936  0.0656
11683SOL    HW141395   2.521   3.538   1.197 -1.2595 -1.4173  0.4164
11683SOL    HW241396   2.568   3.503   1.336 -0.7515 -1.0660  0.3379
11684SOL     OW41397   4.353   7.792   2.162 -0.2372  0.3430  0.1692
11684SOL    HW141398   4.430   7.809   2.106  0.8433 -0.0437  1.4826
11684SOL    HW241399   4.348   7.869   2.219  0.5837 -0.6275  1.6106
11685SOL     OW41400   3.348   1.636   9.016  0.2633 -0.6936 -0.8022
11685SOL    HW141401   3.378   1.631   8.925 -0.4919  1.6119 -1.2320
11685SOL    HW241402   3.272   1.579   9.020 -3.1932  3.2418 -3.2263
11686SOL     OW41403   5.818   8.302   4.055 -0.0666 -0.1121 -0.2196
11686SOL    HW141404   5.883   8.235   4.035 -1.0582 -1.6914  1.5104
11686SOL    HW241405   5.866   8.384   4.053  0.8970 -0.5605 -3.9585
11687SOL     OW41406   4.734   4.307   3.188  0.3580  0.3936 -0.0940
11687SOL    HW141407   4.642   4.329   3.180  0.2170  0.0563  0.5218
11687SOL    HW241408   4.773   4.382   3.233  0.9980  1.9287 -2.9555
11688SOL     OW41409   3.526   1.659   1.700  0.2340 -0.4592  0.5700
11688SOL    HW141410   3.483   1.615   1.773  1.0708  0.2510  1.5042
11688SOL    HW241411   3.499   1.609   1.623 -2.3091 -0.0199  1.0881
11689SOL     OW41412   5.274   6.097   8.028  0.0396  0.4211  0.0538
11689SOL    HW141413   5.367   6.078   8.040 -0.2674 -1.2466  0.0497
11689SOL    HW241414   5.229   6.035   8.086 -1.0929  0.3709 -0.8392
11690SOL     OW41415   1.864   4.148   7.768  0.4530 -0.1474 -0.7754
11690SOL    HW141416   1.769   4.156   7.768  0.3897 -0.8053 -0.4960
11690SOL    HW241417   1.885   4.121   7.678  0.5831  1.9769 -1.4363
11691SOL     OW41418   4.731   0.584   4.675  0.3273 -1.0497 -0.1855
11691SOL    HW141419   4.791   0.514   4.649  2.1057  0.5846 -0.7334
11691SOL    HW241420   4.788   0.654   4.707 -1.4575 -0.5039  2.0995
11692SOL     OW41421   4.632   8.382   8.293 -0.0691  0.4012 -0.1644
11692SOL    HW141422   4.620   8.311   8.229  2.8864  0.1792 -0.6076
11692SOL    HW241423   4.597   8.459   8.248 -1.4723 -0.3616 -0.4817
11693SOL     OW41424   4.018   5.099   6.196 -0.1700  0.1911  0.1792
11693SOL    HW141425   4.107   5.105   6.230 -0.2201 -0.7285  0.5177
11693SOL    HW241426   4.025   5.121   6.103  0.8251 -2.0829 -0.3542
11694SOL     OW41427   4.079   7.593   1.025  0.1229  0.5362  0.9288
11694SOL    HW141428   4.072   7.688   1.018 -1.1079  0.3296 -1.8910
11694SOL    HW241429   3.995   7.567   1.065 -1.6581  0.4285 -2.5194
11695SOL     OW41430   6.476   6.002   8.018 -0.2191  0.4276 -0.6117
11695SOL    HW141431   6.473   5.919   7.971  0.4193  0.3257 -0.4811
11695SOL    HW241432   6.568   6.013   8.042 -0.6339  0.1254  1.2401
11696SOL     OW41433   1.635   6.266   3.650 -0.2691 -0.1201  0.2376
11696SOL    HW141434   1.653   6.311   3.733 -0.7767  1.8212 -0.6480
11696SOL    HW241435   1.539   6.261   3.645 -0.2538  0.1420 -0.4165
11697SOL     OW41436   7.873   2.240   5.017  0.5076  0.5211  0.0745
11697SOL    HW141437   7.938   2.278   5.076  1.7680 -2.4814  0.8199
11697SOL    HW241438   7.789   2.257   5.060  0.7358  4.0333 -0.6526
11698SOL     OW41439   4.155   1.796   4.148 -0.0259  0.4018  0.2721
11698SOL    HW141440   4.073   1.820   4.191  0.5277  2.7546  0.1395
11698SOL    HW241441   4.168   1.703   4.171 -2.3658  0.1560  0.8063
11699SOL     OW41442   2.206   6.122   6.330 -0.0672 -0.1084  0.1529
11699SOL    HW141443   2.149   6.195   6.353  0.8201  0.9194 -0.7869
11699SOL    HW241444   2.147   6.051   6.308 -0.9594 -0.0097  1.9995
11700SOL     OW41445   8.554   5.562   4.723  0.0295  0.0529  0.2820
11700SOL    HW141446   8.550   5.640   4.667  0.7583 -0.3430 -0.3448
11700SOL    HW241447   8.591   5.594   4.805  0.0787  0.4174  0.1213
11701SOL     OW41448   3.081   1.136   7.959 -0.3458  0.0508 -0.1139
11701SOL    HW141449   3.043   1.165   8.042 -1.7997  0.0830 -0.7594
11701SOL    HW241450   3.073   1.041   7.961  1.8955 -0.1714  0.8137
11702SOL     OW41451   1.163   6.532   5.404 -0.1173  0.0782  0.1609
11702SOL    HW141452   1.177   6.464   5.338  2.1691  0.3028  0.3591
11702SOL    HW241453   1.134   6.608   5.353  0.2873 -0.1526 -0.4246
11703SOL     OW41454   0.851   6.532   8.198 -0.0432 -0.2303 -0.4143
11703SOL    HW141455   0.849   6.448   8.243 -0.2728 -0.8917 -1.6101
11703SOL    HW241456   0.943   6.547   8.179  0.2002  0.6114  1.2226
11704SOL     OW41457   8.356   1.484   4.277 -0.2508  0.3366 -0.5381
11704SOL    HW141458   8.401   1.565   4.252 -0.4649  0.5549 -0.2241
11704SOL    HW241459   8.274   1.487   4.227  0.7188 -0.8051 -2.3080
11705SOL     OW41460   4.256   2.482   3.540  0.0411 -0.2845 -0.1216
11705SOL    HW141461   4.333   2.448   3.586  0.2568 -0.5525 -0.6679
11705SOL    HW241462   4.198   2.407   3.530 -0.8242  0.1565  1.3076
11706SOL     OW41463   2.080   0.130   7.845 -0.0225 -0.3814 -0.1289
11706SOL    HW141464   2.079   0.207   7.788  0.4519 -0.8607 -0.7906
11706SOL    HW241465   2.165   0.133   7.888  0.1638 -0.7682 -0.4724
11707SOL     OW41466   8.465   2.787   3.219  0.0949  0.3232 -0.3091
11707SOL    HW141467   8.397   2.726   3.246  0.5507 -0.8943 -1.7557
11707SOL    HW241468   8.425   2.874   3.227 -1.1619 -0.2833  0.1103
11708SOL     OW41469   2.269   0.932   5.843  0.3283 -0.1209  0.5579
11708SOL    HW141470   2.362   0.932   5.820  0.5121  1.6943  1.1432
11708SOL    HW241471   2.227   0.882   5.772  1.3070  2.2853 -1.9185
11709SOL     OW41472   4.818   3.172   7.127  0.1308 -0.2517 -0.4837
11709SOL    HW141473   4.855   3.094   7.085 -1.3933  0.0187 -2.5299
11709SOL    HW241474   4.775   3.219   7.055 -1.4546  1.0004  1.1859
11710SOL     OW41475   4.761   3.966   5.023 -0.2890  0.2836  0.3612
11710SOL    HW141476   4.840   3.920   4.996 -0.1800  1.1728 -0.9366
11710SOL    HW241477   4.772   3.978   5.117  1.2130  0.5509  0.1849
11711SOL     OW41478   8.797   3.503   6.205  0.5105  0.1345 -0.1360
11711SOL    HW141479   8.735   3.477   6.273 -0.8428 -1.6348 -1.9425
11711SOL    HW241480   8.882   3.472   6.237 -0.1737 -1.1276  0.5166
11712SOL     OW41481   8.879   6.818   8.591 -0.2792 -0.1367 -0.0684
11712SOL    HW141482   8.859   6.824   8.498 -1.4858  0.2838  0.2008
11712SOL    HW241483   8.804   6.858   8.635  0.3245 -0.2123  1.0842
11713SOL     OW41484   1.244   1.292   1.097  0.3468 -0.2089  0.2806
11713SOL    HW141485   1.292   1.334   1.026 -0.4293 -0.6835 -0.5424
11713SOL    HW241486   1.307   1.287   1.169  0.8704  1.0911 -0.0649
11714SOL     OW41487   1.217   5.886   4.695  0.0234  0.0528 -0.1967
11714SOL    HW141488   1.306   5.881   4.661  0.3564  0.9693  0.4827
11714SOL    HW241489   1.174   5.952   4.639 -0.2324 -0.3932 -0.5284
11715SOL     OW41490   4.284   2.593   1.743 -0.2400 -0.0798 -0.1079
11715SOL    HW141491   4.248   2.681   1.740 -2.0209 -0.6545  1.9356
11715SOL    HW241492   4.341   2.592   1.820 -0.4378 -0.7579  0.0412
11716SOL     OW41493   3.822   4.384   1.010  0.5855  0.1058 -0.6971
11716SOL    HW141494   3.825   4.306   1.067 -1.2442 -0.2579 -1.0237
11716SOL    HW241495   3.856   4.455   1.065  2.2037 -0.8778 -0.3596
11717SOL     OW41496   5.219   2.370   0.234  0.1782 -0.1199  0.4162
11717SOL    HW141497   5.219   2.370   0.330 -0.1190 -2.0203  0.4393
11717SOL    HW241498   5.245   2.282   0.210  1.1444  0.5964 -1.2853
11718SOL     OW41499   8.041   7.791   8.514  0.1503  0.8038 -0.0583
11718SOL    HW141500   8.027   7.879   8.549  1.5569  0.9636  0.1552
11718SOL    HW241501   7.969   7.779   8.451 -1.2196  1.3049  1.3369
11719SOL     OW41502   2.205   8.743   2.548  0.4584  0.3496  0.3057
11719SOL    HW141503   2.137   8.700   2.496  0.5377  0.9707 -0.3189
11719SOL    HW241504   2.211   8.690   2.628  1.7055 -1.7488 -1.1102
11720SOL     OW41505   0.667   1.351   7.599  0.0691  0.0701  0.1847
11720SOL    HW141506   0.652   1.431   7.648  0.4668 -0.2054  0.7641
11720SOL    HW241507   0.594   1.293   7.624 -0.9139  0.6587 -1.1594
11721SOL     OW41508   3.155   1.838   5.273  0.4305 -0.1074  0.3283
11721SOL    HW141509   3.091   1.768   5.258 -0.6786  0.7418  0.8601
11721SOL    HW241510   3.228   1.796   5.317 -0.2032 -0.9543  0.6013
11722SOL     OW41511   0.472   0.172   0.172 -0.0709  0.1762 -0.2335
11722SOL    HW141512   0.396   0.160   0.229  0.6592 -0.4630  0.6366
11722SOL    HW241513   0.503   0.083   0.155 -0.6994  0.2915 -2.2755
11723SOL     OW41514   3.032   4.701   3.309 -0.0512 -0.1075  0.0610
11723SOL    HW141515   2.951   4.738   3.344  0.7949  1.6722  0.2348
11723SOL    HW241516   3.036   4.733   3.219  0.4007 -0.2784  0.0214
11724SOL     OW41517   1.718   7.785   5.697 -0.2279  0.4149  0.0599
11724SOL    HW141518   1.682   7.783   5.786 -0.7406 -0.2293 -0.1561
11724SOL    HW241519   1.654   7.737   5.644  1.1308 -1.1301 -0.2605
11725SOL     OW41520   1.625   2.333   8.724 -0.3377  0.1479  0.1183
11725SOL    HW141521   1.596   2.422   8.744 -2.1823 -0.3668 -0.0359
11725SOL    HW241522   1.606   2.321   8.631 -2.1078 -1.0402  0.5706
11726SOL     OW41523   4.812   9.092   2.816  0.1979  0.3571  0.0266
11726SOL    HW141524   4.908   9.086   2.820  0.2224  0.9459  0.7101
11726SOL    HW241525   4.782   9.002   2.810  0.8380  0.2335 -1.7513
11727SOL     OW41526   3.085   2.813   3.851 -0.1653  0.3147 -0.0085
11727SOL    HW141527   3.078   2.861   3.934  0.0663 -1.4175  1.0578
11727SOL    HW241528   3.179   2.798   3.840 -0.1826  0.6622 -0.6721
11728SOL     OW41529   1.553   3.370   5.557 -0.0345 -0.5834 -0.1376
11728SOL    HW141530   1.555   3.455   5.512  0.2951 -0.6390 -0.2326
11728SOL    HW241531   1.467   3.367   5.599 -0.7879 -0.9875 -1.6251
11729SOL     OW41532   2.598   0.465   6.157 -0.4031 -0.2751 -0.6701
11729SOL    HW141533   2.585   0.546   6.108 -0.4105 -0.7478 -1.4731
11729SOL    HW241534   2.566   0.396   6.099  0.7118 -0.9665 -0.5039
11730SOL     OW41535   8.960   8.557   6.268 -0.7582 -0.5376 -0.3041
11730SOL    HW141536   8.917   8.517   6.344 -1.5862 -0.0142 -0.4890
11730SOL    HW241537   8.889   8.581   6.209 -0.3180  1.2392 -0.1852
11731SOL     OW41538   0.351   3.508   3.880 -0.2875 -0.2735  0.0862
11731SOL    HW141539   0.396   3.515   3.964 -1.1878  0.8437  0.5049
11731SOL    HW241540   0.381   3.425   3.843 -0.3170 -1.0739  1.7801
11732SOL     OW41541   7.555   0.171   5.516 -0.0569 -0.2032  0.1904
11732SOL    HW141542   7.460   0.171   5.509 -0.1120 -1.9589  0.5530
11732SOL    HW241543   7.580   0.261   5.494 -1.8408  0.5514  1.0157
11733SOL     OW41544   8.756   6.898   1.199 -0.2260 -0.2679 -0.0918
11733SOL    HW141545   8.784   6.958   1.268  0.7477 -0.5100 -0.2637
11733SOL    HW241546   8.788   6.813   1.227  0.5978 -0.2905 -1.0585
11734SOL     OW41547   5.159   8.018   0.106 -0.4034  0.2967 -0.0935
11734SOL    HW141548   5.217   8.034   0.031 -0.4469  0.0248 -0.1861
11734SOL    HW241549   5.082   7.976   0.068 -1.5595  2.4667 -0.2638
11735SOL     OW41550   8.812   6.575   8.366 -0.3263 -0.1546  0.1938
11735SOL    HW141551   8.886   6.526   8.332 -1.6861 -1.2135 -1.3468
11735SOL    HW241552   8.787   6.634   8.295 -0.0946  1.2544  1.2264
11736SOL     OW41553   2.037   2.007   7.217 -0.2927  0.2320 -0.2883
11736SOL    HW141554   2.006   2.087   7.175  0.1167  1.4474  1.6212
11736SOL    HW241555   2.130   2.022   7.233 -0.3123 -0.4208  0.5329
11737SOL     OW41556   8.930   0.139   7.532  0.1693  0.0051  0.5342
11737SOL    HW141557   8.911   0.228   7.501 -2.0419 -1.1435 -1.8080
11737SOL    HW241558   8.878   0.129   7.612 -2.4611 -0.1893 -1.0719
11738SOL     OW41559   1.396   4.177   0.909  0.0729 -0.7334  0.3848
11738SOL    HW141560   1.390   4.104   0.848  2.3015 -0.7088  0.0407
11738SOL    HW241561   1.368   4.253   0.858  0.4516 -0.9417 -0.1435
11739SOL     OW41562   6.226   4.847   4.635  0.3517 -0.1691 -0.1768
11739SOL    HW141563   6.206   4.865   4.543  0.3513 -0.0590 -0.1549
11739SOL    HW241564   6.264   4.759   4.635  1.1930  0.1890 -0.3993
11740SOL     OW41565   2.527   8.180   6.479  0.2061 -0.4903  0.1497
11740SOL    HW141566   2.481   8.248   6.431 -0.2507 -0.4010  0.7035
11740SOL    HW241567   2.566   8.125   6.411  0.5331  0.2840 -0.2974
11741SOL     OW41568   4.965   7.054   1.703  0.1143 -0.2044 -0.0993
11741SOL    HW141569   4.950   7.059   1.797 -2.7020 -2.1694 -0.3164
11741SOL    HW241570   4.956   7.145   1.673  2.0527  0.6107  1.5569
11742SOL     OW41571   0.309   3.314   3.027  0.0686  0.5120 -0.0829
11742SOL    HW141572   0.359   3.233   3.020  0.7179  0.6251  2.3194
11742SOL    HW241573   0.218   3.286   3.020  0.2726 -0.5168  0.9477
11743SOL     OW41574   1.463   7.751   9.137  0.0620  0.2215  0.5737
11743SOL    HW141575   1.395   7.687   9.158 -0.9325  0.4157 -1.7681
11743SOL    HW241576   1.543   7.715   9.177 -0.4920 -2.3887 -0.4852
11744SOL     OW41577   5.142   2.634   7.140 -0.0295  0.3515  0.8768
11744SOL    HW141578   5.228   2.593   7.129  0.7111  1.6974  1.4342
11744SOL    HW241579   5.099   2.623   7.055 -1.1456 -4.2257  1.7889
11745SOL     OW41580   0.403   6.153   3.903  0.3541  0.7413 -0.2398
11745SOL    HW141581   0.416   6.122   3.813  0.6297  1.6938 -0.5391
11745SOL    HW241582   0.474   6.216   3.918 -0.7433  1.9856 -0.0191
11746SOL     OW41583   2.858   3.607   2.573 -0.0187 -0.0370 -0.1595
11746SOL    HW141584   2.911   3.578   2.499 -1.2205 -0.2049 -0.9838
11746SOL    HW241585   2.811   3.529   2.602  1.4849 -0.3310  1.7506
11747SOL     OW41586   5.275   8.342   8.131  0.3621  0.0196 -0.1404
11747SOL    HW141587   5.231   8.425   8.149 -1.5797 -0.5524 -1.8677
11747SOL    HW241588   5.315   8.354   8.044  1.2733 -0.4207  0.1989
11748SOL     OW41589   0.484   0.971   5.321  0.2588 -0.2155 -0.1621
11748SOL    HW141590   0.454   0.939   5.236  0.2798  0.6630 -0.5129
11748SOL    HW241591   0.425   0.931   5.385  1.2445 -2.1813 -0.4236
11749SOL     OW41592   3.796   4.066   8.320 -0.1820 -0.1072  0.0685
11749SOL    HW141593   3.750   4.134   8.371 -0.3037 -0.7427  0.8284
11749SOL    HW241594   3.763   3.984   8.355  0.2602 -0.5675 -0.5788
11750SOL     OW41595   3.870   8.058   2.631  0.9445 -0.4418  0.4069
11750SOL    HW141596   3.819   7.991   2.677  0.3383 -0.5904 -0.4603
11750SOL    HW241597   3.817   8.138   2.638  1.6258 -0.0556  1.3669
11751SOL     OW41598   3.095   1.335   0.615 -0.3670 -0.0940  0.0486
11751SOL    HW141599   3.138   1.251   0.627  0.1476  0.1857  0.1807
11751SOL    HW241600   3.001   1.314   0.617 -0.3222 -0.3663  2.5575
11752SOL     OW41601   1.322   1.650   7.357  0.1185 -0.0335  0.5413
11752SOL    HW141602   1.358   1.593   7.289  1.7411  1.3555  0.1808
11752SOL    HW241603   1.364   1.621   7.438  0.1321 -0.0105  0.5420
11753SOL     OW41604   3.397   6.172   7.339  0.1081 -0.6759  0.2006
11753SOL    HW141605   3.387   6.081   7.311 -1.5290 -0.5461  0.3129
11753SOL    HW241606   3.357   6.223   7.268  1.9004  0.0542 -0.3575
11754SOL     OW41607   4.494   6.766   8.869 -0.3710 -0.1137  0.5831
11754SOL    HW141608   4.457   6.697   8.815  1.2067 -1.6640  1.3995
11754SOL    HW241609   4.437   6.841   8.854 -1.8077 -1.4090 -0.7657
11755SOL     OW41610   5.268   3.350   7.238  0.1534 -0.4256 -0.2776
11755SOL    HW141611   5.298   3.396   7.317 -1.0434 -0.5963  0.3078
11755SOL    HW241612   5.176   3.330   7.256 -0.4350  0.3935 -2.1268
11756SOL     OW41613   5.936   3.764   1.386  0.6351 -0.2309  0.1465
11756SOL    HW141614   5.876   3.837   1.367  1.3456 -0.1478 -2.0489
11756SOL    HW241615   5.988   3.795   1.461  1.2547  1.7732 -1.0235
11757SOL     OW41616   6.876   8.417   3.391 -0.5502 -0.7360 -0.3587
11757SOL    HW141617   6.889   8.362   3.469 -1.7193 -3.2163 -1.7971
11757SOL    HW241618   6.950   8.478   3.392  0.9200 -2.4245  1.2808
11758SOL     OW41619   1.158   2.437   2.679  0.1679  0.2434 -0.0977
11758SOL    HW141620   1.153   2.351   2.637 -0.9347  0.5464 -0.6294
11758SOL    HW241621   1.083   2.485   2.645  0.9957  1.5777 -0.1565
11759SOL     OW41622   2.487   6.545   1.678  0.4030  0.4189 -0.2868
11759SOL    HW141623   2.544   6.535   1.602 -1.1666  1.3944 -1.6760
11759SOL    HW241624   2.439   6.463   1.684  0.4011  0.4050 -0.4841
11760SOL     OW41625   7.625   7.908   3.366 -0.0156  0.0007  0.2045
11760SOL    HW141626   7.637   7.814   3.376 -0.7779 -0.3779 -1.8961
11760SOL    HW241627   7.706   7.947   3.397  0.1542 -1.3101  1.4778
11761SOL     OW41628   0.947   3.734   7.169 -0.0413 -0.1505  0.0195
11761SOL    HW141629   0.872   3.674   7.161  0.4652 -0.7220 -0.5796
11761SOL    HW241630   0.920   3.813   7.123 -0.3565 -0.2852 -0.0297
11762SOL     OW41631   0.493   2.731   1.788 -0.2469  0.3734 -0.1528
11762SOL    HW141632   0.564   2.759   1.845  0.7925 -2.7326  0.2405
11762SOL    HW241633   0.413   2.750   1.837  0.2674  3.0552 -0.2128
11763SOL     OW41634   0.186   3.455   0.001 -0.1119 -0.0677  0.0404
11763SOL    HW141635   0.092   3.457  -0.017  0.0003  2.0307 -0.5046
11763SOL    HW241636   0.224   3.523  -0.055  1.6097 -0.2262  0.9315
11764SOL     OW41637   4.617   7.908   4.137 -0.2231 -0.7864 -0.1537
11764SOL    HW141638   4.595   8.001   4.141  2.8362  0.1237 -1.3593
11764SOL    HW241639   4.586   7.879   4.051 -1.5894 -1.0811  0.4015
11765SOL     OW41640   3.917   3.230   0.851  0.2915 -0.1059 -0.2297
11765SOL    HW141641   3.928   3.136   0.839  0.6523 -0.3176  1.5482
11765SOL    HW241642   3.973   3.251   0.925  1.5095  1.8231 -1.5907
11766SOL     OW41643   3.503   3.502   7.531 -1.0247  0.1729  0.2381
11766SOL    HW141644   3.523   3.424   7.582 -1.8767 -0.8835 -0.9909
11766SOL    HW241645   3.539   3.485   7.445  0.0538  1.7732  0.3335
11767SOL     OW41646   5.097   2.203   4.609 -0.4052 -0.2692 -0.1882
11767SOL    HW141647   5.193   2.203   4.610 -0.3493 -2.5168  1.3942
11767SOL    HW241648   5.072   2.209   4.701 -1.8098  0.4911 -0.5955
11768SOL     OW41649   6.063   4.801   1.130 -0.3967  0.0617  0.4515
11768SOL    HW141650   6.149   4.830   1.101 -1.0581  0.6311 -1.0189
11768SOL    HW241651   6.058   4.710   1.103  0.1607 -0.3221  1.5663
11769SOL     OW41652   8.085   1.074   7.347  0.3893 -0.0692 -0.7345
11769SOL    HW141653   8.176   1.057   7.372  0.3377 -1.2086 -1.2502
11769SOL    HW241654   8.091   1.135   7.273  0.7255 -0.0434 -0.6855
11770SOL     OW41655   4.574   1.866   3.391  0.8893  0.3577  0.3839
11770SOL    HW141656   4.647   1.851   3.451  1.1071  2.8651  0.8681
11770SOL    HW241657   4.589   1.955   3.358 -1.4755  0.6116 -0.1581
11771SOL     OW41658   3.990   2.082   6.575 -0.6925  0.4073 -0.2141
11771SOL    HW141659   3.966   2.134   6.652 -1.7459 -0.5682  0.1417
11771SOL    HW241660   4.069   2.034   6.602 -0.6922  0.5422  0.0313
11772SOL     OW41661   2.082   6.615   2.004  0.1694 -0.0560  0.0984
11772SOL    HW141662   2.072   6.584   1.914  1.2434  0.8506 -0.3651
11772SOL    HW241663   2.108   6.707   1.994 -0.4994  0.2863  1.3625
11773SOL     OW41664   0.003   8.660   6.739 -0.0937  0.1018 -0.6387
11773SOL    HW141665  -0.076   8.711   6.757  0.3704  1.2892 -1.7981
11773SOL    HW241666  -0.024   8.594   6.676 -0.6136 -0.8864  0.5801
11774SOL     OW41667   6.671   3.934   3.090 -0.2597  0.2599 -0.1283
11774SOL    HW141668   6.623   3.865   3.136 -1.3262  0.2398 -1.2084
11774SOL    HW241669   6.761   3.901   3.086 -1.0793 -2.0893 -2.3208
11775SOL     OW41670   3.899   7.413   0.740  0.0322  0.5478 -0.3041
11775SOL    HW141671   3.943   7.387   0.821  1.3234 -2.8634 -1.9395
11775SOL    HW241672   3.812   7.441   0.769  0.2287 -1.1399  2.2466
11776SOL     OW41673   5.892   2.708   0.851  0.1078  0.6020  0.0282
11776SOL    HW141674   5.870   2.618   0.876  1.2355 -0.2046 -1.6413
11776SOL    HW241675   5.946   2.741   0.922 -1.8873  0.7017  1.5867
11777SOL     OW41676   3.995   8.006   2.396  0.1591  0.5786 -0.1927
11777SOL    HW141677   3.945   8.037   2.471 -0.3595 -0.7826  0.0468
11777SOL    HW241678   4.070   8.065   2.391  0.8101  0.0219  2.0820
11778SOL     OW41679   3.235   0.305   4.697  0.8234 -0.7625  0.1015
11778SOL    HW141680   3.218   0.399   4.692 -0.9640 -1.0931 -0.7498
11778SOL    HW241681   3.279   0.294   4.781  0.5143  0.7663  0.5054
11779SOL     OW41682   7.523   8.734   7.621  0.0347  0.4556 -0.1111
11779SOL    HW141683   7.552   8.690   7.541  3.0667  0.4299  0.8932
11779SOL    HW241684   7.593   8.795   7.642 -0.9524  0.8954  2.2224
11780SOL     OW41685   2.437   4.088   3.734  0.6690  0.0668 -0.3229
11780SOL    HW141686   2.360   4.087   3.791  1.4562  0.0013  0.7854
11780SOL    HW241687   2.438   4.002   3.692 -0.9850  0.7924 -1.9588
11781SOL     OW41688   4.229   7.070   4.990  0.6753  0.3976  0.0197
11781SOL    HW141689   4.295   7.001   4.998  0.6955  0.4030 -0.0975
11781SOL    HW241690   4.178   7.065   5.071 -1.5515 -2.0504 -1.3663
11782SOL     OW41691   6.190   6.119   0.812  0.4131 -0.1474  0.7067
11782SOL    HW141692   6.218   6.128   0.720  1.8724  1.0126  1.2225
11782SOL    HW241693   6.261   6.159   0.862 -1.6278  1.8094  2.2175
11783SOL     OW41694   1.870   4.202   1.104 -0.4966 -1.1111 -0.0167
11783SOL    HW141695   1.794   4.259   1.093  0.2864  0.0042  0.2396
11783SOL    HW241696   1.945   4.260   1.094  0.3280 -2.1446  0.0332
11784SOL     OW41697   0.600   1.291   7.338  0.0788 -0.2969 -0.1949
11784SOL    HW141698   0.512   1.324   7.354  0.2118 -0.4430  0.9103
11784SOL    HW241699   0.649   1.314   7.416  0.7961 -0.9878 -0.4292
11785SOL     OW41700   1.198   3.385   2.805  0.2633 -0.4260  0.0571
11785SOL    HW141701   1.192   3.300   2.761 -0.7232 -0.4169  0.1699
11785SOL    HW241702   1.158   3.371   2.891  1.5330 -0.2550  0.7046
11786SOL     OW41703   7.568   9.157   6.148  0.2345  0.0821  0.5473
11786SOL    HW141704   7.608   9.164   6.235  1.4586  0.3027 -0.0097
11786SOL    HW241705   7.530   9.069   6.147 -1.0027  0.5729  1.7773
11787SOL     OW41706   7.307   3.837   2.145  0.2066  0.0695  0.1589
11787SOL    HW141707   7.226   3.885   2.163 -0.1509 -0.9519  1.3971
11787SOL    HW241708   7.343   3.880   2.067 -0.6804  1.5903  0.5383
11788SOL     OW41709   6.103   1.967   2.837 -0.2251  0.3223  0.8113
11788SOL    HW141710   6.024   1.946   2.788  0.1059 -2.9269  1.3927
11788SOL    HW241711   6.167   1.901   2.809  2.1001  2.4146  0.8598
11789SOL     OW41712   6.372   3.106   4.480 -0.2027 -0.1286 -0.2520
11789SOL    HW141713   6.408   3.120   4.393 -2.1014 -0.6936 -1.1677
11789SOL    HW241714   6.346   3.013   4.481 -1.7673  0.2850  0.2791
11790SOL     OW41715   6.158   3.526   4.366 -0.1218 -0.2048 -0.0520
11790SOL    HW141716   6.197   3.545   4.281  0.6623  0.7368  0.5032
11790SOL    HW241717   6.079   3.476   4.345 -1.1343  1.8755 -1.4735
11791SOL     OW41718   0.854   1.846   1.264 -0.1569  0.2509  0.2734
11791SOL    HW141719   0.775   1.793   1.259 -0.8665  1.3231 -0.5448
11791SOL    HW241720   0.889   1.830   1.352 -1.7979  0.4575  0.9979
11792SOL     OW41721   8.214   7.436   7.883 -0.1030  0.0303 -0.3114
11792SOL    HW141722   8.251   7.510   7.836  0.3941 -1.3268 -2.1661
11792SOL    HW241723   8.284   7.408   7.943  0.3529 -0.0129 -0.8599
11793SOL     OW41724   1.647   7.967   0.730 -0.1939  0.0116  0.4281
11793SOL    HW141725   1.706   8.031   0.770  0.0128  0.7619 -1.0371
11793SOL    HW241726   1.703   7.912   0.676 -0.8032  0.8242 -1.0992
11794SOL     OW41727   5.311   7.307   7.641 -0.4932 -0.0345 -0.0243
11794SOL    HW141728   5.255   7.235   7.613 -0.7881 -0.6248  1.9019
11794SOL    HW241729   5.253   7.364   7.691 -0.2208  1.4703 -1.3638
11795SOL     OW41730   1.386   5.926   6.038  0.1232 -0.2500 -0.2072
11795SOL    HW141731   1.430   5.875   6.105  0.0834 -0.8533 -0.6366
11795SOL    HW241732   1.351   6.002   6.085  2.3050  0.6796  0.0016
11796SOL     OW41733   9.016   7.739   5.253 -0.6136 -0.1669  0.1070
11796SOL    HW141734   8.950   7.738   5.322 -0.3772 -1.1863  0.3352
11796SOL    HW241735   9.042   7.831   5.246 -0.1108 -0.1301  1.9141
11797SOL     OW41736   5.435   1.871   5.516 -0.5645  0.0651 -0.1353
11797SOL    HW141737   5.399   1.906   5.598 -2.2582 -0.4778 -0.6103
11797SOL    HW241738   5.433   1.945   5.456 -0.0720  0.2563  0.0789
11798SOL     OW41739   5.975   3.610   1.158  0.1246 -0.2137  0.6395
11798SOL    HW141740   5.960   3.677   1.224  1.2409  0.7661 -0.0672
11798SOL    HW241741   6.055   3.566   1.185  2.1057  1.9101 -1.3183
11799SOL     OW41742   6.327   2.221   8.914  0.1956  0.0115  0.1833
11799SOL    HW141743   6.350   2.301   8.962 -0.9596  0.6504 -0.2885
11799SOL    HW241744   6.284   2.166   8.979  0.7986 -0.1437  0.4572
11800SOL     OW41745   0.509   6.919   0.519  0.0809  0.3825  0.4325
11800SOL    HW141746   0.434   6.884   0.470  1.2050 -0.0040 -1.0959
11800SOL    HW241747   0.576   6.932   0.453  1.7714 -0.3968  1.9256
11801SOL     OW41748   2.500   0.743   4.765  0.5009  0.3816 -0.0313
11801SOL    HW141749   2.424   0.712   4.715  0.5126 -0.3974  0.4088
11801SOL    HW241750   2.548   0.799   4.705  1.4122 -1.8294 -1.4868
11802SOL     OW41751   2.053   0.549   5.192 -0.1574 -0.0665  0.3168
11802SOL    HW141752   1.992   0.610   5.151  0.0589 -0.0833 -0.0381
11802SOL    HW241753   1.997   0.485   5.236 -0.3845  0.3297  0.6049
11803SOL     OW41754   7.219   4.261   0.819  0.0142  0.0335 -0.2743
11803SOL    HW141755   7.247   4.210   0.743 -0.6836  1.4031 -1.5038
11803SOL    HW241756   7.124   4.267   0.809  0.1360  2.0968 -0.5444
11804SOL     OW41757   4.449   2.359   3.082  0.3497 -0.2685  0.6741
11804SOL    HW141758   4.525   2.372   3.024  0.1562 -0.1340  0.4486
11804SOL    HW241759   4.478   2.393   3.166  0.5518 -0.2454  0.5973
11805SOL     OW41760   2.400   7.518   5.899 -0.2296 -0.4232  0.4925
11805SOL    HW141761   2.482   7.567   5.898 -0.2583 -0.3762 -0.7020
11805SOL    HW241762   2.344   7.563   5.836 -1.5109  0.0772  1.9329
11806SOL     OW41763   0.511   7.841   2.513 -0.6935 -0.6142 -0.6702
11806SOL    HW141764   0.536   7.752   2.537 -1.4457 -0.8717 -0.7928
11806SOL    HW241765   0.436   7.861   2.570  0.3882  0.5138  0.4157
11807SOL     OW41766   1.355   4.249   6.149  0.0451 -0.3843  0.3689
11807SOL    HW141767   1.289   4.194   6.105 -0.9260  0.0040  1.3095
11807SOL    HW241768   1.333   4.244   6.242  1.3073 -0.1741  0.6986
11808SOL     OW41769   4.036   0.364   3.706 -0.2332  0.1128  0.6628
11808SOL    HW141770   4.000   0.276   3.717  0.6602 -0.1381  1.6743
11808SOL    HW241771   4.122   0.350   3.665 -1.1819  0.7017 -1.6986
11809SOL     OW41772   1.949   2.202   1.238 -0.1500 -0.0279 -0.2832
11809SOL    HW141773   1.968   2.237   1.325  3.0171  1.4158 -1.3918
11809SOL    HW241774   2.024   2.146   1.218 -1.4545 -1.3808 -1.6117
11810SOL     OW41775   4.371   5.289   4.980  0.0463  0.1160  0.4553
11810SOL    HW141776   4.422   5.209   4.992 -0.7485 -0.2950  1.1766
11810SOL    HW241777   4.359   5.295   4.885  2.1596  0.7121  0.1812
11811SOL     OW41778   1.491   1.911   7.419  0.0820 -0.0932  0.2104
11811SOL    HW141779   1.569   1.906   7.474  0.2081 -2.2307 -0.0905
11811SOL    HW241780   1.491   1.830   7.369 -2.2738 -0.1009  0.0962
11812SOL     OW41781   6.290   7.967   7.482  0.2138  0.0599 -0.3578
11812SOL    HW141782   6.251   8.040   7.434 -2.0866 -0.8065  0.0606
11812SOL    HW241783   6.251   7.889   7.443  1.1375 -0.8497  0.4818
11813SOL     OW41784   2.924   9.048   1.903 -0.2421 -0.1772  0.4525
11813SOL    HW141785   3.020   9.042   1.907 -0.3388 -1.1060  2.5501
11813SOL    HW241786   2.903   9.128   1.951 -0.5415  0.0309 -0.0150
11814SOL     OW41787   1.460   1.880   3.874 -0.6690  0.0492  0.0985
11814SOL    HW141788   1.444   1.949   3.939 -0.0186  0.7122 -0.4371
11814SOL    HW241789   1.435   1.919   3.790 -2.2485 -1.0602 -0.0004
11815SOL     OW41790   8.743   7.919   5.844 -0.1373  0.4323 -0.1354
11815SOL    HW141791   8.830   7.947   5.871 -0.0730 -0.9646  1.2880
11815SOL    HW241792   8.721   7.975   5.770  1.0734  2.2637  0.8133
11816SOL     OW41793   0.073   8.927   5.523 -0.5653 -0.6236  0.4488
11816SOL    HW141794  -0.005   8.977   5.499  0.2460 -0.7475 -2.9437
11816SOL    HW241795   0.141   8.994   5.536 -0.3901 -0.6514 -0.2814
11817SOL     OW41796   6.991   3.143   3.429 -0.1557 -0.4593 -0.4614
11817SOL    HW141797   6.896   3.140   3.422 -0.2048  0.8053 -0.4746
11817SOL    HW241798   7.019   3.200   3.357  0.4699  0.4914  0.5005
11818SOL     OW41799   2.367   3.103   8.503  0.0786 -1.2114 -0.1586
11818SOL    HW141800   2.333   3.145   8.582 -0.1724 -1.6060 -0.0554
11818SOL    HW241801   2.322   3.147   8.431 -0.8234 -1.8670 -0.0181
11819SOL     OW41802   4.546   0.036   7.052  0.0993  0.6639  0.1966
11819SOL    HW141803   4.571  -0.040   6.998 -0.2327  0.5884  0.1488
11819SOL    HW241804   4.512  -0.003   7.133 -1.5884  0.7089 -0.4624
11820SOL     OW41805   4.545   5.708   8.999 -0.0494  0.1911 -0.3106
11820SOL    HW141806   4.613   5.685   9.062  2.3048  1.7262 -2.1037
11820SOL    HW241807   4.509   5.624   8.972  0.9849 -0.6790  0.8643
11821SOL     OW41808   8.180   8.010   9.122  0.2687 -0.2710 -0.5445
11821SOL    HW141809   8.222   8.095   9.113  0.9979 -0.7448 -1.9536
11821SOL    HW241810   8.241   7.949   9.081 -0.4625 -1.4109  0.0068
11822SOL     OW41811   4.455   4.682   8.739 -0.0904 -0.0006  0.3173
11822SOL    HW141812   4.526   4.680   8.675  0.3023  0.4099  0.7360
11822SOL    HW241813   4.392   4.617   8.707  1.5319 -2.1282  1.1732
11823SOL     OW41814   2.129   0.254   4.051 -0.1833  0.1015 -0.0578
11823SOL    HW141815   2.118   0.271   3.957 -5.4810  0.0180  0.2406
11823SOL    HW241816   2.088   0.328   4.094 -0.0355 -1.0191  2.1396
11824SOL     OW41817   5.611   1.585   0.480 -0.2043 -0.5021 -0.3484
11824SOL    HW141818   5.544   1.563   0.544  1.5495 -1.2789  1.3384
11824SOL    HW241819   5.568   1.645   0.419 -1.4339  2.0334  2.7637
11825SOL     OW41820   0.014   8.070   2.346  0.5579 -0.0615 -0.4303
11825SOL    HW141821   0.030   8.007   2.416  0.5051 -0.0928 -0.4463
11825SOL    HW241822   0.060   8.149   2.374  0.5932 -0.0953 -0.3932
11826SOL     OW41823   0.140   7.856   6.686 -0.5136  0.0387 -0.3270
11826SOL    HW141824   0.192   7.822   6.759 -0.8086  0.1853 -0.0451
11826SOL    HW241825   0.133   7.950   6.703  0.3110  0.2554 -1.1119
11827SOL     OW41826   4.817   4.503   2.308 -0.0847  0.3609 -0.3701
11827SOL    HW141827   4.899   4.460   2.285 -1.1750 -0.5721 -2.9108
11827SOL    HW241828   4.843   4.587   2.345  2.0090 -0.7046  0.7831
11828SOL     OW41829   4.674   6.771   4.786 -0.0417  0.2689 -0.0136
11828SOL    HW141830   4.674   6.705   4.716 -0.8691  0.9112 -0.6457
11828SOL    HW241831   4.597   6.825   4.767  0.0142  0.7630  1.1121
11829SOL     OW41832   5.413   0.119   1.516 -0.3071  0.2963 -0.4097
11829SOL    HW141833   5.425   0.213   1.528 -2.6425  0.6992 -0.8501
11829SOL    HW241834   5.355   0.092   1.587  0.0644 -0.7723 -0.4829
11830SOL     OW41835   7.530   0.047   6.917  0.0278  0.4584  0.1076
11830SOL    HW141836   7.500   0.138   6.906 -1.1265  0.4142  2.3768
11830SOL    HW241837   7.575   0.047   7.001 -0.0882 -1.1312  0.1917
11831SOL     OW41838   9.172   2.929   0.016  0.7374  0.0539 -0.2318
11831SOL    HW141839   9.197   2.867  -0.052 -0.2924  0.2597 -0.8183
11831SOL    HW241840   9.088   2.895   0.049  0.5033  0.7557 -0.0970
11832SOL     OW41841   1.034   6.374   2.336 -0.1995 -0.0118 -0.3085
11832SOL    HW141842   0.969   6.418   2.281  0.7550  0.9845 -0.6749
11832SOL    HW241843   1.009   6.282   2.334 -2.2950  0.4854  0.5137
11833SOL     OW41844   3.917   2.619   2.779 -0.5575 -0.1017 -0.0910
11833SOL    HW141845   3.976   2.549   2.809  0.1223  1.2667  1.9393
11833SOL    HW241846   3.862   2.576   2.714  1.2687 -1.9766 -0.5388
11834SOL     OW41847   4.154   2.831   5.697  0.3694  0.6459 -0.1285
11834SOL    HW141848   4.113   2.917   5.708 -0.4613  0.5160 -1.8234
11834SOL    HW241849   4.151   2.792   5.784 -0.1243  1.9536  0.4734
11835SOL     OW41850   0.125   4.789   6.665  0.5338 -0.0328  0.0455
11835SOL    HW141851   0.079   4.753   6.590  1.0125 -2.2064  0.7146
11835SOL    HW241852   0.055   4.825   6.721  0.0436  0.2826 -0.7606
11836SOL     OW41853   2.724   8.856   5.914 -0.0761  0.5399  0.3959
11836SOL    HW141854   2.684   8.770   5.899 -0.5516  0.8156  0.0608
11836SOL    HW241855   2.651   8.917   5.916  0.3714  1.1617 -1.0128
11837SOL     OW41856   7.890   5.202   8.124  0.2761 -0.1865  0.5255
11837SOL    HW141857   7.930   5.283   8.093 -0.4924 -0.1149 -0.2969
11837SOL    HW241858   7.965   5.149   8.153  1.0388 -0.1722 -1.2566
11838SOL     OW41859   6.470   7.876   3.974 -1.0541 -0.4814 -0.3984
11838SOL    HW141860   6.486   7.794   3.928 -1.3728 -0.8631  0.1477
11838SOL    HW241861   6.556   7.900   4.010 -1.4576 -2.1364  1.9110
11839SOL     OW41862   7.851   6.964   5.634 -0.5974  0.2220  0.2980
11839SOL    HW141863   7.856   6.888   5.575  1.6791 -0.6450  1.5082
11839SOL    HW241864   7.837   7.039   5.575 -2.1132 -0.9813 -0.9931
11840SOL     OW41865   1.051   4.588   4.589  0.0562 -0.3959 -0.6122
11840SOL    HW141866   1.090   4.653   4.529  1.0473 -0.7387 -0.3671
11840SOL    HW241867   1.079   4.617   4.676  2.1096 -2.1449 -0.6167
11841SOL     OW41868   2.900   4.926   0.243 -0.0359  0.1609 -0.1127
11841SOL    HW141869   2.897   4.835   0.215  1.7770  0.9006 -3.2483
11841SOL    HW241870   2.984   4.934   0.288 -0.8812  0.0256  1.5785
11842SOL     OW41871   0.258   5.698   7.042  0.0433  0.1718  0.3235
11842SOL    HW141872   0.348   5.674   7.016  0.4661  1.0198  0.9560
11842SOL    HW241873   0.221   5.617   7.078  0.2621 -0.4010 -0.6940
11843SOL     OW41874   2.368   5.930   4.481  0.0601 -0.0158  0.1823
11843SOL    HW141875   2.423   5.853   4.468 -0.0903 -0.8867  3.7861
11843SOL    HW241876   2.399   5.992   4.415  2.9163 -1.7384 -0.2783
11844SOL     OW41877   3.476   9.044   9.091 -0.0514 -0.2220  0.1443
11844SOL    HW141878   3.386   9.049   9.123  0.7155  0.8819  2.3864
11844SOL    HW241879   3.521   8.989   9.155  1.1551  0.3685 -0.1671
11845SOL     OW41880   5.905   1.756   3.602 -0.0807 -0.0169 -0.0386
11845SOL    HW141881   5.861   1.702   3.668  1.3504 -0.0914  0.9066
11845SOL    HW241882   5.841   1.822   3.577 -0.3799  0.5614  2.0952
11846SOL     OW41883   7.771   6.619   2.190  0.0479  0.2832  0.1157
11846SOL    HW141884   7.804   6.707   2.209 -0.1155  0.1283  1.1904
11846SOL    HW241885   7.846   6.562   2.207  0.7742  0.3275 -2.4684
11847SOL     OW41886   5.461   7.841   7.302  0.1924 -0.2095  0.4424
11847SOL    HW141887   5.465   7.805   7.390  0.8789  1.2028  1.0311
11847SOL    HW241888   5.552   7.846   7.274  0.4409  3.0376  1.3126
11848SOL     OW41889   4.418   5.325   0.666 -0.6528  0.3926  0.0005
11848SOL    HW141890   4.481   5.373   0.719  0.9774 -2.6859  1.1323
11848SOL    HW241891   4.460   5.317   0.580 -0.7121  0.5938 -0.0471
11849SOL     OW41892   8.680   8.640   8.992  0.2269 -0.0051  0.5895
11849SOL    HW141893   8.649   8.715   8.940  1.9378  0.7585  0.5718
11849SOL    HW241894   8.776   8.647   8.987  0.4417 -0.5788  2.8918
11850SOL     OW41895   5.229   4.193   6.874  0.0068 -0.0343  0.5365
11850SOL    HW141896   5.174   4.191   6.953  1.2277  1.3238  1.4778
11850SOL    HW241897   5.283   4.115   6.880  0.0077 -0.0035  0.9901
11851SOL     OW41898   6.815   8.500   3.891 -0.1861  0.6245  0.0077
11851SOL    HW141899   6.754   8.477   3.821  1.7875  0.5743 -1.7998
11851SOL    HW241900   6.857   8.580   3.861  0.8577  0.4933  1.0370
11852SOL     OW41901   0.476   6.212   1.392 -0.0758  0.4212  0.0583
11852SOL    HW141902   0.509   6.248   1.474 -2.2100 -0.2676  1.3146
11852SOL    HW241903   0.481   6.117   1.405 -2.5538  0.2694  0.4162
11853SOL     OW41904   3.073   6.663   0.703 -0.4045  0.1339 -0.0502
11853SOL    HW141905   3.010   6.612   0.651  0.6111 -1.2331  0.0087
11853SOL    HW241906   3.112   6.724   0.639 -1.2258  0.4682 -0.2473
11854SOL     OW41907   8.770   9.189   0.363 -0.2486 -0.5422  0.1755
11854SOL    HW141908   8.750   9.155   0.276  2.3770  0.1525 -0.7939
11854SOL    HW241909   8.770   9.284   0.352 -1.1746 -0.3847  1.2942
11855SOL     OW41910   8.448   1.909   1.890  0.2473  0.4198  0.3201
11855SOL    HW141911   8.360   1.918   1.855  0.6723 -1.6095 -1.4705
11855SOL    HW241912   8.504   1.955   1.827  0.7156 -0.6376 -0.0629
11856SOL     OW41913   0.296   2.241   8.910  0.1206  0.0076 -0.2044
11856SOL    HW141914   0.202   2.259   8.914 -0.1089 -1.2035  0.5003
11856SOL    HW241915   0.335   2.320   8.872 -1.1208  0.7174 -0.0342
11857SOL     OW41916   0.120   1.180   7.382  0.5682 -0.1301 -0.5978
11857SOL    HW141917   0.200   1.200   7.335  2.1863  0.0144  2.0055
11857SOL    HW241918   0.059   1.249   7.358  1.8323  0.7867 -1.2515
11858SOL     OW41919   2.706   5.372   3.800 -0.4204 -0.3497  0.0120
11858SOL    HW141920   2.676   5.367   3.709 -0.4244  0.3320 -0.0295
11858SOL    HW241921   2.725   5.281   3.824  1.7513 -0.3484 -1.4085
11859SOL     OW41922   1.377   9.097   5.316 -0.0960 -0.2524  1.3484
11859SOL    HW141923   1.464   9.106   5.278 -1.1363  1.4054 -0.8630
11859SOL    HW241924   1.340   9.020   5.272 -1.7055  2.2877 -2.2198
11860SOL     OW41925   4.248   6.502   3.338  0.0233  0.3128 -0.6442
11860SOL    HW141926   4.209   6.415   3.347  1.1946 -0.1773 -0.0680
11860SOL    HW241927   4.249   6.519   3.244  0.4997 -0.6495 -0.8282
11861SOL     OW41928   8.195   1.359   7.865 -0.5238 -0.0870  0.0448
11861SOL    HW141929   8.155   1.400   7.788  0.3991 -2.6928 -1.9732
11861SOL    HW241930   8.286   1.346   7.840 -0.4663 -2.0158  1.1177
11862SOL     OW41931   1.822   1.828   1.269  0.5406 -0.2691  0.3643
11862SOL    HW141932   1.891   1.817   1.335  0.4115 -0.2734  0.4982
11862SOL    HW241933   1.846   1.909   1.224  1.7675 -1.3135 -0.9543
11863SOL     OW41934   5.116   8.645   5.096 -0.3681  0.2158  0.1901
11863SOL    HW141935   5.103   8.645   5.191  0.2732  0.3124  0.2859
11863SOL    HW241936   5.044   8.699   5.062 -0.7693 -0.0583  0.5925
11864SOL     OW41937   0.491   7.171   5.271 -0.1124 -0.2849 -0.1158
11864SOL    HW141938   0.525   7.248   5.227 -2.0869 -0.4686 -2.1435
11864SOL    HW241939   0.420   7.204   5.327  1.1001 -0.2980  1.4883
11865SOL     OW41940   6.686   4.044   8.303 -0.4625  0.2865  0.8020
11865SOL    HW141941   6.705   4.096   8.225 -0.0765  1.1736  1.4672
11865SOL    HW241942   6.671   3.955   8.270 -2.5251  1.0474 -0.5378
11866SOL     OW41943   1.715   7.989   1.378  0.1965 -0.7788 -0.0139
11866SOL    HW141944   1.759   8.061   1.424  2.7422 -1.7070 -0.8058
11866SOL    HW241945   1.651   7.956   1.441  1.8126 -0.4133  1.9398
11867SOL     OW41946   5.973   0.483   9.077  0.0134  0.0581  0.3860
11867SOL    HW141947   5.990   0.389   9.074  0.5687  0.1197  1.2999
11867SOL    HW241948   5.911   0.494   9.149  0.3225  0.4392  0.5978
11868SOL     OW41949   3.999   7.261   0.973  0.2717  0.2531 -0.1122
11868SOL    HW141950   4.044   7.206   1.037 -1.5967 -0.3748  0.7168
11868SOL    HW241951   3.930   7.305   1.023  0.2305  1.5550 -1.2420
11869SOL     OW41952   1.958   3.678   3.567  0.3242  0.4906 -0.7807
11869SOL    HW141953   1.909   3.721   3.496 -1.5872 -1.0214 -0.4846
11869SOL    HW241954   1.890   3.640   3.622  1.8517 -0.6560  0.3868
11870SOL     OW41955   3.037   4.529   7.788 -0.7186  0.3258 -0.0593
11870SOL    HW141956   3.102   4.488   7.730 -0.2939  1.0893 -0.1293
11870SOL    HW241957   3.085   4.599   7.832 -0.9545 -0.4178  1.4447
11871SOL     OW41958   4.005   5.785   1.431  0.1051  0.6129 -0.1236
11871SOL    HW141959   4.027   5.694   1.413 -0.8144 -0.0266  1.6761
11871SOL    HW241960   3.991   5.788   1.526 -0.4860  2.4946 -0.2233
11872SOL     OW41961   7.604   2.855   7.539  0.0149  0.1681 -0.1896
11872SOL    HW141962   7.561   2.869   7.455  1.5297 -0.0957 -1.0675
11872SOL    HW241963   7.600   2.760   7.552  0.0567  0.1735 -0.1343
11873SOL     OW41964   5.522   1.873   6.500 -0.3523 -0.0776 -0.2445
11873SOL    HW141965   5.509   1.886   6.406 -0.6780 -0.8769 -0.3116
11873SOL    HW241966   5.473   1.795   6.521 -0.4689  0.2234  0.6465
11874SOL     OW41967   2.207   5.224   1.311  0.2360 -0.3211 -0.1096
11874SOL    HW141968   2.132   5.259   1.359  1.3608  0.3236  1.2814
11874SOL    HW241969   2.270   5.201   1.379  1.6074 -0.1124 -1.2515
11875SOL     OW41970   1.914   4.858   5.001  0.2641  0.1987 -1.3142
11875SOL    HW141971   1.934   4.776   5.047  0.3336  0.8703 -0.1058
11875SOL    HW241972   1.852   4.903   5.057 -2.0956 -0.2870 -3.3706
11876SOL     OW41973   4.999   5.914   2.541  0.9993 -0.2633 -0.1037
11876SOL    HW141974   5.093   5.914   2.555  0.6079 -0.1119  3.5602
11876SOL    HW241975   4.967   5.990   2.590 -1.2759 -2.4304  2.1455
11877SOL     OW41976   8.931   0.077   7.218  0.5693  0.2432  0.4959
11877SOL    HW141977   8.844   0.095   7.182  0.1715 -0.1687  1.2230
11877SOL    HW241978   8.985   0.057   7.142  0.2206  1.2472 -0.0365
11878SOL     OW41979   4.603   0.910   4.278  0.2232  0.3901 -0.1088
11878SOL    HW141980   4.619   0.967   4.202  0.6221 -0.1070 -0.4012
11878SOL    HW241981   4.523   0.862   4.255  0.1570  0.4813 -0.0705
11879SOL     OW41982   4.922   8.300   5.671  0.5284  0.4715  0.0830
11879SOL    HW141983   4.838   8.320   5.713  0.1059  0.5468 -0.7659
11879SOL    HW241984   4.979   8.273   5.743  0.1462  1.6044  0.8305
11880SOL     OW41985   6.082   6.971   6.947 -0.0509 -0.1224  0.7610
11880SOL    HW141986   6.002   6.951   6.997  0.2402 -0.8071  0.9704
11880SOL    HW241987   6.072   6.920   6.866  0.0064  0.0772  0.6283
11881SOL     OW41988   2.795   7.525   4.108  0.5911  0.2459 -0.0494
11881SOL    HW141989   2.866   7.561   4.162 -0.5007  1.6788  0.5021
11881SOL    HW241990   2.718   7.576   4.133 -0.6675 -1.3052 -0.5852
11882SOL     OW41991   0.544   4.149   8.931 -0.2130 -0.1543 -0.0381
11882SOL    HW141992   0.601   4.196   8.993  0.2653 -1.0198  0.1840
11882SOL    HW241993   0.504   4.219   8.878  1.3227  0.4583 -0.4413
11883SOL     OW41994   8.193   0.792   2.937  0.5109 -0.4261 -0.8516
11883SOL    HW141995   8.145   0.745   3.005  0.5394  0.4151 -0.2316
11883SOL    HW241996   8.196   0.731   2.863 -0.9634 -0.7270 -0.6831
11884SOL     OW41997   1.166   0.029   2.097 -0.3762 -0.0825 -0.2748
11884SOL    HW141998   1.114   0.109   2.106 -0.2794  0.1942 -1.8683
11884SOL    HW241999   1.177   0.018   2.002  0.1249 -1.6577 -0.0657
11885SOL     OW42000   5.092   4.197   6.631 -0.2087  0.3831  0.0067
11885SOL    HW142001   5.128   4.205   6.719 -1.2425  1.4781  0.3546
11885SOL    HW242002   5.075   4.103   6.621 -0.1981  0.2602  1.0200
11886SOL     OW42003   7.944   3.289   6.637 -0.4748  0.2079  0.4614
11886SOL    HW142004   7.857   3.256   6.662  0.1754 -0.7358  1.5417
11886SOL    HW242005   7.935   3.384   6.641 -1.4243  0.1199  0.6924
11887SOL     OW42006   3.305   3.291   0.943 -0.3015  0.4339 -0.5889
11887SOL    HW142007   3.298   3.249   1.029 -0.2841  2.2998  0.3747
11887SOL    HW242008   3.254   3.235   0.885  0.8450 -1.6404  0.3198
11888SOL     OW42009   1.703   1.456   0.071  0.2053 -0.5059  0.5662
11888SOL    HW142010   1.642   1.504   0.016  0.3493  2.7161  2.9300
11888SOL    HW242011   1.765   1.417   0.009 -1.6287 -0.1550 -1.6508
11889SOL     OW42012   7.251   2.834   3.305  0.1668  0.4053  0.2887
11889SOL    HW142013   7.266   2.750   3.348  0.2210 -0.3553 -1.1626
11889SOL    HW242014   7.156   2.837   3.292  0.2904 -0.0105 -0.7682
11890SOL     OW42015   3.285   0.565   5.197 -0.0123  0.1464 -0.6533
11890SOL    HW142016   3.319   0.654   5.197  0.3882  0.0282  1.0826
11890SOL    HW242017   3.190   0.575   5.194  0.0453  0.6043 -1.0105
11891SOL     OW42018   8.872   0.092   4.559  0.1575  0.2795  0.2164
11891SOL    HW142019   8.870   0.003   4.595  1.7935  0.7333  1.5689
11891SOL    HW242020   8.847   0.148   4.633 -1.3025  0.9543 -0.7430
11892SOL     OW42021   0.969   6.998   4.204 -0.2680  0.3042  0.5493
11892SOL    HW142022   0.981   6.933   4.135 -0.4059 -1.1718  1.8483
11892SOL    HW242023   0.875   7.017   4.203 -0.1794  0.7275 -0.0339
11893SOL     OW42024   3.443   0.165   7.041 -0.2442  0.3077 -0.3812
11893SOL    HW142025   3.465   0.087   6.990 -1.1931 -0.3966  0.2404
11893SOL    HW242026   3.359   0.143   7.082 -0.3540  1.5300  0.0833
11894SOL     OW42027   2.442   2.012   5.204 -0.1760 -0.3794 -0.1705
11894SOL    HW142028   2.519   1.964   5.174  0.0915  0.3884 -0.7426
11894SOL    HW242029   2.437   1.994   5.298  1.4637  0.5779  0.1434
11895SOL     OW42030   1.993   4.460   1.040 -0.2484  0.8683 -0.2811
11895SOL    HW142031   1.949   4.516   0.976  0.8813  1.8641 -0.2310
11895SOL    HW242032   2.081   4.447   1.004 -0.5368 -1.1210 -0.4152
11896SOL     OW42033   0.230   3.520   5.762  0.3629 -0.5953  0.0436
11896SOL    HW142034   0.189   3.564   5.836 -0.4637 -0.5579 -0.4232
11896SOL    HW242035   0.322   3.512   5.786 -0.0146 -1.1862  1.3578
11897SOL     OW42036   1.175   7.186   4.251  0.1965 -0.0326  0.9820
11897SOL    HW142037   1.264   7.157   4.231  0.9023  1.0435  2.3514
11897SOL    HW242038   1.122   7.106   4.246  0.8021 -0.3554 -1.8954
11898SOL     OW42039   5.537   9.158   2.368 -0.1586  0.4383 -0.0090
11898SOL    HW142040   5.565   9.156   2.460  0.6614  0.4088 -0.2511
11898SOL    HW242041   5.442   9.167   2.372 -0.3741 -1.5818  0.8819
11899SOL     OW42042   5.482   1.122   3.464 -0.2971  0.4072 -0.1671
11899SOL    HW142043   5.502   1.061   3.393 -1.8042  1.3439 -1.4548
11899SOL    HW242044   5.474   1.207   3.421 -0.7030  1.0930  1.2230
11900SOL     OW42045   5.758   5.266   0.937  0.2475  0.2135  0.3339
11900SOL    HW142046   5.711   5.256   1.019 -0.2577  1.5189  0.2326
11900SOL    HW242047   5.733   5.353   0.906  2.4147  0.8027  0.0718
11901SOL     OW42048   9.217   6.530   0.463  0.2457  0.4797  0.1904
11901SOL    HW142049   9.182   6.508   0.550 -1.6536  0.1190 -0.6124
11901SOL    HW242050   9.190   6.457   0.407  1.4300  0.7154 -0.7246
11902SOL     OW42051   8.969   1.597   1.731 -0.3026 -0.2371  0.2935
11902SOL    HW142052   9.020   1.676   1.716 -0.7567  0.1287  0.6595
11902SOL    HW242053   8.915   1.588   1.653 -0.2171 -0.2116  0.2321
11903SOL     OW42054   0.061   6.468   7.011 -0.1206  0.0632  0.3538
11903SOL    HW142055   0.118   6.502   6.941 -0.2279 -0.9936 -0.2705
11903SOL    HW242056   0.101   6.500   7.092  0.1527  1.0997 -0.1818
11904SOL     OW42057   1.409   4.318   1.800 -0.3127  0.1388 -0.0993
11904SOL    HW142058   1.436   4.253   1.865 -0.2213  0.2983  0.0224
11904SOL    HW242059   1.489   4.340   1.752 -0.1124  0.9881  0.5944
11905SOL     OW42060   7.159   0.390   8.695 -0.5315  0.2694 -0.2381
11905SOL    HW142061   7.209   0.448   8.638  1.1219 -0.4328  0.4463
11905SOL    HW242062   7.169   0.304   8.655  1.3942 -0.3930  1.5091
11906SOL     OW42063   7.353   0.944   1.537  0.3364  0.4032  0.0373
11906SOL    HW142064   7.287   0.979   1.597 -0.5620  0.0741 -0.7424
11906SOL    HW242065   7.359   0.851   1.560 -0.0063  0.2771 -0.3645
11907SOL     OW42066   0.929   2.950   7.885 -0.0433  0.4439 -0.6028
11907SOL    HW142067   1.010   2.949   7.834 -0.8082 -0.9672 -1.8584
11907SOL    HW242068   0.948   3.008   7.959  2.3688 -0.4477 -0.4337
11908SOL     OW42069   3.611   3.305   0.211  0.3824  0.2200 -0.2032
11908SOL    HW142070   3.582   3.382   0.163  2.1966  1.1295  0.0706
11908SOL    HW242071   3.661   3.340   0.285  0.6733 -1.2041  0.3047
11909SOL     OW42072   4.798   5.388   5.998  0.1852 -0.2488  0.3109
11909SOL    HW142073   4.715   5.428   6.023  0.2121 -1.1270  1.9395
11909SOL    HW242074   4.863   5.457   6.011 -0.0693 -0.0864  0.7355
11910SOL     OW42075   0.886   4.610   4.332 -0.1405  0.0750 -0.2019
11910SOL    HW142076   0.904   4.575   4.419 -2.4128  1.4743  0.9240
11910SOL    HW242077   0.854   4.535   4.282  2.1850 -0.9798 -0.2518
11911SOL     OW42078   8.190   2.984   2.314 -0.5391 -0.5443 -0.2644
11911SOL    HW142079   8.139   3.016   2.239 -0.4878  0.4850  0.1296
11911SOL    HW242080   8.170   3.046   2.385 -0.2124 -1.2305  0.4357
11912SOL     OW42081   7.906   0.597   0.907  0.5801  0.0109 -0.2292
11912SOL    HW142082   7.870   0.529   0.850  1.3874 -0.4344 -0.2393
11912SOL    HW242083   7.958   0.652   0.849  2.2254 -1.0243  0.1774
11913SOL     OW42084   8.424   5.858   6.814  0.1154 -0.2910 -0.4460
11913SOL    HW142085   8.500   5.809   6.845 -0.5392 -0.4943  0.9025
11913SOL    HW242086   8.404   5.819   6.729  0.4396 -1.4522 -0.0102
11914SOL     OW42087   2.300   8.064   9.179 -0.8206 -0.2153  0.7088
11914SOL    HW142088   2.374   8.083   9.121 -2.7103  0.8113 -1.5587
11914SOL    HW242089   2.274   7.975   9.155 -0.7860 -0.2957  0.9638
11915SOL     OW42090   4.461   2.820   3.599  0.6793 -0.1936  0.2596
11915SOL    HW142091   4.451   2.880   3.525  0.4397  0.6922  0.9867
11915SOL    HW242092   4.482   2.736   3.559 -0.7691 -0.0423 -0.8838
11916SOL     OW42093   0.672   2.005   8.528  0.1245  0.1479 -0.4509
11916SOL    HW142094   0.690   2.099   8.527  1.7041 -0.0890  0.8408
11916SOL    HW242095   0.732   1.968   8.462 -0.6978  0.0492 -1.1673
11917SOL     OW42096   3.088   0.560   3.956  0.1440  0.5472  0.0475
11917SOL    HW142097   2.994   0.567   3.939  0.5245  1.5293 -1.9672
11917SOL    HW242098   3.111   0.643   3.998  0.1309  0.3136  0.5256
11918SOL     OW42099   5.849   2.901   7.482  0.5471  0.3535 -0.0287
11918SOL    HW142100   5.851   2.820   7.533  2.8389 -1.0332 -2.1314
11918SOL    HW242101   5.818   2.875   7.396 -0.0282  2.0194 -0.3641
11919SOL     OW42102   1.409   5.273   8.435 -0.0383 -0.1405 -0.3117
11919SOL    HW142103   1.422   5.259   8.341 -0.0202  1.4690 -0.5771
11919SOL    HW242104   1.347   5.346   8.440 -0.6318 -0.6972  0.9460
11920SOL     OW42105   6.166   0.916   7.292  0.2356 -0.4119  0.2987
11920SOL    HW142106   6.104   0.942   7.360  1.0620  1.9331  0.2395
11920SOL    HW242107   6.114   0.866   7.229 -0.6566 -2.1528  2.3245
11921SOL     OW42108   1.142   0.394   7.417 -0.0271  0.5632  0.3401
11921SOL    HW142109   1.111   0.405   7.507 -0.8880  0.5154  0.0641
11921SOL    HW242110   1.073   0.432   7.363  0.5659  0.7566 -0.2994
11922SOL     OW42111   2.139   8.978   1.675  0.5291 -0.1895 -0.2862
11922SOL    HW142112   2.118   8.913   1.607  0.0695 -1.7522  1.2653
11922SOL    HW242113   2.075   9.048   1.661 -0.0048 -0.8023 -1.0442
11923SOL     OW42114   0.030   4.587   1.585  0.0690 -0.2670 -0.1859
11923SOL    HW142115   0.017   4.680   1.601 -3.0270 -0.6234 -0.0397
11923SOL    HW242116   0.124   4.574   1.595  0.4815  2.6545  0.6953
11924SOL     OW42117   0.435   0.995   3.539 -0.2951 -0.1214 -0.2086
11924SOL    HW142118   0.529   1.005   3.550 -0.5357  1.2877  0.6968
11924SOL    HW242119   0.403   0.966   3.625 -0.7704  0.0226 -0.3325
11925SOL     OW42120   6.117   6.495   1.748 -0.3216  0.2220  0.0224
11925SOL    HW142121   6.063   6.530   1.819  0.8064 -0.7934  1.4489
11925SOL    HW242122   6.074   6.414   1.723  0.6016 -0.7106  1.3241
11926SOL     OW42123   5.615   0.196   1.264 -0.0726  0.2393 -0.2858
11926SOL    HW142124   5.584   0.148   1.341 -1.0178  0.0901 -0.7345
11926SOL    HW242125   5.537   0.241   1.231 -0.1220 -1.0910 -2.1497
11927SOL     OW42126   1.557   2.901   2.411  1.0058  0.2101  0.3725
11927SOL    HW142127   1.536   2.874   2.501  2.4929  0.9800  0.9906
11927SOL    HW242128   1.484   2.868   2.359 -0.3272  0.4731  1.9752
11928SOL     OW42129   1.096   0.470   5.030  0.3006 -0.2401 -0.2344
11928SOL    HW142130   1.004   0.444   5.031  0.3674 -0.6289 -1.5206
11928SOL    HW242131   1.133   0.431   5.109  0.1868 -3.4125 -1.5821
11929SOL     OW42132   4.335   9.075   1.535  0.6779  0.1285 -0.3047
11929SOL    HW142133   4.385   9.056   1.455  0.4529  0.2006 -0.4644
11929SOL    HW242134   4.278   9.148   1.510  0.3135 -0.1217 -0.1958
11930SOL     OW42135   3.470   7.941   1.349  0.5824  0.5581 -0.5689
11930SOL    HW142136   3.484   8.031   1.318 -1.7988  1.3767  0.5675
11930SOL    HW242137   3.463   7.890   1.268 -0.3107  1.7829 -1.3099
11931SOL     OW42138   6.596   6.030   0.384 -0.2203 -0.1263 -0.4469
11931SOL    HW142139   6.607   6.048   0.290 -0.5474  2.5265 -0.0544
11931SOL    HW242140   6.502   6.026   0.397 -0.1954 -2.8042 -0.5288
11932SOL     OW42141   8.401   2.424   5.190 -0.5625 -0.2074 -0.3891
11932SOL    HW142142   8.443   2.470   5.262  0.1635  0.8304 -1.4499
11932SOL    HW242143   8.409   2.331   5.213  0.5248  0.0637  0.3883
11933SOL     OW42144   3.204   6.479   6.913 -0.0196 -0.3976  0.1997
11933SOL    HW142145   3.131   6.509   6.859 -0.4777 -0.1318  0.9444
11933SOL    HW242146   3.235   6.559   6.958  1.6014 -0.2478 -1.1030
11934SOL     OW42147   1.277   9.093   5.565 -0.2018 -0.4129 -0.2052
11934SOL    HW142148   1.209   9.027   5.562 -0.6330 -0.0781  1.4262
11934SOL    HW242149   1.303   9.105   5.473 -1.6529 -1.2280 -0.7476
11935SOL     OW42150   1.049   0.632   1.578  0.2531 -0.0584  0.7076
11935SOL    HW142151   1.100   0.577   1.638  0.5690 -0.1526  0.3593
11935SOL    HW242152   1.061   0.591   1.492  0.5161  0.5706  0.4385
11936SOL     OW42153   1.470   6.598   2.939  0.0557 -0.4062 -0.0630
11936SOL    HW142154   1.455   6.639   2.853  2.5597 -0.5067 -0.6308
11936SOL    HW242155   1.383   6.575   2.970 -0.9487 -0.5105 -2.6666
11937SOL     OW42156   4.347   5.183   7.823  0.0341 -0.3222 -0.1322
11937SOL    HW142157   4.341   5.253   7.887  0.9160 -0.2894 -0.0757
11937SOL    HW242158   4.343   5.227   7.738  1.1391 -0.1264 -0.1024
11938SOL     OW42159   4.422   1.337   5.244 -0.1373 -0.1869  0.4437
11938SOL    HW142160   4.412   1.289   5.162  0.9497  2.1852 -1.2054
11938SOL    HW242161   4.511   1.319   5.272  0.2681  0.7783 -0.1711
11939SOL     OW42162   3.877   3.100   4.157 -0.2893 -0.5331  0.4158
11939SOL    HW142163   3.970   3.110   4.135 -0.2318 -0.0442  0.8686
11939SOL    HW242164   3.834   3.170   4.108 -0.4432 -0.8502  0.0918
11940SOL     OW42165   5.481   1.677   5.313  0.1588 -0.3186 -0.1954
11940SOL    HW142166   5.443   1.710   5.395 -1.1558  1.2775 -1.3885
11940SOL    HW242167   5.538   1.748   5.283  0.7318 -0.9467 -0.6166
11941SOL     OW42168   8.564   7.325   0.665 -0.0968 -0.5672  0.4496
11941SOL    HW142169   8.556   7.269   0.587  4.3430 -0.2467 -0.4578
11941SOL    HW242170   8.583   7.263   0.736  2.2657 -0.5393 -0.0735
11942SOL     OW42171   6.231   5.760   5.065  0.2900  0.4171  0.4867
11942SOL    HW142172   6.283   5.730   4.990 -1.2990 -2.6674  0.4534
11942SOL    HW242173   6.142   5.770   5.031  0.1156  2.1737  1.3130
11943SOL     OW42174   5.485   2.490   0.380  0.1597 -0.2496 -0.4706
11943SOL    HW142175   5.518   2.416   0.330 -0.5133 -0.7206 -0.2337
11943SOL    HW242176   5.493   2.463   0.472  0.8005  0.3589 -0.3313
11944SOL     OW42177   1.938   6.151   0.380 -0.0208  0.3910 -0.1255
11944SOL    HW142178   1.929   6.172   0.287 -0.5971  0.9137  0.0470
11944SOL    HW242179   1.855   6.112   0.404 -0.1509  0.9511  0.3516
11945SOL     OW42180   2.491   3.075   4.645  0.6724  0.5477 -0.3054
11945SOL    HW142181   2.564   3.094   4.704 -0.0268 -0.4038  0.9110
11945SOL    HW242182   2.419   3.050   4.703 -0.8475  2.0541 -1.4177
11946SOL     OW42183   7.422   4.229   6.693 -0.5081  0.2199  0.3476
11946SOL    HW142184   7.404   4.207   6.602  1.3402 -3.1368  0.6504
11946SOL    HW242185   7.371   4.166   6.744 -1.0619  1.6607  1.6402
11947SOL     OW42186   1.882   8.411   6.631 -0.3798 -0.2262  0.3098
11947SOL    HW142187   1.829   8.331   6.630 -3.7174  1.6844  2.6891
11947SOL    HW242188   1.928   8.408   6.715  1.2667 -0.6228 -0.5769
11948SOL     OW42189   8.760   4.381   4.705  0.4042 -0.0293  0.2834
11948SOL    HW142190   8.816   4.309   4.735 -0.3861 -0.5478  0.5338
11948SOL    HW242191   8.783   4.393   4.613  1.6803  0.4818  0.6351
11949SOL     OW42192   3.020   2.505   3.948 -0.8031  0.4698  0.0872
11949SOL    HW142193   2.987   2.508   4.038 -1.1397 -0.3242 -0.0048
11949SOL    HW242194   2.945   2.530   3.894 -0.5649  1.0766  0.0286
11950SOL     OW42195   1.914   0.831   2.873  0.0389  0.3839 -0.5987
11950SOL    HW142196   1.852   0.769   2.912  1.3071 -0.7560 -0.3122
11950SOL    HW242197   1.890   0.915   2.912  0.8491 -0.5834  2.2948
11951SOL     OW42198   5.697   2.815   1.089 -0.0528 -0.3179 -0.3894
11951SOL    HW142199   5.691   2.886   1.025  0.7421 -0.6648 -0.8679
11951SOL    HW242200   5.782   2.828   1.131 -0.6979  0.0926  0.8490
11952SOL     OW42201   5.838   6.033   6.102 -0.1797 -0.6338 -0.1366
11952SOL    HW142202   5.878   5.952   6.134  0.3036 -0.0383  0.8351
11952SOL    HW242203   5.789   6.067   6.177 -1.1215 -0.4816 -0.8060
11953SOL     OW42204   8.728   6.946   9.010 -0.1100 -0.1000 -0.1939
11953SOL    HW142205   8.634   6.961   9.017 -0.0749 -0.4256  1.1544
11953SOL    HW242206   8.763   6.969   9.096  1.2384  1.3148 -1.0472
11954SOL     OW42207   1.959   1.664   6.633 -0.5688  0.1209  0.4084
11954SOL    HW142208   1.888   1.710   6.586  0.2340 -0.4404 -1.4458
11954SOL    HW242209   1.987   1.595   6.572 -0.2146 -1.3841  2.2125
11955SOL     OW42210   7.750   1.291   4.780  1.0063 -0.0771  0.5362
11955SOL    HW142211   7.740   1.291   4.875  0.7253 -1.3128  0.5288
11955SOL    HW242212   7.713   1.207   4.752  1.0358  0.2891 -0.6722
11956SOL     OW42213   8.296   2.894   7.203  0.6597 -0.7151  0.4472
11956SOL    HW142214   8.389   2.886   7.184  0.6039  1.2793 -0.9352
11956SOL    HW242215   8.266   2.968   7.150 -2.1114 -2.3906 -0.5670
11957SOL     OW42216   8.283   5.554   0.286  0.0038  0.3736 -0.1355
11957SOL    HW142217   8.311   5.572   0.197  0.0789 -0.0308 -0.1928
11957SOL    HW242218   8.188   5.542   0.279  0.2169 -1.3756 -0.4461
11958SOL     OW42219   4.838   6.139   4.007 -0.4938  0.3188  0.2660
11958SOL    HW142220   4.877   6.184   3.932  2.0163 -0.6645  0.8900
11958SOL    HW242221   4.753   6.183   4.019  0.2502  2.4037 -1.3699
11959SOL     OW42222   5.141   1.672   2.644 -0.5195 -0.5175  0.4130
11959SOL    HW142223   5.161   1.605   2.579 -0.7884 -1.7134  1.5192
11959SOL    HW242224   5.046   1.682   2.640 -0.5522 -0.6880  0.6852
11960SOL     OW42225   6.695   2.004   5.918  0.1636  0.1363 -0.3106
11960SOL    HW142226   6.721   2.096   5.919  0.3493  0.0871  1.4420
11960SOL    HW242227   6.611   2.004   5.870  0.2066  1.1873 -0.4141
11961SOL     OW42228   6.448   2.601   3.934  0.3900 -0.3142  0.3408
11961SOL    HW142229   6.499   2.581   4.012 -0.9037  1.2853  1.6806
11961SOL    HW242230   6.398   2.522   3.916 -0.3594 -0.2572  2.0365
11962SOL     OW42231   3.565   0.812   6.701  0.3921  0.4926  0.0664
11962SOL    HW142232   3.490   0.869   6.718 -0.5725 -0.7630  0.1509
11962SOL    HW242233   3.568   0.802   6.606 -0.0747 -0.1154  0.1076
11963SOL     OW42234   2.337   4.118   8.466  0.5288 -0.1375  0.0312
11963SOL    HW142235   2.424   4.092   8.433  0.1530 -0.4812 -0.7286
11963SOL    HW242236   2.336   4.213   8.457  1.1055 -0.0607  0.7545
11964SOL     OW42237   8.331   6.063   0.746 -0.1054 -0.0660 -0.2416
11964SOL    HW142238   8.389   6.139   0.746 -1.0005  0.6835  1.6357
11964SOL    HW242239   8.376   5.999   0.801 -0.2790 -0.0971 -0.1330
11965SOL     OW42240   8.099   1.369   3.732 -0.7860 -0.4893 -0.2619
11965SOL    HW142241   8.056   1.346   3.649 -1.6718 -0.0219  0.0575
11965SOL    HW242242   8.039   1.430   3.774  0.0272 -0.1078  0.3711
11966SOL     OW42243   1.145   7.250   8.839 -0.4484  0.4230 -0.0787
11966SOL    HW142244   1.237   7.265   8.818  0.0882 -1.4767  0.6354
11966SOL    HW242245   1.107   7.214   8.759  0.3029 -1.8823  0.5089
11967SOL     OW42246   8.999   3.762   6.163  0.3365  0.5969  0.3172
11967SOL    HW142247   9.059   3.836   6.166  1.0089  0.1709 -1.3728
11967SOL    HW242248   9.022   3.709   6.239  1.2605  1.0815  0.3832
11968SOL     OW42249   0.783   6.516   7.086  0.0389  1.1081 -0.6846
11968SOL    HW142250   0.830   6.446   7.131 -0.3265 -0.1567 -2.1986
11968SOL    HW242251   0.711   6.539   7.146  0.6280  0.7787  0.1724
11969SOL     OW42252   2.286   5.349   3.748  0.0968  0.7019 -0.4568
11969SOL    HW142253   2.272   5.303   3.665  0.4060 -0.0057 -0.1300
11969SOL    HW242254   2.244   5.293   3.813 -1.4867  2.0106 -0.2944
11970SOL     OW42255   0.502   2.621   7.777 -0.5012 -0.1780  0.6576
11970SOL    HW142256   0.462   2.632   7.691  2.3520 -1.9599 -1.0840
11970SOL    HW242257   0.581   2.570   7.760  1.2313  1.0219  4.1000
11971SOL     OW42258   4.892   1.069   5.454  0.1584  0.4096  0.3841
11971SOL    HW142259   4.902   1.164   5.468  1.4541  0.2923  0.3790
11971SOL    HW242260   4.924   1.055   5.365  0.3790 -0.0918  0.5411
11972SOL     OW42261   3.049   6.114   0.685 -0.2588 -0.1300 -0.4262
11972SOL    HW142262   3.076   6.183   0.745 -1.6554 -0.5382  0.7296
11972SOL    HW242263   3.126   6.060   0.674  0.0698  0.0435  0.9003
11973SOL     OW42264   3.408   4.141   8.940  0.2215 -0.2721 -0.1398
11973SOL    HW142265   3.356   4.216   8.968  0.3426  0.0475 -0.7383
11973SOL    HW242266   3.498   4.166   8.961  0.4080  0.3558 -1.6002
11974SOL     OW42267   5.560   5.923   6.331 -0.0256  0.3237 -0.1699
11974SOL    HW142268   5.581   6.016   6.341  1.1553 -0.1062  1.8008
11974SOL    HW242269   5.512   5.900   6.410  0.3650 -0.9114 -0.2622
11975SOL     OW42270   8.632   3.994   0.333 -0.1080 -0.0142  0.1116
11975SOL    HW142271   8.601   4.006   0.244  0.9938 -2.0396 -0.6247
11975SOL    HW242272   8.554   3.975   0.385 -0.5082 -2.1074 -1.1230
11976SOL     OW42273   7.551   0.413   4.195  0.1341 -0.2793 -0.3683
11976SOL    HW142274   7.565   0.474   4.267  0.9510 -0.5002 -0.3332
11976SOL    HW242275   7.557   0.468   4.116 -1.8339  0.1652 -0.2695
11977SOL     OW42276   2.930   1.660   4.228  0.0621  0.2854  0.0399
11977SOL    HW142277   2.928   1.633   4.136  0.4932  0.0026  0.1145
11977SOL    HW242278   2.911   1.754   4.225 -1.1496  0.0512 -0.2373
11978SOL     OW42279   6.420   2.265   6.021  0.3608 -0.5372  0.1645
11978SOL    HW142280   6.436   2.205   6.093  1.9538 -1.1813 -0.6805
11978SOL    HW242281   6.345   2.228   5.975  2.0985 -2.7202 -1.1153
11979SOL     OW42282   1.612   0.951   4.093  0.4698  0.5111 -0.6494
11979SOL    HW142283   1.530   0.996   4.112  0.9764  1.6493 -1.0722
11979SOL    HW242284   1.586   0.862   4.071 -0.5336  0.4814  0.5586
11980SOL     OW42285   2.991   6.216   0.462  0.0623 -0.0259 -0.0194
11980SOL    HW142286   2.942   6.152   0.411  1.0450 -0.0608 -0.9675
11980SOL    HW242287   3.014   6.169   0.543  0.9800 -0.9817 -0.8024
11981SOL     OW42288   0.540   3.700   6.208  0.0730 -0.1245  0.0683
11981SOL    HW142289   0.527   3.686   6.301 -3.2323  1.0992 -0.0999
11981SOL    HW242290   0.515   3.617   6.167 -0.4996  0.0051  0.1554
11982SOL     OW42291   0.511   6.460   8.610  0.6313 -0.2697  0.1380
11982SOL    HW142292   0.505   6.540   8.559  0.4020  0.0846  0.7069
11982SOL    HW242293   0.440   6.404   8.577  1.4090 -0.6412 -0.9326
11983SOL     OW42294   3.937   1.525   1.808 -0.1971 -0.1588 -0.1201
11983SOL    HW142295   4.021   1.556   1.840 -0.1399 -1.5711  1.2607
11983SOL    HW242296   3.943   1.430   1.814 -1.1728 -0.3752 -1.9552
11984SOL     OW42297   4.964   3.565   2.488 -0.5297  0.0335  0.5343
11984SOL    HW142298   4.948   3.609   2.404  0.7046 -0.3677  0.0614
11984SOL    HW242299   4.926   3.478   2.476  0.0625 -0.1864  0.2036
11985SOL     OW42300   3.437   0.469   0.429  0.2632  0.1733  0.3376
11985SOL    HW142301   3.381   0.546   0.432 -2.5797 -1.7537  0.8989
11985SOL    HW242302   3.444   0.447   0.336  1.7717  1.5010  0.1046
11986SOL     OW42303   2.228   6.575   5.931 -0.2190 -0.1735 -0.0023
11986SOL    HW142304   2.213   6.611   5.844  0.5136 -0.1858 -0.1395
11986SOL    HW242305   2.320   6.551   5.931 -0.3178 -0.5666  0.6343
11987SOL     OW42306   1.176   6.686   1.535 -0.3322  0.2420  0.1793
11987SOL    HW142307   1.138   6.734   1.608 -0.6177  0.1660  0.0811
11987SOL    HW242308   1.132   6.720   1.458  0.2348  0.5869  0.0009
11988SOL     OW42309   2.536   8.079   3.331  0.6444  0.1364 -0.0208
11988SOL    HW142310   2.507   8.132   3.256  0.3345 -0.2601 -0.1835
11988SOL    HW242311   2.619   8.040   3.303  0.4084 -0.2046 -0.2500
11989SOL     OW42312   5.894   6.719   9.230 -0.2073  0.8206 -0.5676
11989SOL    HW142313   5.975   6.679   9.198 -0.1096  0.0936  0.5348
11989SOL    HW242314   5.890   6.695   9.323 -1.5613  1.0638 -0.5381
11990SOL     OW42315   3.340   1.606   0.149  0.4042 -0.2595 -0.2659
11990SOL    HW142316   3.374   1.569   0.231 -2.3428 -0.3294  0.9463
11990SOL    HW242317   3.354   1.538   0.084  3.3385  0.0795 -0.1093
11991SOL     OW42318   1.916   7.659   8.413 -0.6333  0.3090 -1.2590
11991SOL    HW142319   1.848   7.671   8.346 -1.3161 -1.3237 -0.9183
11991SOL    HW242320   1.957   7.575   8.390 -0.2707  0.1682 -0.1475
11992SOL     OW42321   1.261   7.841   0.173  0.0693 -0.1372  0.3709
11992SOL    HW142322   1.290   7.907   0.109  0.5553  0.0088  0.7387
11992SOL    HW242323   1.296   7.871   0.256  1.7063 -1.7058  0.3080
11993SOL     OW42324   8.661   0.316   6.544 -0.2222 -0.1334 -0.1777
11993SOL    HW142325   8.640   0.260   6.618 -2.2273  0.3250 -0.3380
11993SOL    HW242326   8.750   0.292   6.519 -0.1172 -1.4271  1.3469
11994SOL     OW42327   2.803   6.258   2.154  0.0839  0.1145 -0.1106
11994SOL    HW142328   2.786   6.293   2.241 -0.1207  0.3225 -0.2327
11994SOL    HW242329   2.720   6.269   2.108 -0.3272 -1.4606  0.1659
11995SOL     OW42330   4.032   6.381   3.169 -0.5984 -0.6668  0.0596
11995SOL    HW142331   3.958   6.409   3.222 -0.9156 -1.4465  0.0406
11995SOL    HW242332   4.031   6.286   3.174  0.8094 -0.6699  0.5959
11996SOL     OW42333   1.274   3.773   9.116 -0.4920 -0.1765  0.1063
11996SOL    HW142334   1.317   3.823   9.186 -0.5963 -0.1333  0.1393
11996SOL    HW242335   1.263   3.685   9.153  1.6889 -0.8583 -0.7199
11997SOL     OW42336   4.710   8.763   1.336 -0.3394  0.0155  0.0784
11997SOL    HW142337   4.780   8.823   1.309  0.1693 -0.6652 -0.1446
11997SOL    HW242338   4.755   8.689   1.375 -0.8175 -1.2197 -1.5834
11998SOL     OW42339   2.940   0.874   5.437  0.2298  0.2716  0.3665
11998SOL    HW142340   2.880   0.843   5.369 -0.7082  1.1395  0.7588
11998SOL    HW242341   3.015   0.909   5.389  0.4731 -0.9098 -0.1306
11999SOL     OW42342   4.761   2.240   5.116 -0.4614  0.0915 -0.2345
11999SOL    HW142343   4.694   2.258   5.181  0.4107  2.0989  0.1711
11999SOL    HW242344   4.833   2.201   5.165 -0.7496 -0.7157 -0.4348
12000SOL     OW42345   4.097   4.239   4.579 -0.1622 -0.2491 -0.1338
12000SOL    HW142346   4.036   4.181   4.534 -2.1718 -0.2228  2.3575
12000SOL    HW242347   4.146   4.181   4.638 -0.7712  0.2630  0.9042
12001SOL     OW42348   9.179   0.912   4.438 -0.3260 -0.2256 -0.2582
12001SOL    HW142349   9.109   0.916   4.373 -0.0834  2.5665 -0.4686
12001SOL    HW242350   9.134   0.905   4.522 -0.7360 -0.7448 -0.5126
12002SOL     OW42351   3.941   1.878   2.950 -0.1184 -0.2775  0.2070
12002SOL    HW142352   4.024   1.924   2.968 -0.8294  0.8762  0.6695
12002SOL    HW242353   3.946   1.799   3.003  1.0933 -0.7138 -0.5057
12003SOL     OW42354   5.270   5.318   5.647 -0.0700  0.1807 -0.5257
12003SOL    HW142355   5.360   5.345   5.627 -0.0288  0.4059 -0.0446
12003SOL    HW242356   5.279   5.263   5.724 -0.3656  0.3371 -0.3799
12004SOL     OW42357   1.055   0.857   0.708  0.2004  0.4189 -0.3287
12004SOL    HW142358   0.976   0.857   0.654  0.0729  0.1867 -0.1457
12004SOL    HW242359   1.031   0.910   0.785  0.1104  0.0726 -0.1150
12005SOL     OW42360   4.613   5.746   6.866  0.5534  0.4323 -0.9728
12005SOL    HW142361   4.630   5.730   6.773  2.3514 -0.6200 -0.5237
12005SOL    HW242362   4.656   5.673   6.911 -2.3013 -0.4236  0.6077
12006SOL     OW42363   3.790   0.088   1.654  0.0332 -0.0195 -0.5377
12006SOL    HW142364   3.741   0.124   1.580  2.1696 -0.5348 -2.3068
12006SOL    HW242365   3.739   0.011   1.681 -0.3350 -0.3544 -2.0977
12007SOL     OW42366   4.723   2.809   4.858 -0.2271 -0.3571  0.7586
12007SOL    HW142367   4.785   2.836   4.925  0.6604  0.5757 -0.4054
12007SOL    HW242368   4.637   2.824   4.898  0.2630  1.3023  1.2794
12008SOL     OW42369   0.356   4.917   6.754  0.0258  0.2428  0.4725
12008SOL    HW142370   0.328   4.977   6.823  0.2576  0.0253  0.7530
12008SOL    HW242371   0.275   4.883   6.717 -0.1116  0.7928  0.2550
12009SOL     OW42372   3.832   6.833   5.025  0.3407 -0.4883 -0.1978
12009SOL    HW142373   3.796   6.782   5.097  0.1063  2.3745  1.8856
12009SOL    HW242374   3.922   6.802   5.016  0.3206 -1.0276  1.2484
12010SOL     OW42375   0.151   6.825   6.232  0.1001  0.3931 -0.5584
12010SOL    HW142376   0.105   6.798   6.311 -0.5615  1.1693 -0.6722
12010SOL    HW242377   0.084   6.866   6.177  0.8430  1.2182 -0.8822
12011SOL     OW42378   5.678   0.984   0.635 -0.2239  0.0177  0.5193
12011SOL    HW142379   5.635   1.029   0.708  1.9266 -1.3288  2.7899
12011SOL    HW242380   5.752   1.040   0.613 -1.2685  0.7786 -1.2179
12012SOL     OW42381   5.388   8.204   0.527 -0.1347  0.0593  0.1881
12012SOL    HW142382   5.314   8.229   0.471 -0.5238  2.2368  1.5493
12012SOL    HW242383   5.464   8.211   0.470 -0.7329  0.1434 -0.6201
12013SOL     OW42384   4.016   9.189   8.396 -0.0179 -0.0245 -0.0504
12013SOL    HW142385   3.945   9.245   8.427 -1.5641 -2.3445  0.8328
12013SOL    HW242386   4.013   9.197   8.301 -0.1942  1.3473  0.0465
12014SOL     OW42387   0.031   2.449   4.529 -0.2067  0.7107 -0.0750
12014SOL    HW142388   0.081   2.531   4.528  0.3588  0.3638 -0.2119
12014SOL    HW242389   0.064   2.401   4.605  0.4839 -0.0205 -0.8280
12015SOL     OW42390   3.788   3.488   6.416  0.1630  0.6068 -0.2002
12015SOL    HW142391   3.697   3.459   6.425 -0.1234  1.4850 -0.1800
12015SOL    HW242392   3.839   3.407   6.416 -0.6084  0.1105 -0.0989
12016SOL     OW42393   4.368   2.586   6.471 -0.0514  0.0394 -0.2321
12016SOL    HW142394   4.418   2.647   6.416  1.5141 -0.1436  0.9276
12016SOL    HW242395   4.287   2.633   6.490 -0.8987 -0.0880 -3.0643
12017SOL     OW42396   5.514   4.040   6.572 -0.4231  0.1931  0.6066
12017SOL    HW142397   5.500   3.967   6.632 -0.5979  0.7999  1.3234
12017SOL    HW242398   5.530   4.115   6.630 -1.0573  0.8809 -0.0922
12018SOL     OW42399   0.916   3.093   1.009  0.5887  0.5363  0.1093
12018SOL    HW142400   0.976   3.149   0.959 -0.0934 -2.5980 -4.9549
12018SOL    HW242401   0.835   3.144   1.014  1.4919  2.0073  0.5908
12019SOL     OW42402   0.233   8.050   9.037  0.1334  0.4677 -0.0743
12019SOL    HW142403   0.195   8.101   9.108  0.2497  1.1538 -0.4938
12019SOL    HW242404   0.188   8.082   8.959  0.0599 -0.2231 -0.3181
12020SOL     OW42405   3.361   2.868   4.317 -0.2132  0.6997  0.3095
12020SOL    HW142406   3.351   2.776   4.343 -1.4362  0.8121  0.3057
12020SOL    HW242407   3.443   2.895   4.358  1.2435 -0.9454 -1.3690
12021SOL     OW42408   6.608   7.018   4.234  0.1825  0.1014  0.3084
12021SOL    HW142409   6.572   6.961   4.167 -0.7264  0.1320  0.7561
12021SOL    HW242410   6.569   6.987   4.316 -0.1378  1.1906  0.5878
12022SOL     OW42411   8.068   2.905   6.309  0.7113  0.0574 -0.1798
12022SOL    HW142412   8.134   2.836   6.320 -0.1005 -0.6647  0.2212
12022SOL    HW242413   8.000   2.866   6.255 -0.6050 -0.0778  1.4770
12023SOL     OW42414   4.900   1.993   4.576  0.2188 -0.1807  0.0869
12023SOL    HW142415   4.964   1.930   4.542 -0.6754 -1.1349  0.1382
12023SOL    HW242416   4.934   2.078   4.547  2.2466 -0.5008  1.2791
12024SOL     OW42417   4.333   5.602   1.211 -0.7100 -0.0273  0.7875
12024SOL    HW142418   4.353   5.511   1.192  0.4956  0.1883  0.9661
12024SOL    HW242419   4.385   5.652   1.147 -1.5269  0.5320  0.5434
12025SOL     OW42420   0.413   2.816   2.147 -0.3469  0.1712 -0.1577
12025SOL    HW142421   0.458   2.854   2.072 -1.3381 -0.8849 -1.3226
12025SOL    HW242422   0.339   2.874   2.164  0.6775  1.2214  0.9808
12026SOL     OW42423   0.444   8.529   6.940 -0.0946 -0.1246 -0.0440
12026SOL    HW142424   0.352   8.557   6.934  0.0619  0.6559  0.8254
12026SOL    HW242425   0.492   8.610   6.955  0.7241 -0.5484 -0.3382
12027SOL     OW42426   4.756   1.168   6.394 -0.5344  0.2355  0.4040
12027SOL    HW142427   4.843   1.129   6.407 -0.5222  0.3990  0.8174
12027SOL    HW242428   4.709   1.104   6.340 -0.1080  0.2131  0.0485
12028SOL     OW42429   7.325   6.056   7.969 -0.3668 -0.3871  0.3429
12028SOL    HW142430   7.348   6.103   7.889 -1.9468 -1.7028 -0.9464
12028SOL    HW242431   7.392   6.082   8.032  0.0997  1.8251 -0.9479
12029SOL     OW42432   6.849   0.511   3.227  0.2989 -0.1842  0.8422
12029SOL    HW142433   6.911   0.440   3.208 -1.5357 -1.9987  1.2895
12029SOL    HW242434   6.842   0.560   3.145  1.7411 -0.3758  0.5766
12030SOL     OW42435   4.310   8.976   3.504  0.2579 -0.0615  0.1218
12030SOL    HW142436   4.239   8.990   3.441  0.2224  1.0246  0.3906
12030SOL    HW242437   4.382   9.031   3.472  0.3318  0.2937  0.8757
12031SOL     OW42438   8.698   2.625   6.233 -0.5770  0.5142  0.2774
12031SOL    HW142439   8.779   2.655   6.273  0.6719  0.5554 -2.0633
12031SOL    HW242440   8.671   2.698   6.176 -0.5254 -0.6227 -1.2863
12032SOL     OW42441   3.157   3.333   3.544 -0.1745  0.0949  0.1188
12032SOL    HW142442   3.085   3.374   3.495 -1.2431 -0.1467  1.4127
12032SOL    HW242443   3.228   3.396   3.539 -0.2101  0.0381 -1.7855
12033SOL     OW42444   0.829   2.111   2.164  0.2054  0.2990  0.3991
12033SOL    HW142445   0.769   2.126   2.091  0.1566 -1.9662 -0.0915
12033SOL    HW242446   0.913   2.095   2.122  0.9312  2.1356  1.0357
12034SOL     OW42447   1.652   1.843   1.491  0.4512  0.1039  0.1824
12034SOL    HW142448   1.693   1.927   1.512 -0.3008  0.4715  0.2148
12034SOL    HW242449   1.694   1.817   1.409  0.9809  0.3115  0.3809
12035SOL     OW42450   8.152   3.697   7.318  0.2417 -0.3891  0.3621
12035SOL    HW142451   8.146   3.635   7.245 -2.6552  0.1696  0.0180
12035SOL    HW242452   8.203   3.651   7.385  4.2933 -0.4378 -2.3749
12036SOL     OW42453   1.746   3.538   1.491 -0.5087 -0.5927 -0.2324
12036SOL    HW142454   1.699   3.463   1.456 -0.4572 -0.3194 -0.9108
12036SOL    HW242455   1.800   3.569   1.418  0.0740 -0.3771  0.2736
12037SOL     OW42456   7.518   7.376   2.175  0.1584 -0.1172  0.4498
12037SOL    HW142457   7.613   7.385   2.185 -0.1628  1.2544  3.1774
12037SOL    HW242458   7.482   7.454   2.217 -2.2307 -1.4544  1.0686
12038SOL     OW42459   1.797   2.277   7.226  0.0482 -0.7917  0.0680
12038SOL    HW142460   1.718   2.223   7.228 -0.3974 -0.2479 -1.4702
12038SOL    HW242461   1.848   2.242   7.152  0.4120 -0.0061 -0.0623
12039SOL     OW42462   9.072   2.821   0.977 -0.8485  0.3835 -0.7240
12039SOL    HW142463   9.108   2.899   1.021 -0.4675 -0.3800  0.3692
12039SOL    HW242464   8.979   2.822   1.000 -0.2709 -1.2731  2.2425
12040SOL     OW42465   4.442   6.412   6.992 -0.1344 -0.1897  0.2753
12040SOL    HW142466   4.422   6.370   7.076  2.2722  0.2590  1.1531
12040SOL    HW242467   4.393   6.494   6.993 -1.0031 -0.7031  0.7324
12041SOL     OW42468   7.721   1.030   4.590  0.2758 -0.0765 -0.4849
12041SOL    HW142469   7.792   1.043   4.527  0.7101 -0.7455 -0.1438
12041SOL    HW242470   7.644   1.064   4.546  0.5036 -0.8566 -1.5453
12042SOL     OW42471   3.698   0.028   1.212  0.2919  0.0316  0.0618
12042SOL    HW142472   3.746  -0.045   1.175  0.6766 -1.3493  2.9855
12042SOL    HW242473   3.607   0.012   1.186  0.5118 -0.9244 -0.1716
12043SOL     OW42474   5.860   8.373   5.859  0.2918 -0.0943  0.7597
12043SOL    HW142475   5.823   8.426   5.930  1.2248 -0.3192  1.4339
12043SOL    HW242476   5.801   8.388   5.785 -0.4300  0.5264  1.4369
12044SOL     OW42477   4.806   5.980   6.162 -0.2871 -0.3083  0.2068
12044SOL    HW142478   4.800   5.990   6.067 -1.0788  0.6826  0.3409
12044SOL    HW242479   4.816   6.070   6.195  1.7954 -0.7828  0.9639
12045SOL     OW42480   5.184   5.984   2.802  0.1810  0.3331  0.0394
12045SOL    HW142481   5.233   5.981   2.719 -1.4362  0.7115 -0.9818
12045SOL    HW242482   5.159   6.076   2.811 -1.7736 -0.1022 -0.3905
12046SOL     OW42483   1.599   0.136   5.249  0.5218  0.1767 -0.6082
12046SOL    HW142484   1.607   0.041   5.243  2.3919  0.1064  1.6678
12046SOL    HW242485   1.504   0.152   5.253  0.1167 -1.4294 -2.3691
12047SOL     OW42486   5.040   6.682   8.791  0.2368  0.2640 -0.1603
12047SOL    HW142487   5.048   6.750   8.857 -0.2188 -1.1532  1.4143
12047SOL    HW242488   4.948   6.655   8.793  0.6733 -1.3144  0.2304
12048SOL     OW42489   3.713   2.492   3.179  0.3070 -0.9412 -0.1671
12048SOL    HW142490   3.720   2.397   3.171 -0.1447 -0.9818 -0.1072
12048SOL    HW242491   3.666   2.520   3.101 -1.6762 -1.0423  0.9020
12049SOL     OW42492   8.303   4.530   3.347 -0.2206  0.1224 -0.0796
12049SOL    HW142493   8.334   4.550   3.435 -0.1988 -0.0912 -0.0361
12049SOL    HW242494   8.308   4.613   3.299 -1.2868  0.4933  0.4305
12050SOL     OW42495   5.275   4.508   0.385  0.3484  0.2121  0.2442
12050SOL    HW142496   5.223   4.524   0.306  0.7647  2.5741  0.3827
12050SOL    HW242497   5.356   4.468   0.352  0.3956  0.8991 -0.5049
12051SOL     OW42498   2.967   4.463   6.025 -0.2379 -0.0801 -0.2693
12051SOL    HW142499   2.918   4.381   6.017 -0.2140 -0.0424 -0.8354
12051SOL    HW242500   2.900   4.531   6.021 -0.4887 -0.0977  2.1646
12052SOL     OW42501   6.860   8.342   1.815  0.4374  0.4206 -0.3307
12052SOL    HW142502   6.809   8.380   1.887 -0.4673  0.5498 -1.0169
12052SOL    HW242503   6.946   8.382   1.822  0.3937  0.3413  0.7529
12053SOL     OW42504   1.799   3.221   6.112  0.8281 -0.2260 -0.4751
12053SOL    HW142505   1.745   3.225   6.191 -0.9066 -1.8407 -1.4910
12053SOL    HW242506   1.813   3.313   6.088  1.1684  0.2968  1.4975
12054SOL     OW42507   0.057   4.145   7.287 -0.0060  0.0188  0.0743
12054SOL    HW142508   0.025   4.058   7.262 -0.5886  0.3885 -0.4991
12054SOL    HW242509   0.141   4.128   7.329 -1.1499 -1.0256  2.0693
12055SOL     OW42510   2.964   0.287   9.051 -0.4398  0.1175  0.1139
12055SOL    HW142511   3.024   0.212   9.044 -0.8603 -0.4144  1.7632
12055SOL    HW242512   2.885   0.251   9.091 -1.0415  1.2609  0.0066
12056SOL     OW42513   0.335   4.767   7.186 -0.7886  0.3465 -0.0937
12056SOL    HW142514   0.381   4.757   7.103  0.8527 -1.0846  0.9093
12056SOL    HW242515   0.254   4.813   7.164  0.2857  1.3395 -2.2292
12057SOL     OW42516   1.069   5.964   7.377  0.4847 -0.1863  0.6776
12057SOL    HW142517   0.976   5.952   7.358  0.4935  0.9985 -0.2518
12057SOL    HW242518   1.072   6.039   7.436  0.8559  0.0251  0.3999
12058SOL     OW42519   7.728   3.280   6.797 -0.9283  0.1916 -0.0323
12058SOL    HW142520   7.637   3.287   6.767 -0.7130  0.0949 -0.7272
12058SOL    HW242521   7.744   3.361   6.844 -0.9380  0.8333 -1.1192
12059SOL     OW42522   1.989   5.584   6.761 -0.8198 -0.1203  0.4388
12059SOL    HW142523   1.990   5.676   6.787 -0.8577 -0.0280  0.1153
12059SOL    HW242524   2.060   5.577   6.696 -1.5691 -0.0651 -0.3994
12060SOL     OW42525   8.724   8.664   2.952  0.1545  0.1489  0.0987
12060SOL    HW142526   8.799   8.605   2.955 -0.1750 -0.2502  1.0710
12060SOL    HW242527   8.720   8.701   3.040 -1.3744 -0.5983  0.3779
12061SOL     OW42528   4.256   3.094   5.915 -0.3226  0.0189 -0.2670
12061SOL    HW142529   4.189   3.063   5.853  0.3923 -1.7958 -0.1632
12061SOL    HW242530   4.219   3.077   6.001 -0.9465  1.7630 -0.1353
12062SOL     OW42531   5.307   4.230   1.336 -0.4027 -0.0878  0.7256
12062SOL    HW142532   5.250   4.258   1.407 -1.2781  0.0032  0.0012
12062SOL    HW242533   5.321   4.137   1.351 -1.6999 -0.3694  0.2637
12063SOL     OW42534   9.133   4.078   0.114  0.3466  0.1332 -0.0831
12063SOL    HW142535   9.152   3.992   0.152  0.4913  0.1796 -0.0518
12063SOL    HW242536   9.216   4.126   0.120  0.5200 -0.0451 -0.9333
12064SOL     OW42537   4.670   5.980   9.231  0.2335 -0.4537  0.0542
12064SOL    HW142538   4.619   5.969   9.150 -0.3954 -1.1755  0.5306
12064SOL    HW242539   4.746   5.923   9.219  0.7495  0.3229 -0.4935
12065SOL     OW42540   7.937   2.002   1.041 -0.2734 -0.3925 -0.4311
12065SOL    HW142541   7.980   1.984   1.125  0.5803  1.5313 -0.4087
12065SOL    HW242542   7.864   1.940   1.038  1.0748 -2.1336  0.6169
12066SOL     OW42543   6.442   2.005   1.374  0.0188  0.3154  0.3627
12066SOL    HW142544   6.502   1.931   1.376  1.5493  1.5271  0.8982
12066SOL    HW242545   6.424   2.025   1.466  0.0160  0.9298  0.2303
12067SOL     OW42546   0.962   1.194   0.986  0.0482  0.5233  0.1899
12067SOL    HW142547   0.951   1.100   0.970  1.5980  0.4425 -0.6600
12067SOL    HW242548   1.032   1.199   1.051  2.8452  1.0569 -2.6024
12068SOL     OW42549   9.173   1.789   8.179  0.2395  0.4216 -0.1343
12068SOL    HW142550   9.256   1.765   8.220  0.0949  0.3851  0.1344
12068SOL    HW242551   9.179   1.884   8.169  0.4369  0.3848 -0.3887
12069SOL     OW42552   1.805   8.343   6.073 -0.0371  0.2641  0.2901
12069SOL    HW142553   1.901   8.342   6.066 -0.0611  1.6921 -0.5930
12069SOL    HW242554   1.789   8.343   6.167  0.8713  1.0937  0.4636
12070SOL     OW42555   1.124   0.727   7.457 -0.3575 -0.2667  0.6930
12070SOL    HW142556   1.088   0.801   7.506 -1.1463 -0.2350  0.0909
12070SOL    HW242557   1.201   0.700   7.507 -0.1544  0.8542  1.0120
12071SOL     OW42558   5.852   1.156   2.009 -0.0872  0.6810 -0.0536
12071SOL    HW142559   5.906   1.174   1.932  1.1774  2.0100  1.0780
12071SOL    HW242560   5.788   1.092   1.980  1.0888  0.2914 -1.8911
12072SOL     OW42561   4.248   6.666   1.467 -0.2798  0.0423 -0.0984
12072SOL    HW142562   4.164   6.638   1.504 -0.8071  0.5362 -0.8681
12072SOL    HW242563   4.229   6.676   1.373  0.4804  0.7741 -0.1774
12073SOL     OW42564   4.750   2.125   6.047 -0.2188 -0.1851 -0.3656
12073SOL    HW142565   4.675   2.069   6.067 -0.8284  0.3798 -1.0385
12073SOL    HW242566   4.746   2.194   6.114 -0.0591 -0.3783 -0.1549
12074SOL     OW42567   0.421   2.541   0.928 -0.1756 -0.1665  0.5783
12074SOL    HW142568   0.388   2.517   1.014  0.6284  1.0062  1.2466
12074SOL    HW242569   0.387   2.474   0.869 -1.3129 -0.6017  1.6922
12075SOL     OW42570   2.525   3.528   8.855  0.2031  0.2282  0.0459
12075SOL    HW142571   2.583   3.556   8.926  1.3142  0.5490 -0.9453
12075SOL    HW242572   2.471   3.459   8.893  0.8017  0.3689  1.1870
12076SOL     OW42573   2.089   0.997   6.931  0.1930 -0.1313  0.1900
12076SOL    HW142574   2.027   1.005   7.003  0.1884 -1.0871  0.2999
12076SOL    HW242575   2.171   1.033   6.966 -0.2675  1.1340  0.0441
12077SOL     OW42576   2.455   6.616   5.352  0.0065  0.2656  0.3035
12077SOL    HW142577   2.367   6.591   5.380 -0.4477 -0.3935 -1.5412
12077SOL    HW242578   2.470   6.702   5.392 -2.5590  1.6338 -1.4033
12078SOL     OW42579   3.379   1.975   2.188  0.5824  0.0332 -0.1172
12078SOL    HW142580   3.400   1.918   2.114 -1.0920 -0.2162 -0.4389
12078SOL    HW242581   3.455   1.968   2.246  1.5236 -0.4949 -1.3629
12079SOL     OW42582   4.809   0.792   5.493  0.0103 -0.9474  0.3001
12079SOL    HW142583   4.836   0.780   5.585  0.9064  0.5477  0.2657
12079SOL    HW242584   4.810   0.887   5.480  1.0705 -1.1697 -1.5958
12080SOL     OW42585   7.017   4.973   0.325  0.0622 -0.6421 -0.0768
12080SOL    HW142586   7.108   5.000   0.315 -0.3678  0.4595 -1.2396
12080SOL    HW242587   6.978   4.986   0.238 -1.8402  1.3698  0.9969
12081SOL     OW42588   2.451   3.625   6.714 -0.8337  0.0038 -0.6183
12081SOL    HW142589   2.503   3.563   6.663  0.5061  0.3464  0.2769
12081SOL    HW242590   2.475   3.711   6.681 -0.4352  0.1938  0.1413
12082SOL     OW42591   5.138   1.435   3.788  0.2943 -0.4719 -0.0184
12082SOL    HW142592   5.196   1.461   3.717 -0.7470  0.6252 -0.5086
12082SOL    HW242593   5.094   1.356   3.755 -0.9913  0.6404 -1.1087
12083SOL     OW42594   2.714   0.444   1.627 -0.8060 -0.3760  0.1921
12083SOL    HW142595   2.728   0.404   1.542  0.4084 -0.6170  0.4848
12083SOL    HW242596   2.651   0.387   1.671 -2.7057  0.5949 -1.0799
12084SOL     OW42597   3.914   3.197   3.277 -0.0878 -0.2119  0.4955
12084SOL    HW142598   3.949   3.141   3.346 -0.6362 -0.6505  0.4240
12084SOL    HW242599   3.833   3.155   3.251 -0.5490  0.6567  0.4906
12085SOL     OW42600   9.179   8.372   6.317  0.0857 -0.8246 -0.2274
12085SOL    HW142601   9.245   8.327   6.266  0.1407 -0.7578 -0.2157
12085SOL    HW242602   9.164   8.454   6.270 -0.3401 -1.0509 -0.4968
12086SOL     OW42603   3.480   6.345   0.623 -0.2697  0.2295 -0.2255
12086SOL    HW142604   3.452   6.300   0.544  1.6206 -0.9518 -0.2970
12086SOL    HW242605   3.490   6.276   0.688 -2.0511  1.2213  1.1627
12087SOL     OW42606   5.594   6.158   3.158  0.5767 -0.0193  0.1612
12087SOL    HW142607   5.520   6.099   3.169 -0.5590  1.2720 -0.2636
12087SOL    HW242608   5.554   6.242   3.137  2.1854  0.5102 -0.9767
12088SOL     OW42609   5.728   5.700   2.688  1.0593 -0.2279  0.2150
12088SOL    HW142610   5.651   5.643   2.693  0.6676  0.1711 -0.9009
12088SOL    HW242611   5.755   5.713   2.779  0.0439 -0.6927  0.5944
12089SOL     OW42612   8.821   4.758   2.851  0.3653 -0.0560 -0.5839
12089SOL    HW142613   8.880   4.770   2.777  0.5961 -1.0015 -0.5608
12089SOL    HW242614   8.739   4.728   2.812 -0.4330  2.1353 -0.7063
12090SOL     OW42615   0.580   7.953   4.653  0.5266  0.3341  0.2629
12090SOL    HW142616   0.508   7.970   4.593 -0.3759  1.6789  1.6488
12090SOL    HW242617   0.577   7.859   4.669 -1.3251  0.4436  0.7565
12091SOL     OW42618   2.820   3.963   0.859 -0.0538 -0.4279 -0.1970
12091SOL    HW142619   2.894   3.995   0.910 -0.0007 -0.6437 -0.1369
12091SOL    HW242620   2.845   3.874   0.834  0.0218 -0.2411 -0.8011
12092SOL     OW42621   4.200   4.498   6.763  0.0555  0.1264  0.4991
12092SOL    HW142622   4.138   4.470   6.830 -0.9449 -1.2782 -0.9638
12092SOL    HW242623   4.166   4.582   6.732 -0.9825 -0.5015 -0.0991
12093SOL     OW42624   5.919   8.640   1.946 -0.2925  0.4605  0.2310
12093SOL    HW142625   5.932   8.735   1.946  1.3550  0.2729 -0.3709
12093SOL    HW242626   6.002   8.605   1.915 -0.6828 -1.2187  0.9688
12094SOL     OW42627   6.224   4.444   6.788 -0.2227 -0.2936  0.0393
12094SOL    HW142628   6.316   4.419   6.778 -0.1956 -0.9268  1.4949
12094SOL    HW242629   6.207   4.503   6.715  1.4109  0.0403 -0.1196
12095SOL     OW42630   2.775   2.020   5.237  0.4131 -0.3353  0.0502
12095SOL    HW142631   2.772   2.007   5.143  0.5108  1.3459 -0.2069
12095SOL    HW242632   2.804   1.935   5.272  1.6323 -0.6067 -1.5231
12096SOL     OW42633   5.097   6.666   9.109  0.4179  0.2063 -0.4080
12096SOL    HW142634   5.056   6.751   9.124  0.4349  0.3815 -1.3088
12096SOL    HW242635   5.135   6.643   9.194 -1.2004  0.2069  0.3547
12097SOL     OW42636   8.650   7.447   7.909  0.1906  0.9609 -0.0145
12097SOL    HW142637   8.742   7.469   7.896  0.1240  0.8388 -0.7599
12097SOL    HW242638   8.603   7.510   7.855 -0.0790  0.0654 -0.8506
12098SOL     OW42639   7.700   4.580   4.541  0.1460 -0.1652 -0.1300
12098SOL    HW142640   7.721   4.560   4.449 -0.4308 -2.1477  0.1132
12098SOL    HW242641   7.786   4.590   4.583  0.4228  0.2671 -0.7736
12099SOL     OW42642   9.185   1.777   1.679  0.5715  0.4477 -0.1575
12099SOL    HW142643   9.277   1.760   1.702  0.6938 -0.6396 -1.3580
12099SOL    HW242644   9.190   1.826   1.596  0.0900 -2.4880 -2.0531
12100SOL     OW42645   0.875   0.745   6.167  0.3183 -0.5560  0.4417
12100SOL    HW142646   0.805   0.810   6.165 -0.8471 -1.7603  1.0915
12100SOL    HW242647   0.932   0.769   6.093  0.7015  2.0086  1.4589
12101SOL     OW42648   4.177   3.413   7.206  0.3537  0.3900  0.1140
12101SOL    HW142649   4.093   3.377   7.177 -1.2153  0.8318  3.5995
12101SOL    HW242650   4.223   3.338   7.245  1.7858  0.1084 -1.9282
12102SOL     OW42651   6.713   3.481   3.567  0.0403 -0.0553  0.1656
12102SOL    HW142652   6.777   3.543   3.532 -0.9259  0.8810  0.0136
12102SOL    HW242653   6.733   3.476   3.661  0.7988 -0.3484 -0.0035
12103SOL     OW42654   5.557   0.435   8.712  0.1246  0.3777 -0.3608
12103SOL    HW142655   5.608   0.399   8.785  0.0182  2.4866  0.8285
12103SOL    HW242656   5.622   0.478   8.656  0.1107 -0.5816 -1.1425
12104SOL     OW42657   3.500   3.899   2.541 -0.1803 -0.5413  0.0791
12104SOL    HW142658   3.417   3.942   2.560  0.0529 -0.2264  0.4133
12104SOL    HW242659   3.509   3.903   2.446  1.7844  3.9663  0.1944
12105SOL     OW42660   4.264   7.870   0.068 -0.3386  0.3155 -0.0903
12105SOL    HW142661   4.333   7.858   0.003 -0.2988 -1.4128  0.2149
12105SOL    HW242662   4.197   7.921   0.022  1.4768  2.8862 -0.0916
12106SOL     OW42663   6.550   0.426   5.053 -0.3195  0.6191  0.1057
12106SOL    HW142664   6.628   0.453   5.102  1.0847  0.7256 -2.0287
12106SOL    HW242665   6.504   0.508   5.033  1.0765  1.0188 -1.7845
12107SOL     OW42666   7.977   2.754   7.563 -0.4308  0.0711 -0.3938
12107SOL    HW142667   8.007   2.826   7.508 -1.4706  0.6265 -0.2527
12107SOL    HW242668   7.912   2.793   7.621 -0.9541 -0.9663 -0.2578
12108SOL     OW42669   9.134   8.040   6.460  0.4545  0.5293  0.4294
12108SOL    HW142670   9.067   8.000   6.516 -0.6512  0.2425 -1.0276
12108SOL    HW242671   9.091   8.118   6.425  1.0935  0.6543 -0.0871
12109SOL     OW42672   7.380   7.230   3.061 -0.4077  0.2514  0.0476
12109SOL    HW142673   7.313   7.195   3.120 -0.0411  0.2490  0.4691
12109SOL    HW242674   7.332   7.257   2.983 -0.8858  0.1525  0.3052
12110SOL     OW42675   8.107   0.931   8.575  0.2661  0.2568 -0.7305
12110SOL    HW142676   8.179   0.926   8.512  0.7141 -1.3669 -0.1441
12110SOL    HW242677   8.086   0.840   8.594 -0.6185  0.7135  0.6157
12111SOL     OW42678   3.112   0.499   6.133 -0.1002  0.2821  0.3880
12111SOL    HW142679   3.175   0.563   6.169 -1.4691  1.9488 -0.0459
12111SOL    HW242680   3.111   0.517   6.039 -0.2209 -0.6648  0.2052
12112SOL     OW42681   8.181   8.707   6.759  0.1641  0.5129  0.0215
12112SOL    HW142682   8.179   8.774   6.827 -1.1629 -0.9799  1.5500
12112SOL    HW242683   8.091   8.701   6.728  0.3606 -0.1894 -0.4420
12113SOL     OW42684   2.079   7.990   5.889  0.3219 -0.4067  0.0296
12113SOL    HW142685   2.138   8.064   5.876  0.7455 -0.8945 -0.9657
12113SOL    HW242686   1.994   8.021   5.857  0.2016  0.0515  0.7756
12114SOL     OW42687   1.603   5.360   4.306 -0.8640  0.1342  0.7687
12114SOL    HW142688   1.592   5.283   4.362  0.2061  0.2367  1.1319
12114SOL    HW242689   1.695   5.360   4.283 -1.5381 -0.9816 -2.5784
12115SOL     OW42690   6.195   3.792   7.728  0.9627  0.0200  0.0418
12115SOL    HW142691   6.242   3.833   7.656 -0.9658 -0.7901 -1.8157
12115SOL    HW242692   6.217   3.699   7.721 -1.9522 -0.6749 -1.9441
12116SOL     OW42693   0.540   1.583   8.454 -0.3811  0.4311 -0.2422
12116SOL    HW142694   0.485   1.646   8.407  0.7665  0.8668 -1.0732
12116SOL    HW242695   0.530   1.607   8.546 -0.1964  1.6737 -0.5165
12117SOL     OW42696   0.785   2.547   3.470 -0.2767  0.0147 -0.4359
12117SOL    HW142697   0.808   2.503   3.388 -1.0557  2.2114 -1.9014
12117SOL    HW242698   0.699   2.585   3.454 -1.4352 -1.2533  2.1743
12118SOL     OW42699   7.302   1.608   2.497 -0.0454 -0.1477  0.1955
12118SOL    HW142700   7.288   1.703   2.499 -0.4526 -0.1874 -0.4073
12118SOL    HW242701   7.372   1.592   2.560  0.4270  0.6220 -0.1240
12119SOL     OW42702   6.588   0.253   2.851 -0.4635 -0.3818  0.5897
12119SOL    HW142703   6.669   0.235   2.804 -1.1586  0.5874 -1.0992
12119SOL    HW242704   6.572   0.175   2.904  0.8248 -1.1691 -0.1350
12120SOL     OW42705   8.074   4.502   6.619  0.3447 -0.1303 -0.3940
12120SOL    HW142706   8.042   4.413   6.621  0.9518 -0.4634 -2.4569
12120SOL    HW242707   8.128   4.511   6.698  1.6325 -2.1663 -0.9629
12121SOL     OW42708   0.431   7.504   8.408 -0.7170  0.2674  0.1473
12121SOL    HW142709   0.355   7.559   8.421 -0.4797  0.4029  0.9833
12121SOL    HW242710   0.491   7.527   8.479 -0.6249 -1.0783  0.5444
12122SOL     OW42711   0.606   5.172   0.357  0.0746  0.5903  0.4504
12122SOL    HW142712   0.587   5.242   0.294  1.3711  2.2214  1.7815
12122SOL    HW242713   0.566   5.094   0.319  1.7121  1.2205 -2.9225
12123SOL     OW42714   5.684   7.782   1.145 -0.5896  0.4511  0.2649
12123SOL    HW142715   5.601   7.758   1.104 -0.3430  1.1564 -0.6702
12123SOL    HW242716   5.736   7.701   1.143 -1.9157 -0.5676  2.6535
12124SOL     OW42717   8.477   0.270   3.768  0.0193 -0.1605 -0.1353
12124SOL    HW142718   8.562   0.250   3.808 -1.2277 -0.9316  2.3539
12124SOL    HW242719   8.483   0.363   3.746  0.8473  0.3361  1.9267
12125SOL     OW42720   6.060   3.803   6.217  0.4184 -0.2674 -0.0933
12125SOL    HW142721   6.073   3.718   6.174 -0.4974 -0.5286  0.1085
12125SOL    HW242722   5.978   3.792   6.266  1.5867 -0.1152  2.0393
12126SOL     OW42723   1.105   5.866   1.444  0.4131  0.5799 -0.3120
12126SOL    HW142724   1.056   5.947   1.459 -0.2349  0.1737 -0.1932
12126SOL    HW242725   1.196   5.891   1.454  0.1678  1.0679  0.8192
12127SOL     OW42726   7.661   1.299   7.575  0.0828  0.0246  0.5372
12127SOL    HW142727   7.611   1.309   7.655  0.0222 -1.3272  0.6925
12127SOL    HW242728   7.728   1.234   7.596 -1.0350 -1.7153 -0.9865
12128SOL     OW42729   1.598   6.534   2.583 -0.0250 -0.4491 -0.8740
12128SOL    HW142730   1.544   6.605   2.616 -0.6297 -0.5379 -1.6507
12128SOL    HW242731   1.688   6.565   2.594 -0.2804  0.3459 -1.0217
12129SOL     OW42732   6.894   6.341   0.571 -0.0273  0.3707  0.3612
12129SOL    HW142733   6.876   6.434   0.586  2.1457  0.8497  0.3016
12129SOL    HW242734   6.888   6.330   0.476  1.3404  0.8600  0.1972
12130SOL     OW42735   8.976   8.399   4.806  0.5916  0.7160 -0.2082
12130SOL    HW142736   8.907   8.353   4.853  0.5780  0.8722 -0.0771
12130SOL    HW242737   9.001   8.471   4.863  2.3183 -0.5421  0.7277
12131SOL     OW42738   7.462   2.284   3.552 -0.2714  0.7776 -0.3762
12131SOL    HW142739   7.387   2.334   3.586 -0.3042  1.0131 -0.7762
12131SOL    HW242740   7.538   2.338   3.573 -0.1293  0.1899  0.6827
12132SOL     OW42741   3.304   7.276   2.781  0.2190 -0.1192 -0.4009
12132SOL    HW142742   3.362   7.274   2.857  1.3975 -1.8974 -1.2768
12132SOL    HW242743   3.216   7.270   2.819  0.7128  0.2266  0.8672
12133SOL     OW42744   3.684   6.258   4.050  0.1687 -0.9328  0.3089
12133SOL    HW142745   3.745   6.263   4.124  0.0904 -2.0354  0.4580
12133SOL    HW242746   3.692   6.169   4.018 -1.6441 -1.2277  0.5641
12134SOL     OW42747   1.957   5.179   4.920  0.1995  0.2751 -0.6076
12134SOL    HW142748   2.043   5.193   4.960  1.0508 -1.9067 -1.4684
12134SOL    HW242749   1.972   5.192   4.826 -0.4483  0.0619 -0.7478
12135SOL     OW42750   4.316   3.125   1.202  0.2842  0.3668 -0.4038
12135SOL    HW142751   4.324   3.196   1.138  0.0210 -0.4803 -1.4263
12135SOL    HW242752   4.329   3.045   1.150 -0.9021 -0.4003  0.4237
12136SOL     OW42753   5.100   1.141   2.115 -0.4303  0.1235  0.3133
12136SOL    HW142754   5.042   1.066   2.122  0.1275 -0.3170  0.2791
12136SOL    HW242755   5.119   1.165   2.206  0.6481 -0.7702  0.3395
12137SOL     OW42756   9.158   3.289   6.680 -0.4286  0.1296  0.3701
12137SOL    HW142757   9.181   3.199   6.655 -2.1550  0.1089 -1.4688
12137SOL    HW242758   9.117   3.280   6.766 -1.9108 -1.1042 -0.4132
12138SOL     OW42759   4.942   6.484   2.669 -0.2257 -0.2628 -0.2066
12138SOL    HW142760   4.948   6.443   2.582  0.4347 -0.1479 -0.2207
12138SOL    HW242761   4.989   6.423   2.727  0.4589  0.2968 -0.1640
12139SOL     OW42762   2.555   8.875   3.179 -0.4152  0.0141  0.0490
12139SOL    HW142763   2.562   8.788   3.140  0.5640 -0.5885  1.4646
12139SOL    HW242764   2.517   8.859   3.266  0.3445  0.9149  0.5668
12140SOL     OW42765   0.538   4.937   3.485  0.3373  0.0178  0.2249
12140SOL    HW142766   0.618   4.924   3.434  0.8617  1.8767  0.4976
12140SOL    HW242767   0.504   5.021   3.455  0.6593  1.1922  2.9076
12141SOL     OW42768   2.371   0.229   5.513  0.2153  0.5645 -0.0701
12141SOL    HW142769   2.291   0.269   5.478 -0.4844 -2.2131 -1.9475
12141SOL    HW242770   2.433   0.231   5.440  1.0275  0.5226  0.6058
12142SOL     OW42771   9.205   3.732   0.612 -0.0016 -0.2397 -0.1799
12142SOL    HW142772   9.207   3.642   0.579 -0.5737  0.2346 -1.6099
12142SOL    HW242773   9.282   3.739   0.669  0.5305 -1.3926 -0.7245
12143SOL     OW42774   7.085   1.985   1.435 -0.0112 -0.2318  0.2887
12143SOL    HW142775   7.099   1.892   1.420 -0.2021  0.0031 -1.5799
12143SOL    HW242776   7.097   1.997   1.529  1.8034 -1.8225  0.2948
12144SOL     OW42777   0.068   3.806   0.976  0.3054  0.3329  0.8211
12144SOL    HW142778   0.062   3.739   0.908 -0.0124  2.5425 -1.5006
12144SOL    HW242779   0.140   3.778   1.032 -0.5783 -2.4868  0.6885
12145SOL     OW42780   3.793   1.794   5.651  0.0842 -0.4795  0.0465
12145SOL    HW142781   3.823   1.880   5.623 -1.4170  0.2239  0.5076
12145SOL    HW242782   3.829   1.783   5.739 -2.0222  0.9861  1.1971
12146SOL     OW42783   5.743   4.867   3.797  0.2179  0.4227  0.2594
12146SOL    HW142784   5.664   4.878   3.848 -0.0133 -1.5459  0.3878
12146SOL    HW242785   5.812   4.853   3.861  0.1576 -0.7311  0.0838
12147SOL     OW42786   3.093   3.986   6.522 -0.5616  0.0927  0.7044
12147SOL    HW142787   3.115   3.949   6.436 -0.9629 -0.1072  0.6862
12147SOL    HW242788   3.160   3.951   6.581 -0.3397  0.1565  0.4902
12148SOL     OW42789   2.811   6.632   4.859 -0.0513  0.6139 -0.3798
12148SOL    HW142790   2.740   6.568   4.855  0.4918  0.0332 -1.0448
12148SOL    HW242791   2.780   6.705   4.806  0.1351  0.0560 -1.2751
12149SOL     OW42792   0.843   2.725   3.115 -0.1561  0.2527 -0.2532
12149SOL    HW142793   0.922   2.687   3.077 -0.4767 -0.1956 -0.4836
12149SOL    HW242794   0.776   2.657   3.103 -0.3280  0.2012  0.8706
12150SOL     OW42795   2.168   3.341   9.197 -0.3142  0.4229  0.5785
12150SOL    HW142796   2.203   3.368   9.283 -0.9236  0.6917  0.7433
12150SOL    HW242797   2.119   3.261   9.215 -0.5705  0.5636  0.5084
12151SOL     OW42798   4.103   1.838   1.622 -0.1735 -0.2153  0.3355
12151SOL    HW142799   4.116   1.746   1.599  1.2537 -0.1211  0.6962
12151SOL    HW242800   4.156   1.851   1.700  0.2594  1.1101 -0.1505
12152SOL     OW42801   0.762   3.464   8.505  0.3443 -0.0654 -0.2472
12152SOL    HW142802   0.732   3.473   8.415  0.1670 -1.0590 -0.3004
12152SOL    HW242803   0.846   3.510   8.507  0.3308 -0.0012 -0.9013
12153SOL     OW42804   0.430   1.299   6.851  0.4534  0.2697  0.5762
12153SOL    HW142805   0.501   1.240   6.828  0.2615  0.9475 -2.1627
12153SOL    HW242806   0.468   1.360   6.913  1.4158 -1.0721  1.3524
12154SOL     OW42807   7.754   3.855   8.069  0.5216 -0.2515 -0.2687
12154SOL    HW142808   7.730   3.907   7.992 -0.6738 -0.0392  0.2195
12154SOL    HW242809   7.821   3.794   8.038  0.0508 -0.1705 -1.4841
12155SOL     OW42810   7.074   7.834   5.911  0.0555 -0.1787 -0.1364
12155SOL    HW142811   7.122   7.911   5.942  1.7001 -1.3682  0.4087
12155SOL    HW242812   7.054   7.784   5.990 -2.5887  0.4737 -0.2799
12156SOL     OW42813   7.515   4.029   5.927  1.0220  0.1565  0.3192
12156SOL    HW142814   7.535   4.102   5.868 -0.6033 -0.2890 -0.8863
12156SOL    HW242815   7.438   4.059   5.976  0.5505 -0.5929  0.0554
12157SOL     OW42816   0.935   1.702   1.632  0.7021 -0.3871  0.2726
12157SOL    HW142817   0.966   1.645   1.703  0.0446  0.4046  1.2144
12157SOL    HW242818   0.910   1.784   1.675 -3.7805 -1.2608 -0.1439
12158SOL     OW42819   6.132   7.443   0.572 -0.6682  0.0760  0.2201
12158SOL    HW142820   6.112   7.537   0.577  0.2708  0.5324 -2.7628
12158SOL    HW242821   6.126   7.422   0.479  3.6147 -1.7548  0.1403
12159SOL     OW42822   0.181   0.207   8.220 -0.2717  0.4177 -0.1018
12159SOL    HW142823   0.135   0.280   8.179 -0.5847 -0.5389 -1.5497
12159SOL    HW242824   0.248   0.182   8.156  0.2552 -0.1519  0.6460
12160SOL     OW42825   1.939   8.283   7.705 -0.0377  0.3359  0.1690
12160SOL    HW142826   1.943   8.273   7.800  0.5218 -1.5403 -0.0162
12160SOL    HW242827   2.004   8.221   7.672  1.6048  2.7042 -1.3725
12161SOL     OW42828   2.379   0.163   3.088 -0.2171 -0.7605 -0.1022
12161SOL    HW142829   2.336   0.154   3.173  0.9874 -0.2731  0.5810
12161SOL    HW242830   2.369   0.077   3.048 -0.0712 -1.2671  0.8981
12162SOL     OW42831   3.109   3.615   4.391  0.1699  0.0771 -0.2840
12162SOL    HW142832   3.166   3.645   4.321 -1.4592 -1.9547 -2.6443
12162SOL    HW242833   3.024   3.605   4.350 -0.6894 -1.9361  1.7932
12163SOL     OW42834   8.671   8.408   6.077  0.2886  0.6636  0.1277
12163SOL    HW142835   8.654   8.317   6.050 -2.3064  1.0114  0.3177
12163SOL    HW242836   8.735   8.440   6.013  0.5269 -1.0102 -0.5277
12164SOL     OW42837   0.561   2.333   8.105  0.1517  0.2695  0.4309
12164SOL    HW142838   0.598   2.249   8.133  0.4024  0.1617 -0.1992
12164SOL    HW242839   0.614   2.357   8.029  0.2052  1.0920  0.7235
12165SOL     OW42840   3.016   5.783   1.391  0.1633  0.0558 -0.3765
12165SOL    HW142841   3.033   5.693   1.365  0.5618  0.5128 -1.7646
12165SOL    HW242842   2.923   5.797   1.375 -0.0049 -0.2287  0.2891
12166SOL     OW42843   4.230   3.731   2.289  0.2084  0.1407 -0.5662
12166SOL    HW142844   4.203   3.640   2.307 -0.1514  0.3545 -0.0000
12166SOL    HW242845   4.308   3.722   2.235  0.4163 -0.5174 -0.1662
12167SOL     OW42846   3.990   8.022   3.057 -0.0923  0.3239  0.0669
12167SOL    HW142847   3.963   8.071   3.135 -1.1504  0.2464 -0.2396
12167SOL    HW242848   3.938   8.059   2.986 -0.0749 -0.4814 -0.3736
12168SOL     OW42849   7.948   9.122   9.122 -0.0013 -0.1496 -0.3145
12168SOL    HW142850   8.022   9.079   9.165  0.4898 -0.5762 -1.5336
12168SOL    HW242851   7.878   9.057   9.123 -0.0629 -0.0801  0.0220
12169SOL     OW42852   6.888   3.763   0.211  0.5739 -0.3394 -0.0035
12169SOL    HW142853   6.864   3.734   0.299  0.9608  0.4536  0.3772
12169SOL    HW242854   6.820   3.727   0.154  0.1688 -0.6305  0.6552
12170SOL     OW42855   5.295   1.404   7.343 -0.1407  0.3204  0.4374
12170SOL    HW142856   5.296   1.427   7.250 -3.1360 -0.1055  0.2136
12170SOL    HW242857   5.283   1.488   7.388 -0.0092  0.3873  0.3471
12171SOL     OW42858   3.540   7.511   6.243  0.2636 -0.3614 -0.3039
12171SOL    HW142859   3.499   7.525   6.158 -2.4769 -0.4661  0.8940
12171SOL    HW242860   3.572   7.421   6.240 -1.8660 -1.1833 -0.5292
12172SOL     OW42861   2.874   5.641   5.923  0.6876 -0.9070  0.1516
12172SOL    HW142862   2.873   5.567   5.862  1.3471  0.0447 -1.0618
12172SOL    HW242863   2.911   5.606   6.003  1.6813 -1.7275 -0.6428
12173SOL     OW42864   5.588   0.407   3.098 -0.4949 -0.3563 -0.0763
12173SOL    HW142865   5.618   0.345   3.032  1.3964  0.8279 -0.3937
12173SOL    HW242866   5.636   0.488   3.079 -1.6605  0.7219  1.3272
12174SOL     OW42867   8.344   6.092   6.888  0.0159 -0.4472 -0.2240
12174SOL    HW142868   8.320   6.052   6.972 -0.3225 -0.8299 -0.4912
12174SOL    HW242869   8.365   6.017   6.832  0.5661 -0.1762 -0.3825
12175SOL     OW42870   2.344   0.467   7.830  0.6718 -0.4033 -0.3339
12175SOL    HW142871   2.286   0.431   7.897  1.0537 -1.8722 -0.7528
12175SOL    HW242872   2.423   0.415   7.837  1.7557  1.1974 -0.1606
12176SOL     OW42873   2.001   2.665   2.543 -0.4624  0.3033 -0.0050
12176SOL    HW142874   2.036   2.753   2.554  0.7207 -0.1581 -0.0029
12176SOL    HW242875   1.935   2.674   2.474  0.0588  1.0859 -0.4053
12177SOL     OW42876   2.258   6.212   2.542 -0.5386 -0.1318 -0.3568
12177SOL    HW142877   2.187   6.261   2.583  0.1604 -1.0327  2.0922
12177SOL    HW242878   2.294   6.273   2.478 -1.0791  1.7738  1.0425
12178SOL     OW42879   2.079   6.286   7.510 -0.2183 -0.9076  0.5098
12178SOL    HW142880   2.146   6.316   7.571 -0.6056  1.2562 -0.0510
12178SOL    HW242881   2.129   6.249   7.437  0.3343 -0.4946  0.6689
12179SOL     OW42882   8.215   7.901   2.703 -0.5117 -0.2912  0.1737
12179SOL    HW142883   8.277   7.890   2.775  0.7733 -0.4840 -0.9241
12179SOL    HW242884   8.219   7.819   2.654 -0.4631  0.2873 -0.8048
12180SOL     OW42885   0.559   0.866   8.141 -0.1926 -0.2928 -0.3110
12180SOL    HW142886   0.556   0.960   8.160  1.0398 -0.5623  1.4780
12180SOL    HW242887   0.640   0.855   8.090 -1.0478 -0.2261 -1.7226
12181SOL     OW42888   1.627   4.615   8.214  0.2478 -0.2862  0.0249
12181SOL    HW142889   1.554   4.555   8.203 -0.4884  0.5505  0.2744
12181SOL    HW242890   1.629   4.635   8.308 -0.7490  1.5685 -0.2994
12182SOL     OW42891   4.202   5.917   1.755 -0.0509 -1.0436  0.0973
12182SOL    HW142892   4.245   5.844   1.712  1.2456 -0.7327  0.8249
12182SOL    HW242893   4.239   5.919   1.843  0.5572  0.9646 -0.1372
12183SOL     OW42894   0.436   1.811   3.902  0.1839 -0.4140  0.4539
12183SOL    HW142895   0.342   1.812   3.921  0.3379 -0.0907  1.2547
12183SOL    HW242896   0.468   1.731   3.945  0.4591  0.0827  1.2079
12184SOL     OW42897   8.407   1.839   0.886  0.0389 -0.1869 -0.1924
12184SOL    HW142898   8.421   1.812   0.976  0.4160 -0.5476 -0.3580
12184SOL    HW242899   8.343   1.910   0.892 -0.2545 -0.4914  0.3209
12185SOL     OW42900   3.633   6.891   5.884 -0.1826 -0.3176  0.3485
12185SOL    HW142901   3.696   6.894   5.956  0.6403 -1.2205 -0.2979
12185SOL    HW242902   3.679   6.932   5.810 -0.5536 -0.5095  0.0048
12186SOL     OW42903   3.588   0.693   0.364  0.2487 -0.3536 -0.2207
12186SOL    HW142904   3.536   0.766   0.329  1.3262  1.3694  1.5663
12186SOL    HW242905   3.528   0.648   0.423  0.3095  0.7855  0.7601
12187SOL     OW42906   3.004   0.079   0.072 -0.9149 -0.4118 -0.5014
12187SOL    HW142907   3.027   0.056  -0.018 -0.2103 -1.2081 -0.1372
12187SOL    HW242908   2.913   0.049   0.082 -0.9990 -0.3043 -0.9510
12188SOL     OW42909   1.429   0.907   2.086 -0.7015 -0.0857 -0.0234
12188SOL    HW142910   1.361   0.966   2.119 -0.5058 -0.6579  1.4987
12188SOL    HW242911   1.506   0.927   2.140 -0.1494 -0.5979 -0.6010
12189SOL     OW42912   0.812   5.011   9.213 -0.8925  0.1247 -0.0251
12189SOL    HW142913   0.838   4.952   9.142 -2.3317 -0.8727  0.2216
12189SOL    HW242914   0.744   5.067   9.174  0.0494  1.2577 -0.0917
12190SOL     OW42915   4.887   6.255   5.396  0.0064  0.3653  0.0265
12190SOL    HW142916   4.899   6.314   5.471 -0.7423  0.4937  0.0554
12190SOL    HW242917   4.975   6.223   5.376  0.4062  1.3717  0.1104
12191SOL     OW42918   4.909   7.658   5.849 -0.0051 -0.6186  0.2982
12191SOL    HW142919   5.004   7.651   5.864  0.3578  2.2308 -0.0503
12191SOL    HW242920   4.871   7.660   5.937  0.5272  0.4499  0.5232
12192SOL     OW42921   8.011   9.188   7.660  0.0856  0.4788  0.3752
12192SOL    HW142922   8.055   9.109   7.690 -0.6770  0.9393  2.9209
12192SOL    HW242923   7.995   9.239   7.739 -1.7562  1.9950 -0.8662
12193SOL     OW42924   7.506   6.858   5.465 -0.2670  0.1666  0.0973
12193SOL    HW142925   7.479   6.899   5.382 -0.2371 -1.4379 -0.7447
12193SOL    HW242926   7.569   6.791   5.439 -0.6377 -0.7054  1.3840
12194SOL     OW42927   0.083   1.990   3.741 -0.4397 -0.4200 -0.5118
12194SOL    HW142928   0.030   1.995   3.661 -1.0828  1.4978 -0.0387
12194SOL    HW242929   0.029   2.034   3.807  0.5645 -0.9614  0.7017
12195SOL     OW42930   9.052   2.640   4.798  0.3696 -0.3631  0.1599
12195SOL    HW142931   9.002   2.616   4.720  0.2923 -0.2080  0.1614
12195SOL    HW242932   9.108   2.713   4.770  0.2715 -0.2432  0.2740
12196SOL     OW42933   0.948   4.174   0.777 -0.3729 -0.4452 -0.0625
12196SOL    HW142934   0.962   4.219   0.693 -1.3359 -0.0146 -0.0117
12196SOL    HW242935   0.970   4.083   0.758 -0.3953 -0.3227 -0.7383
12197SOL     OW42936   2.177   3.596   3.708 -0.1837  0.0999  0.0123
12197SOL    HW142937   2.244   3.665   3.707 -0.6459  0.5482 -0.2705
12197SOL    HW242938   2.097   3.640   3.682 -0.7152 -0.3096  0.9279
12198SOL     OW42939   4.827   3.058   5.864  0.5024  0.3775 -0.2537
12198SOL    HW142940   4.794   3.033   5.951 -0.1185  0.1538 -0.5496
12198SOL    HW242941   4.801   2.985   5.807  0.4717  0.7517 -0.7238
12199SOL     OW42942   1.556   4.138   2.273 -0.1337 -0.5651  0.3767
12199SOL    HW142943   1.475   4.091   2.295  1.1340 -2.6090  0.9567
12199SOL    HW242944   1.547   4.158   2.180 -0.2240 -3.1826 -0.2506
12200SOL     OW42945   7.155   1.976   5.660  0.2823 -0.0074 -0.4979
12200SOL    HW142946   7.135   2.068   5.642 -0.5002 -0.2783 -1.1142
12200SOL    HW242947   7.071   1.931   5.649  0.6156 -0.7649 -0.0050
12201SOL     OW42948   3.154   1.445   8.978 -0.6225 -0.5789 -0.0190
12201SOL    HW142949   3.098   1.495   8.919  2.3488  1.3412 -1.4503
12201SOL    HW242950   3.199   1.382   8.922  0.0015 -0.8458  0.7475
12202SOL     OW42951   1.750   7.204   8.659 -0.1916 -0.1179 -0.3015
12202SOL    HW142952   1.829   7.244   8.697 -0.3724  0.0321 -0.0799
12202SOL    HW242953   1.758   7.111   8.679 -0.6462  0.0598  0.7592
12203SOL     OW42954   4.938   8.296   8.437 -0.0895  0.2773  0.4472
12203SOL    HW142955   4.894   8.366   8.485 -2.2728 -1.1347  0.6529
12203SOL    HW242956   4.895   8.215   8.467  0.4028 -0.9083 -1.7829
12204SOL     OW42957   5.413   6.546   7.630 -0.3618 -0.3389 -0.0551
12204SOL    HW142958   5.425   6.531   7.536 -1.1501 -2.0956  0.0830
12204SOL    HW242959   5.501   6.538   7.667 -0.2305 -1.0656 -0.4937
12205SOL     OW42960   4.336   6.377   2.707  0.2620  0.2946  0.0237
12205SOL    HW142961   4.378   6.462   2.713 -2.7115  2.0067 -1.5067
12205SOL    HW242962   4.396   6.324   2.655  1.1180  2.1908 -1.0043
12206SOL     OW42963   0.876   4.560   1.650 -0.5079 -0.3241 -0.4317
12206SOL    HW142964   0.955   4.613   1.638 -1.6667  1.4045 -0.8111
12206SOL    HW242965   0.817   4.588   1.580 -2.3914  0.2662  1.2908
12207SOL     OW42966   0.788   4.924   3.328 -0.2124 -0.2688  0.1995
12207SOL    HW142967   0.856   4.953   3.389 -0.6328  2.2481 -0.4157
12207SOL    HW242968   0.811   4.834   3.307  1.9488 -0.0447  1.3467
12208SOL     OW42969   1.841   5.212   6.560 -0.1697 -0.3994 -0.3872
12208SOL    HW142970   1.891   5.175   6.632  0.5311  0.0230 -0.6555
12208SOL    HW242971   1.774   5.266   6.602 -0.6487 -1.2529 -0.0223
12209SOL     OW42972   5.719   7.777   4.140 -0.3069  0.4852  0.1440
12209SOL    HW142973   5.684   7.865   4.124 -0.7432 -0.0993 -2.7021
12209SOL    HW242974   5.807   7.792   4.173 -1.5289  1.9488  3.1212
12210SOL     OW42975   2.482   6.995   3.197 -0.1614  0.2015  0.3792
12210SOL    HW142976   2.481   7.068   3.259 -1.4599  0.5841 -0.0662
12210SOL    HW242977   2.408   7.011   3.139 -0.3060 -1.3120  0.0916
12211SOL     OW42978   4.064   2.418   8.025  0.2336 -0.5164  0.4501
12211SOL    HW142979   4.110   2.384   7.949  0.1177 -1.2292  0.6895
12211SOL    HW242980   3.971   2.413   8.001 -0.0441 -3.5809  1.6905
12212SOL     OW42981   7.181   2.475   0.698  1.0065 -0.2745 -0.1604
12212SOL    HW142982   7.147   2.539   0.636  1.3774  1.9887  1.8266
12212SOL    HW242983   7.111   2.466   0.763  2.2713  0.8327  1.4344
12213SOL     OW42984   8.463   3.058   0.977 -0.2349 -0.7407 -0.2641
12213SOL    HW142985   8.393   3.112   0.942 -1.6493 -0.4529  2.7017
12213SOL    HW242986   8.543   3.109   0.962 -1.5197  2.3959  2.4961
12214SOL     OW42987   6.009   2.677   3.798 -0.2028 -0.0674 -0.7996
12214SOL    HW142988   5.915   2.691   3.786 -0.3869 -1.8159 -1.6628
12214SOL    HW242989   6.025   2.694   3.891 -0.9704  2.1699 -1.0072
12215SOL     OW42990   3.690   8.550   2.775  0.2072  0.1751  0.5555
12215SOL    HW142991   3.617   8.606   2.746  0.3079  1.5130  2.6667
12215SOL    HW242992   3.678   8.468   2.727 -2.2869  0.5973  0.3125
12216SOL     OW42993   2.137   5.745   4.398 -0.0577  0.0816 -0.4062
12216SOL    HW142994   2.184   5.808   4.453  0.7673  0.5830 -1.6375
12216SOL    HW242995   2.098   5.799   4.329 -1.4066 -0.4846 -0.1139
12217SOL     OW42996   0.178   5.029   3.854  0.1843  0.5558 -0.5232
12217SOL    HW142997   0.253   5.046   3.910 -1.9307  0.8950  2.4614
12217SOL    HW242998   0.187   4.937   3.828  2.5500  1.1024 -1.9605
12218SOL     OW42999   3.396   7.815   7.241  0.3426 -0.8065 -0.2424
12218SOL    HW143000   3.424   7.890   7.293  1.0521 -2.0581  1.2909
12218SOL    HW243001   3.365   7.852   7.159  1.0167  1.1110  0.3195
12219SOL     OW43002   4.057   7.959   5.968 -0.8895 -0.2531  0.2286
12219SOL    HW143003   4.127   7.955   6.033 -0.7955 -1.0466  0.0867
12219SOL    HW243004   3.991   8.015   6.008 -1.0219 -1.0727  1.2091
12220SOL     OW43005   0.955   0.140   3.102 -0.2289  0.2199  0.7144
12220SOL    HW143006   0.978   0.064   3.048 -0.0719  1.0275 -0.4037
12220SOL    HW243007   1.005   0.212   3.064 -4.2139  2.0416 -1.7490
12221SOL     OW43008   5.116   1.783   0.476 -0.5068  0.7105  0.3851
12221SOL    HW143009   5.087   1.844   0.407  1.7572  0.6053 -0.7851
12221SOL    HW243010   5.205   1.812   0.497  0.4324 -1.7804  0.2338
12222SOL     OW43011   0.086   7.067   4.108 -0.6656  0.1134  0.2333
12222SOL    HW143012   0.032   6.988   4.117  2.7035 -2.3880  0.5561
12222SOL    HW243013   0.151   7.058   4.178  0.3808  2.7652 -0.3216
12223SOL     OW43014   2.897   4.074   8.132 -0.3233  0.0725  0.3423
12223SOL    HW143015   2.933   3.988   8.155  0.5765  0.0975 -0.8741
12223SOL    HW243016   2.970   4.135   8.142  0.5176 -0.0669 -3.4306
12224SOL     OW43017   6.790   8.185   6.315 -0.0720 -0.4264  0.7035
12224SOL    HW143018   6.879   8.211   6.288  0.0990 -0.9161  0.7848
12224SOL    HW243019   6.764   8.252   6.379 -0.8689  1.3254 -1.3413
12225SOL     OW43020   5.184   7.944   3.938 -0.2411 -0.3759  0.2858
12225SOL    HW143021   5.215   7.969   3.851 -1.8253 -1.4515 -0.6319
12225SOL    HW243022   5.196   8.023   3.991  3.0995 -0.4024 -0.1740
12226SOL     OW43023   4.387   8.179   9.225  0.1419  0.2405 -0.0380
12226SOL    HW143024   4.471   8.175   9.270  0.8339  0.2366 -1.2792
12226SOL    HW243025   4.399   8.126   9.146 -1.0104  0.2789 -0.2593
12227SOL     OW43026   3.908   7.549   4.592  0.4555  0.3192 -0.1684
12227SOL    HW143027   3.828   7.551   4.645 -0.4060  0.6026 -1.4582
12227SOL    HW243028   3.931   7.641   4.580  0.9773  0.2399  0.1714
12228SOL     OW43029   7.502   4.734   7.822  0.5434  0.3373  0.1849
12228SOL    HW143030   7.576   4.674   7.812 -1.1654 -1.7672 -0.6521
12228SOL    HW243031   7.527   4.791   7.895  2.6732 -0.7300  0.3732
12229SOL     OW43032   3.514   5.829   0.205  0.2288  0.4325 -0.4102
12229SOL    HW143033   3.593   5.877   0.180  1.5240 -0.8133  1.0338
12229SOL    HW243034   3.461   5.893   0.253  0.9984  0.9355 -0.2159
12230SOL     OW43035   3.200   4.931   4.061 -0.7804  0.7452  0.3996
12230SOL    HW143036   3.233   4.940   4.151 -0.1568  2.6873  0.0269
12230SOL    HW243037   3.142   5.007   4.049 -0.1458  1.0315 -1.1059
12231SOL     OW43038   7.087   4.010   2.213 -0.3949  0.5659 -0.1063
12231SOL    HW143039   7.042   4.002   2.129 -0.6777  0.3695  0.0645
12231SOL    HW243040   7.085   4.104   2.232 -3.3275  0.3262  1.2987
12232SOL     OW43041   6.023   7.915   7.652 -0.1798 -0.6335  0.2531
12232SOL    HW143042   6.043   7.860   7.576  1.5466 -0.2439  0.3609
12232SOL    HW243043   6.095   7.979   7.653 -0.0888 -0.7171  2.2901
12233SOL     OW43044   4.295   0.218   0.645  0.6643 -0.3048  0.3396
12233SOL    HW143045   4.387   0.242   0.654  0.1607  1.9934  0.0548
12233SOL    HW243046   4.248   0.281   0.700 -0.8640  0.0937 -1.3075
12234SOL     OW43047   6.293   2.410   3.779  0.5582  1.0649 -0.1514
12234SOL    HW143048   6.381   2.413   3.741  0.2801 -1.7996 -1.3269
12234SOL    HW243049   6.235   2.425   3.704  0.0595 -0.7635 -0.1828
12235SOL     OW43050   3.410   8.787   7.568  0.0161 -0.0656  0.3753
12235SOL    HW143051   3.482   8.833   7.612  0.8674  0.5542 -1.5539
12235SOL    HW243052   3.332   8.836   7.592  0.8073  1.9822 -0.9863
12236SOL     OW43053   7.756   0.954   7.925 -0.4157  0.4110 -0.6476
12236SOL    HW143054   7.821   1.024   7.925  0.1648 -0.0822  1.0340
12236SOL    HW243055   7.672   0.999   7.917 -0.1021  1.4017  1.1380
12237SOL     OW43056   3.524   3.687   3.138 -0.4545 -0.9130  0.3579
12237SOL    HW143057   3.471   3.705   3.215  0.4214 -0.9184  0.9759
12237SOL    HW243058   3.595   3.631   3.170 -0.3937 -1.3780 -0.5637
12238SOL     OW43059   4.675   5.849   5.443 -0.0713  0.3527  0.8115
12238SOL    HW143060   4.711   5.763   5.462 -1.4113 -0.5887 -0.5931
12238SOL    HW243061   4.666   5.892   5.528 -0.0009 -1.1579  1.6078
12239SOL     OW43062   5.760   4.819   8.575  0.2687 -0.0164 -0.0917
12239SOL    HW143063   5.734   4.908   8.597 -2.0766 -0.1979 -1.7564
12239SOL    HW243064   5.796   4.825   8.487  1.0256 -0.6073  0.1561
12240SOL     OW43065   9.027   3.342   6.931  0.1830 -0.0174 -0.2891
12240SOL    HW143066   9.063   3.307   7.012 -1.4021  0.2059  0.5611
12240SOL    HW243067   9.075   3.423   6.916  0.1799  0.1770  0.6986
12241SOL     OW43068   1.161   5.885   0.192  0.8852  0.5879 -0.2683
12241SOL    HW143069   1.197   5.801   0.163 -0.8181 -0.3112  0.0642
12241SOL    HW243070   1.134   5.929   0.111 -1.0972 -0.6001 -0.3115
12242SOL     OW43071   6.528   0.144   7.403  0.1638  0.4138  0.2075
12242SOL    HW143072   6.466   0.192   7.348  0.6299  1.4203  0.5280
12242SOL    HW243073   6.603   0.203   7.411  1.1458 -0.7429 -0.1212
12243SOL     OW43074   0.839   8.577   0.870  0.0209 -0.3156  0.1395
12243SOL    HW143075   0.893   8.653   0.850  1.1119 -1.2217 -0.4785
12243SOL    HW243076   0.837   8.527   0.788 -3.0220  0.4128 -0.3546
12244SOL     OW43077   6.289   9.220   0.777  0.4147 -0.0084 -1.2597
12244SOL    HW143078   6.352   9.195   0.709  1.6383  0.7665 -0.4356
12244SOL    HW243079   6.264   9.137   0.817  2.3631 -0.2034 -0.3554
12245SOL     OW43080   1.050   6.280   3.202 -0.0059  0.7350  0.4712
12245SOL    HW143081   1.011   6.360   3.236 -0.2493 -0.0909  2.2205
12245SOL    HW243082   0.993   6.210   3.233 -0.9656 -0.0653 -2.6893
12246SOL     OW43083   7.633   0.873   8.439 -0.0355 -0.6058  0.2660
12246SOL    HW143084   7.586   0.838   8.515  0.4289 -0.9077  0.4188
12246SOL    HW243085   7.616   0.810   8.369  1.8675 -1.9049  0.8800
12247SOL     OW43086   4.738   3.494   8.902  0.1877  0.0745 -0.0747
12247SOL    HW143087   4.671   3.428   8.922  0.6604 -0.4269 -0.1396
12247SOL    HW243088   4.732   3.505   8.807 -1.7671  2.1478  0.1856
12248SOL     OW43089   2.618   7.903   2.673 -0.3677 -0.0175  0.5779
12248SOL    HW143090   2.644   7.936   2.587 -0.8021 -1.8631 -0.3213
12248SOL    HW243091   2.583   7.979   2.719  1.6882  1.4231 -0.1267
12249SOL     OW43092   0.936   4.694   5.582 -0.3491  0.3379 -0.1047
12249SOL    HW143093   0.947   4.765   5.518  0.0379  0.0061 -0.4118
12249SOL    HW243094   0.844   4.671   5.576  0.0972 -1.2449 -2.2292
12250SOL     OW43095   0.884   4.452   0.823 -0.7508 -0.1743  0.5320
12250SOL    HW143096   0.894   4.363   0.858 -1.1616 -0.0933  0.8640
12250SOL    HW243097   0.951   4.503   0.869 -0.6001 -0.2814  0.4345
12251SOL     OW43098   4.695   7.410   8.109  0.4224 -0.1289 -0.2294
12251SOL    HW143099   4.694   7.490   8.058  1.2985  0.4244  0.5878
12251SOL    HW243100   4.628   7.424   8.176  0.5759 -0.0728 -0.0863
12252SOL     OW43101   4.370   4.284   0.071  0.1031 -0.0838  0.2132
12252SOL    HW143102   4.394   4.364   0.118  0.0399  0.1258 -0.1073
12252SOL    HW243103   4.434   4.277   0.000  0.8101 -0.9387  0.9215
12253SOL     OW43104   7.967   3.132   6.404 -0.1610 -0.0951  0.4043
12253SOL    HW143105   7.997   3.044   6.381  0.8127  0.4731 -0.5360
12253SOL    HW243106   8.027   3.160   6.473 -0.8902 -0.4064  1.1913
12254SOL     OW43107   8.113   4.624   6.102  0.0126  0.3905  0.4560
12254SOL    HW143108   8.022   4.603   6.082  0.2116  0.7543 -0.8818
12254SOL    HW243109   8.118   4.619   6.198 -1.5798  1.0879  0.6030
12255SOL     OW43110   3.693   3.025   5.302  0.3309 -0.0724 -0.0079
12255SOL    HW143111   3.700   3.008   5.396  2.2687  0.7422  0.0364
12255SOL    HW243112   3.754   2.963   5.262 -0.1973 -0.1515 -0.7142
12256SOL     OW43113   7.442   3.755   1.485 -0.2130 -0.1822 -0.6129
12256SOL    HW143114   7.411   3.709   1.407 -0.5602 -0.4750 -0.3026
12256SOL    HW243115   7.522   3.709   1.510 -0.6154 -0.6874 -0.2421
12257SOL     OW43116   4.204   4.421   8.360 -0.6060 -0.4750  0.3886
12257SOL    HW143117   4.296   4.443   8.370 -0.3778  0.2186 -2.4098
12257SOL    HW243118   4.158   4.479   8.421  0.7664 -0.9458  1.9279
12258SOL     OW43119   3.243   7.377   3.628  0.3951  0.3803  0.2030
12258SOL    HW143120   3.181   7.316   3.588 -0.9059  1.6333  0.2036
12258SOL    HW243121   3.199   7.462   3.623  0.8051  0.8524  2.9409
12259SOL     OW43122   3.705   9.223   6.085  0.7994 -0.2730  0.2667
12259SOL    HW143123   3.754   9.141   6.077  0.6471 -0.2705 -0.8068
12259SOL    HW243124   3.661   9.233   6.001  1.6127  1.4347  0.0041
12260SOL     OW43125   5.271   2.620   1.501 -0.0225 -0.2143  0.0893
12260SOL    HW143126   5.304   2.667   1.577  0.2376  2.6072 -1.6564
12260SOL    HW243127   5.191   2.577   1.533  1.4310 -1.2869  2.5440
12261SOL     OW43128   4.647   1.978   2.136  0.2425 -0.0352  0.3903
12261SOL    HW143129   4.589   1.958   2.209 -0.9867 -0.2207 -0.6096
12261SOL    HW243130   4.724   2.019   2.177  0.3420 -1.6336  1.9298
12262SOL     OW43131   1.748   5.971   2.125  0.2069  0.0256 -0.1849
12262SOL    HW143132   1.818   6.006   2.179  1.0500 -1.6646 -0.1086
12262SOL    HW243133   1.744   5.878   2.148 -0.5701 -0.3785 -1.7917
12263SOL     OW43134   2.228   2.782   8.289  0.2036 -0.1958  0.3924
12263SOL    HW143135   2.200   2.695   8.261  0.6491  0.2069 -1.4113
12263SOL    HW243136   2.147   2.833   8.292  0.1132 -0.3221  0.1152
12264SOL     OW43137   4.258   7.578   1.234 -0.1593 -0.4649 -0.1119
12264SOL    HW143138   4.208   7.573   1.153 -0.6681 -1.4292  0.2363
12264SOL    HW243139   4.223   7.655   1.279  1.0003  0.8219 -1.3401
12265SOL     OW43140   4.998   5.492   0.744  0.4206  0.0425 -0.0188
12265SOL    HW143141   4.989   5.400   0.771 -0.2955 -0.1484 -0.8627
12265SOL    HW243142   5.063   5.490   0.674 -0.2931  0.0233 -0.7015
12266SOL     OW43143   5.449   2.437   1.708 -0.6167  0.1313  0.0669
12266SOL    HW143144   5.457   2.455   1.615  0.8627  1.1865  0.3622
12266SOL    HW243145   5.411   2.349   1.713 -1.4439  0.3692 -1.4999
12267SOL     OW43146   7.108   3.278   4.512  0.5293  0.5278 -0.5867
12267SOL    HW143147   7.169   3.296   4.584  1.0951  1.7717 -1.3482
12267SOL    HW243148   7.152   3.210   4.460  1.5083  1.7098 -1.3614
12268SOL     OW43149   5.870   1.865   7.431 -0.0470  0.2174 -0.1285
12268SOL    HW143150   5.863   1.829   7.343 -0.2614  0.6810 -0.3048
12268SOL    HW243151   5.942   1.929   7.426 -0.2820  0.4925 -0.0571
12269SOL     OW43152   1.700   1.380   3.407 -0.2738  0.0330 -0.8971
12269SOL    HW143153   1.634   1.336   3.353 -0.5738 -2.0619  0.9905
12269SOL    HW243154   1.667   1.371   3.496  2.0371 -0.1341  0.0073
12270SOL     OW43155   8.066   7.243   7.769  0.2575  0.1148  0.0737
12270SOL    HW143156   8.121   7.315   7.802  0.2703  0.7950 -1.3500
12270SOL    HW243157   8.104   7.164   7.808  0.3077  0.8566  1.6012
12271SOL     OW43158   5.317   6.624   8.757  0.4429 -0.3682  0.0610
12271SOL    HW143159   5.223   6.637   8.762  0.6431  0.8882  0.7485
12271SOL    HW243160   5.343   6.600   8.846  0.9320  0.4527  0.1455
12272SOL     OW43161   8.908   4.039   3.979 -0.1267 -0.4203  0.5148
12272SOL    HW143162   8.818   4.020   3.953 -0.2937 -0.2990  0.9892
12272SOL    HW243163   8.936   3.961   4.026 -0.3531 -0.0450  1.2926
12273SOL     OW43164   6.840   2.027   4.544  0.1573  0.0483 -0.1765
12273SOL    HW143165   6.783   1.963   4.586  0.0049  1.3655  1.7292
12273SOL    HW243166   6.866   1.985   4.462 -1.8676 -1.4376 -0.1382
12274SOL     OW43167   4.857   1.644   3.108 -0.3453  0.0870 -0.4025
12274SOL    HW143168   4.904   1.626   3.190  0.7429 -2.2026 -1.4332
12274SOL    HW243169   4.804   1.721   3.127  0.4530  0.0851  2.2124
12275SOL     OW43170   7.193   1.971   0.160  0.1967 -0.1431 -0.1402
12275SOL    HW143171   7.136   1.962   0.236  0.5699 -0.4538  0.1031
12275SOL    HW243172   7.146   2.031   0.102 -0.0908  0.0919  0.3324
12276SOL     OW43173   5.689   3.007   9.030 -0.0256  0.3838  0.6166
12276SOL    HW143174   5.645   2.975   8.950 -0.4929 -0.6600  1.2734
12276SOL    HW243175   5.737   2.931   9.063 -0.1784  0.6835  1.5545
12277SOL     OW43176   2.909   2.756   5.514  0.3643 -0.4353  0.5286
12277SOL    HW143177   2.937   2.827   5.572  1.0711 -0.8850  0.7567
12277SOL    HW243178   2.960   2.680   5.544  0.9592 -0.6123 -0.8551
12278SOL     OW43179   8.501   5.276   4.683 -0.2135  0.0105 -0.1643
12278SOL    HW143180   8.503   5.372   4.688 -1.4987  0.0914 -0.8189
12278SOL    HW243181   8.538   5.247   4.766 -2.2801  1.0949  1.2397
12279SOL     OW43182   4.855   0.036   6.661  0.2936  0.6786 -0.5374
12279SOL    HW143183   4.760   0.031   6.657  0.1709  0.2422  1.6736
12279SOL    HW243184   4.885  -0.053   6.643  0.0016 -0.1886  2.6487
12280SOL     OW43185   3.422   5.005   6.610  0.2566 -0.3531  0.0173
12280SOL    HW143186   3.385   4.974   6.693 -0.1568 -0.4180 -0.1875
12280SOL    HW243187   3.368   5.080   6.587  0.9950  0.2836  0.3017
12281SOL     OW43188   8.884   0.666   7.261 -0.0797  0.1230  0.3508
12281SOL    HW143189   8.939   0.716   7.321  0.3479 -0.1416  0.1784
12281SOL    HW243190   8.839   0.733   7.209 -1.0911  0.3836  1.5091
12282SOL     OW43191   7.699   8.608   8.485 -0.3729 -0.5489  0.4047
12282SOL    HW143192   7.780   8.640   8.524  0.3968 -1.4068 -0.4554
12282SOL    HW243193   7.631   8.637   8.546  0.6418 -0.5177  1.5755
12283SOL     OW43194   6.831   0.844   7.330  0.4314 -0.3154 -0.2362
12283SOL    HW143195   6.833   0.808   7.419 -0.1283  0.2998  0.0300
12283SOL    HW243196   6.890   0.787   7.280  1.9833  0.2405  0.8751
12284SOL     OW43197   3.359   6.786   7.970  0.1661  0.2305  0.0757
12284SOL    HW143198   3.323   6.697   7.977  0.0286  0.2772 -0.0250
12284SOL    HW243199   3.398   6.789   7.882  2.3219 -0.5151  0.9567
12285SOL     OW43200   1.314   0.593   0.790 -0.0803 -0.2810  0.2409
12285SOL    HW143201   1.285   0.598   0.881 -0.7990 -0.4194  0.0298
12285SOL    HW243202   1.322   0.499   0.773 -1.4869 -0.3367 -0.2888
12286SOL     OW43203   2.127   6.486   5.014  0.3995 -0.0349 -0.2526
12286SOL    HW143204   2.162   6.529   4.935 -0.1016 -0.4191 -0.6878
12286SOL    HW243205   2.033   6.479   4.998  0.3827 -0.6971  0.0960
12287SOL     OW43206   7.869   1.976   0.128 -0.2539 -0.4240  0.0162
12287SOL    HW143207   7.950   1.942   0.091  1.4915  2.1254  1.2546
12287SOL    HW243208   7.864   1.937   0.216  0.0688  0.0204  0.2358
12288SOL     OW43209   9.124   7.915   7.126  0.0747 -0.0914  0.0474
12288SOL    HW143210   9.044   7.909   7.178 -0.2691  1.5359 -0.2231
12288SOL    HW243211   9.102   7.874   7.043 -0.4777  0.3004 -0.0090
12289SOL     OW43212   0.595   6.458   0.799  0.2010 -0.1363  0.6945
12289SOL    HW143213   0.520   6.405   0.772  1.3303 -1.9014  0.8576
12289SOL    HW243214   0.642   6.478   0.718 -0.2726  0.7376  0.6225
12290SOL     OW43215   8.666   0.846   5.693  0.2710 -0.4098  0.4281
12290SOL    HW143216   8.732   0.789   5.734  0.9113  0.2649  0.3590
12290SOL    HW243217   8.656   0.919   5.753  1.1513  0.5439 -0.5340
12291SOL     OW43218   5.454   3.805   2.108  0.3543  0.1635 -0.1438
12291SOL    HW143219   5.378   3.798   2.050  0.0891  3.4116 -0.3676
12291SOL    HW243220   5.523   3.754   2.066 -0.6859  0.0403 -1.7531
12292SOL     OW43221   3.144   6.148   8.587  0.5918  0.3843  0.4261
12292SOL    HW143222   3.227   6.114   8.621 -0.0483 -1.6472  0.1035
12292SOL    HW243223   3.143   6.121   8.495 -0.5144  0.2078  0.4797
12293SOL     OW43224   2.722   7.789   4.375 -0.4433 -0.2834  0.0956
12293SOL    HW143225   2.779   7.719   4.408  0.7612  0.4639 -0.3517
12293SOL    HW243226   2.770   7.870   4.393 -1.5887  0.4108  0.1426
12294SOL     OW43227   1.812   6.683   1.697 -0.5976 -0.1560 -0.2119
12294SOL    HW143228   1.756   6.695   1.773  0.2558  1.7633  0.1735
12294SOL    HW243229   1.875   6.616   1.724 -1.6542 -1.1089 -0.0577
12295SOL     OW43230   3.720   1.618   8.352 -0.4604 -0.5011 -0.1248
12295SOL    HW143231   3.741   1.527   8.331  0.7524 -0.5721  1.2342
12295SOL    HW243232   3.630   1.629   8.322  0.1886 -1.3722 -2.6469
12296SOL     OW43233   3.211   7.402   7.822 -0.0718  0.1072 -0.0343
12296SOL    HW143234   3.194   7.310   7.801  0.2846  0.3050 -1.2908
12296SOL    HW243235   3.240   7.401   7.913 -0.0045 -1.0351 -0.0552
12297SOL     OW43236   7.079   2.015   3.928  0.4217 -0.4066  0.5662
12297SOL    HW143237   7.003   2.033   3.985  0.7797  1.4597  0.4946
12297SOL    HW243238   7.040   1.984   3.846 -0.1345 -2.1823  1.4404
12298SOL     OW43239   2.396   3.872   5.494  0.5723 -0.6036  0.5662
12298SOL    HW143240   2.406   3.923   5.575 -0.4871  0.9602 -0.2278
12298SOL    HW243241   2.460   3.910   5.434 -1.7578  1.4952 -0.7757
12299SOL     OW43242   0.051   6.902   0.496  0.0765  0.0616 -0.3261
12299SOL    HW143243  -0.041   6.880   0.483 -0.1515  1.0351 -0.4322
12299SOL    HW243244   0.068   6.882   0.588 -0.0709 -0.6674 -0.4476
12300SOL     OW43245   2.059   0.740   4.224  0.6972  0.2228 -0.0807
12300SOL    HW143246   2.096   0.801   4.288  1.1715  0.6074 -0.7095
12300SOL    HW243247   1.996   0.792   4.174  2.2548  0.6776 -1.6885
12301SOL     OW43248   9.146   7.220   3.332 -0.3821 -0.0323 -0.1015
12301SOL    HW143249   9.127   7.253   3.420  0.3940  2.4059 -0.7768
12301SOL    HW243250   9.146   7.125   3.342  1.4676  0.1563  2.9396
12302SOL     OW43251   6.326   7.814   8.855  1.2792  0.0869  0.1778
12302SOL    HW143252   6.258   7.821   8.922  0.4064  1.0071 -0.7575
12302SOL    HW243253   6.292   7.750   8.793  1.3321  0.4252 -0.2064
12303SOL     OW43254   5.009   1.813   5.448  0.0083 -0.1177  0.3895
12303SOL    HW143255   5.101   1.825   5.423  0.1032  0.2441  0.9066
12303SOL    HW243256   4.993   1.880   5.515 -0.3913 -0.7460  0.9274
12304SOL     OW43257   5.765   3.950   6.779 -0.7691  0.1246 -0.2812
12304SOL    HW143258   5.695   3.972   6.840  0.3588 -0.6600  1.4003
12304SOL    HW243259   5.817   4.030   6.772  0.1837 -0.3058  1.3806
12305SOL     OW43260   7.442   9.214   5.690 -0.5928  0.3429  0.3073
12305SOL    HW143261   7.350   9.238   5.699 -0.9227 -0.9040  0.5170
12305SOL    HW243262   7.487   9.296   5.669 -1.7622  0.9481  0.0896
12306SOL     OW43263   6.781   8.128   3.692 -0.0159 -0.2098 -0.0450
12306SOL    HW143264   6.801   8.040   3.725  0.5244  0.2782  0.9693
12306SOL    HW243265   6.867   8.168   3.676 -0.2623 -0.2910 -1.7184
12307SOL     OW43266   5.257   9.015   5.466 -0.1187 -0.2328  0.2915
12307SOL    HW143267   5.269   8.982   5.377  0.6147 -1.3587  0.7814
12307SOL    HW243268   5.200   9.092   5.456 -1.8322 -1.5908 -0.8962
12308SOL     OW43269   3.792   6.954   1.045  0.7943  0.2621  0.2663
12308SOL    HW143270   3.841   6.995   0.974 -1.4367 -0.4940 -1.8488
12308SOL    HW243271   3.729   6.897   1.001 -0.8083 -0.1445  2.8573
12309SOL     OW43272   8.966   6.842   4.828 -0.0927 -0.3535 -0.2688
12309SOL    HW143273   8.931   6.814   4.743  0.8332 -2.3088 -0.0882
12309SOL    HW243274   8.910   6.798   4.892  0.5427 -0.6823  0.0681
12310SOL     OW43275   6.940   8.195   7.951 -0.1175  0.0852  0.2301
12310SOL    HW143276   6.899   8.242   7.879 -0.5461  0.5217  0.7442
12310SOL    HW243277   7.028   8.233   7.959  0.4924 -0.9929 -1.0065
12311SOL     OW43278   6.212   8.945   4.269  0.5074 -0.8607 -0.1415
12311SOL    HW143279   6.175   9.032   4.279 -0.3456 -1.2061 -0.2386
12311SOL    HW243280   6.157   8.902   4.204  0.7754 -1.5479  0.0756
12312SOL     OW43281   8.924   0.609   0.726  0.2596 -0.4747  0.1854
12312SOL    HW143282   8.855   0.648   0.780  1.3636  0.2216  1.1526
12312SOL    HW243283   8.972   0.684   0.691 -0.1994 -0.9191 -1.5092
12313SOL     OW43284   1.321   8.821   5.256  0.4309 -0.3285  0.4948
12313SOL    HW143285   1.394   8.839   5.315  1.0941  1.7691 -0.8487
12313SOL    HW243286   1.334   8.730   5.230  0.7583 -0.9579  2.6436
12314SOL     OW43287   6.233   0.948   4.137  0.2384  0.0095 -0.2282
12314SOL    HW143288   6.290   0.969   4.063  0.7055  1.4465  0.4882
12314SOL    HW243289   6.166   1.016   4.136 -1.1925 -1.3470 -0.7317
12315SOL     OW43290   4.383   1.158   1.165  0.2461  0.4474 -0.5570
12315SOL    HW143291   4.381   1.208   1.247  1.6665 -0.4412  0.0529
12315SOL    HW243292   4.456   1.196   1.115 -0.4696  0.8359 -1.3350
12316SOL     OW43293   3.911   2.658   4.974 -0.4064  0.4488 -0.2115
12316SOL    HW143294   3.887   2.571   5.006 -0.6602  0.2588 -0.9072
12316SOL    HW243295   3.842   2.680   4.911 -1.2965  1.8652  1.1867
12317SOL     OW43296   1.428   0.110   4.692 -0.1858  0.2300 -0.2302
12317SOL    HW143297   1.480   0.190   4.692  0.4473 -0.1802  0.1753
12317SOL    HW243298   1.391   0.105   4.780 -1.0269  0.5851 -0.5514
12318SOL     OW43299   2.868   6.044   4.192  0.2876  0.1305 -0.4726
12318SOL    HW143300   2.814   5.984   4.142 -0.7623 -0.3761  1.1820
12318SOL    HW243301   2.814   6.069   4.267  2.4726 -0.7935  1.5259
12319SOL     OW43302   0.758   5.085   8.948 -0.0309 -0.0149 -0.0525
12319SOL    HW143303   0.721   5.125   8.869  1.1764  1.2935  0.0162
12319SOL    HW243304   0.796   5.003   8.917 -0.8487 -0.2250 -0.5498
12320SOL     OW43305   0.447   0.258   0.589 -0.5551  0.5816  0.1412
12320SOL    HW143306   0.480   0.340   0.554 -0.7468  0.8650  0.6141
12320SOL    HW243307   0.432   0.275   0.682 -1.2584  0.2188  0.1059
12321SOL     OW43308   4.290   4.884   4.434 -0.5755  0.2174  0.0464
12321SOL    HW143309   4.290   4.931   4.517  3.0691  0.6274 -0.0001
12321SOL    HW243310   4.340   4.804   4.451 -0.2788  0.0139 -1.5677
12322SOL     OW43311   6.854   0.435   8.706  0.0090 -0.0252  0.4631
12322SOL    HW143312   6.948   0.450   8.711 -0.3401  2.1895  2.3345
12322SOL    HW243313   6.840   0.396   8.620  2.4821  1.0063 -0.4928
12323SOL     OW43314   0.047   4.154   2.521 -0.3017 -0.1434  0.7396
12323SOL    HW143315   0.047   4.249   2.516  1.6960 -0.0554  1.3493
12323SOL    HW243316   0.030   4.134   2.613  0.0457 -0.3378  0.7642
12324SOL     OW43317   4.785   2.965   5.517 -0.2798  0.3510  0.2664
12324SOL    HW143318   4.699   2.954   5.475  0.4582 -0.2899 -1.1422
12324SOL    HW243319   4.812   3.054   5.494 -1.9916  1.9184  3.5774
12325SOL     OW43320   4.156   2.949   2.506  0.6049  0.0438 -0.3770
12325SOL    HW143321   4.136   3.010   2.577  0.4679  0.4340 -0.7476
12325SOL    HW243322   4.100   2.873   2.524 -0.7648  0.8549 -1.0352
12326SOL     OW43323   9.079   4.244   9.125  0.2309  0.4556 -0.6580
12326SOL    HW143324   9.153   4.293   9.090  2.3767 -1.7506  0.5529
12326SOL    HW243325   9.116   4.183   9.189 -2.6036 -0.8353 -0.0332
12327SOL     OW43326   2.261   7.016   4.739  0.5856 -0.5190  0.2502
12327SOL    HW143327   2.224   6.947   4.683 -0.6171 -0.4005  0.8625
12327SOL    HW243328   2.220   7.002   4.824 -0.9730  1.8893  0.0013
12328SOL     OW43329   3.428   8.024   5.852  0.0136 -0.1347 -0.0682
12328SOL    HW143330   3.461   8.003   5.764  1.7233  3.0288 -0.3502
12328SOL    HW243331   3.485   8.095   5.882 -1.2617 -0.3127  3.1680
12329SOL     OW43332   1.548   2.982   0.912 -0.3633 -0.3649 -0.4153
12329SOL    HW143333   1.478   2.932   0.954  0.8456 -1.8562 -0.0840
12329SOL    HW243334   1.585   2.922   0.847  0.0312  0.7059 -1.2117
12330SOL     OW43335   7.411   1.659   0.815  0.1635 -0.3227 -0.6247
12330SOL    HW143336   7.503   1.682   0.826  0.0747  0.3436 -1.2475
12330SOL    HW243337   7.378   1.721   0.750 -1.2096  0.7234  0.9840
12331SOL     OW43338   1.815   0.730   2.360 -0.5181 -0.1923  0.3131
12331SOL    HW143339   1.808   0.645   2.404  0.3635  0.2237  1.3003
12331SOL    HW243340   1.797   0.795   2.428  1.5498  0.4854  0.2890
12332SOL     OW43341   2.307   0.846   5.380 -0.3986 -0.5676  0.5697
12332SOL    HW143342   2.339   0.934   5.397  0.6637 -0.8661  0.1773
12332SOL    HW243343   2.252   0.855   5.301 -1.7568  0.0347  1.5497
12333SOL     OW43344   2.661   8.288   3.974 -0.0211  0.5490 -0.3892
12333SOL    HW143345   2.753   8.299   3.999  0.0021  0.3604 -0.3899
12333SOL    HW243346   2.612   8.330   4.044  0.0397 -0.0833  0.0434
12334SOL     OW43347   1.711   4.675   3.832 -0.2223 -0.5784  0.4677
12334SOL    HW143348   1.696   4.581   3.818  0.6864 -0.5558 -0.8676
12334SOL    HW243349   1.791   4.679   3.884  0.4406 -0.5331 -0.5399
12335SOL     OW43350   3.030   6.007   6.709 -0.2865 -0.2763 -0.7552
12335SOL    HW143351   2.989   5.922   6.693 -1.9951 -0.0331  1.6882
12335SOL    HW243352   3.094   5.991   6.778 -0.6856  0.4028 -0.2083
12336SOL     OW43353   4.583   0.673   8.994 -0.4466 -0.8143  0.1628
12336SOL    HW143354   4.537   0.608   9.048  0.1418 -1.7941 -0.4723
12336SOL    HW243355   4.567   0.644   8.904  2.1577 -1.8012 -0.0824
12337SOL     OW43356   5.018   5.142   6.363  0.1209  0.0033  0.2376
12337SOL    HW143357   5.062   5.069   6.407  1.7293  0.9446  0.2547
12337SOL    HW243358   4.947   5.166   6.422 -1.1934 -2.2584 -0.2910
12338SOL     OW43359   4.813   6.572   6.351  0.2609  0.4296  0.3052
12338SOL    HW143360   4.865   6.528   6.284 -0.8599  0.4550 -0.6105
12338SOL    HW243361   4.875   6.588   6.422  1.1106 -1.0388 -0.0494
12339SOL     OW43362   6.622   5.587   4.667 -0.3563  0.1557  0.0945
12339SOL    HW143363   6.606   5.517   4.603 -0.0107  1.6827 -1.7594
12339SOL    HW243364   6.535   5.611   4.698 -0.9266  1.4577 -2.2082
12340SOL     OW43365   4.613   4.328   2.210 -0.1506 -0.3723  0.3274
12340SOL    HW143366   4.687   4.362   2.260  0.0433  0.5592 -0.5575
12340SOL    HW243367   4.579   4.256   2.263  0.6366 -0.0320  1.3243
12341SOL     OW43368   3.641   6.822   0.836  0.1460 -0.1885  0.3597
12341SOL    HW143369   3.549   6.846   0.830  0.5191  0.9145 -3.0113
12341SOL    HW243370   3.684   6.874   0.768  3.2667 -0.7702  1.7108
12342SOL     OW43371   5.243   3.435   3.409 -0.6311  0.2345 -0.2420
12342SOL    HW143372   5.293   3.467   3.334 -0.0387  0.2774  0.1683
12342SOL    HW243373   5.264   3.342   3.414  0.4983  0.5259  0.7598
12343SOL     OW43374   1.019   2.701   5.515 -0.1238  0.9779 -0.1928
12343SOL    HW143375   0.954   2.688   5.584  1.0790  0.6587  0.9233
12343SOL    HW243376   0.995   2.785   5.475 -1.6121  0.5485 -0.2836
12344SOL     OW43377   1.243   7.094   7.625  0.1117 -0.1919  0.0920
12344SOL    HW143378   1.174   7.076   7.689 -0.8619 -0.7189 -1.0514
12344SOL    HW243379   1.279   7.007   7.605  2.3455  0.2188  1.9337
12345SOL     OW43380   6.225   7.039   4.307 -0.5350  0.4262 -0.0481
12345SOL    HW143381   6.226   6.986   4.228 -0.2632 -0.4198  0.5107
12345SOL    HW243382   6.158   7.000   4.362  0.2979  0.0721  0.7459
12346SOL     OW43383   5.076   7.648   0.015  0.0879  0.4410 -0.0154
12346SOL    HW143384   5.093   7.690  -0.070 -0.3035  0.2433 -0.1935
12346SOL    HW243385   4.981   7.636   0.017 -0.0432  1.4357  0.9193
12347SOL     OW43386   0.489   6.219   2.113 -0.0103 -0.0962  0.1626
12347SOL    HW143387   0.502   6.289   2.048 -1.3966  0.3570  0.3413
12347SOL    HW243388   0.577   6.185   2.129  0.7365  1.7350  0.2074
12348SOL     OW43389   5.931   4.345   4.432 -0.5974 -0.6519  0.3136
12348SOL    HW143390   5.942   4.340   4.337 -1.0947  0.4790  0.1879
12348SOL    HW243391   6.005   4.294   4.467  0.0025 -0.4708 -0.6621
12349SOL     OW43392   5.465   3.557   4.166 -0.4219  0.1822 -0.2396
12349SOL    HW143393   5.390   3.566   4.225 -0.4926 -0.4189 -0.2394
12349SOL    HW243394   5.455   3.629   4.103 -0.6470  0.4913  0.1435
12350SOL     OW43395   2.991   5.839   4.426 -0.2000 -0.8589  0.0596
12350SOL    HW143396   2.970   5.841   4.333  0.8807  0.9950 -0.1799
12350SOL    HW243397   2.908   5.816   4.468 -1.2966  0.5623 -1.2094
12351SOL     OW43398   8.172   3.152   8.721  0.5255 -0.2538  0.2518
12351SOL    HW143399   8.101   3.187   8.775  1.2372  0.0314  1.0185
12351SOL    HW243400   8.167   3.057   8.733  0.6857 -0.1913  0.8367
12352SOL     OW43401   1.641   3.930   1.004 -0.1441  0.6269  0.0454
12352SOL    HW143402   1.615   3.994   1.070  1.7728  0.8587  0.6481
12352SOL    HW243403   1.641   3.846   1.051 -2.2639  0.1966 -0.6390
12353SOL     OW43404   8.055   6.757   8.405 -0.1565 -0.1923  0.3784
12353SOL    HW143405   8.109   6.828   8.440  0.6848  0.2160 -1.6070
12353SOL    HW243406   8.037   6.700   8.481  1.9585  0.3566  1.3519
12354SOL     OW43407   1.699   7.703   6.089 -0.6086  0.2416  0.1639
12354SOL    HW143408   1.689   7.774   6.152 -2.5712 -0.6682  0.9832
12354SOL    HW243409   1.639   7.727   6.017  0.8594  0.7768 -0.9281
12355SOL     OW43410   7.239   7.589   3.856 -0.3628  0.3429  0.6176
12355SOL    HW143411   7.190   7.522   3.810 -0.0100 -0.7539  1.7764
12355SOL    HW243412   7.172   7.641   3.901 -0.6170  0.6147 -0.0592
12356SOL     OW43413   8.865   3.373   8.679 -0.5932  0.1633 -0.0754
12356SOL    HW143414   8.936   3.350   8.738 -1.1443  0.4028  0.6934
12356SOL    HW243415   8.814   3.293   8.670 -0.5692  0.1555 -0.1428
12357SOL     OW43416   0.523   0.420   8.073  0.2834  0.2783 -0.2577
12357SOL    HW143417   0.429   0.400   8.068  0.3458  0.2085 -4.3539
12357SOL    HW243418   0.562   0.340   8.107 -1.0404 -0.0634  0.5558
12358SOL     OW43419   3.087   8.045   2.209  0.2862 -0.1221  0.2667
12358SOL    HW143420   3.080   7.950   2.219 -1.5396 -0.0863 -0.3260
12358SOL    HW243421   3.091   8.058   2.114  1.4808  0.3637  0.3695
12359SOL     OW43422   1.422   3.485   3.944  0.2208  0.2585  0.8175
12359SOL    HW143423   1.327   3.490   3.935  0.1259 -0.7098  1.1547
12359SOL    HW243424   1.453   3.573   3.923 -0.7119  0.4654  0.2477
12360SOL     OW43425   2.752   5.033   2.579  0.0627 -0.0009  0.0831
12360SOL    HW143426   2.831   5.032   2.524 -0.5287 -0.0817 -0.7827
12360SOL    HW243427   2.735   4.941   2.598  0.2558  0.0257  0.4020
12361SOL     OW43428   8.218   6.741   4.837 -0.6620  0.1852 -0.9856
12361SOL    HW143429   8.291   6.707   4.888  0.7195  2.0492 -1.6399
12361SOL    HW243430   8.168   6.795   4.898  0.3364  1.4820 -1.2925
12362SOL     OW43431   0.707   0.273   0.847 -0.3065  0.2717  0.1864
12362SOL    HW143432   0.663   0.230   0.921 -0.7717 -2.5710 -1.5892
12362SOL    HW243433   0.650   0.256   0.772  1.3391  0.9384 -1.2790
12363SOL     OW43434   4.027   3.975   4.020 -0.2804  0.5832 -0.5196
12363SOL    HW143435   3.994   3.943   4.104  2.1006 -0.8220 -0.0313
12363SOL    HW243436   3.993   3.911   3.956  1.0762 -0.6135 -0.0798
12364SOL     OW43437   5.782   0.015   7.487 -0.3326  0.2658  0.0232
12364SOL    HW143438   5.741  -0.056   7.438 -1.4312  1.2400 -0.5261
12364SOL    HW243439   5.876  -0.002   7.481 -0.5344 -0.5981 -0.9201
12365SOL     OW43440   3.245   3.929   5.818  0.6281  0.1869 -0.3720
12365SOL    HW143441   3.338   3.917   5.802  0.5615  1.5640 -2.1771
12365SOL    HW243442   3.214   3.980   5.743 -1.6664 -0.5693 -0.0344
12366SOL     OW43443   1.537   7.430   2.099  0.0449  0.2744 -0.1113
12366SOL    HW143444   1.597   7.489   2.144 -0.5853 -0.6242  2.0704
12366SOL    HW243445   1.573   7.343   2.114 -0.2935 -0.0724 -1.2319
12367SOL     OW43446   2.922   1.289   3.737 -0.2487  0.2615  0.0787
12367SOL    HW143447   2.960   1.352   3.676 -1.6297 -0.0957 -1.1940
12367SOL    HW243448   2.939   1.203   3.698 -1.2704  0.0371  0.0956
12368SOL     OW43449   0.967   5.954   5.937 -0.4816 -0.5019 -0.0480
12368SOL    HW143450   1.044   5.900   5.920 -0.4494 -0.6438  0.5402
12368SOL    HW243451   0.933   5.974   5.850  0.3800 -0.2044 -0.3283
12369SOL     OW43452   2.780   2.458   7.303  0.2494  0.3886  0.1167
12369SOL    HW143453   2.699   2.456   7.353  0.3316  0.7762  0.2681
12369SOL    HW243454   2.848   2.438   7.367  0.2830  0.1476  0.0073
12370SOL     OW43455   8.476   8.772   5.486  0.1106 -0.4487  0.1265
12370SOL    HW143456   8.416   8.706   5.523  0.7870 -0.6030  0.9780
12370SOL    HW243457   8.526   8.724   5.420  1.0987 -1.0036  1.2376
12371SOL     OW43458   8.935   9.140   2.200 -0.0515 -0.4484  0.3500
12371SOL    HW143459   9.024   9.172   2.185  0.2077 -1.3180 -0.0096
12371SOL    HW243460   8.941   9.088   2.280  0.1716 -2.0376 -0.6667
12372SOL     OW43461   1.722   1.276   7.010  0.1169 -0.4343 -0.1472
12372SOL    HW143462   1.703   1.256   7.102  0.7133  0.0782  0.0946
12372SOL    HW243463   1.708   1.193   6.964 -2.0706 -0.2577  0.0886
12373SOL     OW43464   0.288   8.131   7.414  0.4078 -0.0542  0.3646
12373SOL    HW143465   0.217   8.089   7.365  1.1334 -0.8456 -0.0318
12373SOL    HW243466   0.244   8.174   7.487 -0.7280  1.2552 -1.0245
12374SOL     OW43467   4.914   5.903   7.274  0.0054 -0.4589  0.1428
12374SOL    HW143468   4.900   5.981   7.220  0.0881 -0.5100  0.0464
12374SOL    HW243469   4.972   5.933   7.344  1.1378 -0.7334 -0.6326
12375SOL     OW43470   7.770   8.345   1.568 -0.0252  0.2221 -0.0487
12375SOL    HW143471   7.863   8.366   1.575 -0.5409  1.9986  3.2072
12375SOL    HW243472   7.725   8.428   1.584 -2.2230 -0.7576 -0.7034
12376SOL     OW43473   1.655   1.208   3.805 -0.1499 -0.0907  0.2234
12376SOL    HW143474   1.611   1.285   3.768 -0.7042 -0.3349  0.3589
12376SOL    HW243475   1.584   1.144   3.817  0.0930 -0.1712  1.2844
12377SOL     OW43476   6.671   2.153   7.091 -0.2240 -0.2468  0.5636
12377SOL    HW143477   6.740   2.141   7.157  0.1427 -3.0916 -0.2382
12377SOL    HW243478   6.626   2.233   7.119  2.3036  0.7798  2.0667
12378SOL     OW43479   8.176   0.471   5.833  0.6311  0.2411 -0.2485
12378SOL    HW143480   8.219   0.529   5.897 -0.4765  0.9868 -0.1433
12378SOL    HW243481   8.118   0.529   5.783 -0.6217 -0.7848 -0.0511
12379SOL     OW43482   2.990   7.728   1.825 -0.0038  0.3086 -0.0983
12379SOL    HW143483   3.071   7.733   1.876  0.2221 -1.9477 -0.1385
12379SOL    HW243484   2.994   7.803   1.767  2.8705 -0.5388 -1.1854
12380SOL     OW43485   4.204   1.512   6.890 -0.1205  0.1026 -0.3823
12380SOL    HW143486   4.153   1.525   6.970  0.6680 -1.7319  0.4726
12380SOL    HW243487   4.189   1.421   6.866  2.2416 -0.3365 -0.4308
12381SOL     OW43488   7.834   1.611   1.169  0.0145  0.3190  0.3789
12381SOL    HW143489   7.795   1.666   1.237 -1.0596  1.1703 -0.8642
12381SOL    HW243490   7.910   1.660   1.139 -1.1498  1.3910 -0.9833
12382SOL     OW43491   4.805   6.093   4.724 -0.2046 -0.1798  0.8378
12382SOL    HW143492   4.888   6.078   4.768 -1.0823  1.0860  3.1430
12382SOL    HW243493   4.743   6.035   4.769 -0.3333 -2.4626 -2.0410
12383SOL     OW43494   8.543   6.505   1.769  0.0309 -0.2511  0.1875
12383SOL    HW143495   8.580   6.510   1.857  0.6806  1.5067 -0.1447
12383SOL    HW243496   8.501   6.590   1.756 -0.9591 -0.8722 -0.8239
12384SOL     OW43497   0.811   1.605   6.661 -0.8652  0.8890 -0.3701
12384SOL    HW143498   0.834   1.575   6.749  1.2568  0.8356 -0.8792
12384SOL    HW243499   0.762   1.533   6.622 -0.0779  0.0824  0.0981
12385SOL     OW43500   2.695   5.687   3.809 -0.2232  0.1184  0.7174
12385SOL    HW143501   2.624   5.624   3.821  0.1134 -0.2814  0.6495
12385SOL    HW243502   2.712   5.686   3.714 -0.0577  0.1321  0.7463
12386SOL     OW43503   8.899   6.185   9.005 -0.3055  0.0919 -0.4150
12386SOL    HW143504   8.851   6.103   9.013 -0.9328  0.3840 -1.0500
12386SOL    HW243505   8.986   6.165   9.037 -1.4416  0.1333  3.1351
12387SOL     OW43506   8.938   3.120   4.806 -0.3066 -0.0824  0.2979
12387SOL    HW143507   8.926   3.179   4.732 -2.6711 -1.8038 -0.8258
12387SOL    HW243508   9.004   3.057   4.776 -0.3908 -0.0813  0.1084
12388SOL     OW43509   0.101   4.332   8.704  0.6530  0.1949 -0.0125
12388SOL    HW143510   0.113   4.257   8.762 -0.8007 -0.2715 -0.2647
12388SOL    HW243511   0.155   4.401   8.742  1.8936 -0.9119  0.3206
12389SOL     OW43512   6.195   3.634   5.082 -0.3108 -0.2822 -0.2386
12389SOL    HW143513   6.189   3.545   5.048 -0.4027 -0.5639  0.4909
12389SOL    HW243514   6.227   3.622   5.172  0.5656  0.4770 -0.4392
12390SOL     OW43515   0.062   5.541   5.391  0.0649  0.9439 -0.0487
12390SOL    HW143516   0.124   5.485   5.345 -3.0164 -0.7129 -2.6094
12390SOL    HW243517   0.008   5.579   5.321 -0.9566  3.4311  1.9278
12391SOL     OW43518   5.845   3.575   5.328 -0.3315  0.1247 -0.2418
12391SOL    HW143519   5.909   3.515   5.291  0.5376  0.1490  1.1438
12391SOL    HW243520   5.762   3.529   5.322  0.0275 -0.4488 -0.8900
12392SOL     OW43521   8.310   2.372   5.617  0.0345 -0.4080 -0.3147
12392SOL    HW143522   8.215   2.359   5.609 -0.3182  1.0519  0.9038
12392SOL    HW243523   8.331   2.435   5.547 -0.2695  0.6806  0.5351
12393SOL     OW43524   3.345   9.068   2.569 -0.2029 -0.1207 -0.3426
12393SOL    HW143525   3.369   9.019   2.490  0.5847  0.6974 -0.6343
12393SOL    HW243526   3.299   9.005   2.624  0.7193 -1.1680 -0.7369
12394SOL     OW43527   1.999   4.738   3.846 -0.0173 -0.3350 -0.0144
12394SOL    HW143528   2.090   4.709   3.840 -0.1718 -0.7741 -0.2421
12394SOL    HW243529   1.999   4.801   3.918  0.4496 -0.3956  0.0420
12395SOL     OW43530   5.207   7.824   5.915 -0.1192  0.4269 -0.2859
12395SOL    HW143531   5.234   7.858   5.830  0.9007 -1.1499 -0.6333
12395SOL    HW243532   5.223   7.896   5.976  0.6786  1.0210 -1.1766
12396SOL     OW43533   7.221   0.880   5.657  0.5604 -0.1708 -0.4518
12396SOL    HW143534   7.197   0.972   5.670 -0.8099 -0.6035  0.2400
12396SOL    HW243535   7.149   0.831   5.695 -0.4506 -1.5719 -3.8110
12397SOL     OW43536   4.265   2.355   3.837 -0.0339  0.0479  0.0340
12397SOL    HW143537   4.207   2.424   3.804  0.4845  0.7762  0.6175
12397SOL    HW243538   4.338   2.353   3.775 -0.3165 -0.3646 -0.2911
12398SOL     OW43539   8.826   4.562   7.362  0.3646  0.1424  0.3832
12398SOL    HW143540   8.794   4.612   7.287 -0.4340  1.1564  1.3709
12398SOL    HW243541   8.861   4.482   7.324 -2.5065 -0.6364 -0.8837
12399SOL     OW43542   0.768   6.961   3.950 -0.1493  0.1222  0.4257
12399SOL    HW143543   0.758   7.056   3.960  0.8374  0.3223 -0.3107
12399SOL    HW243544   0.746   6.944   3.858  0.5979 -0.2154  0.2976
12400SOL     OW43545   5.993   2.082   0.629  0.0103 -0.1723  0.1080
12400SOL    HW143546   5.927   2.140   0.591 -0.9831 -0.7854  0.8507
12400SOL    HW243547   6.076   2.121   0.603 -0.6334  0.8370 -0.5278
12401SOL     OW43548   8.875   3.085   3.720  0.0670  0.4967  0.3307
12401SOL    HW143549   8.828   3.012   3.760 -0.9470  1.2562  0.5399
12401SOL    HW243550   8.874   3.154   3.787  2.0989  0.3139  0.6279
12402SOL     OW43551   8.460   8.650   2.655 -1.3014  0.1273 -0.1509
12402SOL    HW143552   8.371   8.672   2.626 -1.0296  0.3955 -0.8188
12402SOL    HW243553   8.516   8.704   2.599 -0.7416  0.4874  0.7415
12403SOL     OW43554   1.708   5.649   4.387  0.0817 -0.3776 -0.1796
12403SOL    HW143555   1.698   5.742   4.366  0.0355 -0.5205 -0.8081
12403SOL    HW243556   1.641   5.605   4.336 -0.2418 -0.7158  0.5171
12404SOL     OW43557   5.509   5.664   5.464 -0.3744 -0.4154 -0.0857
12404SOL    HW143558   5.424   5.706   5.480  0.0205  0.1688  0.5071
12404SOL    HW243559   5.526   5.615   5.545  0.6410  0.8309  0.4710
12405SOL     OW43560   3.995   5.178   1.172 -0.6176 -0.5729  0.1806
12405SOL    HW143561   3.955   5.257   1.209  0.1963 -0.1739  0.2251
12405SOL    HW243562   4.028   5.206   1.087 -0.9645 -1.0579 -0.1165
12406SOL     OW43563   3.452   0.750   2.681 -0.1624 -0.3722 -0.2736
12406SOL    HW143564   3.480   0.827   2.631  0.2182 -0.1269  0.3098
12406SOL    HW243565   3.511   0.681   2.652 -0.4926 -0.4479 -0.7853
12407SOL     OW43566   8.285   5.650   1.950 -0.6536 -0.3092 -0.0098
12407SOL    HW143567   8.350   5.581   1.959 -1.5457 -1.0095  1.3985
12407SOL    HW243568   8.204   5.612   1.984 -1.4395  1.0612 -0.2455
12408SOL     OW43569   2.366   7.201   2.594 -0.3287  0.3494  0.0019
12408SOL    HW143570   2.458   7.196   2.567 -0.3854  0.2378 -0.1732
12408SOL    HW243571   2.317   7.166   2.519 -0.5292  0.6384 -0.0031
12409SOL     OW43572   7.109   1.212   3.024  0.2653  0.5999 -0.4037
12409SOL    HW143573   7.174   1.235   2.957  0.6405 -0.9552 -0.6122
12409SOL    HW243574   7.067   1.133   2.990  0.7291 -0.4541  1.3551
12410SOL     OW43575   6.027   9.136   3.978 -0.6458  0.5443  0.0945
12410SOL    HW143576   5.939   9.114   4.009 -0.6719  0.5446  0.0190
12410SOL    HW243577   6.012   9.183   3.896 -0.5264 -0.6104 -0.6104
12411SOL     OW43578   5.037   9.020   5.687  0.3794 -0.0402 -0.0031
12411SOL    HW143579   4.944   9.042   5.696  0.8183  1.1267  2.3507
12411SOL    HW243580   5.076   9.098   5.647  0.3333 -0.6336 -1.2412
12412SOL     OW43581   0.472   8.060   5.647  0.0804  0.3235 -0.0743
12412SOL    HW143582   0.484   8.088   5.738 -1.4271  0.1662  0.1991
12412SOL    HW243583   0.379   8.035   5.642  0.4794 -1.0274 -1.2830
12413SOL     OW43584   7.319   7.146   8.113 -0.0976 -0.3676  0.5597
12413SOL    HW143585   7.237   7.097   8.126  0.4746 -1.1421  1.4455
12413SOL    HW243586   7.332   7.192   8.196  1.6735 -2.3233  1.4616
12414SOL     OW43587   5.041   3.155   2.547 -0.2516  0.7203 -0.1748
12414SOL    HW143588   4.952   3.188   2.550 -1.0172 -0.9040  4.9736
12414SOL    HW243589   5.033   3.068   2.507 -1.2279  0.1781  1.1398
12415SOL     OW43590   8.782   7.164   7.974 -0.6841  0.3301  0.6468
12415SOL    HW143591   8.761   7.215   8.052 -1.5129 -0.8206  1.2029
12415SOL    HW243592   8.716   7.094   7.972 -1.1206  0.7324 -1.4818
12416SOL     OW43593   0.939   3.744   4.414 -0.0086  0.2439 -0.5097
12416SOL    HW143594   0.894   3.694   4.346 -1.1378  0.0829  0.3164
12416SOL    HW243595   1.010   3.789   4.369  1.2300 -2.2680 -1.2830
12417SOL     OW43596   5.952   2.203   5.915 -0.2169  0.3578  0.0635
12417SOL    HW143597   5.914   2.117   5.933 -0.2119  0.1308 -0.9480
12417SOL    HW243598   5.955   2.208   5.819  3.5313 -0.2212  0.0011
12418SOL     OW43599   8.559   8.022   5.304 -0.3629  0.0476 -0.0192
12418SOL    HW143600   8.615   7.968   5.249 -0.0292  2.3324 -2.0757
12418SOL    HW243601   8.620   8.077   5.354 -0.7287  0.2782  0.1820
12419SOL     OW43602   5.869   2.089   0.904 -0.4092 -0.3206 -0.1067
12419SOL    HW143603   5.915   2.113   0.824 -0.9999  0.6492 -0.1619
12419SOL    HW243604   5.813   2.015   0.879 -0.6575  0.0372 -0.6072
12420SOL     OW43605   6.691   4.436   2.419 -0.0448  0.6169 -0.4428
12420SOL    HW143606   6.722   4.525   2.403  2.3999 -0.2538 -0.9300
12420SOL    HW243607   6.702   4.423   2.513 -0.8237  0.9384 -0.2949
12421SOL     OW43608   6.325   5.243   0.272 -0.4497 -0.5586  0.1053
12421SOL    HW143609   6.300   5.196   0.193 -2.4748 -0.1877  0.4897
12421SOL    HW243610   6.377   5.317   0.240  2.9148 -2.9120 -0.5108
12422SOL     OW43611   7.639   8.765   7.190  0.2800  0.2352 -0.2808
12422SOL    HW143612   7.555   8.804   7.213 -0.0919 -0.8619  0.2926
12422SOL    HW243613   7.652   8.696   7.255  0.7765 -0.7699 -1.4071
12423SOL     OW43614   4.394   5.048   2.810 -0.7366  0.1692  0.3755
12423SOL    HW143615   4.366   5.112   2.875 -0.6384  1.0450 -0.4321
12423SOL    HW243616   4.486   5.031   2.831 -0.7949  0.1843  0.6581
12424SOL     OW43617   3.200   6.611   1.177  0.2056  0.6316 -0.2052
12424SOL    HW143618   3.191   6.613   1.081 -0.1964 -0.2098 -0.1905
12424SOL    HW243619   3.225   6.701   1.200  0.0850  0.9020 -1.0758
12425SOL     OW43620   4.052   7.086   3.617 -0.5199 -0.1125 -0.5149
12425SOL    HW143621   3.990   7.096   3.545 -1.0580  0.5923  0.0289
12425SOL    HW243622   4.088   7.173   3.630 -1.8136  0.2246  1.2667
12426SOL     OW43623   1.504   6.638   4.186  0.3605 -0.4097 -0.5461
12426SOL    HW143624   1.451   6.707   4.227 -0.2090 -0.9014 -0.4528
12426SOL    HW243625   1.443   6.592   4.128  0.8188 -0.6295 -0.8572
12427SOL     OW43626   6.191   1.726   7.480  0.5660 -0.4935 -0.1984
12427SOL    HW143627   6.172   1.800   7.536 -1.7332 -0.0465 -1.4434
12427SOL    HW243628   6.263   1.756   7.424  2.0181 -0.5092  1.5792
12428SOL     OW43629   2.069   6.194   1.121 -0.2581 -0.3829  0.0687
12428SOL    HW143630   2.076   6.265   1.057 -0.6322 -2.0631 -1.9290
12428SOL    HW243631   1.978   6.199   1.153 -0.2976 -0.0020 -0.0993
12429SOL     OW43632   8.476   8.224   6.356 -0.0248 -0.3907  0.2278
12429SOL    HW143633   8.429   8.305   6.340 -0.2024 -0.3071  1.1169
12429SOL    HW243634   8.416   8.155   6.326  0.3899 -0.1943 -1.1470
12430SOL     OW43635   3.107   7.130   6.475  0.1775  0.2868  0.0517
12430SOL    HW143636   3.053   7.054   6.498  0.6227  0.4140  1.5912
12430SOL    HW243637   3.147   7.106   6.391  0.2062 -1.1282  0.4364
12431SOL     OW43638   7.917   1.095   3.813 -0.7962  0.2079  0.3886
12431SOL    HW143639   7.982   1.048   3.761 -0.6296  2.3637 -1.5179
12431SOL    HW243640   7.968   1.134   3.884 -0.6881 -1.1538  1.0901
12432SOL     OW43641   0.475   1.177   4.706  0.0946  0.1719 -0.7433
12432SOL    HW143642   0.505   1.096   4.748  0.7897  0.5879 -0.4205
12432SOL    HW243643   0.385   1.158   4.679  0.0251 -0.4891 -0.0895
12433SOL     OW43644   7.863   9.077   2.306  0.0662 -0.0969 -0.0942
12433SOL    HW143645   7.792   9.041   2.252 -0.1573  0.2991 -0.0735
12433SOL    HW243646   7.822   9.148   2.355  0.4344  0.0104  0.0629
12434SOL     OW43647   1.171   0.523   3.209 -0.3512 -0.6032  0.0810
12434SOL    HW143648   1.125   0.520   3.293 -0.8280  0.5482 -0.1289
12434SOL    HW243649   1.264   0.520   3.232 -0.4910 -0.9068  0.6129
12435SOL     OW43650   1.882   1.283   2.169  0.3000  0.2970 -0.5812
12435SOL    HW143651   1.853   1.343   2.238 -0.1565 -0.1598 -0.3685
12435SOL    HW243652   1.903   1.340   2.095  1.2008  0.8303  0.0641
12436SOL     OW43653   5.024   0.191   9.116 -0.2380  0.0714  0.2744
12436SOL    HW143654   5.037   0.110   9.067 -1.0587 -0.6251  1.1643
12436SOL    HW243655   5.112   0.217   9.143  0.1753  0.1904 -1.0909
12437SOL     OW43656   3.816   8.552   4.394  0.0127 -0.4678  0.2662
12437SOL    HW143657   3.794   8.464   4.424 -1.3546  0.3318  1.8652
12437SOL    HW243658   3.778   8.558   4.306 -0.4246 -1.2896  0.3884
12438SOL     OW43659   3.493   3.095   0.634  0.5578 -0.4991 -0.2892
12438SOL    HW143660   3.450   3.155   0.573  1.4538 -1.5192 -1.9902
12438SOL    HW243661   3.513   3.149   0.710 -0.5434  0.8387 -0.9042
12439SOL     OW43662   3.199   4.382   2.489 -0.5806  0.1116  0.1521
12439SOL    HW143663   3.279   4.344   2.454 -0.0481  0.7773  0.6220
12439SOL    HW243664   3.131   4.358   2.425  0.3048  1.0278 -1.1921
12440SOL     OW43665   3.725   0.413   8.549  0.0221  0.0169 -0.6912
12440SOL    HW143666   3.633   0.386   8.552  0.0315 -0.1402 -1.5961
12440SOL    HW243667   3.751   0.399   8.458  0.6425  1.0672 -0.6871
12441SOL     OW43668   5.115   5.024   1.502 -0.1293  0.0858 -0.0890
12441SOL    HW143669   5.175   5.012   1.428 -1.8614 -2.3753 -1.2602
12441SOL    HW243670   5.149   4.965   1.570 -1.2937 -1.5638 -0.8742
12442SOL     OW43671   2.062   2.951   3.857  0.5041 -0.3746 -0.0169
12442SOL    HW143672   2.113   3.031   3.866 -0.3885  0.5691 -2.3465
12442SOL    HW243673   2.065   2.910   3.943  2.6026  1.1645  0.7274
12443SOL     OW43674   3.502   5.796   3.174 -0.2151  0.3662 -0.7293
12443SOL    HW143675   3.409   5.778   3.182  0.1214 -0.8231  1.2701
12443SOL    HW243676   3.540   5.712   3.147  0.5909 -0.1633  1.7674
12444SOL     OW43677   3.520   2.165   1.386 -0.3284 -0.1781  0.3519
12444SOL    HW143678   3.435   2.208   1.378 -0.6477 -0.9722 -0.8129
12444SOL    HW243679   3.581   2.236   1.406 -1.0259  0.6512 -0.3951
12445SOL     OW43680   0.249   2.981   4.136 -0.0343  0.5793 -0.3871
12445SOL    HW143681   0.209   2.918   4.077 -0.0720  0.5657 -0.3475
12445SOL    HW243682   0.204   3.064   4.118  1.1511  0.9838 -1.6039
12446SOL     OW43683   8.853   0.107   8.489  0.1420 -0.4181 -0.3354
12446SOL    HW143684   8.899   0.041   8.541 -0.8279 -0.0139  1.0987
12446SOL    HW243685   8.768   0.067   8.469 -0.5131  0.3988  0.6693
12447SOL     OW43686   1.956   7.267   1.899  0.4154  0.0206  0.2839
12447SOL    HW143687   1.939   7.197   1.961  0.2772 -0.2818 -0.0878
12447SOL    HW243688   2.019   7.324   1.943  1.1317 -0.7529  0.2900
12448SOL     OW43689   1.913   1.753   7.548  0.4996 -0.0635  0.0239
12448SOL    HW143690   1.981   1.691   7.524  0.3625  0.2069 -1.1117
12448SOL    HW243691   1.885   1.792   7.465 -0.9072 -0.0354  0.4871
12449SOL     OW43692   0.069   6.487   6.458 -0.0662  0.0262  0.0157
12449SOL    HW143693   0.039   6.557   6.515 -1.3229 -0.0706 -0.4895
12449SOL    HW243694   0.144   6.448   6.504 -0.0973  0.9242  0.8494
12450SOL     OW43695   6.969   6.583   1.888  0.4431  0.3006  0.2041
12450SOL    HW143696   6.930   6.527   1.821  2.8118  0.2879 -1.2989
12450SOL    HW243697   6.935   6.671   1.869 -1.5930 -0.2190  1.2167
12451SOL     OW43698   6.724   7.902   4.051 -0.1729 -0.0820 -0.3850
12451SOL    HW143699   6.705   7.995   4.041 -0.7521 -0.3379 -1.8730
12451SOL    HW243700   6.777   7.879   3.975  0.2568 -0.9045  0.1366
12452SOL     OW43701   4.388   7.754   6.107  0.1959  0.0604  0.2749
12452SOL    HW143702   4.351   7.841   6.123  0.3266  0.0972  0.3817
12452SOL    HW243703   4.328   7.694   6.151 -1.5571 -0.1768 -2.2352
12453SOL     OW43704   6.219   9.245   6.715 -0.2037 -0.3084 -0.6522
12453SOL    HW143705   6.295   9.206   6.760 -0.3581 -0.4246 -0.4877
12453SOL    HW243706   6.149   9.240   6.780 -0.7308 -1.4974 -1.2762
12454SOL     OW43707   6.271   2.973   7.110 -0.5604  0.3734  0.0587
12454SOL    HW143708   6.298   2.996   7.021 -2.9899 -0.7138 -1.0536
12454SOL    HW243709   6.353   2.948   7.154  0.4489 -1.6667 -2.7047
12455SOL     OW43710   7.663   8.100   8.628 -0.3558  0.5985  0.1360
12455SOL    HW143711   7.605   8.133   8.698 -1.0196 -0.9283  0.3426
12455SOL    HW243712   7.706   8.024   8.667 -0.7366 -0.2815 -1.1009
12456SOL     OW43713   2.445   6.220   6.153 -0.6566  0.0016 -0.9424
12456SOL    HW143714   2.414   6.159   6.220 -1.9241  0.2765 -1.2549
12456SOL    HW243715   2.539   6.201   6.145 -0.3888  0.1965  1.1498
12457SOL     OW43716   2.746   4.601   0.863 -0.1383  0.3397 -0.1247
12457SOL    HW143717   2.839   4.608   0.883 -0.0602  0.8557 -0.6594
12457SOL    HW243718   2.703   4.594   0.948  0.5510 -2.1525  0.0949
12458SOL     OW43719   4.581   1.543   5.008  0.3729 -0.3491 -0.7538
12458SOL    HW143720   4.492   1.536   4.974  0.1156 -0.3599 -0.0921
12458SOL    HW243721   4.631   1.586   4.937 -0.6662  1.7990 -0.2656
12459SOL     OW43722   1.332   5.310   5.372 -0.0080 -0.2681 -0.3550
12459SOL    HW143723   1.331   5.220   5.405 -0.4235 -0.0225  0.3203
12459SOL    HW243724   1.401   5.353   5.422 -0.6190  0.0990  0.1947
12460SOL     OW43725   5.982   0.032   8.023 -0.2813 -0.0328 -0.2739
12460SOL    HW143726   5.934   0.087   8.085 -0.6509 -0.0773 -0.5155
12460SOL    HW243727   5.994   0.088   7.946  0.2403  0.0472 -0.1332
12461SOL     OW43728   3.546   0.787   6.082  0.0917 -0.0426  0.0085
12461SOL    HW143729   3.542   0.876   6.119 -0.3744  0.1104 -0.3881
12461SOL    HW243730   3.557   0.730   6.157 -1.3344  0.2281  0.4604
12462SOL     OW43731   8.360   0.747   6.215  0.4050 -0.3889  0.9997
12462SOL    HW143732   8.334   0.831   6.254 -1.0633 -1.5240  2.6311
12462SOL    HW243733   8.352   0.684   6.287  2.8727 -1.7317  0.2056
12463SOL     OW43734   2.736   6.797   8.157  0.3648  0.6605  0.0947
12463SOL    HW143735   2.650   6.827   8.186  0.8689  0.3700  2.0091
12463SOL    HW243736   2.774   6.873   8.112 -0.1632  1.4264  0.9078
12464SOL     OW43737   4.479   0.066   8.547 -0.5211 -0.2015  0.1069
12464SOL    HW143738   4.540   0.096   8.479 -0.1809  0.6288  0.7504
12464SOL    HW243739   4.401   0.119   8.535 -0.3454  0.1711  0.5339
12465SOL     OW43740   2.412   3.492   2.318 -0.1131 -0.3366  0.0819
12465SOL    HW143741   2.399   3.421   2.380  0.4458  0.6349  1.3501
12465SOL    HW243742   2.351   3.560   2.346  2.5954  1.5507  1.8935
12466SOL     OW43743   8.291   0.101   1.064 -0.4062 -0.1995  0.0189
12466SOL    HW143744   8.297   0.012   1.031 -0.8365 -0.0300 -0.5572
12466SOL    HW243745   8.377   0.120   1.101  0.2879 -0.2197 -1.5124
12467SOL     OW43746   8.028   1.542   6.498 -0.4751 -0.1987 -0.3225
12467SOL    HW143747   8.081   1.582   6.567  0.6104  0.4711 -1.5041
12467SOL    HW243748   8.021   1.610   6.431  0.8445 -1.7206 -2.1023
12468SOL     OW43749   7.234   4.526   7.420  0.6053  0.7881 -0.0994
12468SOL    HW143750   7.205   4.608   7.381 -0.6450  0.4830  0.1583
12468SOL    HW243751   7.163   4.499   7.477  0.9958 -0.4767 -0.1716
12469SOL     OW43752   7.996   6.383   5.613 -0.0357 -0.0443 -0.0293
12469SOL    HW143753   8.041   6.316   5.562 -0.1728 -0.0351 -0.1642
12469SOL    HW243754   7.903   6.361   5.604 -0.0707  0.0530  0.0832
12470SOL     OW43755   7.805   7.368   8.850 -0.1267  0.3723  0.1734
12470SOL    HW143756   7.740   7.349   8.783  0.6080  2.7257 -1.3405
12470SOL    HW243757   7.872   7.300   8.838 -0.2691  0.4307 -1.1581
12471SOL     OW43758   4.260   8.837   7.106 -0.6624 -0.4198 -0.2638
12471SOL    HW143759   4.252   8.877   7.192 -0.9229 -1.7630  0.3722
12471SOL    HW243760   4.197   8.765   7.107 -0.7632 -0.3864 -1.6314
12472SOL     OW43761   1.167   2.676   3.974 -0.4649  0.1623 -0.6828
12472SOL    HW143762   1.141   2.670   4.066 -2.7203 -1.7063 -1.3350
12472SOL    HW243763   1.237   2.612   3.965 -0.3290  0.2526 -0.2940
12473SOL     OW43764   0.503   5.663   1.174  0.2621 -0.3053 -0.0769
12473SOL    HW143765   0.542   5.605   1.108 -0.0104  0.4693 -0.9340
12473SOL    HW243766   0.419   5.689   1.137 -0.6686 -1.1839  1.3326
12474SOL     OW43767   2.213   4.613   4.813  0.1483  0.1666 -0.3952
12474SOL    HW143768   2.209   4.530   4.767  0.5195  0.3046 -0.6857
12474SOL    HW243769   2.122   4.641   4.823  0.0650  0.1128 -1.0074
12475SOL     OW43770   5.401   8.855   4.671  0.2650 -0.7038  0.0916
12475SOL    HW143771   5.464   8.783   4.675 -0.1927 -1.1704 -0.8341
12475SOL    HW243772   5.327   8.820   4.621 -0.0141  0.3681 -0.2820
12476SOL     OW43773   5.657   8.044   3.994 -0.5838 -0.3741  0.1612
12476SOL    HW143774   5.703   8.128   3.987  0.4277 -0.9808 -0.5968
12476SOL    HW243775   5.684   7.995   3.917 -3.0095 -0.5278 -0.6794
12477SOL     OW43776   8.517   7.230   7.738 -0.3364  0.2018 -0.0339
12477SOL    HW143777   8.451   7.254   7.674  0.0693 -0.1885 -0.6056
12477SOL    HW243778   8.524   7.307   7.795 -1.7890 -0.0144  0.4806
12478SOL     OW43779   3.844   0.126   5.732 -0.0639 -0.0739  0.1535
12478SOL    HW143780   3.814   0.164   5.649 -0.5445  0.3441  0.5154
12478SOL    HW243781   3.824   0.192   5.797 -0.1551 -0.6155  0.6830
12479SOL     OW43782   3.072   1.666   7.712 -0.2854  0.0058  0.0285
12479SOL    HW143783   3.011   1.593   7.727 -0.0163 -0.2459 -0.1063
12479SOL    HW243784   3.017   1.744   7.718 -0.7256 -0.2445 -0.5901
12480SOL     OW43785   8.713   4.530   2.478  0.0116 -0.2174 -0.5559
12480SOL    HW143786   8.688   4.438   2.492 -0.5786  0.0655  0.3584
12480SOL    HW243787   8.675   4.576   2.553  0.5984  0.7238 -0.8297
12481SOL     OW43788   4.069   0.501   7.010 -0.2684  0.2445 -0.5562
12481SOL    HW143789   4.069   0.595   7.026 -0.4889 -0.0041  1.0216
12481SOL    HW243790   4.049   0.462   7.095 -0.1746 -1.2311 -1.1861
12482SOL     OW43791   8.605   4.325   6.096  0.8954 -0.0971 -0.4611
12482SOL    HW143792   8.667   4.257   6.121 -0.7123 -1.0083  1.2288
12482SOL    HW243793   8.588   4.374   6.176 -1.8624 -0.9860 -0.4095
12483SOL     OW43794   5.471   0.222   6.420 -0.0230  0.0092  0.1317
12483SOL    HW143795   5.398   0.219   6.482 -0.2374 -0.0765 -0.1197
12483SOL    HW243796   5.457   0.303   6.371  0.2508  0.1707  0.3238
12484SOL     OW43797   1.293   0.409   5.789 -0.0407  0.2665  0.1596
12484SOL    HW143798   1.204   0.393   5.820 -0.0669 -1.1397 -0.5987
12484SOL    HW243799   1.281   0.459   5.708 -0.0843  0.8337  0.5031
12485SOL     OW43800   9.064   0.539   8.693  0.3595 -0.3947 -0.3543
12485SOL    HW143801   9.019   0.600   8.751  1.0098 -0.0707 -0.1831
12485SOL    HW243802   8.995   0.503   8.638 -0.1517 -0.1339  0.1059
12486SOL     OW43803   3.438   3.936   2.293  0.6036 -0.3726 -0.2688
12486SOL    HW143804   3.343   3.938   2.305  0.5457  1.4956 -0.7075
12486SOL    HW243805   3.459   3.843   2.282 -0.7676 -1.1390  2.6470
12487SOL     OW43806   2.996   2.335   1.661 -0.1400 -0.0607 -0.2342
12487SOL    HW143807   3.058   2.264   1.678 -1.4960 -0.8345  1.8994
12487SOL    HW243808   2.978   2.330   1.567  3.5692  0.7482 -1.1623
12488SOL     OW43809   5.758   7.044   1.921 -0.3731  0.1449  0.1903
12488SOL    HW143810   5.700   7.014   1.851 -0.5987 -0.6103  0.6917
12488SOL    HW243811   5.726   7.132   1.942 -1.2166 -0.1775  0.3191
12489SOL     OW43812   2.724   3.402   2.714 -0.1536 -0.1390  0.3625
12489SOL    HW143813   2.729   3.365   2.802  0.1175  1.9885  1.2990
12489SOL    HW243814   2.656   3.469   2.720  1.2982  1.4840 -0.4295
12490SOL     OW43815   2.750   1.425   1.330  0.3109 -0.0915 -0.9035
12490SOL    HW143816   2.659   1.425   1.360  0.6474  0.3422  0.1957
12490SOL    HW243817   2.801   1.410   1.410  1.3460  2.6366 -0.9565
12491SOL     OW43818   6.993   6.929   0.667 -0.1355 -0.1536  0.1229
12491SOL    HW143819   6.989   6.951   0.760 -0.5646  0.3894 -0.0212
12491SOL    HW243820   6.910   6.959   0.631 -0.1590 -0.7761 -0.3492
12492SOL     OW43821   1.743   2.012   9.133 -0.3866 -0.0462  0.4091
12492SOL    HW143822   1.747   2.073   9.206 -1.4802 -0.4834  0.8639
12492SOL    HW243823   1.803   1.941   9.158  1.0365  0.8886 -0.2104
12493SOL     OW43824   8.328   6.735   3.703 -0.6525 -0.5272  0.1047
12493SOL    HW143825   8.407   6.789   3.710 -1.6500  1.0384 -0.2448
12493SOL    HW243826   8.310   6.730   3.610 -0.8594 -1.0508  0.1707
12494SOL     OW43827   3.764   3.286   7.322 -0.7418  0.2468  0.4105
12494SOL    HW143828   3.819   3.287   7.400 -1.4315 -0.6745  0.9290
12494SOL    HW243829   3.724   3.373   7.320 -0.2823  0.4712  0.7671
12495SOL     OW43830   6.984   1.944   5.286  0.2940  0.3645 -0.0691
12495SOL    HW143831   7.044   1.887   5.239 -1.3874 -2.2296  0.7213
12495SOL    HW243832   7.040   2.002   5.337  2.0761 -0.1074 -1.4070
12496SOL     OW43833   7.536   4.536   6.244 -0.4191 -0.3235 -0.1161
12496SOL    HW143834   7.548   4.459   6.188 -2.1947 -1.3602  0.8465
12496SOL    HW243835   7.615   4.538   6.298 -0.2804 -1.4008 -0.2501
12497SOL     OW43836   7.832   0.514   7.879 -0.0177  0.3489  0.0693
12497SOL    HW143837   7.925   0.535   7.865  0.0157  0.8569  1.0065
12497SOL    HW243838   7.785   0.586   7.836 -0.0093 -0.3467 -1.1444
12498SOL     OW43839   7.335   2.770   8.114  0.1452 -0.2671 -0.1626
12498SOL    HW143840   7.346   2.792   8.021  0.2724  1.1721  0.1831
12498SOL    HW243841   7.342   2.853   8.160 -1.9091 -0.6408  0.9772
12499SOL     OW43842   1.828   8.444   5.076  0.1751  0.4172 -0.5897
12499SOL    HW143843   1.874   8.365   5.048 -0.2926  0.6992 -2.2429
12499SOL    HW243844   1.860   8.513   5.018  0.8127  1.5514  1.0316
12500SOL     OW43845   6.794   3.342   1.777  0.1944 -0.0400  0.1385
12500SOL    HW143846   6.884   3.358   1.748  0.0243 -0.8115 -0.8793
12500SOL    HW243847   6.742   3.410   1.734  0.1536 -0.2266 -0.1077
12501SOL     OW43848   0.547   5.780   8.916  0.2674 -0.1917 -0.1036
12501SOL    HW143849   0.540   5.716   8.846 -2.5273 -1.2810  1.0637
12501SOL    HW243850   0.603   5.738   8.982  1.4843  0.1443 -0.8895
12502SOL     OW43851   2.444   2.835   8.444  0.0860 -0.2851 -0.8536
12502SOL    HW143852   2.363   2.803   8.404 -0.9584  0.3459  0.6482
12502SOL    HW243853   2.428   2.929   8.457  1.0695 -0.1532 -0.5657
12503SOL     OW43854   4.487   9.198   2.669  0.0554  0.3276  0.2634
12503SOL    HW143855   4.405   9.234   2.637  1.1823  3.2884  0.4281
12503SOL    HW243856   4.554   9.235   2.611  1.4129 -0.9761  0.9167
12504SOL     OW43857   5.466   7.966   0.732 -0.4136 -0.1468  0.1052
12504SOL    HW143858   5.447   7.891   0.676 -1.8319  1.4584 -1.6941
12504SOL    HW243859   5.384   8.016   0.734  1.0738  2.5098 -0.6349
12505SOL     OW43860   1.665   3.042   3.612 -0.1563  0.1644  0.3773
12505SOL    HW143861   1.612   2.970   3.577  1.0868  0.0988 -1.5817
12505SOL    HW243862   1.608   3.119   3.606 -0.3954 -0.0745 -0.7993
12506SOL     OW43863   7.356   3.641   6.216  0.0304  0.0648 -0.4381
12506SOL    HW143864   7.274   3.682   6.244  0.1610  1.6974 -2.1997
12506SOL    HW243865   7.376   3.577   6.285 -1.7267  0.9452  0.9838
12507SOL     OW43866   3.131   3.208   5.222  0.0190  0.0514 -0.1896
12507SOL    HW143867   3.108   3.194   5.130 -0.5636 -1.2449  0.1409
12507SOL    HW243868   3.102   3.298   5.240 -0.6660  0.0122 -1.0305
12508SOL     OW43869   5.594   3.321   6.101  0.4177  0.7129 -0.0490
12508SOL    HW143870   5.641   3.246   6.139  0.0670  0.8018  0.5784
12508SOL    HW243871   5.653   3.395   6.112 -0.0865  0.9384  1.2647
12509SOL     OW43872   1.176   0.335   6.300 -0.5600 -0.0613  0.2015
12509SOL    HW143873   1.246   0.332   6.236 -0.4293 -0.3503  0.3571
12509SOL    HW243874   1.100   0.368   6.251 -0.2014  0.6976  0.1457
12510SOL     OW43875   1.469   5.052   1.609  0.3322 -0.2330 -0.0829
12510SOL    HW143876   1.408   4.984   1.640 -0.3795 -0.0890 -1.1161
12510SOL    HW243877   1.554   5.024   1.642 -0.0947 -1.1370  0.2936
12511SOL     OW43878   0.300   1.248   3.499  0.3013  0.2125 -0.1278
12511SOL    HW143879   0.291   1.288   3.586  0.0003 -0.4167  0.1345
12511SOL    HW243880   0.334   1.161   3.517  0.1730  0.0574 -0.6438
12512SOL     OW43881   4.698   1.544   4.248  0.0621 -0.0621 -0.1777
12512SOL    HW143882   4.765   1.570   4.311  1.0295  0.3725 -1.3519
12512SOL    HW243883   4.628   1.609   4.260  0.0791 -0.1864  0.6684
12513SOL     OW43884   1.935   3.455   2.996 -0.3357  0.2256  0.1056
12513SOL    HW143885   1.987   3.430   3.072  0.2766  0.2958 -0.2851
12513SOL    HW243886   1.896   3.539   3.020  0.7149  0.7800 -0.0599
12514SOL     OW43887   3.902   6.539   8.483  0.4897  0.2616  0.0118
12514SOL    HW143888   3.818   6.498   8.504  0.3393 -0.8971 -2.4967
12514SOL    HW243889   3.962   6.507   8.551 -0.7602 -0.0631  0.9970
12515SOL     OW43890   1.820   8.325   2.808  0.7378  0.0448 -0.1492
12515SOL    HW143891   1.778   8.247   2.843  0.3210 -0.5669 -1.9177
12515SOL    HW243892   1.907   8.325   2.846 -0.2813  0.4902  2.3719
12516SOL     OW43893   7.583   0.343   4.523 -0.0199 -0.1499  0.0069
12516SOL    HW143894   7.673   0.377   4.516 -0.0887  0.0717  0.1911
12516SOL    HW243895   7.533   0.415   4.560 -0.4406  0.0054 -0.8473
12517SOL     OW43896   6.054   3.199   7.257 -0.1158 -0.0675 -0.6859
12517SOL    HW143897   5.989   3.175   7.323  0.2712 -0.9239 -0.5980
12517SOL    HW243898   6.042   3.134   7.188  0.8757 -0.4536 -0.5085
12518SOL     OW43899   5.668   6.667   9.056 -0.1221  0.2592  0.5419
12518SOL    HW143900   5.746   6.659   9.110  0.3209 -0.6483 -0.2015
12518SOL    HW243901   5.702   6.672   8.966 -0.8811  0.7211  0.2723
12519SOL     OW43902   0.482   4.819   0.634 -0.3599  0.4902 -0.1120
12519SOL    HW143903   0.542   4.746   0.620 -1.2791 -0.0241 -1.5896
12519SOL    HW243904   0.531   4.880   0.690  1.0261 -0.5067 -0.1896
12520SOL     OW43905   9.038   2.961   1.586 -0.4240  0.3874 -0.7604
12520SOL    HW143906   8.993   2.878   1.573  0.5972 -0.2951 -0.0393
12520SOL    HW243907   9.025   2.982   1.678  0.4910  0.3099 -0.6013
12521SOL     OW43908   8.022   1.379   8.673 -0.4733  0.2790  0.0791
12521SOL    HW143909   8.045   1.390   8.581 -0.9573 -0.2374 -0.1063
12521SOL    HW243910   7.942   1.327   8.672 -0.1977 -0.1746  0.8056
12522SOL     OW43911   7.220   9.140   5.373 -0.3610  0.5969 -0.2974
12522SOL    HW143912   7.259   9.207   5.317  0.4667  2.3662  2.2208
12522SOL    HW243913   7.150   9.184   5.419 -1.3539 -0.9428 -0.2528
12523SOL     OW43914   8.918   2.498   2.627  0.1649  0.2064 -0.3452
12523SOL    HW143915   8.889   2.533   2.712 -0.9958  0.7206 -0.9338
12523SOL    HW243916   8.960   2.572   2.584 -3.5234  1.4782 -2.1738
12524SOL     OW43917   8.591   1.381   0.868 -0.1013 -0.5788 -0.4292
12524SOL    HW143918   8.627   1.347   0.786 -0.2109 -1.7340 -0.0115
12524SOL    HW243919   8.543   1.308   0.905  0.7383 -0.3756  1.1426
12525SOL     OW43920   8.222   0.032   0.357  0.0783 -0.0682 -0.1064
12525SOL    HW143921   8.159  -0.031   0.323 -0.5531  0.7816 -0.5444
12525SOL    HW243922   8.240   0.091   0.284  1.7767 -0.5727 -0.1455
12526SOL     OW43923   6.489   5.200   3.830  0.2185 -0.4085 -0.1903
12526SOL    HW143924   6.411   5.221   3.880  1.0534  1.4625  0.4137
12526SOL    HW243925   6.462   5.206   3.739 -0.8492 -2.0163 -0.0341
12527SOL     OW43926   1.631   0.938   9.018  0.1478 -0.0869 -0.2583
12527SOL    HW143927   1.671   1.007   9.071  1.5987 -0.0633 -1.3399
12527SOL    HW243928   1.566   0.984   8.964 -0.1967  0.1306  0.3308
12528SOL     OW43929   2.348   7.768   1.123  0.6872 -0.1487 -0.2715
12528SOL    HW143930   2.366   7.837   1.187  1.1235 -0.6892  0.2020
12528SOL    HW243931   2.286   7.710   1.168  1.7233 -1.0468  0.0341
12529SOL     OW43932   6.184   5.054   7.767 -1.0222 -0.0617 -0.1558
12529SOL    HW143933   6.218   4.994   7.834 -1.4483 -0.0864  0.0441
12529SOL    HW243934   6.216   5.018   7.684  2.1680  1.6806  0.1747
12530SOL     OW43935   0.913   1.034   2.179 -0.0200 -0.2666 -0.2006
12530SOL    HW143936   0.959   1.076   2.252  0.2069 -1.0596  0.1204
12530SOL    HW243937   0.835   1.089   2.166  0.3803  0.3780  0.0604
12531SOL     OW43938   2.523   9.147   8.947 -0.8654  0.1651  0.0524
12531SOL    HW143939   2.473   9.120   8.870 -2.1593  1.4914  0.3702
12531SOL    HW243940   2.610   9.168   8.913 -1.0152 -0.5365 -0.8128
12532SOL     OW43941   7.422   7.797   6.308  0.3542  0.2258 -0.2224
12532SOL    HW143942   7.488   7.731   6.328  0.1058 -0.1735 -0.7112
12532SOL    HW243943   7.473   7.873   6.278  0.7317  0.7920  1.7002
12533SOL     OW43944   3.302   6.461   3.892  0.5140 -0.1657 -0.7743
12533SOL    HW143945   3.344   6.393   3.839  0.1332 -0.4574 -0.7087
12533SOL    HW243946   3.248   6.412   3.954  0.3401  0.1971 -0.6402
12534SOL     OW43947   0.169   0.553   9.202 -0.1131  0.0563 -0.5739
12534SOL    HW143948   0.151   0.524   9.291 -2.1818  2.5439 -0.0851
12534SOL    HW243949   0.257   0.593   9.207  0.5734 -1.4507 -0.1359
12535SOL     OW43950   6.343   6.145   7.387  0.4590 -0.1223 -0.6238
12535SOL    HW143951   6.310   6.206   7.321  1.2528  1.0047  0.0008
12535SOL    HW243952   6.267   6.126   7.442  0.2445  0.4294 -0.7223
12536SOL     OW43953   4.310   2.574   8.520  0.3450 -0.1317 -0.2753
12536SOL    HW143954   4.222   2.610   8.507 -0.1152 -0.6741  1.2218
12536SOL    HW243955   4.298   2.479   8.524  0.9886 -0.2111  0.0122
12537SOL     OW43956   9.009   0.619   6.058  0.3894  1.0776  0.4702
12537SOL    HW143957   9.099   0.590   6.045  0.3586  0.4099  1.5519
12537SOL    HW243958   8.988   0.591   6.147 -0.9368  1.0853  0.1817
12538SOL     OW43959   4.578   0.503   5.162  0.5180 -1.2000 -0.0077
12538SOL    HW143960   4.568   0.494   5.067  0.3501  1.1456 -0.2861
12538SOL    HW243961   4.655   0.450   5.183  3.6177  1.8908 -2.3271
12539SOL     OW43962   4.748   4.255   6.703 -0.5678  0.2718  0.2782
12539SOL    HW143963   4.733   4.277   6.795  0.0954  0.0976  0.4286
12539SOL    HW243964   4.715   4.331   6.655  0.0220  0.8136  0.7130
12540SOL     OW43965   2.675   2.734   4.305 -0.0708  0.0008 -0.0051
12540SOL    HW143966   2.734   2.754   4.379 -0.7871  0.4772  0.4476
12540SOL    HW243967   2.644   2.646   4.323  1.7872 -0.9417 -1.1252
12541SOL     OW43968   3.917   7.976   6.814  0.4179  0.5606  0.2359
12541SOL    HW143969   3.878   7.948   6.897 -1.3313  1.6843 -0.1565
12541SOL    HW243970   4.007   7.945   6.819 -0.2751 -1.4782  1.5299
12542SOL     OW43971   5.099   7.504   8.898 -0.0065  0.2399  0.1884
12542SOL    HW143972   5.029   7.470   8.953 -1.4310 -0.3685 -1.8727
12542SOL    HW243973   5.113   7.593   8.929 -1.1984  0.1257  1.1217
12543SOL     OW43974   9.187   1.289   6.251 -0.2340  0.6638 -0.6328
12543SOL    HW143975   9.164   1.201   6.221 -3.3609  0.2973  2.2186
12543SOL    HW243976   9.111   1.343   6.228  0.8413  2.2418 -0.6923
12544SOL     OW43977   8.042   8.076   3.878 -0.3787  0.4040 -0.4484
12544SOL    HW143978   8.059   8.145   3.941 -3.8268  0.8330  0.1986
12544SOL    HW243979   7.990   8.118   3.809 -1.2077 -1.1725 -0.8397
12545SOL     OW43980   6.371   1.463   0.580  0.0480 -0.2561 -0.5940
12545SOL    HW143981   6.361   1.424   0.666  1.0313 -0.9464 -0.7798
12545SOL    HW243982   6.283   1.493   0.557 -0.3201 -0.5303  0.4216
12546SOL     OW43983   8.244   1.590   2.107  0.1510  0.1916  0.2060
12546SOL    HW143984   8.210   1.522   2.166  0.8565 -0.4553 -0.1144
12546SOL    HW243985   8.264   1.543   2.026  0.0015  0.9155 -0.2599
12547SOL     OW43986   4.352   2.656   2.564 -0.3924  0.9806  0.2448
12547SOL    HW143987   4.298   2.600   2.508 -0.6161  2.1879 -0.7949
12547SOL    HW243988   4.423   2.686   2.507  0.7150  0.3931  1.2621
12548SOL     OW43989   2.970   5.944   8.413  0.2492 -0.3097  0.3686
12548SOL    HW143990   2.882   5.979   8.399  0.6020  0.5239  0.1527
12548SOL    HW243991   2.997   5.913   8.326  0.4339  0.0932  0.2770
12549SOL     OW43992   6.970   8.377   2.530 -0.6905  0.6819  0.5001
12549SOL    HW143993   7.009   8.417   2.452 -1.8640 -0.9744 -1.0162
12549SOL    HW243994   6.878   8.406   2.528 -1.1624 -0.7507  0.2485
12550SOL     OW43995   8.623   2.445   6.814  0.0641 -0.3458  0.2784
12550SOL    HW143996   8.666   2.455   6.729  1.3405 -0.4806  0.9012
12550SOL    HW243997   8.612   2.534   6.847 -2.5023 -0.0876 -0.9850
12551SOL     OW43998   1.715   0.181   2.861  0.4596  0.3515 -0.2122
12551SOL    HW143999   1.706   0.099   2.813  0.4744  0.3154 -0.1530
12551SOL    HW244000   1.736   0.155   2.950  0.8282  0.4270 -0.2741
12552SOL     OW44001   7.320   9.120   6.916 -0.4174 -0.3135  0.1183
12552SOL    HW144002   7.307   9.097   6.823 -0.8397  2.7566 -0.6785
12552SOL    HW244003   7.402   9.168   6.918  0.5468 -1.9203  1.7267
12553SOL     OW44004   5.411   2.743   8.022  0.2659 -0.2674  0.2752
12553SOL    HW144005   5.385   2.652   8.011  1.4874 -0.3790 -2.5798
12553SOL    HW244006   5.506   2.741   8.028  0.3325  0.8275 -0.1761
12554SOL     OW44007   0.562   3.950   4.843  0.0522 -0.3343  0.1098
12554SOL    HW144008   0.650   3.960   4.808  0.8612 -2.9062  1.1778
12554SOL    HW244009   0.529   3.869   4.805 -1.8779  0.5108 -0.1928
12555SOL     OW44010   0.970   7.535   0.163  0.2696  0.0587  0.0780
12555SOL    HW144011   0.972   7.608   0.102  0.8404  0.3490  0.4391
12555SOL    HW244012   0.921   7.467   0.117  0.1243  0.5053 -0.4382
12556SOL     OW44013   5.609   8.369   3.057 -0.1355 -0.3677  0.1805
12556SOL    HW144014   5.535   8.408   3.104 -0.8088  0.1394 -1.2341
12556SOL    HW244015   5.570   8.299   3.004  0.6665 -1.2240  0.7032
12557SOL     OW44016   5.825   6.881   1.227 -0.2572  0.2856 -0.1884
12557SOL    HW144017   5.795   6.820   1.295 -0.4643 -1.6758 -1.9520
12557SOL    HW244018   5.913   6.906   1.254 -0.9503  0.9221  1.6551
12558SOL     OW44019   6.481   2.915   8.274 -0.1231  0.4277 -0.6373
12558SOL    HW144020   6.563   2.899   8.227 -0.3991 -0.1678 -0.9283
12558SOL    HW244021   6.416   2.930   8.205 -0.7891 -1.6847 -0.5300
12559SOL     OW44022   6.155   7.776   1.919 -0.3868  0.3167 -0.1557
12559SOL    HW144023   6.155   7.768   2.014  2.7827  3.1140  0.2359
12559SOL    HW244024   6.106   7.856   1.901 -0.0204  0.4071 -0.7938
12560SOL     OW44025   0.523   8.775   5.206 -0.2420  0.5422 -0.0774
12560SOL    HW144026   0.549   8.857   5.249 -1.8168  0.3124  1.4249
12560SOL    HW244027   0.579   8.770   5.129  2.0713  1.4830  1.4227
12561SOL     OW44028   1.501   3.439   8.503 -0.1956  0.1689  0.3812
12561SOL    HW144029   1.575   3.500   8.505 -0.1958  0.1542  0.9394
12561SOL    HW244030   1.471   3.435   8.593 -0.5578 -0.2202  0.2454
12562SOL     OW44031   4.614   8.175   4.694  0.1313 -0.0670 -0.1310
12562SOL    HW144032   4.541   8.164   4.756 -0.8506 -2.3118 -1.5708
12562SOL    HW244033   4.582   8.240   4.631  0.3123  0.6550  0.5021
12563SOL     OW44034   5.690   2.818   7.300  0.0246  0.0548 -0.0936
12563SOL    HW144035   5.654   2.857   7.221 -1.3178  0.1910  0.5530
12563SOL    HW244036   5.716   2.729   7.274 -0.0116  0.2384 -0.7764
12564SOL     OW44037   0.086   3.193   3.296  0.2285  0.3007  0.6880
12564SOL    HW144038   0.101   3.134   3.222 -0.3197 -0.3751  1.1043
12564SOL    HW244039   0.162   3.179   3.353  0.3129  0.3137  0.5798
12565SOL     OW44040   4.190   0.915   0.873  0.5279 -0.1497 -0.1866
12565SOL    HW144041   4.279   0.881   0.861  1.5064  2.1092  0.0681
12565SOL    HW244042   4.169   0.955   0.789 -0.3923 -0.9120 -0.3340
12566SOL     OW44043   2.742   4.520   7.741 -0.2857  0.7137 -0.5732
12566SOL    HW144044   2.835   4.528   7.761 -0.3683 -0.0248  0.1411
12566SOL    HW244045   2.713   4.611   7.726  0.2495  1.0954  0.6025
12567SOL     OW44046   4.448   3.820   8.631 -0.2138  0.0556  0.1713
12567SOL    HW144047   4.408   3.747   8.679 -1.1799  0.0112 -0.6658
12567SOL    HW244048   4.471   3.783   8.546  0.9105  0.2921  0.3668
12568SOL     OW44049   5.156   3.241   1.616 -0.5096  0.2603 -0.4282
12568SOL    HW144050   5.143   3.320   1.564 -1.1580  0.8024  0.5262
12568SOL    HW244051   5.107   3.257   1.697  1.2355 -0.1553  0.7716
12569SOL     OW44052   0.775   5.998   1.033 -0.1848 -0.5748 -0.0998
12569SOL    HW144053   0.813   5.961   1.113  1.9297 -1.2424 -1.3233
12569SOL    HW244054   0.819   6.083   1.023 -1.0671 -0.1091 -0.1365
12570SOL     OW44055   8.972   4.151   7.502 -0.1674  0.2036  0.3043
12570SOL    HW144056   9.048   4.110   7.543 -0.0770 -0.8669 -0.8754
12570SOL    HW244057   8.903   4.086   7.508  0.3431 -0.7766 -2.7647
12571SOL     OW44058   5.370   5.613   4.454  0.3550 -0.0186 -0.2584
12571SOL    HW144059   5.297   5.657   4.411  0.1910 -2.3566 -2.6657
12571SOL    HW244060   5.430   5.590   4.382  1.1614 -2.2491  1.0118
12572SOL     OW44061   6.190   3.342   4.971  0.2092 -0.0556  0.0406
12572SOL    HW144062   6.228   3.255   4.981  0.1046  0.0571  1.9434
12572SOL    HW244063   6.096   3.327   4.964 -0.0718 -0.0767  2.7452
12573SOL     OW44064   0.553   4.606   3.698  0.1255  0.0613  0.1010
12573SOL    HW144065   0.532   4.515   3.720 -2.0011  1.0035  2.6227
12573SOL    HW244066   0.647   4.606   3.684  0.2023 -2.5038  0.1085
12574SOL     OW44067   4.008   8.737   4.908 -1.2428  0.2243 -0.4351
12574SOL    HW144068   3.913   8.724   4.906 -1.3476  0.7292  0.5574
12574SOL    HW244069   4.020   8.832   4.897 -0.9086  0.2771  0.3183
12575SOL     OW44070   3.541   0.104   0.012 -0.4621  1.1108 -0.0258
12575SOL    HW144071   3.490   0.144   0.083  0.3057  1.1494  0.5114
12575SOL    HW244072   3.607   0.052   0.056  0.5430  1.7809 -0.7042
12576SOL     OW44073   1.281   3.400   1.409 -0.5861 -0.1133 -0.1825
12576SOL    HW144074   1.224   3.328   1.383 -1.6154  0.3895  0.6080
12576SOL    HW244075   1.305   3.381   1.500 -1.3634  0.8280  0.2393
12577SOL     OW44076   6.380   5.086   4.869  0.2209  0.7863 -0.1757
12577SOL    HW144077   6.321   5.161   4.862 -1.3110 -0.1610  1.5672
12577SOL    HW244078   6.432   5.088   4.788 -0.4805  3.0942 -0.6269
12578SOL     OW44079   6.119   2.768   8.675  0.2325  0.2127  0.0161
12578SOL    HW144080   6.147   2.787   8.586 -0.2675  2.4817  0.2839
12578SOL    HW244081   6.029   2.738   8.666  0.7042 -1.1847 -0.3358
12579SOL     OW44082   1.769   2.385   9.185  0.5141  0.4303 -0.2706
12579SOL    HW144083   1.814   2.327   9.123  0.2283  0.0071 -0.0919
12579SOL    HW244084   1.758   2.331   9.263  2.0024  1.3591  0.6130
12580SOL     OW44085   4.155   1.244   6.222  0.2577 -0.4460 -0.1438
12580SOL    HW144086   4.225   1.205   6.169 -0.0974 -0.3369 -0.6978
12580SOL    HW244087   4.077   1.237   6.168 -0.4764 -1.8770  1.0469
12581SOL     OW44088   8.275   4.918   3.493 -0.0729  0.6035 -0.4637
12581SOL    HW144089   8.212   4.856   3.457  1.1265 -0.5656 -0.6704
12581SOL    HW244090   8.324   4.950   3.417  1.3325 -0.5664 -0.0979
12582SOL     OW44091   1.234   0.348   3.877  0.5417 -0.7065  0.1989
12582SOL    HW144092   1.227   0.439   3.848 -0.9142 -0.2765  1.7341
12582SOL    HW244093   1.285   0.353   3.958 -1.5311 -0.8978  1.5773
12583SOL     OW44094   5.551   2.129   4.988 -0.0908  0.2548  0.4768
12583SOL    HW144095   5.589   2.102   5.072 -2.9289 -0.4773  1.6633
12583SOL    HW244096   5.525   2.046   4.947 -1.2066  0.7414  0.1790
12584SOL     OW44097   4.678   0.476   5.970  0.0876 -0.6714 -0.6111
12584SOL    HW144098   4.640   0.545   5.915 -0.0650 -0.6853 -0.5222
12584SOL    HW244099   4.640   0.489   6.056  2.4348  1.1078  0.2580
12585SOL     OW44100   0.471   6.234   6.723  0.5204  0.0858  0.0081
12585SOL    HW144101   0.532   6.256   6.794 -0.2773 -0.4253  0.8675
12585SOL    HW244102   0.508   6.155   6.684  0.4422 -0.2018  0.5034
12586SOL     OW44103   1.225   4.845   5.336  0.4956 -0.3088  0.1843
12586SOL    HW144104   1.205   4.760   5.374  3.1773 -0.7444  0.8339
12586SOL    HW244105   1.190   4.841   5.247 -0.9024 -1.3976  0.7480
12587SOL     OW44106   3.851   8.377   0.005  0.6513  0.2636  0.2958
12587SOL    HW144107   3.797   8.414   0.075 -0.9554 -1.8124  0.2623
12587SOL    HW244108   3.941   8.383   0.039  0.2620  2.1342  1.1466
12588SOL     OW44109   8.710   7.141   7.045 -0.6497  0.5934 -0.7898
12588SOL    HW144110   8.785   7.096   7.084 -0.9668  0.2070 -0.6160
12588SOL    HW244111   8.671   7.190   7.118 -1.9212 -1.0360 -0.3107
12589SOL     OW44112   7.256   0.491   2.738 -0.4425 -0.1390  0.4685
12589SOL    HW144113   7.280   0.413   2.687 -1.3754 -0.6236  0.7551
12589SOL    HW244114   7.290   0.473   2.826 -0.4289 -0.1066  0.4698
12590SOL     OW44115   7.199   0.426   0.878  0.0958  0.3545  0.0918
12590SOL    HW144116   7.149   0.424   0.797 -0.1840  1.9006  0.1845
12590SOL    HW244117   7.234   0.337   0.888 -0.3947 -0.0260 -1.3726
12591SOL     OW44118   5.490   3.250   1.440 -0.0996 -0.2167 -0.0740
12591SOL    HW144119   5.545   3.173   1.424 -0.6232 -0.5146 -0.4768
12591SOL    HW244120   5.409   3.215   1.476 -0.5369  0.0914 -0.7340
12592SOL     OW44121   6.645   6.205   6.759 -0.7351  0.3441 -0.0039
12592SOL    HW144122   6.651   6.176   6.850 -1.2965  1.0321  0.2688
12592SOL    HW244123   6.577   6.273   6.760  1.7759  3.0980 -0.2299
12593SOL     OW44124   2.140   2.606   9.115  0.8645  0.2020  0.3182
12593SOL    HW144125   2.194   2.671   9.069 -0.7711  0.0003 -2.0918
12593SOL    HW244126   2.164   2.523   9.075  1.3988 -0.4287  1.8820
12594SOL     OW44127   0.735   4.781   6.501 -0.0452  0.1228 -0.9542
12594SOL    HW144128   0.717   4.726   6.424  0.7383  0.0248 -1.0731
12594SOL    HW244129   0.793   4.728   6.555 -2.5104 -0.8591  0.9566
12595SOL     OW44130   7.630   3.828   6.666  0.3644 -0.1979  0.7655
12595SOL    HW144131   7.602   3.858   6.752  0.1064 -1.6416  1.2187
12595SOL    HW244132   7.555   3.843   6.609  0.7573  1.3598  0.6177
12596SOL     OW44133   2.029   2.333   6.039  0.2976  0.0651 -0.4046
12596SOL    HW144134   1.953   2.375   5.998  0.1960 -0.4362 -0.7403
12596SOL    HW244135   2.024   2.242   6.011  1.6689  0.2514 -1.3717
12597SOL     OW44136   7.170   7.171   6.137  0.0114 -0.3072  0.3367
12597SOL    HW144137   7.199   7.241   6.194  1.2308 -0.9913  0.5923
12597SOL    HW244138   7.134   7.215   6.060 -1.2193  0.6118  1.4072
12598SOL     OW44139   1.161   4.998   4.240 -0.2588  0.1496  0.0885
12598SOL    HW144140   1.200   4.936   4.178 -2.0963  0.0219 -1.0084
12598SOL    HW244141   1.153   5.079   4.191  0.0072  0.6082  0.7932
12599SOL     OW44142   3.527   4.102   4.219 -0.5725  0.2740  0.4226
12599SOL    HW144143   3.588   4.041   4.178 -0.0592 -0.0629  1.6455
12599SOL    HW244144   3.504   4.163   4.149 -2.0693 -1.9879 -1.1754
12600SOL     OW44145   1.579   5.765   1.559 -0.4233  0.1231  0.2747
12600SOL    HW144146   1.570   5.860   1.551  0.0014  0.1272 -0.1635
12600SOL    HW244147   1.488   5.733   1.568 -0.7076  0.4153 -1.3396
12601SOL     OW44148   7.749   2.869   0.775  0.4951  0.2824  0.0624
12601SOL    HW144149   7.761   2.895   0.684  0.3384 -0.7034 -0.2501
12601SOL    HW244150   7.775   2.777   0.778  0.8194  0.3842  1.0890
12602SOL     OW44151   2.665   3.263   2.262  0.7411 -0.9535  0.0700
12602SOL    HW144152   2.668   3.171   2.236  0.4323 -1.0632  0.4185
12602SOL    HW244153   2.613   3.264   2.343  2.1328 -0.7022  1.0125
12603SOL     OW44154   4.552   6.446   4.829  0.4757  0.1466  0.6493
12603SOL    HW144155   4.631   6.421   4.876  1.7202 -1.7688 -2.2160
12603SOL    HW244156   4.583   6.481   4.746 -1.6843  0.9578  0.1114
12604SOL     OW44157   9.055   8.496   6.952  0.5381  0.1603 -0.0977
12604SOL    HW144158   8.991   8.425   6.954 -0.9916  1.4441 -0.5604
12604SOL    HW244159   9.017   8.560   6.891  1.7797  1.4182  0.4066
12605SOL     OW44160   4.617   0.930   4.918  0.0622  0.0416 -0.4223
12605SOL    HW144161   4.680   0.874   4.872  0.5993 -0.0042  0.3538
12605SOL    HW244162   4.671   0.992   4.966 -0.4751 -0.3597  0.7178
12606SOL     OW44163   4.508   0.855   2.802 -0.2383 -0.2581  0.4855
12606SOL    HW144164   4.478   0.946   2.799 -0.1853 -0.2505  0.1674
12606SOL    HW244165   4.603   0.860   2.809  0.0921 -0.2646 -2.6093
12607SOL     OW44166   2.551   6.150   8.742 -0.2517 -0.3528  0.0096
12607SOL    HW144167   2.601   6.199   8.807 -0.2069 -0.1953 -0.1452
12607SOL    HW244168   2.484   6.211   8.712 -0.2258 -0.3998 -0.1467
12608SOL     OW44169   4.515   3.906   3.856 -0.1200  0.7738 -0.0208
12608SOL    HW144170   4.484   3.973   3.795 -0.3588  0.2443 -0.4933
12608SOL    HW244171   4.445   3.900   3.922  0.4399  1.8075  0.6765
12609SOL     OW44172   3.000   2.567   1.184  0.2801  0.5451 -0.2810
12609SOL    HW144173   3.050   2.500   1.137  2.0305  1.4302  0.2095
12609SOL    HW244174   3.056   2.590   1.259 -0.9510  1.4904  0.3814
12610SOL     OW44175   2.658   6.043   3.712 -0.0429 -0.6768 -0.1315
12610SOL    HW144176   2.732   5.983   3.720 -0.6879 -1.3341  1.4380
12610SOL    HW244177   2.585   5.996   3.753 -0.9309  0.6013 -0.1953
12611SOL     OW44178   1.123   1.154   2.979 -0.0680  0.4891  0.6366
12611SOL    HW144179   1.040   1.199   2.961  0.5481  1.4358  0.0225
12611SOL    HW244180   1.188   1.204   2.929  0.7868 -0.5878  0.6336
12612SOL     OW44181   3.020   5.688   0.511 -0.2880  0.2444  0.4039
12612SOL    HW144182   3.097   5.739   0.535 -0.7287  1.6667 -0.9992
12612SOL    HW244183   3.041   5.598   0.535  2.4436  0.3200 -1.3258
12613SOL     OW44184   0.595   8.208   8.619 -0.6452  0.6316 -0.1649
12613SOL    HW144185   0.655   8.219   8.693  1.3156  2.1735 -1.8461
12613SOL    HW244186   0.651   8.220   8.541 -2.6532 -0.6438 -1.9104
12614SOL     OW44187   7.551   1.840   5.876 -0.1546  0.2283 -0.4850
12614SOL    HW144188   7.493   1.825   5.951  1.4809 -3.7768  0.1900
12614SOL    HW244189   7.501   1.810   5.801 -0.1945 -0.0123 -0.3643
12615SOL     OW44190   3.032   2.575   6.156  0.1521 -0.2687  0.8702
12615SOL    HW144191   2.990   2.651   6.114 -1.4692 -2.1597 -1.1633
12615SOL    HW244192   3.036   2.599   6.248  0.1013  2.4610  0.2618
12616SOL     OW44193   1.810   3.449   4.161 -0.3150 -0.1428 -0.2326
12616SOL    HW144194   1.889   3.443   4.108 -1.2884  1.3513 -1.9871
12616SOL    HW244195   1.739   3.424   4.102 -1.1532 -2.3039  1.5433
12617SOL     OW44196   1.152   6.687   6.128  0.1100 -0.2993 -0.0431
12617SOL    HW144197   1.207   6.634   6.187  0.9077  0.2683 -0.2662
12617SOL    HW244198   1.172   6.777   6.152 -0.2505 -0.0832 -0.5656
12618SOL     OW44199   3.703   0.284   8.023  0.2699  0.2331 -0.2190
12618SOL    HW144200   3.784   0.332   8.041  1.2521 -1.1387 -0.7797
12618SOL    HW244201   3.722   0.195   8.052 -0.6516 -0.3578 -1.3745
12619SOL     OW44202   6.264   1.576   2.984 -0.2181 -0.3529 -0.1356
12619SOL    HW144203   6.186   1.624   3.010  1.0340  1.7148  0.0587
12619SOL    HW244204   6.236   1.522   2.911 -1.7957  0.4671 -0.1848
12620SOL     OW44205   6.669   8.262   6.077  0.0657 -0.1122  0.0343
12620SOL    HW144206   6.691   8.234   6.166 -1.1812  0.2339  0.4607
12620SOL    HW244207   6.603   8.330   6.088 -1.7408 -1.5593 -1.1970
12621SOL     OW44208   4.694   8.143   0.378  0.0397  0.4075  0.5350
12621SOL    HW144209   4.601   8.130   0.398 -0.6279 -0.2671 -2.5611
12621SOL    HW244210   4.728   8.190   0.454 -2.7217  0.3317  1.9513
12622SOL     OW44211   7.422   6.389   6.425  0.2252 -0.2296  0.5433
12622SOL    HW144212   7.505   6.342   6.428  2.0121  2.6018 -0.3989
12622SOL    HW244213   7.423   6.444   6.504 -0.8712 -0.2978  0.6196
12623SOL     OW44214   3.714   7.792   8.838  0.3734  0.0945 -0.4023
12623SOL    HW144215   3.770   7.827   8.768 -0.4527 -0.0691 -1.1623
12623SOL    HW244216   3.662   7.724   8.795 -1.2393  1.0260  0.0063
12624SOL     OW44217   3.482   7.209   0.731  0.4465 -0.1630  0.2509
12624SOL    HW144218   3.443   7.176   0.812  0.0393 -0.1721  0.0554
12624SOL    HW244219   3.509   7.130   0.684 -2.1684 -0.4149 -1.0489
12625SOL     OW44220   4.662   1.488   2.103  0.1051 -0.1052 -0.0081
12625SOL    HW144221   4.743   1.439   2.085  1.2115  1.2302  1.1130
12625SOL    HW244222   4.652   1.483   2.198 -1.9311 -1.3929 -0.2289
12626SOL     OW44223   5.934   5.946   5.250 -0.0681  0.3803 -0.0212
12626SOL    HW144224   5.965   5.900   5.172 -0.2264  2.8879 -1.7125
12626SOL    HW244225   5.860   5.998   5.219 -1.5809 -0.1908  2.3609
12627SOL     OW44226   8.712   0.431   4.471 -0.5743 -0.2765 -0.8149
12627SOL    HW144227   8.681   0.341   4.461 -0.2913 -0.5461  0.4608
12627SOL    HW244228   8.731   0.460   4.382  2.2903 -2.5337 -1.1076
12628SOL     OW44229   4.131   0.916   3.830 -0.1582  0.3391 -0.0290
12628SOL    HW144230   4.203   0.906   3.768 -0.7365 -0.4461 -0.5946
12628SOL    HW244231   4.055   0.937   3.775 -0.6367 -0.1612  0.4232
12629SOL     OW44232   7.043   1.118   2.297 -0.1870 -0.2358 -0.5404
12629SOL    HW144233   7.080   1.067   2.224  0.1265 -0.6540 -0.0973
12629SOL    HW244234   7.120   1.154   2.342 -0.3615 -0.2992 -0.1914
12630SOL     OW44235   4.551   2.747   2.391 -0.2787 -0.3595 -0.4711
12630SOL    HW144236   4.506   2.823   2.353 -0.0403  0.3494  0.6113
12630SOL    HW244237   4.591   2.703   2.316  1.6414  1.9477 -0.9270
12631SOL     OW44238   8.353   3.957   0.185 -0.1633  0.0295  0.2757
12631SOL    HW144239   8.382   3.869   0.211 -1.2969 -0.2971  0.4978
12631SOL    HW244240   8.328   3.999   0.268  0.9917  0.8236  0.2548
12632SOL     OW44241   5.437   4.413   2.524  0.0180 -0.0120 -0.0063
12632SOL    HW144242   5.499   4.446   2.589 -1.1465 -0.7051  1.5152
12632SOL    HW244243   5.481   4.426   2.440  2.4982 -1.0923  1.0287
12633SOL     OW44244   8.145   6.440   3.161  0.4328  0.1896  0.5423
12633SOL    HW144245   8.104   6.443   3.248 -0.1788  1.0395  0.2329
12633SOL    HW244246   8.073   6.427   3.100  0.8898 -0.6828  0.1618
12634SOL     OW44247   2.638   3.930   6.230  0.0758  0.6393  0.6272
12634SOL    HW144248   2.592   3.997   6.179 -0.1515  0.5586  0.7254
12634SOL    HW244249   2.702   3.893   6.168 -0.2073  0.5318  0.3959
12635SOL     OW44250   3.453   6.744   7.713  0.3518 -0.2081 -0.1332
12635SOL    HW144251   3.516   6.673   7.701  1.2934  0.5156  0.4870
12635SOL    HW244252   3.389   6.731   7.642  1.3419 -0.7682 -0.9450
12636SOL     OW44253   4.762   6.832   5.957 -0.6209  0.8732 -0.2292
12636SOL    HW144254   4.784   6.865   6.044  0.4057 -2.1083  0.7587
12636SOL    HW244255   4.679   6.786   5.970  0.4881 -1.2476 -0.2993
12637SOL     OW44256   1.556   5.258   8.181 -0.4164 -0.1966 -0.2265
12637SOL    HW144257   1.538   5.183   8.124  0.6609 -1.2096  0.7113
12637SOL    HW244258   1.649   5.250   8.202 -0.3905  1.1617  0.2621
12638SOL     OW44259   4.844   5.247   0.817 -0.2166 -0.4251  0.2711
12638SOL    HW144260   4.797   5.165   0.800 -0.3171  0.0476 -2.0891
12638SOL    HW244261   4.788   5.315   0.781 -0.2023  0.7492  2.3353
12639SOL     OW44262   5.477   1.354   7.772 -0.4749  0.4673 -0.1439
12639SOL    HW144263   5.486   1.445   7.799  1.0033  0.7155 -1.3161
12639SOL    HW244264   5.495   1.355   7.678 -1.6807 -0.8729 -0.4363
12640SOL     OW44265   1.823   4.589   2.398  0.1110 -0.0344  0.3735
12640SOL    HW144266   1.766   4.555   2.329  0.9260  0.0761 -0.3777
12640SOL    HW244267   1.780   4.564   2.480 -2.9463  3.1093 -0.0339
12641SOL     OW44268   2.465   4.851   0.101  1.1320  0.0774 -0.3930
12641SOL    HW144269   2.437   4.817   0.016  2.2171  2.1631 -1.6554
12641SOL    HW244270   2.463   4.775   0.159 -3.0439 -0.7854 -1.3127
12642SOL     OW44271   7.332   0.701   2.578  0.4581  0.2608 -0.4034
12642SOL    HW144272   7.365   0.672   2.493  1.0678 -0.1418 -0.0406
12642SOL    HW244273   7.378   0.645   2.641 -0.5465  0.0494  0.1480
12643SOL     OW44274   5.098   5.619   4.899  0.5243 -0.1204  0.0853
12643SOL    HW144275   5.153   5.653   4.969  1.1175  0.5961 -0.6995
12643SOL    HW244276   5.020   5.675   4.900  1.2877  1.0033 -0.8967
12644SOL     OW44277   2.142   5.749   5.291  0.9533  0.3886  0.0964
12644SOL    HW144278   2.171   5.806   5.220  1.8128 -0.3227 -0.1319
12644SOL    HW244279   2.201   5.673   5.288 -2.7418 -2.7848 -2.4954
12645SOL     OW44280   1.254   6.455   7.676 -0.3100 -0.0746 -0.1410
12645SOL    HW144281   1.202   6.529   7.647  1.5258  2.2532  2.0810
12645SOL    HW244282   1.209   6.423   7.755  1.1813  1.6203  1.4887
12646SOL     OW44283   1.410   8.554   5.181 -0.4097 -0.1204 -0.0705
12646SOL    HW144284   1.498   8.543   5.216  0.0679 -0.3845 -1.3071
12646SOL    HW244285   1.414   8.517   5.093 -1.2503  1.6028 -0.8883
12647SOL     OW44286   1.238   1.124   6.449 -0.7182  0.1212 -0.6109
12647SOL    HW144287   1.230   1.074   6.530  1.5155  0.5628 -0.0432
12647SOL    HW244288   1.209   1.213   6.472  2.4511  0.9871  0.6056
12648SOL     OW44289   7.529   5.689   8.813 -0.6782  0.3198  0.3240
12648SOL    HW144290   7.477   5.678   8.734  1.0378  0.3648 -0.8862
12648SOL    HW244291   7.617   5.660   8.788  0.0028  0.6624  2.1219
12649SOL     OW44292   3.703   0.245   6.339 -0.1403 -0.2608 -0.0844
12649SOL    HW144293   3.724   0.333   6.371 -1.2773 -0.3863  1.0629
12649SOL    HW244294   3.611   0.249   6.314 -0.2310 -1.1499  0.0720
12650SOL     OW44295   0.677   0.713   0.836  0.3681 -0.3166 -0.7324
12650SOL    HW144296   0.582   0.704   0.840  0.2781  0.4841 -0.8352
12650SOL    HW244297   0.699   0.700   0.744  0.3755 -0.6173 -0.6898
12651SOL     OW44298   0.808   6.031   4.394  0.1867 -0.4574 -0.1747
12651SOL    HW144299   0.763   5.946   4.392  1.6878 -1.3061  0.3140
12651SOL    HW244300   0.899   6.009   4.410  0.2267  1.4020  2.9947
12652SOL     OW44301   1.667   4.301   6.480  0.1003 -0.1628 -0.1867
12652SOL    HW144302   1.587   4.345   6.511 -1.7718 -2.0051 -2.0222
12652SOL    HW244303   1.716   4.369   6.434 -0.7230  0.8658  0.4100
12653SOL     OW44304   4.247   1.304   3.419 -0.2834 -0.4016 -0.2316
12653SOL    HW144305   4.197   1.383   3.397 -1.1310 -0.7512  0.3625
12653SOL    HW244306   4.190   1.256   3.480  0.7900 -0.7995  0.5000
12654SOL     OW44307   5.111   7.715   4.476  0.4658  0.1477  0.1385
12654SOL    HW144308   5.078   7.690   4.562 -1.6599 -1.1793 -0.9536
12654SOL    HW244309   5.139   7.806   4.486  0.1478  0.0588  2.1798
12655SOL     OW44310   5.845   7.343   4.356  0.5779  0.7226  0.4898
12655SOL    HW144311   5.865   7.326   4.264  0.2454 -0.0731  0.5639
12655SOL    HW244312   5.784   7.417   4.353 -1.1124 -0.6356 -0.0629
12656SOL     OW44313   5.641   6.850   6.871  0.1384 -0.0075 -0.3268
12656SOL    HW144314   5.716   6.863   6.929 -1.5222  1.9411  1.5650
12656SOL    HW244315   5.602   6.768   6.900  0.9216 -0.5073 -0.6445
12657SOL     OW44316   8.541   3.625   6.625  0.3035  0.0707 -0.1722
12657SOL    HW144317   8.574   3.568   6.694  1.3060 -1.9626 -2.2153
12657SOL    HW244318   8.504   3.565   6.560  0.3930  1.8194 -1.9164
12658SOL     OW44319   4.284   4.754   7.515  0.0636  0.3724  0.1566
12658SOL    HW144320   4.308   4.736   7.606  1.6647  0.7248 -0.1779
12658SOL    HW244321   4.262   4.847   7.514  0.9953  0.5956 -0.0032
12659SOL     OW44322   6.275   6.929   5.040 -0.1425  0.0954 -0.4974
12659SOL    HW144323   6.244   6.843   5.070 -0.9370  0.2554 -0.8292
12659SOL    HW244324   6.245   6.935   4.949  1.2412  0.0915 -0.9662
12660SOL     OW44325   1.171   6.590   9.216  0.5634 -0.1219  0.0625
12660SOL    HW144326   1.247   6.625   9.263 -0.0922  1.4083  0.0498
12660SOL    HW244327   1.139   6.664   9.164  1.2426 -1.7075 -2.8607
12661SOL     OW44328   4.315   7.269   9.074 -0.2075  0.2050  0.1647
12661SOL    HW144329   4.387   7.208   9.092 -0.1188  0.6350  1.3408
12661SOL    HW244330   4.352   7.331   9.010 -0.5202 -1.3318 -1.5970
12662SOL     OW44331   3.890   1.641   3.083  0.0097  0.4044 -0.3176
12662SOL    HW144332   3.799   1.614   3.068  0.3632 -0.0871 -1.8578
12662SOL    HW244333   3.939   1.559   3.089  0.3103  0.6588  0.8723
12663SOL     OW44334   5.949   4.312   4.141  0.2283 -0.0554  0.0237
12663SOL    HW144335   5.931   4.223   4.112  0.2921 -0.4473  1.1343
12663SOL    HW244336   6.043   4.315   4.156  0.1303 -0.0114  0.6514
12664SOL     OW44337   6.054   8.739   0.668 -0.0684 -0.1095 -0.7786
12664SOL    HW144338   6.016   8.822   0.642 -0.9321 -0.1971  0.1545
12664SOL    HW244339   5.979   8.679   0.675  0.4748 -0.8189 -0.8905
12665SOL     OW44340   4.033   3.689   2.727 -0.3718 -0.4675  0.8166
12665SOL    HW144341   3.950   3.654   2.759 -1.1167  1.6184  1.3272
12665SOL    HW244342   4.045   3.648   2.641 -0.8572 -2.3604  1.5894
12666SOL     OW44343   7.284   4.432   1.459 -0.3724  0.2258 -0.2320
12666SOL    HW144344   7.207   4.418   1.515  0.5081  0.2857  1.0503
12666SOL    HW244345   7.257   4.400   1.373 -1.3931 -1.0071  0.5034
12667SOL     OW44346   7.526   3.312   8.426  0.3923  0.4029 -0.1399
12667SOL    HW144347   7.453   3.342   8.372  0.5870  2.0699  0.4703
12667SOL    HW244348   7.485   3.266   8.500  0.0103  0.4579 -0.3198
12668SOL     OW44349   2.828   0.434   5.923  0.2123  0.2047  0.4001
12668SOL    HW144350   2.864   0.454   5.837  1.0499  0.0566  0.7017
12668SOL    HW244351   2.768   0.361   5.908 -0.9724  1.2847 -0.3144
12669SOL     OW44352   1.370   0.719   2.922 -0.0317 -0.0642  0.5774
12669SOL    HW144353   1.282   0.745   2.895  1.0829  1.6137 -1.8475
12669SOL    HW244354   1.394   0.783   2.990 -1.4540 -1.9649  3.0035
12670SOL     OW44355   1.351   6.851   7.606  1.4286  1.0704  0.2472
12670SOL    HW144356   1.358   6.808   7.691  1.6444 -0.8738 -0.7082
12670SOL    HW244357   1.417   6.809   7.551  0.8877  1.8581 -1.0674
12671SOL     OW44358   2.349   9.051   5.718 -0.3067  0.6806 -0.7655
12671SOL    HW144359   2.321   9.120   5.658  1.4651  1.5000 -0.7063
12671SOL    HW244360   2.392   8.986   5.662  0.3481  0.9010 -0.5251
12672SOL     OW44361   3.131   3.976   5.322  0.0953 -0.0685 -0.0875
12672SOL    HW144362   3.082   4.025   5.256  0.2266 -2.1235 -1.8295
12672SOL    HW244363   3.209   3.945   5.275  1.0635 -0.1930  1.5336
12673SOL     OW44364   0.358   1.519   0.018 -0.2978  0.3539 -0.4054
12673SOL    HW144365   0.294   1.566  -0.035 -0.0748  0.5931 -0.4689
12673SOL    HW244366   0.341   1.548   0.107  1.0283  2.0192 -0.6330
12674SOL     OW44367   6.148   6.180   2.415 -0.2029 -0.1430  0.2810
12674SOL    HW144368   6.206   6.135   2.476 -2.0759 -2.4836  0.4593
12674SOL    HW244369   6.197   6.182   2.333  0.3826 -1.5523  0.5656
12675SOL     OW44370   3.384   2.667   8.025 -1.1730  0.4941  0.0133
12675SOL    HW144371   3.467   2.713   8.041 -0.9452  0.3336 -0.6709
12675SOL    HW244372   3.319   2.719   8.072 -0.9593  1.6888 -0.9432
12676SOL     OW44373   8.912   7.679   0.618  0.3086  0.0722 -0.3117
12676SOL    HW144374   8.873   7.677   0.531 -0.1820  0.2394 -0.0971
12676SOL    HW244375   8.931   7.772   0.633 -2.2502  0.4630  0.9197
12677SOL     OW44376   7.714   0.159   6.145 -0.0943 -0.2612 -0.2383
12677SOL    HW144377   7.676   0.103   6.078  0.1544  0.0779 -0.6691
12677SOL    HW244378   7.664   0.240   6.140 -0.1081 -0.2536  0.0207
12678SOL     OW44379   4.366   3.869   0.237  0.4249  0.2257  0.3786
12678SOL    HW144380   4.456   3.865   0.204  0.2017 -3.3833 -0.1543
12678SOL    HW244381   4.314   3.821   0.173 -1.6987  1.1546  1.3004
12679SOL     OW44382   1.001   0.016   1.712  0.2252 -0.5909 -0.4003
12679SOL    HW144383   1.092   0.006   1.740  0.0528  0.4959  0.6196
12679SOL    HW244384   0.975   0.101   1.747 -1.1977 -0.9136 -0.6416
12680SOL     OW44385   4.586   6.679   8.243  0.3347 -0.6191 -0.2300
12680SOL    HW144386   4.503   6.704   8.203  0.2034 -2.0762 -0.9144
12680SOL    HW244387   4.648   6.673   8.170  0.7664 -0.6279  0.1291
12681SOL     OW44388   6.491   7.806   2.116 -0.4407 -0.2492  0.0333
12681SOL    HW144389   6.504   7.765   2.201  1.1891 -0.7054 -0.4026
12681SOL    HW244390   6.511   7.899   2.131 -0.4724 -0.2707  0.2122
12682SOL     OW44391   4.679   0.203   4.102 -0.6336 -0.7849 -0.3593
12682SOL    HW144392   4.592   0.241   4.088 -0.7680 -0.9113  0.0863
12682SOL    HW244393   4.712   0.247   4.180 -0.9074 -1.7509  0.3305
12683SOL     OW44394   1.476   8.078   6.127 -0.1596 -0.5208  0.1929
12683SOL    HW144395   1.432   8.085   6.042  0.7513 -1.5206 -0.3820
12683SOL    HW244396   1.555   8.027   6.109  1.8817  2.1735  0.9551
12684SOL     OW44397   8.341   2.759   6.279 -0.5146  0.0315  0.7804
12684SOL    HW144398   8.307   2.695   6.340  2.6669 -2.3931  0.2693
12684SOL    HW244399   8.292   2.743   6.198 -0.7094 -0.7488  1.0488
12685SOL     OW44400   8.441   3.075   1.316 -0.1460 -0.1055  0.7012
12685SOL    HW144401   8.505   3.049   1.250  1.1186  0.6010  1.6057
12685SOL    HW244402   8.481   3.050   1.399 -0.2848  1.8042  1.3948
12686SOL     OW44403   4.824   7.025   8.626 -0.2086 -0.1724  0.3437
12686SOL    HW144404   4.744   7.043   8.676 -0.3948  0.7322 -0.2581
12686SOL    HW244405   4.799   7.041   8.535  0.5726 -0.1904  0.1181
12687SOL     OW44406   1.497   3.474   3.454 -0.2149 -0.4288 -0.0273
12687SOL    HW144407   1.450   3.552   3.486 -0.2664 -0.3159 -0.3748
12687SOL    HW244408   1.531   3.433   3.533 -1.4968 -0.9059  0.3030
12688SOL     OW44409   6.359   2.808   2.236  0.2457  0.3497 -0.1094
12688SOL    HW144410   6.406   2.872   2.182  0.1674  1.2981  0.9072
12688SOL    HW244411   6.325   2.859   2.310 -0.3614 -0.7587  0.4038
12689SOL     OW44412   4.768   6.383   1.668  0.2669  0.4688  0.0625
12689SOL    HW144413   4.853   6.358   1.704 -0.3634 -0.5263  0.9053
12689SOL    HW244414   4.717   6.413   1.743 -0.6492 -0.4586 -0.1610
12690SOL     OW44415   4.335   4.564   3.858 -0.8234 -0.0648  0.8994
12690SOL    HW144416   4.350   4.654   3.830 -1.4660  0.1414  1.1957
12690SOL    HW244417   4.250   4.541   3.820 -0.9474 -0.3325  1.3337
12691SOL     OW44418   0.266   2.337   0.831 -0.1309 -0.1369  0.1471
12691SOL    HW144419   0.184   2.385   0.833  0.2323  0.5488 -0.9698
12691SOL    HW244420   0.255   2.272   0.761  0.7432  0.8613 -0.9629
12692SOL     OW44421   3.385   8.869   5.183  0.0681 -0.3156  0.2978
12692SOL    HW144422   3.315   8.804   5.195  0.7497 -1.0648  0.3171
12692SOL    HW244423   3.458   8.835   5.234  0.4328  0.4981  0.3380
12693SOL     OW44424   3.452   1.979   3.082 -0.0262  0.2176 -0.2654
12693SOL    HW144425   3.402   1.993   3.002  1.5302 -1.2582 -1.5824
12693SOL    HW244426   3.520   1.917   3.057 -0.0603 -1.0638  2.4526
12694SOL     OW44427   5.166   6.233   5.324 -0.8076 -0.1804  0.2455
12694SOL    HW144428   5.190   6.181   5.401 -2.9183 -0.6234  0.6499
12694SOL    HW244429   5.218   6.195   5.253  1.5423  0.5420  1.4761
12695SOL     OW44430   7.412   8.882   7.263  0.1033  0.1095 -0.1347
12695SOL    HW144431   7.347   8.903   7.196 -1.0066  0.0444  0.8831
12695SOL    HW244432   7.377   8.806   7.309  2.0522 -1.4331 -1.0537
12696SOL     OW44433   1.378   5.220   1.892  0.0501 -0.0001 -0.9214
12696SOL    HW144434   1.401   5.143   1.840  0.6900  0.1779 -0.9108
12696SOL    HW244435   1.330   5.276   1.831 -1.3094 -0.8304 -0.6601
12697SOL     OW44436   2.170   7.629   5.077  0.1648 -0.4906  0.3733
12697SOL    HW144437   2.258   7.662   5.093 -0.3135  0.1727  1.7564
12697SOL    HW244438   2.179   7.534   5.079  1.3773 -0.5590 -2.6575
12698SOL     OW44439   7.320   5.547   7.624  0.0289 -0.0597  0.0591
12698SOL    HW144440   7.247   5.486   7.630 -0.3931  0.4204 -0.1458
12698SOL    HW244441   7.288   5.627   7.667  0.6796 -0.0725  0.5913
12699SOL     OW44442   5.214   3.621   8.837 -0.3314 -0.1000 -0.1138
12699SOL    HW144443   5.245   3.566   8.764  1.2881  1.0249 -0.3296
12699SOL    HW244444   5.146   3.569   8.879 -0.7419 -1.1344 -1.9303
12700SOL     OW44445   1.574   4.266   9.140  0.1347  0.5958 -0.2258
12700SOL    HW144446   1.526   4.185   9.121 -0.1400  0.6815  0.1160
12700SOL    HW244447   1.583   4.308   9.055 -1.7145  1.3238 -0.1072
12701SOL     OW44448   6.869   1.213   9.141 -0.5732 -0.4707 -0.2911
12701SOL    HW144449   6.952   1.177   9.173 -1.9400 -2.7856  0.8799
12701SOL    HW244450   6.815   1.137   9.121 -2.6972  0.9499 -0.3267
12702SOL     OW44451   6.280   1.484   2.085  0.3330 -0.2365  0.6011
12702SOL    HW144452   6.338   1.556   2.108  0.4004 -0.2858  0.5889
12702SOL    HW244453   6.194   1.511   2.115 -0.0919  0.8663 -1.4341
12703SOL     OW44454   6.889   4.065   7.144  0.4342 -0.0424  0.0272
12703SOL    HW144455   6.957   4.000   7.161 -0.2380 -0.2960  2.0139
12703SOL    HW244456   6.931   4.149   7.165  0.9055  0.0718 -1.2917
12704SOL     OW44457   0.571   0.083   7.729 -0.2482 -0.1720 -0.7447
12704SOL    HW144458   0.618   0.134   7.795  0.0183 -0.9681 -0.3064
12704SOL    HW244459   0.478   0.093   7.752 -0.2265  0.4068 -0.8869
12705SOL     OW44460   3.946   8.972   3.171  1.0810  0.3858  0.1069
12705SOL    HW144461   4.015   8.935   3.226  1.3764  1.4215  0.4525
12705SOL    HW244462   3.970   8.947   3.082  0.1796 -2.0018  0.4373
12706SOL     OW44463   8.224   8.742   2.585  0.5787  0.6028 -0.3897
12706SOL    HW144464   8.173   8.726   2.506  0.3367  1.1376 -0.3511
12706SOL    HW244465   8.210   8.835   2.604 -0.0584  0.2962  0.7597
12707SOL     OW44466   8.876   2.022   1.194 -0.6575 -0.2688  0.1825
12707SOL    HW144467   8.831   2.105   1.184 -0.3340  0.0398  1.1731
12707SOL    HW244468   8.819   1.958   1.152 -0.5704  0.5458 -1.2255
12708SOL     OW44469   1.820   4.512   7.850  0.6478 -0.0556 -0.3561
12708SOL    HW144470   1.810   4.582   7.914 -1.0250 -1.3232  0.8715
12708SOL    HW244471   1.759   4.444   7.879  0.4397 -1.0398 -2.8379
12709SOL     OW44472   6.696   0.959   1.252  0.4967  0.4158 -0.1031
12709SOL    HW144473   6.650   1.042   1.238  0.7461  0.4463 -0.7540
12709SOL    HW244474   6.627   0.894   1.260  0.2878  0.7239  0.7150
12710SOL     OW44475   4.455   2.180   3.441 -0.2952  0.1528  0.0642
12710SOL    HW144476   4.440   2.174   3.346  1.7316 -1.6338 -0.2236
12710SOL    HW244477   4.380   2.136   3.480  0.6798 -2.6230 -0.9669
12711SOL     OW44478   5.425   5.475   8.879  0.2362  0.4524  0.2426
12711SOL    HW144479   5.393   5.439   8.961  0.2868  0.0319  0.0834
12711SOL    HW244480   5.411   5.405   8.815  1.7273  0.1366  0.2264
12712SOL     OW44481   8.350   3.504   1.328  0.4356 -0.0837  0.3185
12712SOL    HW144482   8.254   3.499   1.322  0.5535 -0.8553 -1.4697
12712SOL    HW244483   8.380   3.418   1.299  1.7061  0.7672 -1.0230
12713SOL     OW44484   2.387   4.876   3.973  0.5886 -0.3241 -0.5965
12713SOL    HW144485   2.479   4.878   3.946  1.1708  0.9075  1.3490
12713SOL    HW244486   2.387   4.899   4.065 -1.9531  3.3188 -1.2796
12714SOL     OW44487   4.391   7.149   0.145 -0.0833  0.3290  0.6531
12714SOL    HW144488   4.297   7.159   0.133 -0.0256 -0.1244 -0.2903
12714SOL    HW244489   4.400   7.102   0.228 -0.6028  1.9409  1.6524
12715SOL     OW44490   4.123   7.468   3.121 -0.2736  0.7893 -0.0132
12715SOL    HW144491   4.043   7.511   3.151  0.2879  2.2158 -0.4597
12715SOL    HW244492   4.130   7.491   3.029  0.8165  0.9628  0.0926
12716SOL     OW44493   3.026   2.813   0.139 -0.2062  0.0220 -0.2507
12716SOL    HW144494   3.002   2.732   0.185 -1.0396  0.4136  0.0153
12716SOL    HW244495   3.119   2.802   0.118 -0.1597 -0.7401  0.3296
12717SOL     OW44496   3.520   6.431   3.545  0.3275  0.1315  0.5063
12717SOL    HW144497   3.565   6.427   3.629  0.1776 -1.7993  0.5487
12717SOL    HW244498   3.492   6.341   3.529 -0.1060  0.5562 -1.3679
12718SOL     OW44499   1.421   2.222   0.494  0.0153  0.3544  0.3690
12718SOL    HW144500   1.397   2.261   0.578 -0.0656  0.7775  0.1491
12718SOL    HW244501   1.471   2.290   0.449  1.2248 -0.3326  0.6149
12719SOL     OW44502   3.614   1.324   3.896  0.2160  0.0796 -0.0493
12719SOL    HW144503   3.650   1.246   3.939 -0.2762 -0.5634 -0.7870
12719SOL    HW244504   3.520   1.309   3.893  0.1541  0.5355 -0.5233
12720SOL     OW44505   7.652   2.761   2.893  0.1332  0.0520  0.4315
12720SOL    HW144506   7.736   2.716   2.883 -0.0711  0.1070 -2.3296
12720SOL    HW244507   7.591   2.693   2.923  0.5232 -0.7766 -0.5773
12721SOL     OW44508   8.927   4.184   6.350  0.2216 -0.1530 -0.2369
12721SOL    HW144509   8.923   4.279   6.347 -3.8962 -0.1361  0.3081
12721SOL    HW244510   8.949   4.164   6.442 -1.5566  0.3762  0.3433
12722SOL     OW44511   2.832   2.074   7.946 -0.2539  0.0236 -0.0796
12722SOL    HW144512   2.738   2.060   7.953 -0.6650  1.2876 -2.1016
12722SOL    HW244513   2.859   2.105   8.032 -1.7290 -0.0488  0.4361
12723SOL     OW44514   3.309   2.058   6.312  0.1105  0.3438  0.4477
12723SOL    HW144515   3.363   2.059   6.233 -1.4810  0.0851 -0.6936
12723SOL    HW244516   3.332   2.139   6.358 -1.1356  2.1613 -1.8786
12724SOL     OW44517   0.672   6.292   6.894  0.3158 -0.2186  0.0264
12724SOL    HW144518   0.704   6.269   6.981  0.2703  1.0753  0.4072
12724SOL    HW244519   0.742   6.345   6.857  0.0616 -0.2402 -0.4839
12725SOL     OW44520   0.624   8.680   3.938 -0.2029  0.0632  0.2230
12725SOL    HW144521   0.552   8.619   3.948  0.9336 -1.4402 -0.3809
12725SOL    HW244522   0.699   8.636   3.980  1.0868  0.1788 -1.8258
12726SOL     OW44523   6.813   9.169   7.563  0.2045 -0.5332  0.1468
12726SOL    HW144524   6.888   9.144   7.617 -0.3749 -0.3673  1.0501
12726SOL    HW244525   6.800   9.262   7.582  0.4606 -0.2717 -0.8700
12727SOL     OW44526   5.684   9.217   3.189  0.0379  0.5133  0.3007
12727SOL    HW144527   5.625   9.207   3.264 -1.8708 -1.6773 -1.3458
12727SOL    HW244528   5.661   9.303   3.153 -1.6951  0.0304  0.1446
12728SOL     OW44529   1.795   1.098   6.268  0.6468  0.4854 -0.5684
12728SOL    HW144530   1.884   1.066   6.277  0.4360  0.1839  0.6648
12728SOL    HW244531   1.799   1.189   6.297  0.9424  1.1656 -2.5802
12729SOL     OW44532   0.640   3.866   7.679 -0.3331 -0.1432 -0.4316
12729SOL    HW144533   0.658   3.797   7.615 -0.2512 -0.9337  0.4225
12729SOL    HW244534   0.579   3.925   7.634  0.1277 -0.3862 -1.4156
12730SOL     OW44535   2.947   5.058   3.171  0.0408  0.1759  0.3763
12730SOL    HW144536   2.963   4.969   3.139  1.5843  0.3637  0.5472
12730SOL    HW244537   2.852   5.067   3.171 -0.1114 -0.4222 -2.5298
12731SOL     OW44538   4.619   0.039   1.584 -0.4573 -0.1923  0.0895
12731SOL    HW144539   4.598  -0.045   1.626 -1.0509 -0.0052  0.1715
12731SOL    HW244540   4.712   0.051   1.601 -0.5620 -0.4066  0.8543
12732SOL     OW44541   9.043   6.779   3.211 -0.1824  0.5299 -0.0973
12732SOL    HW144542   9.058   6.827   3.130 -1.1294 -1.1918 -1.3415
12732SOL    HW244543   8.948   6.782   3.224 -0.4195 -1.8750 -0.8302
12733SOL     OW44544   7.408   6.946   0.847  0.7508  0.2539 -0.3252
12733SOL    HW144545   7.348   7.004   0.895  0.5322  1.0463 -1.5333
12733SOL    HW244546   7.471   6.917   0.913  1.7055  2.9680  0.0639
12734SOL     OW44547   1.555   4.239   5.476  0.4506 -0.7497 -0.1343
12734SOL    HW144548   1.523   4.180   5.545 -2.4036 -0.0943 -0.7442
12734SOL    HW244549   1.568   4.182   5.400  1.8173 -1.1858  0.3965
12735SOL     OW44550   1.101   7.297   5.497 -0.2933  0.0555 -0.7743
12735SOL    HW144551   1.130   7.359   5.564  1.4647 -1.0833 -0.4231
12735SOL    HW244552   1.031   7.247   5.540 -1.2450  1.2818 -0.8313
12736SOL     OW44553   6.468   4.887   3.135  0.6889  0.1231 -0.0928
12736SOL    HW144554   6.487   4.950   3.065 -0.4460 -0.3721 -0.8817
12736SOL    HW244555   6.536   4.820   3.125 -0.3423 -0.7530 -1.7810
12737SOL     OW44556   3.445   5.837   4.723 -0.4908  0.3661  0.2691
12737SOL    HW144557   3.377   5.776   4.691 -0.0939 -0.9209  1.7671
12737SOL    HW244558   3.516   5.780   4.752  1.7158  1.6807 -2.1012
12738SOL     OW44559   1.278   1.856   7.183 -0.6272 -0.1773 -0.0654
12738SOL    HW144560   1.360   1.903   7.196  1.0823 -1.7928 -3.5215
12738SOL    HW244561   1.276   1.792   7.255  0.2801  0.9368  1.0002
12739SOL     OW44562   2.256   3.974   6.047  0.4091 -0.1920 -1.1251
12739SOL    HW144563   2.282   3.894   6.092 -0.8408 -0.3567 -0.6600
12739SOL    HW244564   2.232   3.946   5.959 -0.0648 -0.3480 -0.9507
12740SOL     OW44565   6.004   0.281   0.505 -0.3448 -0.0620 -0.0144
12740SOL    HW144566   6.044   0.235   0.580 -1.0811 -1.1891 -0.2829
12740SOL    HW244567   5.965   0.359   0.543 -0.6043 -0.5599  0.7756
12741SOL     OW44568   1.452   8.208   2.010  0.2242 -0.3847  0.1655
12741SOL    HW144569   1.444   8.240   1.920  0.2104 -2.7226 -0.7464
12741SOL    HW244570   1.389   8.260   2.060 -1.2603 -0.3797 -1.6032
12742SOL     OW44571   1.997   3.189   0.106 -0.0030 -0.1034  0.2944
12742SOL    HW144572   1.915   3.158   0.146 -0.1365 -1.0164 -0.6548
12742SOL    HW244573   2.036   3.245   0.173 -1.4057  0.3619  0.7692
12743SOL     OW44574   5.350   4.187   7.120 -0.0668  0.0537 -0.7062
12743SOL    HW144575   5.327   4.098   7.094  2.3553 -0.8987  0.1510
12743SOL    HW244576   5.312   4.197   7.207 -1.0252  0.1905 -1.1232
12744SOL     OW44577   1.442   8.962   8.471  0.4665  0.0661  0.3330
12744SOL    HW144578   1.451   8.876   8.513  0.9059 -0.1122 -0.1145
12744SOL    HW244579   1.520   9.011   8.499  0.1167  0.3891  0.7472
12745SOL     OW44580   1.227   1.317   0.712  0.3954 -0.1642 -0.7282
12745SOL    HW144581   1.298   1.300   0.774  1.1904  0.8898 -1.3231
12745SOL    HW244582   1.268   1.366   0.642 -1.1078  1.2806 -0.6493
12746SOL     OW44583   6.087   1.873   2.305 -0.2962 -0.3085  0.4636
12746SOL    HW144584   6.029   1.855   2.231 -2.6558  0.9532  1.8804
12746SOL    HW244585   6.048   1.826   2.379  0.1672  0.9636  1.5699
12747SOL     OW44586   7.900   2.448   7.014  0.2713 -0.3449 -0.8000
12747SOL    HW144587   7.905   2.391   6.937 -0.7646 -3.1463  1.0373
12747SOL    HW244588   7.812   2.485   7.011 -0.4260 -1.8862 -0.0814
12748SOL     OW44589   0.393   8.295   8.374 -0.0863  0.0188 -0.4973
12748SOL    HW144590   0.394   8.349   8.452 -0.1311 -0.4312 -0.1838
12748SOL    HW244591   0.402   8.357   8.302  2.1840  0.2748 -0.0529
12749SOL     OW44592   2.631   6.550   1.025  0.7788 -0.5306  0.1029
12749SOL    HW144593   2.700   6.518   0.967  0.5956 -2.1086  0.6980
12749SOL    HW244594   2.552   6.551   0.971  0.9577 -0.2459 -0.1551
12750SOL     OW44595   6.794   5.390   3.364  0.1791 -0.4404 -0.7451
12750SOL    HW144596   6.828   5.356   3.281  0.7123 -1.9181  0.0338
12750SOL    HW244597   6.729   5.326   3.392  0.1211 -0.0563  0.0482
12751SOL     OW44598   6.687   3.860   0.904 -0.7456 -0.4818 -0.3814
12751SOL    HW144599   6.615   3.901   0.953 -0.8171 -0.4280 -0.5290
12751SOL    HW244600   6.730   3.803   0.968  0.6380  1.3541  0.4121
12752SOL     OW44601   0.245   6.037   5.926  0.5314 -0.0998 -0.2168
12752SOL    HW144602   0.257   6.127   5.958 -3.7573 -0.6518  4.0759
12752SOL    HW244603   0.302   5.984   5.982 -0.7537 -0.3387  0.9420
12753SOL     OW44604   5.587   7.274   7.411 -0.0487  0.4607 -0.0511
12753SOL    HW144605   5.506   7.235   7.378 -0.8205  0.7758  1.3771
12753SOL    HW244606   5.590   7.248   7.503  2.1733 -0.6477 -0.3752
12754SOL     OW44607   1.574   5.641   2.983 -0.0095 -0.4486 -0.0878
12754SOL    HW144608   1.518   5.705   2.938  0.4454  0.0695  0.0695
12754SOL    HW244609   1.622   5.693   3.048  1.7995 -0.6008 -1.2398
12755SOL     OW44610   2.261   2.936   0.226  0.0168  0.9809  0.8444
12755SOL    HW144611   2.197   2.961   0.293 -0.6318  2.7788 -0.3575
12755SOL    HW244612   2.208   2.925   0.147  0.4814 -2.9807  0.8995
12756SOL     OW44613   7.543   7.621   7.414 -0.3916  0.7806 -0.2818
12756SOL    HW144614   7.518   7.532   7.390  0.0417  0.6401 -0.2326
12756SOL    HW244615   7.475   7.677   7.376 -0.2812  0.4807 -0.9364
12757SOL     OW44616   1.543   1.228   2.659 -0.5205  0.5570  0.7076
12757SOL    HW144617   1.450   1.228   2.638 -0.6117 -1.1134  0.9877
12757SOL    HW244618   1.575   1.145   2.625  1.6510  2.4819 -2.5397
12758SOL     OW44619   3.386   4.754   2.626  0.1463  0.3053  0.3270
12758SOL    HW144620   3.401   4.822   2.691  1.1515  0.1915  0.2251
12758SOL    HW244621   3.459   4.693   2.638 -1.5393 -1.6140  1.4910
12759SOL     OW44622   1.135   8.404   0.814 -0.0638  0.0984 -0.3112
12759SOL    HW144623   1.102   8.493   0.809  0.4710  0.2990 -0.3915
12759SOL    HW244624   1.131   8.373   0.723 -1.0270 -0.2558 -0.1581
12760SOL     OW44625   1.439   9.139   4.493 -0.0269  0.3074 -0.3456
12760SOL    HW144626   1.374   9.069   4.491 -0.2649  0.4889  0.6327
12760SOL    HW244627   1.413   9.194   4.566  0.3400  1.2554 -0.9124
12761SOL     OW44628   5.431   3.940   3.111  0.1692 -0.7323 -0.9517
12761SOL    HW144629   5.465   3.927   3.199 -0.3829  1.1835 -0.3924
12761SOL    HW244630   5.508   3.937   3.055  0.6466 -1.0823 -0.2950
12762SOL     OW44631   0.516   1.536   0.699 -0.3565  0.1554  0.0077
12762SOL    HW144632   0.423   1.559   0.697 -0.6527 -0.9603  0.3144
12762SOL    HW244633   0.539   1.521   0.607 -0.3621  0.8346 -0.1120
12763SOL     OW44634   1.724   6.191   7.016 -0.5957 -0.3115 -0.2496
12763SOL    HW144635   1.644   6.159   6.973 -0.4631 -1.5754  0.3987
12763SOL    HW244636   1.714   6.167   7.108  0.2917  0.0043 -0.0556
12764SOL     OW44637   5.012   6.267   8.855 -0.1572 -0.3240  0.1031
12764SOL    HW144638   5.064   6.340   8.890  0.5020 -0.3156 -0.8350
12764SOL    HW244639   5.066   6.231   8.785 -1.7737  0.2585 -1.5372
12765SOL     OW44640   1.279   8.606   7.979  0.4673  0.1456  0.3241
12765SOL    HW144641   1.247   8.590   8.067  1.3475  0.4342  0.7048
12765SOL    HW244642   1.207   8.577   7.922 -0.9927  1.9193  1.1570
12766SOL     OW44643   5.509   4.833   2.550  0.3308 -0.4630  0.1765
12766SOL    HW144644   5.512   4.743   2.582 -0.5553 -0.2348  0.9396
12766SOL    HW244645   5.416   4.851   2.536  0.4687  0.4196  0.2887
12767SOL     OW44646   0.547   0.843   4.143  0.1683  0.6857  0.3293
12767SOL    HW144647   0.490   0.769   4.164  2.6127 -1.6966 -0.8224
12767SOL    HW244648   0.517   0.914   4.200 -0.7752 -1.9225  3.3387
12768SOL     OW44649   5.372   1.080   1.329 -0.7367  0.0500  0.3929
12768SOL    HW144650   5.373   1.164   1.283 -1.3598 -0.2651 -0.2036
12768SOL    HW244651   5.453   1.080   1.381 -0.0126  0.4185 -0.7017
12769SOL     OW44652   4.860   1.448   1.025  0.5241  0.0368  0.0140
12769SOL    HW144653   4.845   1.537   0.993  0.3826  0.0833  0.2112
12769SOL    HW244654   4.850   1.392   0.948 -0.1902  0.1093  0.0507
12770SOL     OW44655   4.604   2.526   0.143  0.1119  0.0878  0.2954
12770SOL    HW144656   4.691   2.566   0.143  1.8096 -3.2516  0.5950
12770SOL    HW244657   4.590   2.500   0.052  0.0356 -0.5382  0.4827
12771SOL     OW44658   2.812   0.362   3.323  0.1837  0.4066 -0.1577
12771SOL    HW144659   2.791   0.322   3.407  1.5463  0.2438  0.1285
12771SOL    HW244660   2.752   0.321   3.261  0.0019 -0.3791  0.5257
12772SOL     OW44661   2.849   7.253   8.099  0.1948 -0.3705 -0.1034
12772SOL    HW144662   2.898   7.238   8.180  1.1053 -1.6993 -0.8714
12772SOL    HW244663   2.892   7.329   8.060  1.7402 -1.5516 -0.7941
12773SOL     OW44664   2.242   4.868   1.745 -0.0815  0.3786 -0.4685
12773SOL    HW144665   2.201   4.954   1.743 -2.3278 -0.6066 -2.4494
12773SOL    HW244666   2.227   4.836   1.834  1.2875  2.1776  0.4637
12774SOL     OW44667   0.490   6.297   6.398 -0.6438  0.5262  0.7903
12774SOL    HW144668   0.434   6.220   6.413  0.5513 -0.4206  0.5475
12774SOL    HW244669   0.574   6.273   6.437  0.4376  0.7977 -1.2374
12775SOL     OW44670   3.643   4.558   8.520  0.6684 -0.4607 -0.8655
12775SOL    HW144671   3.728   4.587   8.552  1.0177  0.0033 -2.1688
12775SOL    HW244672   3.582   4.625   8.549  0.5294 -1.3086  0.9802
12776SOL     OW44673   7.716   7.134   7.074 -0.0322 -0.3146  0.1229
12776SOL    HW144674   7.656   7.070   7.111 -0.9815  0.9861  0.9421
12776SOL    HW244675   7.676   7.157   6.990 -0.6078  0.4000  0.5763
12777SOL     OW44676   0.147   0.776   8.699 -0.7363 -0.3985 -0.6377
12777SOL    HW144677   0.170   0.685   8.714 -2.1514 -0.5854  0.6534
12777SOL    HW244678   0.200   0.825   8.762 -2.1022 -0.6359  0.7701
12778SOL     OW44679   8.797   9.003   5.428  0.1817  0.3193  0.2635
12778SOL    HW144680   8.794   9.008   5.523 -0.7659  1.3835  0.1926
12778SOL    HW244681   8.814   9.094   5.399  0.2855  0.0448 -0.5893
12779SOL     OW44682   4.114   6.339   6.390 -0.5173 -0.4187 -0.2524
12779SOL    HW144683   4.206   6.364   6.399 -0.2584 -1.0890 -0.9510
12779SOL    HW244684   4.100   6.332   6.295 -0.4884 -3.1249 -0.1387
12780SOL     OW44685   4.670   2.931   3.146 -1.0348  0.1412  0.0387
12780SOL    HW144686   4.708   3.017   3.125  0.9774 -0.5642  0.5285
12780SOL    HW244687   4.616   2.947   3.223 -0.0781  0.8656  0.5862
12781SOL     OW44688   7.739   0.878   3.710 -0.6011 -0.2098 -0.1723
12781SOL    HW144689   7.788   0.913   3.785 -1.4161 -0.6169  0.5608
12781SOL    HW244690   7.660   0.932   3.706 -1.7234 -1.6967  0.7707
12782SOL     OW44691   7.430   1.914   3.218  0.0137 -0.2658  0.0748
12782SOL    HW144692   7.510   1.955   3.185  0.0145  0.3754  0.8195
12782SOL    HW244693   7.375   1.988   3.243 -1.0620 -0.6879 -0.9757
12783SOL     OW44694   6.198   5.388   6.266 -0.6704  0.0647  0.5507
12783SOL    HW144695   6.203   5.325   6.338 -0.6225  2.0495  2.3635
12783SOL    HW244696   6.104   5.403   6.255 -0.6239  0.9490  1.3025
12784SOL     OW44697   0.331   0.294   5.807 -0.3880 -0.2074 -0.2004
12784SOL    HW144698   0.335   0.202   5.782 -0.4030 -1.0004  2.3994
12784SOL    HW244699   0.422   0.316   5.830 -0.5149  0.1817 -0.0619
12785SOL     OW44700   7.746   0.250   8.466 -0.0819 -0.9985 -0.2977
12785SOL    HW144701   7.801   0.174   8.484 -0.0873 -0.5094  2.1095
12785SOL    HW244702   7.722   0.241   8.373  3.1325 -1.7602 -1.1542
12786SOL     OW44703   4.874   3.875   4.132  0.1032 -0.1069 -0.3332
12786SOL    HW144704   4.950   3.860   4.187 -0.6300 -0.9295  0.4915
12786SOL    HW244705   4.888   3.818   4.056  0.3656 -0.1767 -0.2333
12787SOL     OW44706   1.298   2.154   1.225 -0.2943 -0.2703  0.0739
12787SOL    HW144707   1.235   2.105   1.279 -2.6740  0.8182 -1.5419
12787SOL    HW244708   1.367   2.179   1.286 -0.5248 -2.9622  1.6030
12788SOL     OW44709   1.455   2.839   5.314 -0.2344  0.2252  0.2325
12788SOL    HW144710   1.416   2.890   5.243  0.0318 -0.8123 -0.7013
12788SOL    HW244711   1.380   2.796   5.356 -0.5599  2.0186  1.6070
12789SOL     OW44712   5.563   4.247   8.420  0.4126 -0.0887  0.5417
12789SOL    HW144713   5.483   4.287   8.386  0.3855 -1.6471 -1.3798
12789SOL    HW244714   5.533   4.167   8.463  0.7746  0.2731  1.4862
12790SOL     OW44715   3.831   4.610   0.609  0.2788 -0.9071  0.3835
12790SOL    HW144716   3.738   4.597   0.590  0.2334 -1.2114  0.8059
12790SOL    HW244717   3.856   4.534   0.661  0.5773 -0.4580  0.9113
12791SOL     OW44718   4.571   8.309   1.554  0.3359  0.0713 -0.1012
12791SOL    HW144719   4.637   8.339   1.617 -0.0420  0.1564  0.2581
12791SOL    HW244720   4.547   8.388   1.506 -0.0304  0.1881  0.2628
12792SOL     OW44721   3.862   0.600   4.773  0.4045 -0.2760  0.0236
12792SOL    HW144722   3.816   0.515   4.775  1.1449 -0.7142 -0.9900
12792SOL    HW244723   3.834   0.640   4.691  0.2477  0.3631  0.3881
12793SOL     OW44724   4.151   7.745   3.592  0.2202 -0.6141  0.1036
12793SOL    HW144725   4.084   7.713   3.532 -0.4422  0.4138  0.2760
12793SOL    HW244726   4.103   7.767   3.672  1.0751 -1.8948  1.0103
12794SOL     OW44727   8.770   9.210   1.487 -0.1953  0.2038 -0.3790
12794SOL    HW144728   8.698   9.270   1.468  0.1336  0.1760 -1.8425
12794SOL    HW244729   8.835   9.228   1.419 -0.5686 -2.5664 -1.6156
12795SOL     OW44730   0.564   3.003   1.924  0.1196 -0.0059 -0.4524
12795SOL    HW144731   0.586   2.988   1.832  0.4532 -1.4653 -0.1531
12795SOL    HW244732   0.638   2.967   1.972 -1.1085 -1.3881  0.4552
12796SOL     OW44733   8.832   3.105   8.422  0.6588 -0.0102  0.0816
12796SOL    HW144734   8.841   3.128   8.330  0.1352  2.8757  0.6803
12796SOL    HW244735   8.809   3.012   8.421 -2.0764  0.5472 -2.8261
12797SOL     OW44736   5.677   0.580   0.560 -0.5115  0.2856 -0.0528
12797SOL    HW144737   5.670   0.485   0.555 -2.5586  0.3449  0.5958
12797SOL    HW244738   5.705   0.598   0.650  0.6297  0.2881 -0.3999
12798SOL     OW44739   4.484   2.343   7.186 -0.1503  0.0505 -0.2941
12798SOL    HW144740   4.392   2.369   7.194  0.1281  0.7851  0.7464
12798SOL    HW244741   4.524   2.374   7.267  0.5852 -2.1260  0.2336
12799SOL     OW44742   3.454   4.774   6.452 -0.2706 -0.4171  0.6009
12799SOL    HW144743   3.412   4.815   6.377  0.2928  0.4396  0.7404
12799SOL    HW244744   3.446   4.838   6.523  0.1240 -0.7788  0.9828
12800SOL     OW44745   1.719   7.188   7.785  0.2555 -0.1971  0.0917
12800SOL    HW144746   1.729   7.254   7.717 -3.1048 -0.4965 -0.8807
12800SOL    HW244747   1.689   7.237   7.862 -0.4110 -0.3665 -0.0565
12801SOL     OW44748   3.748   9.114   7.172  0.0691 -0.2550 -0.5664
12801SOL    HW144749   3.746   9.129   7.267  1.7777 -3.0266 -0.0009
12801SOL    HW244750   3.830   9.154   7.143 -0.4143  0.5217 -0.8949
12802SOL     OW44751   1.479   9.017   1.224 -0.4686 -0.2851 -0.3276
12802SOL    HW144752   1.389   9.009   1.192 -0.8626  1.9880  0.0218
12802SOL    HW244753   1.473   9.077   1.298  1.2433 -0.7316  0.2089
12803SOL     OW44754   8.703   3.996   3.007  0.0691  0.1406  0.1657
12803SOL    HW144755   8.786   3.985   3.053 -0.6440 -0.6478  1.3178
12803SOL    HW244756   8.668   4.079   3.038 -0.4210 -0.3994  1.1389
12804SOL     OW44757   0.246   6.345   6.621 -0.0496  0.1310  0.5280
12804SOL    HW144758   0.331   6.301   6.628  0.0629  0.0711 -1.0434
12804SOL    HW244759   0.182   6.273   6.622  0.1828 -0.2991 -3.2291
12805SOL     OW44760   0.423   8.644   0.367 -0.4674 -0.1007  0.2654
12805SOL    HW144761   0.438   8.699   0.444  0.4906  0.5717 -0.3751
12805SOL    HW244762   0.509   8.636   0.326 -1.0229 -0.1378 -0.9335
12806SOL     OW44763   7.470   5.188   0.030  0.4205  0.1118 -0.4736
12806SOL    HW144764   7.414   5.210  -0.044  1.4002  0.5491 -1.1035
12806SOL    HW244765   7.539   5.253   0.029 -0.8290  1.6989  2.3407
12807SOL     OW44766   2.766   2.246   4.539 -0.3898 -0.1583 -0.0267
12807SOL    HW144767   2.685   2.200   4.518 -0.1465  0.0097 -1.4261
12807SOL    HW244768   2.785   2.299   4.461  0.9315 -0.0097  0.3657
12808SOL     OW44769   4.130   9.149   0.117 -0.3015  0.1508 -0.2560
12808SOL    HW144770   4.177   9.095   0.054  0.3671  0.3480  0.0575
12808SOL    HW244771   4.071   9.089   0.162  0.2469 -0.2712 -0.0929
12809SOL     OW44772   3.049   0.081   2.321  0.2211 -0.7241  0.5173
12809SOL    HW144773   3.045   0.171   2.354  1.3848 -0.3183 -0.3952
12809SOL    HW244774   3.015   0.028   2.393  0.9674  0.2988  1.6624
12810SOL     OW44775   6.500   0.367   3.119  0.2915 -0.0072 -0.3807
12810SOL    HW144776   6.410   0.357   3.089 -0.2053  0.1187  1.0014
12810SOL    HW244777   6.553   0.358   3.040 -0.8934 -0.6787 -1.1243
12811SOL     OW44778   3.511   2.187   5.539  0.7040  0.0608 -0.0290
12811SOL    HW144779   3.564   2.156   5.465  0.6442  1.8828 -0.9058
12811SOL    HW244780   3.508   2.113   5.599  3.0764 -0.5879 -0.5813
12812SOL     OW44781   2.724   5.753   2.183 -0.5393 -0.1529  0.2769
12812SOL    HW144782   2.708   5.798   2.266  2.0253 -1.4091  1.5685
12812SOL    HW244783   2.772   5.674   2.207 -1.0959 -1.3964 -2.2943
12813SOL     OW44784   4.017   1.315   4.947  0.3088  0.6142  0.1335
12813SOL    HW144785   4.108   1.341   4.931 -0.0475  1.9881  0.2067
12813SOL    HW244786   3.983   1.382   5.006 -1.7046  2.1407 -2.5109
12814SOL     OW44787   5.521   5.201   6.253  0.1015  0.4636 -0.6332
12814SOL    HW144788   5.583   5.130   6.240  1.1464  0.8213  1.9074
12814SOL    HW244789   5.565   5.278   6.219  0.4709  0.4830 -0.1158
12815SOL     OW44790   1.422   3.702   3.173 -0.1418 -0.3131  0.2750
12815SOL    HW144791   1.454   3.772   3.230 -1.8224 -0.9417  2.1118
12815SOL    HW244792   1.405   3.745   3.089  1.0515  0.9512  0.6423
12816SOL     OW44793   0.764   2.530   7.625 -0.0103  0.0727 -0.2132
12816SOL    HW144794   0.696   2.565   7.568  2.1251  1.6257 -1.9776
12816SOL    HW244795   0.807   2.462   7.573  2.3727  1.9399 -0.8391
12817SOL     OW44796   8.742   6.094   3.441  0.1484  0.4266 -0.6795
12817SOL    HW144797   8.735   6.180   3.400  1.3254  1.2726  0.7796
12817SOL    HW244798   8.825   6.059   3.409 -0.2322 -0.0825 -1.1149
12818SOL     OW44799   8.892   3.418   0.871 -0.5574 -0.0976 -0.5382
12818SOL    HW144800   8.910   3.487   0.806 -0.6821 -0.7853 -1.3193
12818SOL    HW244801   8.911   3.336   0.825  1.7005 -0.5514  1.0410
12819SOL     OW44802   5.622   0.204   2.505 -0.3318  0.0151  0.1348
12819SOL    HW144803   5.553   0.211   2.439 -0.4800 -0.0702  0.2801
12819SOL    HW244804   5.613   0.116   2.540  0.0852 -0.1239 -0.1009
12820SOL     OW44805   7.592   3.894   3.322  0.3523 -0.4550 -0.1919
12820SOL    HW144806   7.511   3.935   3.354  0.5498 -0.5711  0.4790
12820SOL    HW244807   7.609   3.823   3.385  0.7043 -0.7507 -0.6154
12821SOL     OW44808   7.239   3.952   8.832  0.4592 -0.2585  0.1793
12821SOL    HW144809   7.264   3.866   8.863 -0.9011 -1.2955 -1.4222
12821SOL    HW244810   7.294   3.967   8.755  0.3449  0.0613  0.1567
12822SOL     OW44811   3.212   7.053   6.891  0.5644  0.1198  0.3428
12822SOL    HW144812   3.191   7.139   6.929 -1.4190  0.1811 -0.7821
12822SOL    HW244813   3.186   6.990   6.958 -0.5875  0.3180  0.0982
12823SOL     OW44814   5.165   3.935   7.311 -0.5558 -0.1560 -0.2746
12823SOL    HW144815   5.171   3.920   7.216  4.1184 -0.0236 -0.1911
12823SOL    HW244816   5.164   4.030   7.320  1.5010 -0.1019 -0.2295
12824SOL     OW44817   2.910   2.684   6.850 -0.2215  0.1956  0.5171
12824SOL    HW144818   2.887   2.763   6.802  0.2485  0.4801  0.7558
12824SOL    HW244819   2.870   2.695   6.936 -1.2154 -0.3942  0.1513
12825SOL     OW44820   4.462   3.708   8.935  0.0751  0.0835  0.1823
12825SOL    HW144821   4.539   3.718   8.878  0.7471  0.1040  1.0706
12825SOL    HW244822   4.432   3.797   8.950 -1.4642 -0.0286 -1.9175
12826SOL     OW44823   5.434   7.864   3.776  0.6120  0.6934  0.4788
12826SOL    HW144824   5.356   7.835   3.729  0.4687  1.4815  0.2081
12826SOL    HW244825   5.507   7.835   3.722  0.4492  1.5921 -0.2565
12827SOL     OW44826   5.277   2.086   5.983 -0.2853 -0.3065 -0.2512
12827SOL    HW144827   5.269   2.176   5.952  0.6918 -0.0460  0.2538
12827SOL    HW244828   5.193   2.068   6.025 -0.1696  0.6575  0.4083
12828SOL     OW44829   4.813   2.918   1.008 -0.3572  0.0691 -0.4989
12828SOL    HW144830   4.866   2.994   1.030 -0.6215  0.2732 -0.5642
12828SOL    HW244831   4.752   2.949   0.941 -1.1005  0.0586  0.1528
12829SOL     OW44832   0.230   7.819   4.685 -0.2624 -0.4744  0.5251
12829SOL    HW144833   0.137   7.819   4.709 -0.5424 -3.6186 -0.1316
12829SOL    HW244834   0.233   7.774   4.601  1.8562 -0.4108  0.5182
12830SOL     OW44835   5.072   5.846   8.142 -0.4519  0.0068  0.0271
12830SOL    HW144836   5.002   5.783   8.155 -1.6427  1.4926  1.2365
12830SOL    HW244837   5.137   5.825   8.209  0.5056 -1.6050 -1.3287
12831SOL     OW44838   0.820   7.301   9.245 -0.2581  0.1519  0.2149
12831SOL    HW144839   0.884   7.272   9.180  0.2535  1.0445  0.3021
12831SOL    HW244840   0.795   7.389   9.215  1.1989  1.2807  2.0470
12832SOL     OW44841   6.771   7.192   3.323 -0.4306  0.1196 -0.9187
12832SOL    HW144842   6.679   7.191   3.297 -0.4849  0.2067 -0.7296
12832SOL    HW244843   6.815   7.141   3.255 -0.7130 -0.4698 -0.6644
12833SOL     OW44844   3.253   3.944   3.628  0.0435  0.0963 -0.4196
12833SOL    HW144845   3.318   3.875   3.639  0.0943  0.4392  2.2230
12833SOL    HW244846   3.177   3.901   3.591 -0.1108 -1.5808  1.6316
12834SOL     OW44847   5.744   3.637   8.738 -0.7037  0.0237  0.3752
12834SOL    HW144848   5.819   3.587   8.769 -0.2018  0.0358 -0.7677
12834SOL    HW244849   5.771   3.728   8.745 -0.3846  0.0125 -0.5386
12835SOL     OW44850   5.783   5.133   6.441 -0.6360 -0.6518  0.1108
12835SOL    HW144851   5.856   5.073   6.422  1.4616  0.8053  2.7708
12835SOL    HW244852   5.795   5.205   6.379  0.7010 -0.0830  0.9819
12836SOL     OW44853   0.733   4.622   0.636  0.5318 -0.0749  0.4035
12836SOL    HW144854   0.813   4.625   0.689 -0.4161  0.7490  1.8740
12836SOL    HW244855   0.762   4.638   0.547  2.2527 -1.9031  0.5648
12837SOL     OW44856   1.459   7.057   6.427 -0.3853  0.0271 -1.0030
12837SOL    HW144857   1.510   7.137   6.429  0.7398 -0.6668 -0.7345
12837SOL    HW244858   1.404   7.062   6.505  1.3990 -0.5047  0.3668
12838SOL     OW44859   2.232   4.323   1.515 -0.2310 -0.5875 -0.8857
12838SOL    HW144860   2.154   4.373   1.489  0.9783  1.4450 -0.8358
12838SOL    HW244861   2.197   4.246   1.559 -2.2763 -1.3557 -3.5406
12839SOL     OW44862   6.843   3.338   0.259 -0.1730 -0.1632 -0.3830
12839SOL    HW144863   6.912   3.389   0.303  0.6265 -0.9219 -0.7207
12839SOL    HW244864   6.846   3.369   0.168 -1.1794  0.7253 -0.1348
12840SOL     OW44865   7.475   6.157   7.755 -0.1861  0.3075 -0.3393
12840SOL    HW144866   7.432   6.236   7.724 -2.0423 -0.9145 -1.0886
12840SOL    HW244867   7.458   6.092   7.687  2.1105 -0.5116 -0.1989
12841SOL     OW44868   8.976   1.726   8.770 -0.0302  0.0396 -0.0822
12841SOL    HW144869   9.010   1.726   8.860  0.2941 -1.7221 -0.1637
12841SOL    HW244870   9.041   1.775   8.720 -0.4843  1.5013  0.7137
12842SOL     OW44871   5.129   1.664   3.514 -0.0058  0.0488 -0.7930
12842SOL    HW144872   5.145   1.751   3.480 -3.1898  1.2637  0.4084
12842SOL    HW244873   5.140   1.673   3.609  0.2144 -1.0226 -0.7052
12843SOL     OW44874   3.382   8.668   4.381 -0.2464  0.1936  0.4557
12843SOL    HW144875   3.300   8.619   4.374  0.6111 -1.0966 -1.2004
12843SOL    HW244876   3.356   8.760   4.373 -1.6602 -0.0925  1.3981
12844SOL     OW44877   5.307   2.738   0.347 -0.8397 -0.2574 -0.7038
12844SOL    HW144878   5.376   2.710   0.406 -1.2043  0.9288  0.3472
12844SOL    HW244879   5.336   2.711   0.260  0.3180 -0.9185 -0.1283
12845SOL     OW44880   3.476   7.273   8.319  0.6595  0.4571  0.0250
12845SOL    HW144881   3.510   7.241   8.402 -0.0289  0.0962  0.1702
12845SOL    HW244882   3.382   7.259   8.324  0.3581  2.2197 -0.0377
12846SOL     OW44883   0.087   9.033   0.787  0.0709 -0.0885  0.1648
12846SOL    HW144884   0.058   8.953   0.832  0.8900 -1.1272 -1.0807
12846SOL    HW244885   0.125   9.002   0.705  4.9982  1.0518  1.7164
12847SOL     OW44886   0.904   5.073   8.326  0.0987 -0.2655 -0.1501
12847SOL    HW144887   0.980   5.025   8.358 -0.4701 -1.7208 -0.9260
12847SOL    HW244888   0.871   5.021   8.254  0.7159  2.3311 -2.5144
12848SOL     OW44889   3.587   1.488   7.993  0.0425 -0.5374  0.1283
12848SOL    HW144890   3.582   1.444   8.077  0.0123 -1.8584 -0.5499
12848SOL    HW244891   3.532   1.566   8.004 -0.1945 -0.8418  1.2357
12849SOL     OW44892   5.683   2.376   5.495 -0.3199 -0.3258  0.0112
12849SOL    HW144893   5.714   2.427   5.420 -0.4537 -1.1513 -0.6257
12849SOL    HW244894   5.589   2.389   5.496 -0.4400 -1.0821 -0.5679
12850SOL     OW44895   6.950   0.999   7.076  0.7035  0.4141  0.8786
12850SOL    HW144896   6.983   0.910   7.082  1.2254  0.5230 -0.1035
12850SOL    HW244897   6.922   1.021   7.165 -1.0648 -1.3167  0.8055
12851SOL     OW44898   1.793   5.219   2.661 -0.2627 -0.0815 -0.3307
12851SOL    HW144899   1.762   5.284   2.724  0.2945 -0.0591 -0.0743
12851SOL    HW244900   1.804   5.267   2.580  0.2375  0.1712 -0.1176
12852SOL     OW44901   7.057   2.771   8.982  0.4728  0.3332 -0.6209
12852SOL    HW144902   7.119   2.723   8.927  0.1341 -0.9347  0.0588
12852SOL    HW244903   6.986   2.795   8.922 -0.8819 -2.8022 -0.4569
12853SOL     OW44904   2.143   1.619   7.516  0.4004 -0.0023  0.0685
12853SOL    HW144905   2.162   1.561   7.590 -1.9225  1.1744  1.7447
12853SOL    HW244906   2.223   1.671   7.506  1.0292 -0.6679  1.3140
12854SOL     OW44907   0.944   8.024   2.074 -0.1852  0.1138 -0.1911
12854SOL    HW144908   0.867   7.973   2.100  0.0038 -0.3593 -0.5607
12854SOL    HW244909   0.986   8.048   2.156 -0.1918 -0.4527 -0.0190
12855SOL     OW44910   9.135   1.267   3.076 -0.3602 -0.0305  0.0945
12855SOL    HW144911   9.157   1.204   3.007  0.6385  1.7281 -1.2565
12855SOL    HW244912   9.219   1.299   3.107 -0.8604  0.8776  0.5409
12856SOL     OW44913   2.933   0.347   6.791 -0.1372 -0.0402  0.4378
12856SOL    HW144914   2.886   0.372   6.711 -0.4452  2.5663  1.3481
12856SOL    HW244915   3.020   0.322   6.761 -1.5955 -4.0089 -1.1826
12857SOL     OW44916   5.238   2.108   8.864 -0.4263 -0.0678  0.2682
12857SOL    HW144917   5.165   2.093   8.805  1.6110 -0.0546 -2.4623
12857SOL    HW244918   5.268   2.196   8.844  0.5931 -0.2160  1.0328
12858SOL     OW44919   3.005   7.141   2.958 -0.0164 -0.4866  0.1472
12858SOL    HW144920   2.929   7.169   2.906  0.8022 -0.8571 -1.3044
12858SOL    HW244921   3.015   7.208   3.025 -0.8744  0.2137 -0.4109
12859SOL     OW44922   0.563   3.055   4.494  0.1021 -0.1897 -0.9614
12859SOL    HW144923   0.653   3.082   4.511  0.6976 -1.4871 -1.8371
12859SOL    HW244924   0.572   2.981   4.433 -1.5403 -0.5249 -0.8333
12860SOL     OW44925   6.526   1.876   3.466  0.3809 -0.5195  0.5736
12860SOL    HW144926   6.512   1.823   3.544  0.3720 -0.7420  0.4225
12860SOL    HW244927   6.445   1.865   3.416 -0.6583  1.5785  1.6633
12861SOL     OW44928   0.224   7.600   0.041 -0.2387  0.6941 -0.0735
12861SOL    HW144929   0.292   7.579   0.104 -1.8066 -1.9645  0.9260
12861SOL    HW244930   0.254   7.561  -0.041 -1.8362 -3.6880  1.1242
12862SOL     OW44931   6.787   1.709   7.474  0.0935  0.0957  0.1219
12862SOL    HW144932   6.811   1.705   7.567  1.9606 -2.6721 -0.3566
12862SOL    HW244933   6.707   1.655   7.469  0.0508  0.1616  0.0926
12863SOL     OW44934   1.999   6.210   3.280  0.3201  0.2953 -0.2643
12863SOL    HW144935   2.071   6.203   3.343  0.0895  0.1746 -0.0112
12863SOL    HW244936   1.926   6.243   3.332 -0.5223 -1.9242  0.0468
12864SOL     OW44937   6.286   2.676   8.892 -0.1326  0.5154 -0.3279
12864SOL    HW144938   6.223   2.685   8.821  0.2640  1.4185 -0.5904
12864SOL    HW244939   6.363   2.725   8.862  1.5062 -2.2402 -0.8981
12865SOL     OW44940   7.042   1.541   2.575 -0.3200 -0.7464 -0.2095
12865SOL    HW144941   7.126   1.545   2.529 -0.8481  1.3335 -1.1274
12865SOL    HW244942   7.054   1.473   2.640  2.0688 -0.5744 -0.3647
12866SOL     OW44943   6.017   6.895   2.880 -0.6036  0.8923 -0.6796
12866SOL    HW144944   6.042   6.985   2.857  1.3661  0.2603 -1.1584
12866SOL    HW244945   6.052   6.841   2.809 -0.6045 -0.3964  0.2702
12867SOL     OW44946   6.371   7.803   4.957 -0.2886  0.5927 -0.1311
12867SOL    HW144947   6.344   7.727   4.905 -0.3428  1.0648 -0.8004
12867SOL    HW244948   6.384   7.873   4.893 -0.8724  1.3356  0.5385
12868SOL     OW44949   3.900   4.937   0.767  0.2186 -0.5195  0.7120
12868SOL    HW144950   3.896   4.906   0.858 -1.7174 -0.3632  0.7320
12868SOL    HW244951   3.846   5.016   0.767 -0.9125 -1.2454 -0.8189
12869SOL     OW44952   2.569   0.255   8.000  0.1272  0.0978  0.3025
12869SOL    HW144953   2.633   0.216   8.059 -1.3835 -0.5657  1.5668
12869SOL    HW244954   2.612   0.256   7.915  1.5092 -1.0973  0.9495
12870SOL     OW44955   9.058   4.883   3.289 -0.2622 -0.5281  0.2905
12870SOL    HW144956   9.024   4.887   3.199 -0.8824 -2.4627  0.4022
12870SOL    HW244957   9.005   4.816   3.332  0.0527  0.3310  2.1125
12871SOL     OW44958   4.724   5.997   0.536  0.3662 -0.5080 -0.0358
12871SOL    HW144959   4.636   5.973   0.565  0.4879 -1.2990 -0.3046
12871SOL    HW244960   4.712   6.078   0.486  0.0323  0.3541  1.3922
12872SOL     OW44961   4.489   0.323   3.423 -0.5759  0.1984 -0.5989
12872SOL    HW144962   4.537   0.340   3.343 -0.1765 -0.8214 -0.5960
12872SOL    HW244963   4.521   0.388   3.485  1.0850 -0.6696 -0.4922
12873SOL     OW44964   8.981   0.708   1.675  0.2998  0.4468  0.5198
12873SOL    HW144965   8.902   0.762   1.682 -0.7495 -0.8818 -0.3689
12873SOL    HW244966   8.967   0.657   1.595  1.9953  0.0411  0.4488
12874SOL     OW44967   6.422   0.453   4.533 -0.0914 -0.3742  0.2528
12874SOL    HW144968   6.375   0.528   4.569 -1.4308 -1.0744 -0.0038
12874SOL    HW244969   6.369   0.377   4.556  0.0096 -1.0319 -1.5076
12875SOL     OW44970   6.450   1.189   5.094  0.0266  0.2376  0.6609
12875SOL    HW144971   6.504   1.239   5.033  0.0662  0.0795  0.5656
12875SOL    HW244972   6.441   1.246   5.170  1.1904 -0.1547  1.1020
12876SOL     OW44973   3.643   7.347   5.868 -0.1791 -0.0810 -0.3481
12876SOL    HW144974   3.635   7.439   5.893  1.3583  0.2791 -1.0487
12876SOL    HW244975   3.567   7.331   5.812 -0.4421  0.7694 -0.2550
12877SOL     OW44976   3.437   5.670   5.385  0.6089 -0.0199  0.4122
12877SOL    HW144977   3.418   5.626   5.302 -0.5085  0.7959  0.2229
12877SOL    HW244978   3.417   5.762   5.369  1.9097  0.4169  1.1202
12878SOL     OW44979   5.943   6.908   7.738  0.0973  0.0974 -0.1822
12878SOL    HW144980   5.971   6.878   7.652 -1.3919 -0.4858 -0.5000
12878SOL    HW244981   5.855   6.872   7.748 -0.0280  0.7478  1.2927
12879SOL     OW44982   9.204   7.834   1.619 -0.6131  0.2084 -0.3665
12879SOL    HW144983   9.211   7.781   1.539 -1.7047 -0.2659 -0.1822
12879SOL    HW244984   9.208   7.924   1.589 -0.7052  0.0293 -0.9266
12880SOL     OW44985   7.610   1.001   1.679  0.0246  0.9977  0.0720
12880SOL    HW144986   7.562   0.919   1.668  0.9022  0.6133 -1.0691
12880SOL    HW244987   7.683   0.979   1.737 -0.3143  1.2338  0.6019
12881SOL     OW44988   2.254   8.784   6.936  0.0065 -0.3340 -0.7577
12881SOL    HW144989   2.306   8.853   6.895  0.1716  0.0241  0.0180
12881SOL    HW244990   2.169   8.826   6.954  0.3512 -0.0691  0.3965
12882SOL     OW44991   0.092   6.075   6.221 -0.4209  0.1066  0.5159
12882SOL    HW144992   0.157   6.118   6.165 -1.3494  1.4521  0.4257
12882SOL    HW244993   0.052   6.009   6.165 -1.9530  2.0021 -0.7943
12883SOL     OW44994   1.670   2.858   2.968 -0.3061  0.0645  0.1593
12883SOL    HW144995   1.624   2.843   2.885  1.5261  0.6730 -1.0207
12883SOL    HW244996   1.743   2.916   2.945  1.1145 -0.9367  1.9046
12884SOL     OW44997   3.592   1.763   9.135  0.1713  0.4039 -0.2446
12884SOL    HW144998   3.511   1.712   9.143  0.9240 -0.6743  0.9059
12884SOL    HW244999   3.613   1.760   9.042  0.2474 -1.5470 -0.2125
12885SOL     OW45000   1.479   1.636   6.364  0.0623  0.2248 -0.8216
12885SOL    HW145001   1.415   1.630   6.435  1.9250 -0.0858  0.9297
12885SOL    HW245002   1.466   1.555   6.314 -0.0171 -0.4992  0.3253
12886SOL     OW45003   2.956   4.785   0.582  0.2175 -0.1560  0.0237
12886SOL    HW145004   2.879   4.767   0.528  1.0380 -0.3829 -1.0938
12886SOL    HW245005   3.028   4.790   0.520  1.1839 -0.3989  1.0987
12887SOL     OW45006   7.761   0.215   2.548 -0.1826 -0.5344  0.4612
12887SOL    HW145007   7.701   0.233   2.620  0.6517  2.2757  0.5628
12887SOL    HW245008   7.714   0.245   2.470  0.8664  1.3957  0.5083
12888SOL     OW45009   8.063   7.280   0.495 -0.1980 -0.2208 -0.6346
12888SOL    HW145010   8.049   7.374   0.504  1.8357  0.0476  0.3161
12888SOL    HW245011   8.103   7.270   0.409 -0.2332 -0.1863 -0.6549
12889SOL     OW45012   5.557   4.409   2.268 -0.4455  0.3720 -0.7248
12889SOL    HW145013   5.632   4.455   2.231  0.4651 -0.6992 -0.2649
12889SOL    HW245014   5.516   4.366   2.194 -0.1367  0.3250 -0.8711
12890SOL     OW45015   5.914   3.033   7.775 -0.0416 -0.3123  0.1710
12890SOL    HW145016   5.983   3.018   7.711 -0.1131  0.4780 -0.1021
12890SOL    HW245017   5.959   3.032   7.859  0.2165 -0.3641  0.0339
12891SOL     OW45018   2.054   2.759   5.191 -0.1614  0.3542 -0.3719
12891SOL    HW145019   1.982   2.731   5.135  0.6206 -0.6980 -0.8921
12891SOL    HW245020   2.044   2.708   5.271  0.4705 -0.4348 -0.7782
12892SOL     OW45021   2.195   3.733   7.010  0.2714  0.4139  0.4620
12892SOL    HW145022   2.240   3.776   7.082  0.4933  1.0735 -0.0542
12892SOL    HW245023   2.256   3.667   6.978  0.6846  0.9647  0.0872
12893SOL     OW45024   5.731   1.929   8.211  0.1769  0.1639  0.1744
12893SOL    HW145025   5.652   1.957   8.166  0.6445  0.0786 -0.7197
12893SOL    HW245026   5.748   1.999   8.275 -0.4089  0.3646  0.1146
12894SOL     OW45027   2.816   3.042   8.469  0.0171  0.1921 -0.1479
12894SOL    HW145028   2.749   3.092   8.514  0.5251  1.7430 -1.0444
12894SOL    HW245029   2.894   3.049   8.525 -0.5227 -1.6332  0.9087
12895SOL     OW45030   0.505   3.182   2.238 -0.4909 -0.0260  0.1127
12895SOL    HW145031   0.419   3.144   2.218  0.2191 -0.4101 -2.5721
12895SOL    HW245032   0.512   3.177   2.333 -2.3993 -2.2784  0.2187
12896SOL     OW45033   2.257   3.696   1.057  0.4535 -0.0819 -0.5442
12896SOL    HW145034   2.187   3.706   0.992 -0.3104  1.7951  0.5075
12896SOL    HW245035   2.332   3.741   1.019 -0.1180  1.3922 -0.0080
12897SOL     OW45036   0.390   8.394   7.168 -0.2307 -0.1441  0.2876
12897SOL    HW145037   0.426   8.435   7.090 -0.4555  0.3640  0.4452
12897SOL    HW245038   0.296   8.387   7.150 -0.1496 -0.9087  0.1231
12898SOL     OW45039   0.774   1.250   2.337  0.2256 -0.0627 -0.4116
12898SOL    HW145040   0.812   1.338   2.341 -2.0943  0.9678  1.9638
12898SOL    HW245041   0.733   1.246   2.251  0.5601  1.1045 -0.6510
12899SOL     OW45042   2.066   9.244   6.824 -0.2351  0.7779  0.5779
12899SOL    HW145043   2.011   9.275   6.753 -1.0748  0.5582  1.1257
12899SOL    HW245044   2.155   9.247   6.788 -0.6747  0.3488 -0.5820
12900SOL     OW45045   5.599   8.822   1.404 -0.2633 -0.6355 -0.3420
12900SOL    HW145046   5.516   8.779   1.426  0.6280 -2.1848  0.1549
12900SOL    HW245047   5.615   8.882   1.477 -0.4840 -1.0119  0.0154
12901SOL     OW45048   2.085   5.262   0.655  0.1608 -0.4012 -0.8102
12901SOL    HW145049   2.013   5.211   0.619 -0.4383  0.4777 -0.9002
12901SOL    HW245050   2.128   5.301   0.579 -0.0751  0.1174 -0.6807
12902SOL     OW45051   3.413   5.655   8.589 -0.3552 -0.7021  0.6031
12902SOL    HW145052   3.484   5.718   8.579 -1.0928  1.1106  4.6465
12902SOL    HW245053   3.337   5.698   8.551 -0.5173  0.2526  1.9297
12903SOL     OW45054   4.733   1.317   0.790 -0.3079  0.3979  0.1868
12903SOL    HW145055   4.702   1.404   0.765  1.2298  0.9425  0.1004
12903SOL    HW245056   4.797   1.293   0.723  0.5220 -0.0620  1.1069
12904SOL     OW45057   8.837   2.182   7.375  0.4285 -0.2634 -0.3643
12904SOL    HW145058   8.930   2.159   7.371  0.9402  1.4748  0.5912
12904SOL    HW245059   8.825   2.244   7.304  0.3307  0.5720  0.3740
12905SOL     OW45060   6.043   8.520   0.285 -0.1124  0.0049 -0.4092
12905SOL    HW145061   6.027   8.614   0.293 -0.9145 -0.0718 -1.0288
12905SOL    HW245062   6.137   8.514   0.264  0.6623  0.4923  2.5228
12906SOL     OW45063   2.747   6.390   3.299  0.0897  0.2566  0.3460
12906SOL    HW145064   2.660   6.419   3.325 -0.2548 -0.6515  0.2362
12906SOL    HW245065   2.760   6.307   3.345  0.7684  0.2272  0.1156
12907SOL     OW45066   1.949   8.723   5.220 -0.0287  0.0952 -0.3871
12907SOL    HW145067   1.863   8.685   5.240  0.0633 -0.7277 -1.4933
12907SOL    HW245068   1.950   8.732   5.125  0.8800  0.6849 -0.3326
12908SOL     OW45069   3.118   4.340   4.629 -0.4229  0.5205 -0.0926
12908SOL    HW145070   3.058   4.321   4.701 -0.5494  1.6665  0.1198
12908SOL    HW245071   3.083   4.419   4.589  0.1282  0.3730 -0.8847
12909SOL     OW45072   5.180   1.324   4.351 -0.0710  0.0578  0.0333
12909SOL    HW145073   5.189   1.232   4.377 -0.1341  0.2663  0.8326
12909SOL    HW245074   5.257   1.367   4.389 -0.5682  0.5133  0.5517
12910SOL     OW45075   8.285   6.822   1.386 -0.5941 -0.7480  0.1265
12910SOL    HW145076   8.358   6.773   1.424 -0.0020 -0.6973 -0.9187
12910SOL    HW245077   8.326   6.894   1.338 -1.3417 -0.5867 -0.2932
12911SOL     OW45078   8.509   8.592   4.541 -0.1252  0.6362  0.2889
12911SOL    HW145079   8.488   8.654   4.611 -0.1795 -1.2900  2.0834
12911SOL    HW245080   8.602   8.572   4.555 -0.6106 -1.2243  1.0835
12912SOL     OW45081   1.749   8.629   6.492  0.1443  0.0099  0.2767
12912SOL    HW145082   1.809   8.566   6.533  1.8765  1.4081 -0.0134
12912SOL    HW245083   1.781   8.639   6.403 -1.8661 -0.8216 -0.5980
12913SOL     OW45084   0.901   9.094   1.923 -0.0658  0.0874  0.3021
12913SOL    HW145085   0.870   9.178   1.955  1.1097  0.8345 -0.4685
12913SOL    HW245086   0.982   9.113   1.876 -1.1918 -1.0360 -2.3736
12914SOL     OW45087   5.985   6.181   7.212 -0.3275 -0.0342 -0.7129
12914SOL    HW145088   5.907   6.152   7.164  0.8193 -2.7370 -1.1200
12914SOL    HW245089   5.974   6.145   7.300 -0.4407  1.3146 -0.1500
12915SOL     OW45090   8.047   1.783   5.161  0.3170  0.2353 -0.2832
12915SOL    HW145091   7.952   1.778   5.158  0.3624 -0.2447 -1.6285
12915SOL    HW245092   8.067   1.877   5.164 -0.1940  0.3212  1.1720
12916SOL     OW45093   5.414   7.301   3.477  0.1885  0.0204 -0.5073
12916SOL    HW145094   5.430   7.280   3.569 -0.3691 -0.1490 -0.4490
12916SOL    HW245095   5.427   7.396   3.472  1.3698 -0.1157 -0.4990
12917SOL     OW45096   8.990   0.575   2.397  0.4204  0.0836  0.0354
12917SOL    HW145097   9.005   0.510   2.328  0.4960  1.2987 -1.1385
12917SOL    HW245098   9.078   0.593   2.431  0.3318 -0.8598  0.7939
12918SOL     OW45099   7.920   4.075   8.207  0.8363 -0.0804  0.3670
12918SOL    HW145100   7.851   4.129   8.247  1.1051 -0.1016  0.8664
12918SOL    HW245101   7.875   3.995   8.179  0.1066  1.0040 -1.8045
12919SOL     OW45102   6.254   4.669   3.476 -0.3842  0.0592 -0.6323
12919SOL    HW145103   6.161   4.686   3.491 -0.2850 -0.1088  0.2288
12919SOL    HW245104   6.296   4.686   3.560 -0.0476 -2.7697 -0.1182
12920SOL     OW45105   4.299   0.372   7.792 -0.0725 -0.1817 -0.7519
12920SOL    HW145106   4.346   0.447   7.757 -2.8072  2.0135 -0.0548
12920SOL    HW245107   4.316   0.375   7.886 -0.2024 -0.4603 -0.7182
12921SOL     OW45108   1.086   2.388   1.166  0.1361 -0.2751 -0.0087
12921SOL    HW145109   1.007   2.385   1.113 -0.7259 -1.5709  1.2756
12921SOL    HW245110   1.128   2.303   1.152 -0.1636 -0.6868  1.4225
12922SOL     OW45111   3.826   2.314   6.143 -0.2752  0.0526 -0.0183
12922SOL    HW145112   3.897   2.300   6.205 -1.8736 -2.7580  1.3876
12922SOL    HW245113   3.756   2.352   6.195 -0.6467  0.4648 -0.8011
12923SOL     OW45114   1.239   2.719   2.667  0.1302 -0.5396  0.0962
12923SOL    HW145115   1.232   2.624   2.659 -0.1698 -0.3840 -1.7336
12923SOL    HW245116   1.150   2.751   2.652  0.7365  0.1804 -2.3794
12924SOL     OW45117   7.201   7.235   5.810  0.3124  0.1908 -0.2301
12924SOL    HW145118   7.106   7.245   5.804  0.2268 -0.5603 -0.2214
12924SOL    HW245119   7.229   7.306   5.867 -0.4366 -0.5170  1.0816
12925SOL     OW45120   2.686   1.025   0.739  0.1349 -0.0314  0.0348
12925SOL    HW145121   2.681   0.991   0.829  0.0063  1.1359  0.4891
12925SOL    HW245122   2.744   0.965   0.693  1.9785  0.5438  1.4732
12926SOL     OW45123   0.091   4.498   5.126  0.0383 -0.2970  0.1837
12926SOL    HW145124   0.153   4.437   5.165 -0.0540 -0.4885  0.0311
12926SOL    HW245125   0.126   4.585   5.147 -1.3331 -0.3126  2.9186
12927SOL     OW45126   3.591   7.519   3.288  0.1096  0.1627  0.0180
12927SOL    HW145127   3.559   7.442   3.335 -0.8458  1.6536  1.9535
12927SOL    HW245128   3.513   7.559   3.250  0.4394  0.7871 -0.0263
12928SOL     OW45129   3.431   1.933   1.663 -0.1468 -0.7642 -0.3441
12928SOL    HW145130   3.513   1.883   1.662  0.2813 -0.0788  0.1992
12928SOL    HW245131   3.388   1.908   1.581  0.5755 -1.1708 -0.6164
12929SOL     OW45132   4.456   3.514   5.043 -0.1577 -0.2087 -0.3437
12929SOL    HW145133   4.397   3.546   5.112  2.4852  2.0930  1.0550
12929SOL    HW245134   4.467   3.589   4.985  2.1331 -0.1768  0.0396
12930SOL     OW45135   0.140   7.588   5.456  0.2114  0.3915 -0.3189
12930SOL    HW145136   0.186   7.535   5.521 -0.8411  1.0516  0.9927
12930SOL    HW245137   0.200   7.590   5.381  0.6386 -1.9434 -0.1207
12931SOL     OW45138   6.182   6.715   8.059 -0.0364  0.4969  0.1007
12931SOL    HW145139   6.188   6.781   7.990  1.8197 -0.3545 -0.6122
12931SOL    HW245140   6.189   6.765   8.140  3.3763  1.1350 -0.4358
12932SOL     OW45141   1.288   8.863   3.280 -0.5845  0.5473  0.6867
12932SOL    HW145142   1.374   8.884   3.244 -1.5704  2.1238 -0.9614
12932SOL    HW245143   1.280   8.768   3.270 -0.3010  0.7456 -2.3093
12933SOL     OW45144   0.478   7.826   5.918  0.0375 -0.3094  0.1475
12933SOL    HW145145   0.472   7.755   5.983 -2.4101 -1.9892 -1.7081
12933SOL    HW245146   0.571   7.840   5.906  0.6067 -2.7083  1.1593
12934SOL     OW45147   3.090   1.455   4.630 -0.2126  0.5664  0.9345
12934SOL    HW145148   3.087   1.491   4.542 -0.7699 -0.2842  0.5920
12934SOL    HW245149   3.163   1.393   4.629 -2.8997 -2.9138 -0.3710
12935SOL     OW45150   7.945   7.884   4.047 -0.0946 -0.3071 -0.6962
12935SOL    HW145151   7.894   7.813   4.009 -0.7441  0.2222 -0.8397
12935SOL    HW245152   7.965   7.942   3.973 -1.1804  0.6131 -0.3073
12936SOL     OW45153   1.647   0.301   1.641 -0.5549  0.3270  0.0946
12936SOL    HW145154   1.601   0.385   1.644  1.4623  1.4968  0.7054
12936SOL    HW245155   1.657   0.283   1.547  0.8020  1.8929 -0.1092
12937SOL     OW45156   0.429   6.038   3.423 -0.3746 -0.2312 -0.3107
12937SOL    HW145157   0.394   6.106   3.366  0.0885  1.4334  1.3032
12937SOL    HW245158   0.521   6.031   3.397 -0.4633 -0.3911 -0.5940
12938SOL     OW45159   3.132   8.301   1.421 -0.4647 -0.4660  0.3601
12938SOL    HW145160   3.146   8.396   1.420  0.7402 -0.6124  1.3408
12938SOL    HW245161   3.219   8.263   1.405 -0.4901 -1.4006  2.2013
12939SOL     OW45162   8.374   7.629   8.890  0.4982 -0.1590 -0.6330
12939SOL    HW145163   8.344   7.657   8.976  0.0414 -2.0759 -0.1181
12939SOL    HW245164   8.342   7.696   8.830  0.1248  0.7874  0.5814
12940SOL     OW45165   7.034   0.553   0.385 -0.5884 -0.0222  0.2809
12940SOL    HW145166   6.992   0.482   0.337  0.2874 -0.3691  0.0162
12940SOL    HW245167   7.116   0.569   0.338  0.0530 -0.0369  1.3699
12941SOL     OW45168   0.225   2.469   4.865  0.0713  0.6719  0.3010
12941SOL    HW145169   0.179   2.534   4.918 -0.5711  1.3163 -1.0002
12941SOL    HW245170   0.307   2.511   4.840  0.5969  0.1852  1.1546
12942SOL     OW45171   8.790   2.043   2.476 -0.6278 -0.3344 -0.1426
12942SOL    HW145172   8.723   1.979   2.453  0.3266 -1.0710 -0.9845
12942SOL    HW245173   8.745   2.106   2.532 -1.9446 -0.9563 -0.4592
12943SOL     OW45174   8.791   9.060   7.394 -0.4735  0.0076 -0.2598
12943SOL    HW145175   8.709   9.104   7.371 -0.9560 -0.6749  0.1109
12943SOL    HW245176   8.786   8.975   7.350 -0.3604 -0.3831  0.4677
12944SOL     OW45177   0.836   1.248   2.977  0.2623  0.3951  0.0214
12944SOL    HW145178   0.783   1.298   2.915  0.7885  1.9233  0.7747
12944SOL    HW245179   0.888   1.313   3.023  0.7493 -0.8206  1.2601
12945SOL     OW45180   1.772   4.995   7.298 -0.2546  0.7978  0.1737
12945SOL    HW145181   1.679   5.014   7.282 -0.1203  0.8054 -0.5877
12945SOL    HW245182   1.792   5.045   7.378 -1.4999 -1.0348  1.7376
12946SOL     OW45183   4.038   8.179   8.615  0.2590 -0.2231  0.7817
12946SOL    HW145184   4.088   8.243   8.666 -0.9340  0.9421  0.5662
12946SOL    HW245185   4.046   8.208   8.524  0.9801 -1.3089  0.4770
12947SOL     OW45186   5.616   8.453   6.888  0.3539  0.2398 -0.2674
12947SOL    HW145187   5.685   8.415   6.942  1.1069  0.8638 -0.7706
12947SOL    HW245188   5.536   8.409   6.917  1.0709 -1.1001 -0.2659
12948SOL     OW45189   3.951   8.146   4.325  0.5642 -0.4692  0.1313
12948SOL    HW145190   3.992   8.060   4.334  0.5566 -0.7128 -1.8089
12948SOL    HW245191   4.001   8.190   4.256 -0.8717  0.1868 -0.5329
12949SOL     OW45192   4.174   7.142   6.541  0.4275  0.4271  0.1341
12949SOL    HW145193   4.178   7.216   6.602  1.4106 -0.1265  0.7659
12949SOL    HW245194   4.135   7.071   6.592  0.7717  0.1107 -0.0353
12950SOL     OW45195   4.615   8.897   3.807  0.0317 -0.1269  0.0900
12950SOL    HW145196   4.650   8.826   3.860  1.3738  1.6622  1.7354
12950SOL    HW245197   4.682   8.914   3.741  0.1572  0.2503  0.3132
12951SOL     OW45198   0.538   3.201   6.833 -0.4848 -0.6070  0.1912
12951SOL    HW145199   0.558   3.108   6.825  3.3330 -0.0331  0.8043
12951SOL    HW245200   0.527   3.232   6.743 -1.8394 -1.5959 -0.0094
12952SOL     OW45201   2.438   0.899   4.383  0.4780  0.1283 -0.1965
12952SOL    HW145202   2.363   0.918   4.326 -0.2470 -0.8385  0.4120
12952SOL    HW245203   2.448   0.804   4.379 -0.8396 -0.2177  2.7661
12953SOL     OW45204   1.381   6.504   3.994 -0.2042  0.1585 -0.2532
12953SOL    HW145205   1.358   6.555   3.916 -1.3412  0.3877  0.2085
12953SOL    HW245206   1.311   6.439   4.002 -0.1590  0.2044  0.6301
12954SOL     OW45207   3.936   0.991   5.909  0.4704  0.3254  0.0576
12954SOL    HW145208   3.998   0.919   5.901 -0.2508 -0.1587 -1.3150
12954SOL    HW245209   3.867   0.972   5.847  0.0187  1.9640 -0.0062
12955SOL     OW45210   5.894   0.032   6.039 -0.2331 -0.5728  0.1352
12955SOL    HW145211   5.881  -0.020   5.960  1.2263 -1.5071  0.4762
12955SOL    HW245212   5.859  -0.023   6.110  0.1904 -0.5644  0.3536
12956SOL     OW45213   3.432   5.478   8.254 -0.1497  0.0971 -0.0535
12956SOL    HW145214   3.524   5.495   8.277  0.9344 -0.0352 -3.6885
12956SOL    HW245215   3.414   5.391   8.289  1.2914 -0.0702  0.3253
12957SOL     OW45216   2.163   8.785   4.990 -0.0144 -0.8007  0.1887
12957SOL    HW145217   2.205   8.769   4.905 -1.5233 -2.4675 -0.3326
12957SOL    HW245218   2.217   8.851   5.032  0.6159  0.3332 -2.2136
12958SOL     OW45219   0.267   2.346   7.383  0.2498 -0.2647 -0.0725
12958SOL    HW145220   0.350   2.304   7.405  1.0162 -0.2514 -2.6705
12958SOL    HW245221   0.272   2.432   7.425  3.0015  0.9998 -2.6653
12959SOL     OW45222   6.074   3.913   8.243  0.5006  0.3490  0.1227
12959SOL    HW145223   6.090   3.862   8.164  1.4232 -1.3584  1.3349
12959SOL    HW245224   5.998   3.871   8.283 -0.6894  1.9329 -0.4078
12960SOL     OW45225   0.296   5.949   2.480 -0.7429  0.5291  0.0565
12960SOL    HW145226   0.339   5.916   2.401 -0.6806  1.3532 -0.2590
12960SOL    HW245227   0.238   6.018   2.449 -1.1514  0.4664  0.6652
12961SOL     OW45228   0.702   6.931   0.329 -0.3677 -0.2136 -0.2096
12961SOL    HW145229   0.660   6.997   0.274  0.4803 -0.4295 -1.1622
12961SOL    HW245230   0.790   6.966   0.345  0.4279 -1.4878 -1.5134
12962SOL     OW45231   4.910   4.344   7.661  0.1761 -0.0708  0.0375
12962SOL    HW145232   4.986   4.301   7.701 -0.9686 -1.4720  0.8169
12962SOL    HW245233   4.945   4.423   7.620  2.1423 -0.9920 -0.1518
12963SOL     OW45234   8.592   1.208   6.718 -0.2641  0.3613 -0.3283
12963SOL    HW145235   8.559   1.171   6.800  0.3050  0.4179 -0.0645
12963SOL    HW245236   8.557   1.297   6.716 -0.2278  0.3810 -0.1159
12964SOL     OW45237   1.878   5.968   4.645 -0.2659  0.1194 -0.2287
12964SOL    HW145238   1.875   5.890   4.700 -2.0899  0.1283 -0.2809
12964SOL    HW245239   1.818   5.949   4.572  1.9809  0.1470 -2.2353
12965SOL     OW45240   3.185   3.624   7.005 -0.1148 -0.0947 -0.1921
12965SOL    HW145241   3.209   3.717   7.009  1.1270 -0.4035  0.0162
12965SOL    HW245242   3.196   3.593   7.095 -1.5871 -0.2105 -0.0346
12966SOL     OW45243   3.224   4.794   5.754 -0.2408 -0.1427  0.0742
12966SOL    HW145244   3.230   4.754   5.841  1.7433 -2.0375 -0.8353
12966SOL    HW245245   3.222   4.888   5.771 -0.0987 -0.4631  2.1736
12967SOL     OW45246   1.762   1.830   6.472 -0.4454  0.2873 -0.1968
12967SOL    HW145247   1.726   1.852   6.386  0.1495  1.0296 -0.2667
12967SOL    HW245248   1.842   1.883   6.479  0.0640 -0.5258  0.3916
12968SOL     OW45249   1.690   7.345   8.318 -0.5397  0.3105 -0.8616
12968SOL    HW145250   1.728   7.264   8.352 -0.4956  0.1658 -1.2435
12968SOL    HW245251   1.734   7.358   8.234 -0.8439  0.5094 -0.9919
12969SOL     OW45252   6.794   8.543   8.778 -0.3353 -0.1697  0.4717
12969SOL    HW145253   6.708   8.503   8.762  1.1753 -3.5238  0.0776
12969SOL    HW245254   6.821   8.577   8.693 -1.0365  0.5576  0.5182
12970SOL     OW45255   6.249   5.790   6.735 -0.7402 -0.0148 -0.3421
12970SOL    HW145256   6.298   5.864   6.770 -0.3798 -0.0264 -0.8105
12970SOL    HW245257   6.202   5.826   6.659  1.2365 -0.7283 -2.0182
12971SOL     OW45258   5.157   6.400   0.641 -0.2037 -0.0102  0.1048
12971SOL    HW145259   5.109   6.334   0.591  0.6899 -0.7265  0.1490
12971SOL    HW245260   5.214   6.349   0.698 -0.5336  0.8044  1.1921
12972SOL     OW45261   6.298   3.432   3.851  0.1794  0.3343  0.2270
12972SOL    HW145262   6.297   3.526   3.868  1.6140  0.2419  1.0080
12972SOL    HW245263   6.207   3.406   3.853 -0.3343  1.8485 -0.8759
12973SOL     OW45264   5.998   0.980   7.495 -0.0326  0.4866  0.3397
12973SOL    HW145265   6.020   1.017   7.580 -2.1447  1.0524  0.7057
12973SOL    HW245266   5.936   1.043   7.457  1.0431  0.3683 -1.7428
12974SOL     OW45267   6.603   2.266   6.820 -0.1040  0.1123  0.1906
12974SOL    HW145268   6.590   2.219   6.902 -0.3503 -0.9229 -0.4143
12974SOL    HW245269   6.529   2.239   6.765  0.8333 -0.3871 -0.8820
12975SOL     OW45270   6.225   7.864   7.063  0.0578 -0.1258 -0.2872
12975SOL    HW145271   6.216   7.953   7.096 -1.7480 -0.5667  0.5629
12975SOL    HW245272   6.151   7.817   7.102  1.1829 -2.0907 -0.4038
12976SOL     OW45273   9.155   8.381   7.762  0.7501 -0.2623  0.1393
12976SOL    HW145274   9.220   8.342   7.704  1.8005 -0.3838  1.3453
12976SOL    HW245275   9.143   8.317   7.832 -1.0393 -0.4426 -0.2899
12977SOL     OW45276   0.525   2.391   8.811 -0.1229  0.1765  0.0650
12977SOL    HW145277   0.567   2.306   8.825  1.3558  0.7179 -0.8935
12977SOL    HW245278   0.550   2.442   8.888  2.2147  0.9331 -1.1161
12978SOL     OW45279   2.332   8.647   0.680  0.6990 -0.3253 -0.5663
12978SOL    HW145280   2.383   8.653   0.599  0.6143 -1.2867 -0.6941
12978SOL    HW245281   2.399   8.647   0.749  0.7860  0.1712 -0.6460
12979SOL     OW45282   6.797   5.736   1.431 -0.3088 -0.0614  0.0997
12979SOL    HW145283   6.713   5.706   1.396 -0.1444 -1.2540  0.6824
12979SOL    HW245284   6.819   5.672   1.499  0.9795  0.3346  0.0830
12980SOL     OW45285   8.184   2.523   0.740  0.3654  0.3297 -0.3954
12980SOL    HW145286   8.222   2.607   0.764  1.2538 -0.5447  1.4970
12980SOL    HW245287   8.204   2.513   0.646  1.4153  1.6224 -0.3298
12981SOL     OW45288   1.955   2.885   6.139 -0.0351 -0.3016 -0.4057
12981SOL    HW145289   1.976   2.979   6.136 -0.8182  0.0135  1.6171
12981SOL    HW245290   2.014   2.845   6.076  1.0708  1.4316 -0.5606
12982SOL     OW45291   5.018   3.360   3.842 -0.6367 -0.0518 -0.2714
12982SOL    HW145292   4.927   3.343   3.867 -0.7900 -0.3320 -0.9973
12982SOL    HW245293   5.015   3.371   3.747  0.0337  0.3080 -0.2561
12983SOL     OW45294   7.764   5.996   3.905  0.3260  0.4725  0.3451
12983SOL    HW145295   7.761   5.967   3.814  1.3793 -0.9991  0.7346
12983SOL    HW245296   7.737   6.088   3.902 -0.6168  0.1804 -1.3085
12984SOL     OW45297   0.152   0.429   5.632  0.4207 -0.4421 -0.1279
12984SOL    HW145298   0.216   0.408   5.701  0.2492  2.0540  0.9061
12984SOL    HW245299   0.186   0.509   5.592 -0.7466 -0.5216 -1.3495
12985SOL     OW45300   7.632   7.440   4.391  0.1754  0.3596  0.6625
12985SOL    HW145301   7.571   7.493   4.443 -0.1401 -0.7111  1.4162
12985SOL    HW245302   7.604   7.350   4.407 -0.7149 -0.0030 -2.3209
12986SOL     OW45303   3.437   0.869   8.451  0.3187 -0.6131 -0.0167
12986SOL    HW145304   3.524   0.907   8.463 -0.5070  1.2031  0.6139
12986SOL    HW245305   3.430   0.853   8.357  0.6890  0.9374 -0.3341
12987SOL     OW45306   4.115   5.525   1.054  0.0260  0.1599  0.1511
12987SOL    HW145307   4.120   5.446   0.999  1.6000  0.7632 -0.6347
12987SOL    HW245308   4.205   5.539   1.083 -0.6620  0.2073  2.4521
12988SOL     OW45309   3.384   9.010   8.745 -0.2959  0.0112  0.1224
12988SOL    HW145310   3.318   9.003   8.676 -0.5360  0.6333  0.2831
12988SOL    HW245311   3.338   8.981   8.824 -0.7291  1.4728  0.4414
12989SOL     OW45312   3.434   1.852   8.554  0.6617  0.8971  0.0857
12989SOL    HW145313   3.488   1.923   8.589  0.8364  0.6377  0.3433
12989SOL    HW245314   3.495   1.796   8.506  0.4472  1.1754 -0.5280
12990SOL     OW45315   8.805   2.827   9.100 -0.4935  0.4612  0.2223
12990SOL    HW145316   8.859   2.882   9.157 -0.1925  1.0433 -0.6099
12990SOL    HW245317   8.721   2.823   9.145  0.1785 -0.3959  1.5042
12991SOL     OW45318   3.554   5.527   2.291  0.3997  0.0978  0.0073
12991SOL    HW145319   3.587   5.544   2.379  0.3701  0.8846 -0.1277
12991SOL    HW245320   3.575   5.435   2.275  0.9265  0.1063  0.6144
12992SOL     OW45321   0.811   4.438   3.472  0.6768 -0.3812  0.6575
12992SOL    HW145322   0.848   4.484   3.547 -0.8762  1.0575  0.5962
12992SOL    HW245323   0.793   4.350   3.505  1.6564 -0.3137  1.4285
12993SOL     OW45324   1.321   1.457   3.277  0.1399  0.3477 -0.4060
12993SOL    HW145325   1.232   1.451   3.244  0.8854 -1.0974 -2.3909
12993SOL    HW245326   1.348   1.547   3.256  0.8483 -0.6376 -4.9705
12994SOL     OW45327   1.321   5.531   2.769  0.0709  0.3498  0.2240
12994SOL    HW145328   1.288   5.508   2.683  0.4059 -2.8617  0.8188
12994SOL    HW245329   1.261   5.597   2.802 -1.9166 -0.6417 -1.2463
12995SOL     OW45330   0.939   6.238   3.925 -0.2761 -0.2148 -0.2073
12995SOL    HW145331   0.865   6.197   3.969  0.3030 -0.9102  0.1299
12995SOL    HW245332   0.910   6.248   3.834 -0.4410 -1.3612 -0.2967
12996SOL     OW45333   1.009   7.199   8.614  0.2839 -0.0354 -0.5153
12996SOL    HW145334   0.976   7.116   8.580  0.0254 -0.0022 -0.3482
12996SOL    HW245335   1.081   7.222   8.556  0.6883 -0.6374 -0.2488
12997SOL     OW45336   9.232   7.424   7.835  0.0942  0.6423  0.0649
12997SOL    HW145337   9.162   7.360   7.846 -0.1588  1.0998  1.2574
12997SOL    HW245338   9.275   7.428   7.920  0.1956  1.9340 -0.0287
12998SOL     OW45339   4.115   2.731   2.276 -0.4029  0.1499  0.2820
12998SOL    HW145340   4.098   2.688   2.359 -0.4905  0.1624  0.2707
12998SOL    HW245341   4.209   2.719   2.261 -0.3995  0.0915  0.3508
12999SOL     OW45342   2.921   2.834   7.874 -0.0056 -0.0619 -0.2047
12999SOL    HW145343   2.908   2.778   7.798 -0.1690  1.4428 -1.3169
12999SOL    HW245344   2.935   2.773   7.947  0.3321 -1.5225 -1.4577
13000SOL     OW45345   4.133   3.336   2.408  0.3184 -0.2809 -0.3761
13000SOL    HW145346   4.074   3.305   2.340  1.0226 -2.2694 -0.1229
13000SOL    HW245347   4.105   3.292   2.488 -0.9649  2.5602  0.8920
13001SOL     OW45348   5.194   4.531   8.406 -0.0117 -0.4757 -0.8042
13001SOL    HW145349   5.198   4.443   8.369  2.1411  0.1304 -2.2010
13001SOL    HW245350   5.115   4.569   8.369 -2.1509 -2.3948  1.4348
13002SOL     OW45351   8.610   1.903   8.375 -0.0294  0.6863 -0.4677
13002SOL    HW145352   8.691   1.879   8.420  0.8025  0.9630 -1.7618
13002SOL    HW245353   8.541   1.867   8.430  1.0360 -2.1300 -0.8030
13003SOL     OW45354   7.884   8.921   5.271 -0.5744 -0.0350  0.3038
13003SOL    HW145355   7.866   8.990   5.208 -0.2393 -0.5928 -0.4177
13003SOL    HW245356   7.954   8.955   5.326 -1.1298  0.6044  0.6243
13004SOL     OW45357   2.806   4.189   8.660  0.4406  0.3234  0.0593
13004SOL    HW145358   2.895   4.212   8.687  0.0438  0.2462  1.5343
13004SOL    HW245359   2.753   4.202   8.739 -0.2486 -3.1978  0.3352
13005SOL     OW45360   7.945   5.482   7.693 -0.3173 -0.6824  0.4394
13005SOL    HW145361   7.909   5.471   7.605  1.6573  1.0751 -0.6870
13005SOL    HW245362   8.037   5.503   7.679  0.0616 -0.3385  2.9384
13006SOL     OW45363   1.607   1.764   2.366 -0.1165  0.3930  0.0838
13006SOL    HW145364   1.667   1.799   2.300 -0.5190 -1.7719 -1.5513
13006SOL    HW245365   1.662   1.706   2.420 -0.2193  0.5010  0.3084
13007SOL     OW45366   5.508   8.193   0.268 -0.2867  0.3201  0.5168
13007SOL    HW145367   5.552   8.109   0.257  0.4392  0.8106 -0.4492
13007SOL    HW245368   5.559   8.255   0.215  0.5415  1.8646  2.9382
13008SOL     OW45369   4.046   4.150   0.733 -0.6494 -0.1947 -0.0191
13008SOL    HW145370   4.068   4.116   0.646  1.3832  0.1611  0.3080
13008SOL    HW245371   3.996   4.080   0.774  1.0052 -1.6731 -0.3921
13009SOL     OW45372   2.276   8.439   0.011  0.5661 -0.3998  0.1748
13009SOL    HW145373   2.323   8.384  -0.051  3.2043  0.3955  1.3073
13009SOL    HW245374   2.263   8.523  -0.034 -1.5218 -1.1690 -0.7806
13010SOL     OW45375   2.941   4.044   4.626  0.2087  0.1703 -0.5753
13010SOL    HW145376   2.917   4.059   4.535 -0.7879 -0.2247 -0.3866
13010SOL    HW245377   2.861   4.013   4.668  0.6656  0.2929  0.4278
13011SOL     OW45378   2.160   4.769   6.480  0.2516 -0.1424  0.1050
13011SOL    HW145379   2.133   4.723   6.400 -1.6123  1.4027 -0.2310
13011SOL    HW245380   2.078   4.799   6.519  1.2576  0.7756  1.5877
13012SOL     OW45381   5.042   9.017   2.388 -0.0294 -0.0854 -0.5325
13012SOL    HW145382   5.129   9.054   2.374  0.3577 -0.6232  0.4275
13012SOL    HW245383   5.030   9.016   2.483 -0.2277 -1.9638 -0.5375
13013SOL     OW45384   6.136   1.115   3.186  0.0970 -0.2101 -0.1348
13013SOL    HW145385   6.138   1.211   3.179  0.0868 -0.3012 -2.0272
13013SOL    HW245386   6.226   1.088   3.169  0.1055 -0.5519  0.4200
13014SOL     OW45387   7.528   5.888   0.148  0.6074 -0.4326 -0.3595
13014SOL    HW145388   7.515   5.852   0.236  0.0420  0.8569  0.1186
13014SOL    HW245389   7.531   5.812   0.091  2.4830 -1.4234  0.9238
13015SOL     OW45390   0.744   0.452   1.616  0.7910 -0.2152  0.1548
13015SOL    HW145391   0.790   0.535   1.627  0.1540  0.2554 -0.6408
13015SOL    HW245392   0.652   0.476   1.605  0.5965 -1.0230 -0.0569
13016SOL     OW45393   5.200   0.380   7.978  0.2543  0.1856  0.3968
13016SOL    HW145394   5.250   0.408   7.901  0.1198 -2.8271 -0.9141
13016SOL    HW245395   5.264   0.384   8.050  1.2418  0.1985 -0.4488
13017SOL     OW45396   8.503   3.169   6.986  0.1161 -0.0748  0.2852
13017SOL    HW145397   8.568   3.142   6.921  1.3181  0.0900  1.3629
13017SOL    HW245398   8.555   3.212   7.054 -1.0436 -0.6956  1.5992
13018SOL     OW45399   7.377   0.332   5.874  0.5926 -0.2798 -0.7250
13018SOL    HW145400   7.358   0.253   5.925 -0.3896 -1.4563 -2.7913
13018SOL    HW245401   7.453   0.371   5.918 -0.4355 -0.9541  1.8546
13019SOL     OW45402   4.071   1.158   8.059  0.3896 -0.4276 -0.0556
13019SOL    HW145403   4.132   1.171   7.987 -0.6938 -0.8572 -1.0914
13019SOL    HW245404   4.121   1.110   8.125  1.4401  0.0832 -0.4584
13020SOL     OW45405   9.062   0.861   4.737  0.0813  0.2543  0.3777
13020SOL    HW145406   9.111   0.829   4.813 -2.4867 -1.5447  1.4228
13020SOL    HW245407   9.022   0.942   4.766  1.3930  1.1055 -0.0912
13021SOL     OW45408   3.197   3.304   8.897 -0.2310 -0.4785 -0.1202
13021SOL    HW145409   3.173   3.328   8.808 -0.6952 -3.7641 -0.9847
13021SOL    HW245410   3.293   3.313   8.899 -0.3130  0.6789 -0.5546
13022SOL     OW45411   0.157   5.642   9.069  0.4843  0.2945  0.4385
13022SOL    HW145412   0.135   5.550   9.087  0.9538 -0.2304 -1.4359
13022SOL    HW245413   0.103   5.692   9.131 -0.6493 -1.2013  0.7280
13023SOL     OW45414   3.089   8.612   5.802  0.3607 -0.0083  0.2742
13023SOL    HW145415   3.075   8.703   5.775  0.1771  1.1890  3.9054
13023SOL    HW245416   3.182   8.596   5.782  0.2620  0.7518 -0.9033
13024SOL     OW45417   6.365   3.898   6.171 -0.3813 -0.0636 -0.0636
13024SOL    HW145418   6.286   3.945   6.143 -1.0377 -1.2018 -0.1567
13024SOL    HW245419   6.340   3.853   6.251  0.0311 -0.8189 -0.3453
13025SOL     OW45420   1.743   3.114   3.108  0.4389  0.1685  0.3528
13025SOL    HW145421   1.672   3.097   3.169  0.2838  1.6704  0.6261
13025SOL    HW245422   1.762   3.208   3.118  0.4789  0.4420 -1.7927
13026SOL     OW45423   2.437   7.555   6.759 -0.2256  0.1642 -0.7334
13026SOL    HW145424   2.349   7.560   6.722 -0.4259 -1.4717 -0.5520
13026SOL    HW245425   2.448   7.463   6.781  0.2544  0.8578  2.3543
13027SOL     OW45426   2.420   3.050   7.427  0.5556 -0.2808 -0.2740
13027SOL    HW145427   2.343   3.061   7.371  1.0401 -1.2350 -1.1552
13027SOL    HW245428   2.463   2.972   7.393  2.4277  0.7474 -0.4052
13028SOL     OW45429   3.911   4.862   8.883 -0.0083 -0.3320  0.6047
13028SOL    HW145430   4.001   4.833   8.892 -0.1983 -1.1284 -0.0007
13028SOL    HW245431   3.911   4.918   8.805 -0.4506 -2.1939 -0.8139
13029SOL     OW45432   8.824   7.994   8.528 -0.2986 -0.0617 -0.1651
13029SOL    HW145433   8.787   8.081   8.542  1.8917  0.7453  1.1018
13029SOL    HW245434   8.748   7.937   8.518 -1.8310  1.6647  0.9455
13030SOL     OW45435   0.507   1.790   4.912  0.1185  0.0598  0.1647
13030SOL    HW145436   0.423   1.755   4.941 -0.2683  0.3777 -0.5372
13030SOL    HW245437   0.499   1.884   4.924  0.9417 -0.0285  1.5095
13031SOL     OW45438   2.215   7.222   6.911 -0.3619  0.2034 -0.3982
13031SOL    HW145439   2.290   7.216   6.851  0.2322  1.0237  0.2403
13031SOL    HW245440   2.252   7.203   6.998 -0.6635  1.6908  0.0762
13032SOL     OW45441   8.382   3.699   3.785  0.0429  0.0812  0.2963
13032SOL    HW145442   8.384   3.641   3.861 -0.1920 -1.6039 -0.9395
13032SOL    HW245443   8.290   3.718   3.772  0.1506  1.1901  0.9920
13033SOL     OW45444   1.385   3.123   2.582  0.1881  0.1827 -0.4188
13033SOL    HW145445   1.444   3.054   2.612 -0.8121 -0.9248 -0.9307
13033SOL    HW245446   1.396   3.124   2.487 -0.7545 -0.1794 -0.5414
13034SOL     OW45447   8.251   1.294   5.013 -0.0311 -0.0246  0.0474
13034SOL    HW145448   8.160   1.323   5.022 -0.6238 -1.7468  0.0956
13034SOL    HW245449   8.244   1.199   5.003  1.9172 -0.4776  2.2848
13035SOL     OW45450   2.896   6.460   0.556 -0.5557  0.6758  0.5131
13035SOL    HW145451   2.862   6.496   0.474  1.3449  1.3496 -0.0159
13035SOL    HW245452   2.929   6.374   0.533 -0.3616  0.7125  0.6513
13036SOL     OW45453   2.155   2.739   7.065  0.5961  0.3917 -0.7095
13036SOL    HW145454   2.113   2.704   6.986 -1.4738 -1.2321  0.9994
13036SOL    HW245455   2.098   2.810   7.093  0.0648 -0.4684  0.4807
13037SOL     OW45456   6.199   1.346   4.821  0.4765 -0.0345  0.1821
13037SOL    HW145457   6.282   1.310   4.790  0.7789  1.9320 -1.4952
13037SOL    HW245458   6.199   1.437   4.790 -2.2580  0.0375  0.1590
13038SOL     OW45459   2.931   5.305   5.406 -0.4038  0.4904  0.3215
13038SOL    HW145460   2.922   5.400   5.413  1.2087  0.9773 -2.6541
13038SOL    HW245461   3.025   5.291   5.402 -0.6468 -1.0219 -1.0875
13039SOL     OW45462   0.521   3.329   6.586 -0.1578 -0.5051 -0.0927
13039SOL    HW145463   0.588   3.379   6.540 -1.0183  0.2478 -0.5527
13039SOL    HW245464   0.443   3.384   6.583 -0.4222 -0.7209  1.7107
13040SOL     OW45465   0.357   5.068   8.992 -0.3283  0.2870 -0.7346
13040SOL    HW145466   0.371   5.117   8.911  1.9103 -0.7209 -1.0162
13040SOL    HW245467   0.262   5.053   8.994 -0.5932  1.3962 -2.5190
13041SOL     OW45468   4.298   1.972   7.055 -0.0729  0.1772  0.0947
13041SOL    HW145469   4.376   1.932   7.094 -0.9570 -0.2699  1.4685
13041SOL    HW245470   4.258   1.902   7.004  0.2912  0.3365 -0.4108
13042SOL     OW45471   6.628   2.478   2.076 -0.2285 -0.0565  0.3953
13042SOL    HW145472   6.572   2.424   2.133 -1.7312  2.0289  1.0290
13042SOL    HW245473   6.704   2.498   2.131  0.6376 -1.8806 -0.0387
13043SOL     OW45474   3.111   1.066   0.271  0.4983 -0.2697 -1.0371
13043SOL    HW145475   3.018   1.083   0.285  0.4348 -1.7613  0.8225
13043SOL    HW245476   3.154   1.150   0.285 -0.4486  0.1004 -0.2508
13044SOL     OW45477   3.916   4.164   0.168 -0.1575  0.0494 -0.7532
13044SOL    HW145478   3.898   4.136   0.079  0.5884 -0.8938 -0.6243
13044SOL    HW245479   4.011   4.158   0.177 -0.0519  1.7846 -0.4211
13045SOL     OW45480   2.025   8.294   1.727  0.2492 -0.2821 -0.1570
13045SOL    HW145481   2.037   8.248   1.810  1.6266 -0.6243 -0.5179
13045SOL    HW245482   2.100   8.353   1.721 -0.8247  1.1083 -0.3026
13046SOL     OW45483   2.473   7.473   1.357  0.2538 -0.2146 -0.8342
13046SOL    HW145484   2.520   7.390   1.361  0.7430  0.0902  1.4213
13046SOL    HW245485   2.384   7.450   1.332  0.7086 -1.2339 -1.5881
13047SOL     OW45486   5.709   8.512   7.819 -0.4675  0.1666  0.2680
13047SOL    HW145487   5.676   8.425   7.796  0.6494  0.3527 -2.4789
13047SOL    HW245488   5.749   8.544   7.738  1.4052  2.2060  1.8835
13048SOL     OW45489   0.732   5.519   2.524  0.0716  0.0009  0.6195
13048SOL    HW145490   0.703   5.435   2.559 -0.3979 -1.1709 -2.3046
13048SOL    HW245491   0.791   5.555   2.591  0.2234 -2.6060  1.9812
13049SOL     OW45492   1.005   7.158   4.739 -1.0271 -0.8786  0.1515
13049SOL    HW145493   0.954   7.156   4.658 -0.6409 -1.4905 -0.0761
13049SOL    HW245494   1.067   7.229   4.726  0.7521 -2.5817 -1.1511
13050SOL     OW45495   2.217   4.198   6.689 -0.3012  0.6551  0.5465
13050SOL    HW145496   2.305   4.165   6.671  0.1890  1.4784  1.3263
13050SOL    HW245497   2.220   4.226   6.781 -1.8544 -0.7559  1.0914
13051SOL     OW45498   2.769   0.392   2.779  0.0510  0.0845 -0.0399
13051SOL    HW145499   2.674   0.390   2.766  0.0189  0.5328  0.1116
13051SOL    HW245500   2.794   0.300   2.789 -0.3262 -0.0554 -0.3737
13052SOL     OW45501   1.517   0.274   8.645 -0.0644 -0.1339  0.1294
13052SOL    HW145502   1.582   0.219   8.601 -0.6812 -1.1901  0.4790
13052SOL    HW245503   1.442   0.216   8.657 -1.4121  1.2924 -1.0558
13053SOL     OW45504   8.106   6.180   0.595 -0.5194 -0.2826 -0.8362
13053SOL    HW145505   8.155   6.243   0.542 -1.7078 -0.1408 -1.8150
13053SOL    HW245506   8.173   6.136   0.648  0.4677  0.9624 -1.0027
13054SOL     OW45507   7.659   1.369   7.294  0.1659  0.5592 -0.0078
13054SOL    HW145508   7.652   1.342   7.386 -0.3744 -0.0967 -0.2309
13054SOL    HW245509   7.676   1.463   7.298 -0.6863  0.7010  0.7582
13055SOL     OW45510   8.850   1.512   5.849 -0.2185  0.0217 -0.1978
13055SOL    HW145511   8.786   1.533   5.917  0.9204 -1.2707  1.3476
13055SOL    HW245512   8.906   1.445   5.888  1.9556  0.9231 -1.5588
13056SOL     OW45513   8.653   3.467   8.931 -0.7850  0.0697  0.1613
13056SOL    HW145514   8.689   3.383   8.958 -1.4582 -0.4014 -0.3706
13056SOL    HW245515   8.625   3.508   9.013 -0.7357 -0.3576  0.3945
13057SOL     OW45516   5.090   7.169   2.110  0.2047  0.1225  0.2105
13057SOL    HW145517   5.071   7.251   2.064 -1.5835  2.0239  3.8851
13057SOL    HW245518   5.006   7.124   2.114  0.7582 -0.9796 -0.0192
13058SOL     OW45519   1.582   5.410   8.983  0.3713 -0.5852 -0.3557
13058SOL    HW145520   1.663   5.459   8.997  1.5931 -2.0062 -2.0081
13058SOL    HW245521   1.605   5.319   9.001 -0.9478 -0.9947 -0.5741
13059SOL     OW45522   5.893   1.982   4.031 -0.0299 -0.2616 -0.2774
13059SOL    HW145523   5.831   1.948   4.095  0.9063 -1.2093  0.1511
13059SOL    HW245524   5.849   1.970   3.947 -1.9870  2.5121  0.2023
13060SOL     OW45525   7.736   2.644   5.967  0.0762  0.4342 -0.0482
13060SOL    HW145526   7.747   2.588   6.044 -0.7638 -0.0195 -0.2496
13060SOL    HW245527   7.704   2.586   5.899 -1.3026  1.2320 -0.1208
13061SOL     OW45528   1.241   4.401   2.063 -0.3456  0.4323  0.1388
13061SOL    HW145529   1.296   4.401   1.985  2.0371  0.4069  1.7098
13061SOL    HW245530   1.151   4.406   2.029  0.6268  2.1616 -2.5384
13062SOL     OW45531   1.747   6.448   0.287  0.3632 -0.1262 -0.0819
13062SOL    HW145532   1.654   6.438   0.309  0.5898 -0.5367  0.7606
13062SOL    HW245533   1.793   6.407   0.361  1.2040 -0.3887 -0.7386
13063SOL     OW45534   7.500   7.647   3.806  0.2287  0.1084  0.0674
13063SOL    HW145535   7.405   7.633   3.815  0.1555 -1.5283 -2.2351
13063SOL    HW245536   7.512   7.740   3.825 -2.0418  0.6422 -0.7027
13064SOL     OW45537   3.716   1.841   4.687 -0.5315  0.3505  0.1497
13064SOL    HW145538   3.660   1.821   4.762  0.7865  0.2448  1.1587
13064SOL    HW245539   3.804   1.844   4.724  0.6150 -2.9114 -1.8906
13065SOL     OW45540   5.474   6.277   4.925 -0.4426 -0.3003 -0.7516
13065SOL    HW145541   5.534   6.249   4.994 -1.1415 -1.0842 -0.4480
13065SOL    HW245542   5.515   6.246   4.844  0.5929  0.9938 -0.7531
13066SOL     OW45543   6.582   0.976   8.548  0.4682  0.3825  0.0786
13066SOL    HW145544   6.616   0.926   8.622 -3.2965  0.9442  2.4443
13066SOL    HW245545   6.524   0.914   8.503  1.5056  0.5343 -1.5411
13067SOL     OW45546   2.628   7.873   4.845 -0.7214 -0.3228  0.3389
13067SOL    HW145547   2.538   7.896   4.869 -1.3894 -1.5112 -0.9532
13067SOL    HW245548   2.624   7.782   4.816  0.6731 -0.0377 -0.9004
13068SOL     OW45549   3.262   2.717   2.676 -0.0637 -0.2780  0.5794
13068SOL    HW145550   3.187   2.775   2.659  0.6373  0.6739  0.6186
13068SOL    HW245551   3.333   2.777   2.701  1.0664 -1.0304 -0.6723
13069SOL     OW45552   4.303   2.674   7.978 -0.2243 -0.2945 -0.7219
13069SOL    HW145553   4.266   2.754   8.016  2.0649  0.6434 -0.3145
13069SOL    HW245554   4.305   2.612   8.050  1.5437  0.5812  0.0357
13070SOL     OW45555   3.263   3.554   1.045 -0.2325 -0.2975 -0.2848
13070SOL    HW145556   3.234   3.535   1.135 -0.0783 -0.3628 -0.2491
13070SOL    HW245557   3.231   3.479   0.994  2.4555 -1.9507  0.2568
13071SOL     OW45558   2.072   7.940   3.424  0.2338  0.3302 -0.6478
13071SOL    HW145559   2.024   8.017   3.456  1.2421  0.2827  1.0910
13071SOL    HW245560   2.013   7.867   3.440  0.0934  0.5044 -0.3617
13072SOL     OW45561   9.225   8.197   0.691 -0.4720  0.4547 -0.6483
13072SOL    HW145562   9.247   8.106   0.671 -0.7349  0.7597 -2.5498
13072SOL    HW245563   9.290   8.223   0.756 -1.0160 -1.3650  0.7200
13073SOL     OW45564   7.618   1.258   6.010  0.1734  0.5253 -0.0280
13073SOL    HW145565   7.569   1.266   5.928 -1.5083 -1.2799  0.7181
13073SOL    HW245566   7.703   1.297   5.991 -0.2898  0.4937 -2.5221
13074SOL     OW45567   2.726   1.116   1.585 -0.4819  0.4515 -0.0996
13074SOL    HW145568   2.723   1.034   1.535  1.1794  0.1650  0.2308
13074SOL    HW245569   2.679   1.097   1.666 -0.6215  0.0049 -0.2832
13075SOL     OW45570   5.270   0.516   4.103 -0.2266 -0.1029 -0.3128
13075SOL    HW145571   5.305   0.571   4.032 -0.2659 -1.7695 -1.6904
13075SOL    HW245572   5.175   0.529   4.097 -0.2620 -0.5886 -0.8798
13076SOL     OW45573   9.088   3.008   5.194 -0.2076 -0.2612 -0.2930
13076SOL    HW145574   9.095   2.912   5.192  0.4174 -0.2178 -1.7668
13076SOL    HW245575   9.013   3.028   5.138 -0.5450  0.0992  0.2837
13077SOL     OW45576   1.532   6.575   0.056 -0.1755 -0.0728 -1.0192
13077SOL    HW145577   1.484   6.561  -0.027 -0.2222  0.7198 -1.1281
13077SOL    HW245578   1.553   6.668   0.056 -0.2407 -0.0552 -0.0970
13078SOL     OW45579   5.255   2.118   3.893  0.3322 -0.4060 -0.4566
13078SOL    HW145580   5.202   2.149   3.821  0.9274 -0.6233 -1.0003
13078SOL    HW245581   5.193   2.101   3.964 -0.1549  0.6391 -0.6178
13079SOL     OW45582   0.574   8.772   6.957  0.1521  0.2553  0.5458
13079SOL    HW145583   0.645   8.804   7.012 -0.3384 -1.1428  2.0553
13079SOL    HW245584   0.603   8.790   6.867  2.9714 -1.3792  1.0304
13080SOL     OW45585   8.005   1.870   2.994 -0.9221 -0.0879  0.2773
13080SOL    HW145586   7.967   1.860   2.907  0.7223 -0.3100 -0.4598
13080SOL    HW245587   8.013   1.780   3.027 -0.9050 -0.0534  0.3673
13081SOL     OW45588   4.988   3.801   7.063 -0.5559  0.0620 -0.3032
13081SOL    HW145589   5.002   3.718   7.108  1.4269  0.5385  0.0746
13081SOL    HW245590   4.899   3.828   7.087 -0.1201 -0.4498  2.1094
13082SOL     OW45591   2.988   4.527   0.653  0.0067  0.5376  0.2172
13082SOL    HW145592   3.071   4.515   0.700  0.0236  0.8216  0.2568
13082SOL    HW245593   2.988   4.619   0.627  0.0336  0.3699 -0.4043
13083SOL     OW45594   8.855   5.295   8.812 -0.0531 -0.3143 -0.2746
13083SOL    HW145595   8.928   5.350   8.783  1.1789 -0.3385  2.4599
13083SOL    HW245596   8.835   5.240   8.736 -0.1249  2.5508 -2.5127
13084SOL     OW45597   4.309   0.671   6.078  0.9026  0.1455  0.0305
13084SOL    HW145598   4.323   0.763   6.100 -0.3180  0.0915  1.1877
13084SOL    HW245599   4.241   0.642   6.139  1.5866 -1.6580  0.0003
13085SOL     OW45600   1.335   4.694   0.497  0.4503 -0.4958  0.0492
13085SOL    HW145601   1.380   4.683   0.580 -1.1445 -1.2357  0.8682
13085SOL    HW245602   1.366   4.621   0.443 -0.8727 -1.9781  1.1689
13086SOL     OW45603   6.284   8.044   6.291 -0.2613  0.1375 -0.0621
13086SOL    HW145604   6.272   7.949   6.297  1.8952 -0.3464 -1.9607
13086SOL    HW245605   6.334   8.067   6.369 -1.2524 -0.1734  0.6857
13087SOL     OW45606   1.452   6.817   1.527 -0.3654 -0.2521 -0.0294
13087SOL    HW145607   1.371   6.782   1.489 -0.3348 -1.0753  0.6272
13087SOL    HW245608   1.510   6.830   1.452 -0.3258 -1.8120 -0.3096
13088SOL     OW45609   8.650   0.589   3.235  0.4490  0.6204  0.2562
13088SOL    HW145610   8.658   0.611   3.328 -1.3769 -0.2984  0.6711
13088SOL    HW245611   8.683   0.499   3.229  1.9990  1.1905 -0.3016
13089SOL     OW45612   8.524   1.691   7.682  0.0894  0.1374 -0.3598
13089SOL    HW145613   8.583   1.746   7.631 -0.8416  1.7503  0.2418
13089SOL    HW245614   8.437   1.727   7.665 -0.7533 -2.0507 -1.0531
13090SOL     OW45615   7.324   3.384   0.749 -0.0302 -0.0344  0.7256
13090SOL    HW145616   7.402   3.338   0.780 -1.2889 -1.9654  1.2055
13090SOL    HW245617   7.357   3.467   0.714  1.9676  0.3306  3.1860
13091SOL     OW45618   8.795   1.721   3.099 -0.0597 -0.2382  0.0007
13091SOL    HW145619   8.757   1.686   3.179 -0.5465 -0.5186 -0.3425
13091SOL    HW245620   8.732   1.696   3.030 -0.0485  0.6656 -0.3547
13092SOL     OW45621   4.960   4.608   9.076  0.6853 -0.0088 -0.0804
13092SOL    HW145622   4.925   4.643   8.994 -0.3010  0.2616  0.4452
13092SOL    HW245623   4.956   4.681   9.137  0.6961 -0.4191  0.4136
13093SOL     OW45624   5.076   9.047   0.981 -0.0604 -0.5014  0.2401
13093SOL    HW145625   5.167   9.041   0.953 -0.2386 -0.6060 -0.3399
13093SOL    HW245626   5.058   8.964   1.025  0.0390 -0.6133  0.0723
13094SOL     OW45627   2.228   4.047   1.623 -0.1435  0.0162 -0.6292
13094SOL    HW145628   2.156   4.003   1.577 -2.5994 -0.1546  3.0318
13094SOL    HW245629   2.295   3.979   1.632 -0.8410 -0.7945 -1.2956
13095SOL     OW45630   1.203   4.503   8.829 -0.4120  0.0503  0.3296
13095SOL    HW145631   1.191   4.410   8.847 -0.3301 -0.8016 -3.3372
13095SOL    HW245632   1.292   4.522   8.857 -0.4046 -0.9553  1.0395
13096SOL     OW45633   0.889   0.774   6.998  0.0309 -0.0084 -0.0397
13096SOL    HW145634   0.921   0.706   6.939 -0.8280  0.4124 -1.0447
13096SOL    HW245635   0.951   0.775   7.071  0.9457 -0.7709 -0.7811
13097SOL     OW45636   3.589   1.251   3.271  0.2195 -0.3957  0.0077
13097SOL    HW145637   3.581   1.327   3.329 -0.9216 -1.1069  0.8371
13097SOL    HW245638   3.631   1.184   3.326  1.7410 -0.2199 -0.8875
13098SOL     OW45639   4.173   4.003   3.077 -0.6553  0.4185  0.2372
13098SOL    HW145640   4.117   3.974   3.005 -1.5468  1.2119  0.5778
13098SOL    HW245641   4.123   3.983   3.156 -1.1188  2.3519  0.5052
13099SOL     OW45642   1.444   7.321   2.397 -0.3852  0.1784  0.6282
13099SOL    HW145643   1.472   7.404   2.358  1.7139 -1.6578 -2.2500
13099SOL    HW245644   1.357   7.306   2.360  0.3965 -0.1421 -1.2266
13100SOL     OW45645   3.400   4.053   7.371 -0.1384 -0.0486 -0.6925
13100SOL    HW145646   3.469   4.088   7.428 -0.8965 -1.5606  1.2747
13100SOL    HW245647   3.424   4.082   7.283  1.5855  1.6297  0.2609
13101SOL     OW45648   0.950   1.964   0.276 -0.1640 -0.4195  0.1071
13101SOL    HW145649   0.880   1.911   0.314 -1.0925  0.2403 -0.6301
13101SOL    HW245650   1.030   1.929   0.314 -1.0046 -0.0519  2.3717
13102SOL     OW45651   6.892   5.929   3.905 -0.1979 -0.0094 -0.1807
13102SOL    HW145652   6.811   5.966   3.870 -0.5478 -1.3364 -0.8357
13102SOL    HW245653   6.866   5.843   3.938  0.8016 -0.1229  0.3483
13103SOL     OW45654   3.692   5.709   4.803 -0.4518  0.0880 -0.0324
13103SOL    HW145655   3.693   5.696   4.898 -1.0134  2.0129  0.2803
13103SOL    HW245656   3.747   5.785   4.789  1.6394 -1.5926 -1.5671
13104SOL     OW45657   1.362   6.278   3.581  0.0821  0.2096 -0.3946
13104SOL    HW145658   1.350   6.247   3.491  1.1703 -1.0373 -0.1364
13104SOL    HW245659   1.308   6.219   3.634  0.0344  0.4764 -0.1433
13105SOL     OW45660   3.719   2.010   7.680  0.2932 -0.1358  0.3535
13105SOL    HW145661   3.744   1.928   7.638  1.3015  0.1583  0.3571
13105SOL    HW245662   3.772   2.076   7.635 -0.5398  0.5236  0.3154
13106SOL     OW45663   4.869   6.756   3.049 -0.2129  0.2811  0.7047
13106SOL    HW145664   4.803   6.819   3.019  0.0387  1.1760  1.9541
13106SOL    HW245665   4.824   6.702   3.114 -0.0630  0.0362  0.6079
13107SOL     OW45666   1.557   3.803   6.923 -0.0746  0.2382  0.4914
13107SOL    HW145667   1.529   3.723   6.967  1.3165 -1.7127 -1.8941
13107SOL    HW245668   1.477   3.838   6.883 -0.7141  0.1197  1.6379
13108SOL     OW45669   6.641   0.992   2.967  0.0323 -0.5710 -0.4217
13108SOL    HW145670   6.670   0.924   2.907  1.1144 -0.1358 -0.4234
13108SOL    HW245671   6.722   1.031   3.001 -0.5170  1.2689 -1.0594
13109SOL     OW45672   6.203   7.155   8.229 -0.2423 -0.4257 -0.2287
13109SOL    HW145673   6.242   7.206   8.300  2.4573 -0.5637 -1.5094
13109SOL    HW245674   6.195   7.067   8.266 -0.4409 -0.1492  0.4171
13110SOL     OW45675   5.887   7.127   7.302 -0.6173 -0.4635 -0.1314
13110SOL    HW145676   5.910   7.187   7.231  0.2708 -1.0182 -0.3170
13110SOL    HW245677   5.946   7.152   7.374  0.0872 -1.4151 -0.3665
13111SOL     OW45678   4.911   4.746   2.447  0.1920  0.5772  0.1670
13111SOL    HW145679   4.998   4.755   2.487  0.5677  1.7102 -0.8464
13111SOL    HW245680   4.912   4.807   2.374 -0.6563 -1.0453 -1.2640
13112SOL     OW45681   1.914   6.959   1.657 -0.9665  0.2262 -0.1877
13112SOL    HW145682   1.872   6.948   1.742 -0.5616  0.4986  0.0483
13112SOL    HW245683   1.993   6.905   1.661 -1.1030 -0.0033 -0.5030
13113SOL     OW45684   6.833   8.662   4.532  0.3932  0.1326  0.9535
13113SOL    HW145685   6.819   8.586   4.589 -0.6667 -0.4626 -0.0415
13113SOL    HW245686   6.760   8.720   4.553 -0.3603 -0.3654 -0.1828
13114SOL     OW45687   0.716   2.177   5.123 -0.4027 -0.1012  0.4549
13114SOL    HW145688   0.790   2.119   5.140 -0.8102 -0.5830  0.6160
13114SOL    HW245689   0.748   2.264   5.145  0.7598 -0.0087 -1.3575
13115SOL     OW45690   4.084   6.989   6.751  0.0760 -0.3174  0.4746
13115SOL    HW145691   4.172   6.952   6.757  0.0385 -0.5834 -0.4506
13115SOL    HW245692   4.068   7.025   6.838  0.5641 -1.4520  1.0629
13116SOL     OW45693   2.048   1.952   7.807  0.4505 -0.4778 -0.1813
13116SOL    HW145694   2.047   1.982   7.716 -2.7277  0.1506 -0.0513
13116SOL    HW245695   1.988   2.012   7.852 -0.3907 -2.5919  1.6653
13117SOL     OW45696   7.468   4.335   4.420 -0.4062  0.1622  0.1642
13117SOL    HW145697   7.469   4.410   4.360  1.1901  1.7283  2.0366
13117SOL    HW245698   7.552   4.292   4.405 -0.6086 -0.2864  0.2952
13118SOL     OW45699   5.338   7.564   7.487 -0.2535 -0.5153  0.7907
13118SOL    HW145700   5.340   7.477   7.526  0.3817 -0.6450  0.4739
13118SOL    HW245701   5.296   7.550   7.402 -0.7844 -0.3900  1.0274
13119SOL     OW45702   8.412   1.952   5.711  0.1639 -0.6969 -0.8725
13119SOL    HW145703   8.385   1.953   5.803 -0.7029  1.2399 -1.0960
13119SOL    HW245704   8.457   1.869   5.700  0.5132 -0.8592  1.3728
13120SOL     OW45705   5.510   3.092   4.243 -0.5392  0.0907  0.8105
13120SOL    HW145706   5.487   3.110   4.152 -0.8486 -3.2517  0.0711
13120SOL    HW245707   5.476   3.004   4.260  1.5713 -0.3973  3.3863
13121SOL     OW45708   6.754   8.778   2.356 -0.3835  0.7591  0.6957
13121SOL    HW145709   6.800   8.827   2.288 -0.8903 -0.3135 -0.4822
13121SOL    HW245710   6.823   8.734   2.405 -0.0632 -0.9821 -1.1705
13122SOL     OW45711   6.379   6.842   7.592  0.7332  0.0427 -0.3399
13122SOL    HW145712   6.466   6.845   7.552 -0.2566 -2.2570 -2.9883
13122SOL    HW245713   6.363   6.749   7.608 -0.9894  0.4796  0.7622
13123SOL     OW45714   4.202   1.705   7.900  0.4527  0.7411 -0.0928
13123SOL    HW145715   4.189   1.612   7.883  3.2783  0.6357 -2.3084
13123SOL    HW245716   4.217   1.744   7.814  1.4681  2.8663  0.9582
13124SOL     OW45717   1.316   5.716   7.383  0.4433 -0.2854 -0.0147
13124SOL    HW145718   1.383   5.781   7.406  0.5186 -0.5747  0.6287
13124SOL    HW245719   1.240   5.740   7.435  0.3207 -0.4408 -0.1212
13125SOL     OW45720   0.156   8.060   5.612 -0.4549  0.3382 -0.8998
13125SOL    HW145721   0.177   8.105   5.530  0.1930  0.1869 -0.8206
13125SOL    HW245722   0.109   7.981   5.584  1.4750 -0.7538 -1.2899
13126SOL     OW45723   4.921   7.103   6.744  0.3723  0.0993  0.5537
13126SOL    HW145724   4.915   7.065   6.656  0.6243  0.2105  0.4895
13126SOL    HW245725   4.938   7.196   6.729  1.7094 -0.0958  0.7203
13127SOL     OW45726   5.711   7.191   6.525  0.0445 -0.4097 -0.0159
13127SOL    HW145727   5.629   7.161   6.487 -1.3163  0.0177  2.4279
13127SOL    HW245728   5.751   7.112   6.563  1.1422 -0.7336 -1.7050
13128SOL     OW45729   4.963   1.691   5.061  0.6361  0.2359 -0.6363
13128SOL    HW145730   4.948   1.755   4.992 -1.8042 -0.4435 -0.8445
13128SOL    HW245731   4.917   1.727   5.137 -1.7588 -1.6556 -1.0617
13129SOL     OW45732   6.419   3.211   4.731  0.6414 -0.3658  0.0957
13129SOL    HW145733   6.434   3.305   4.728 -1.1422 -0.0532 -0.2058
13129SOL    HW245734   6.390   3.188   4.643 -1.1582 -0.7489  0.7476
13130SOL     OW45735   5.413   6.130   8.482 -0.1417  0.2751 -0.1292
13130SOL    HW145736   5.404   6.173   8.397 -0.5640  0.0323 -0.2102
13130SOL    HW245737   5.389   6.039   8.466 -2.3992  0.6631  0.6839
13131SOL     OW45738   1.812   0.049   6.680  0.3024  0.2614  0.2457
13131SOL    HW145739   1.762   0.077   6.757 -0.7267 -0.0502 -0.2881
13131SOL    HW245740   1.774  -0.035   6.656  1.3428 -0.1576  0.0302
13132SOL     OW45741   5.381   6.589   0.834  0.2100  0.3461  0.1928
13132SOL    HW145742   5.309   6.558   0.888  0.5274 -0.0014  0.4248
13132SOL    HW245743   5.445   6.624   0.897 -0.2673  1.7850 -0.0741
13133SOL     OW45744   9.155   4.824   5.136 -0.1436  0.5436 -0.1069
13133SOL    HW145745   9.124   4.910   5.165  0.2980  0.0056  2.1508
13133SOL    HW245746   9.075   4.776   5.115 -0.6099  0.6327  1.3331
13134SOL     OW45747   3.412   1.753   2.586  0.5503 -0.1151 -0.5133
13134SOL    HW145748   3.456   1.836   2.567 -1.0901  0.5378 -1.7457
13134SOL    HW245749   3.326   1.762   2.545 -0.4301 -1.6526  1.0758
13135SOL     OW45750   1.693   6.678   8.657 -0.0391 -0.2761 -0.0324
13135SOL    HW145751   1.741   6.682   8.740  1.2281 -0.5856 -0.7131
13135SOL    HW245752   1.701   6.766   8.621  1.5029 -0.7277 -0.9066
13136SOL     OW45753   6.728   6.336   3.604  0.6199  0.4187 -0.1352
13136SOL    HW145754   6.808   6.377   3.638  0.8600 -0.7494  0.7544
13136SOL    HW245755   6.708   6.267   3.667 -1.1190  0.7046 -0.3300
13137SOL     OW45756   3.578   8.598   3.479  0.7875  0.1624  0.4351
13137SOL    HW145757   3.555   8.666   3.543  2.4446 -0.2936  1.5999
13137SOL    HW245758   3.670   8.614   3.459  0.2412  0.5114 -2.1983
13138SOL     OW45759   4.789   2.322   2.115 -0.5508  1.3300  0.6597
13138SOL    HW145760   4.848   2.247   2.127  0.2341  1.6863 -0.7409
13138SOL    HW245761   4.735   2.298   2.040 -0.5772  1.9926  0.4655
13139SOL     OW45762   7.851   1.493   0.535  0.0396 -0.4367  0.3346
13139SOL    HW145763   7.802   1.466   0.457 -0.0480 -0.8203  0.5200
13139SOL    HW245764   7.828   1.585   0.547  1.1237  0.0145 -0.8917
13140SOL     OW45765   5.759   3.727   0.388 -0.1266 -0.1479 -0.2653
13140SOL    HW145766   5.829   3.785   0.419 -0.1058  1.0122 -2.2644
13140SOL    HW245767   5.711   3.703   0.467  2.4158 -0.8870  1.1702
13141SOL     OW45768   7.024   3.152   0.877 -0.8689  0.1451  0.3847
13141SOL    HW145769   6.986   3.184   0.959  1.3993  1.7523  0.9234
13141SOL    HW245770   7.046   3.232   0.828 -0.2795 -0.7451 -0.8648
13142SOL     OW45771   0.223   6.652   3.108  0.6739  0.5075 -0.2081
13142SOL    HW145772   0.160   6.604   3.161  0.5937 -1.8413 -2.2318
13142SOL    HW245773   0.171   6.697   3.042  0.9598 -0.7270 -1.3403
13143SOL     OW45774   1.412   6.171   2.962  0.5011  0.3234  0.4365
13143SOL    HW145775   1.426   6.099   2.901 -0.1692  0.8726 -0.3748
13143SOL    HW245776   1.394   6.128   3.046 -0.7997 -0.4743 -0.2316
13144SOL     OW45777   9.125   2.923   7.378  0.6670 -0.3325 -0.3812
13144SOL    HW145778   9.214   2.953   7.358  0.2841  1.6590  0.6064
13144SOL    HW245779   9.099   2.871   7.302  2.5181 -0.6452 -0.8569
13145SOL     OW45780   3.599   1.729   3.471 -0.0176 -0.0054  0.6666
13145SOL    HW145781   3.614   1.822   3.459 -0.6630  0.1934  1.3337
13145SOL    HW245782   3.666   1.702   3.534 -0.0380  0.0808  0.7257
13146SOL     OW45783   1.519   8.127   2.725 -0.5009 -0.0025 -0.6829
13146SOL    HW145784   1.567   8.083   2.794 -2.5605 -0.4831  0.5450
13146SOL    HW245785   1.468   8.195   2.771 -6.6623 -4.0145 -0.3074
13147SOL     OW45786   6.084   1.703   4.676  0.4219 -0.3898  0.3237
13147SOL    HW145787   6.130   1.667   4.600  1.1571 -1.2702  1.1648
13147SOL    HW245788   6.153   1.724   4.738 -0.2348 -0.8794  1.2541
13148SOL     OW45789   5.731   0.693   7.189 -0.5249  0.4597 -0.1073
13148SOL    HW145790   5.791   0.633   7.146  0.4786  0.4708  1.2194
13148SOL    HW245791   5.726   0.662   7.280 -1.0321  1.5889  0.2745
13149SOL     OW45792   2.054   4.155   4.698  0.2523 -0.5213 -0.3403
13149SOL    HW145793   2.007   4.111   4.627 -0.0078 -1.9217  0.6780
13149SOL    HW245794   2.100   4.085   4.744  1.9691  0.6071 -0.2589
13150SOL     OW45795   8.671   3.215   3.603  0.4436  0.7587 -0.0952
13150SOL    HW145796   8.629   3.289   3.648 -0.3417  0.6060 -0.5650
13150SOL    HW245797   8.734   3.181   3.667 -0.2957  0.8593  0.7026
13151SOL     OW45798   0.700   0.834   3.209 -0.3619  0.0368 -0.0105
13151SOL    HW145799   0.717   0.770   3.140  0.4617  1.4015 -1.1473
13151SOL    HW245800   0.634   0.793   3.265  0.1561 -1.7862 -0.6643
13152SOL     OW45801   1.780   5.678   6.593  0.3897 -0.0099 -0.2008
13152SOL    HW145802   1.842   5.622   6.639 -0.6461 -0.2897  0.8739
13152SOL    HW245803   1.732   5.619   6.536 -0.3835 -0.1505  0.5882
13153SOL     OW45804   4.835   8.709   4.204  0.1106 -0.1834  0.6570
13153SOL    HW145805   4.848   8.664   4.288 -2.2579  0.2566  1.3276
13153SOL    HW245806   4.813   8.799   4.228 -2.3537 -0.4616 -0.2882
13154SOL     OW45807   2.467   8.202   3.071 -0.0006 -0.0884 -0.3747
13154SOL    HW145808   2.526   8.188   2.996 -0.9275 -0.3100 -1.0855
13154SOL    HW245809   2.465   8.297   3.082  2.0897 -0.1325  1.0048
13155SOL     OW45810   8.106   2.190   1.409 -0.0937 -0.4738 -0.1946
13155SOL    HW145811   8.077   2.123   1.346 -1.2179 -0.5370  0.3630
13155SOL    HW245812   8.094   2.273   1.362 -2.0053 -0.4321  0.2651
13156SOL     OW45813   0.424   7.534   0.221 -0.1447  0.5781 -0.0477
13156SOL    HW145814   0.480   7.562   0.294  0.5739 -0.6216 -0.1088
13156SOL    HW245815   0.403   7.443   0.241 -1.4333  0.7725 -0.4491
13157SOL     OW45816   3.550   6.454   7.891 -0.0594  0.2777 -0.2171
13157SOL    HW145817   3.455   6.465   7.898 -0.2821 -0.1346 -1.9702
13157SOL    HW245818   3.587   6.518   7.951 -1.4479 -0.4241  1.4665
13158SOL     OW45819   9.029   2.391   7.512  0.2721 -0.4511  0.1730
13158SOL    HW145820   9.004   2.334   7.439 -1.3676  0.9698 -0.4426
13158SOL    HW245821   8.969   2.367   7.582  0.2730 -0.1861  0.2634
13159SOL     OW45822   8.755   3.392   4.920 -0.5000 -0.2147 -0.5117
13159SOL    HW145823   8.677   3.341   4.899  0.0056 -0.9776 -0.5733
13159SOL    HW245824   8.773   3.442   4.840 -0.5091 -0.5859 -0.7492
13160SOL     OW45825   7.405   7.966   5.711 -0.2141  0.0625  0.3100
13160SOL    HW145826   7.489   7.926   5.688 -0.8485 -0.2177 -1.7285
13160SOL    HW245827   7.343   7.894   5.711 -1.0946  0.7228 -1.9223
13161SOL     OW45828   5.377   0.206   2.299 -0.0704  0.1667 -0.0384
13161SOL    HW145829   5.420   0.126   2.271  0.9765  0.7980 -0.3032
13161SOL    HW245830   5.361   0.255   2.217 -0.3761  0.3910  0.1498
13162SOL     OW45831   5.151   9.206   6.224  0.0560 -0.4457  0.1484
13162SOL    HW145832   5.086   9.183   6.289  0.7544  1.1569  1.4795
13162SOL    HW245833   5.235   9.182   6.263  0.4696  0.2703 -0.2612
13163SOL     OW45834   0.839   5.578   0.522 -0.1347  0.4503  0.0854
13163SOL    HW145835   0.766   5.516   0.527 -1.1040  1.5409 -0.1284
13163SOL    HW245836   0.896   5.542   0.455 -0.9552  0.0484 -0.4163
13164SOL     OW45837   2.037   5.690   1.191  0.2908 -0.4617  0.0800
13164SOL    HW145838   2.081   5.766   1.155  0.4235 -0.1716  0.8272
13164SOL    HW245839   1.954   5.724   1.225  0.8168 -0.4332  1.3860
13165SOL     OW45840   4.815   7.991   8.044 -0.0953 -0.8636 -0.1641
13165SOL    HW145841   4.826   7.912   7.992  0.1604 -0.1539 -1.2231
13165SOL    HW245842   4.903   8.011   8.076 -0.3445 -1.6030  1.0199
13166SOL     OW45843   0.331   5.477   6.768 -0.5389  0.1024  0.0265
13166SOL    HW145844   0.251   5.524   6.793 -0.5735  0.0496  0.0164
13166SOL    HW245845   0.390   5.491   6.841 -0.4859  0.3083 -0.0532
13167SOL     OW45846   5.716   3.842   2.675  0.0136 -0.5415  0.1146
13167SOL    HW145847   5.668   3.902   2.731 -1.2512  0.5169 -1.9715
13167SOL    HW245848   5.807   3.850   2.703 -0.3128  1.4109  0.7288
13168SOL     OW45849   0.698   7.362   7.265  0.1073 -0.0687  0.5000
13168SOL    HW145850   0.703   7.331   7.355 -0.1212  0.2023  0.6090
13168SOL    HW245851   0.759   7.306   7.216  0.6069  0.1112  0.9123
13169SOL     OW45852   5.896   0.999   3.690  0.4779  0.5884  0.4683
13169SOL    HW145853   5.934   1.065   3.748  1.3001 -0.4075  1.0964
13169SOL    HW245854   5.962   0.986   3.622  0.3430  0.3839  0.3736
13170SOL     OW45855   7.815   0.336   3.740  0.3287  0.4659 -0.2047
13170SOL    HW145856   7.795   0.414   3.689 -0.5761  0.9561  0.8616
13170SOL    HW245857   7.827   0.368   3.830  0.1295 -0.5952  0.2171
13171SOL     OW45858   1.791   3.729   8.961 -0.3269 -0.1783 -0.2279
13171SOL    HW145859   1.696   3.732   8.956 -0.5525 -3.3250  0.1127
13171SOL    HW245860   1.819   3.696   8.875  0.5783  1.5413 -0.6417
13172SOL     OW45861   8.576   8.341   3.555  0.0673 -0.2693 -0.1687
13172SOL    HW145862   8.634   8.339   3.631  0.7435 -0.9358 -0.6835
13172SOL    HW245863   8.611   8.274   3.496 -0.0378  0.6918 -1.3680
13173SOL     OW45864   6.603   4.036   1.122 -0.1506 -0.2679 -0.2973
13173SOL    HW145865   6.543   4.038   1.196 -0.8011 -0.9211 -0.7884
13173SOL    HW245866   6.690   4.030   1.162 -0.5943 -4.2043  0.5200
13174SOL     OW45867   8.602   2.987   4.099 -0.0182 -0.5114  0.5377
13174SOL    HW145868   8.694   3.003   4.122 -0.4951 -0.2052  2.4210
13174SOL    HW245869   8.586   2.897   4.127  0.2459 -1.3042 -1.7363
13175SOL     OW45870   8.726   1.939   4.220 -0.0739  0.1499 -0.4092
13175SOL    HW145871   8.689   1.904   4.301 -1.0045 -1.1375 -1.3473
13175SOL    HW245872   8.778   1.866   4.185  0.7745  0.8854 -0.7058
13176SOL     OW45873   4.586   2.916   7.731  0.2860  0.1771 -0.2390
13176SOL    HW145874   4.560   2.980   7.797  0.0660  0.9765 -1.0836
13176SOL    HW245875   4.596   2.967   7.650 -0.0389 -0.8658 -0.9632
13177SOL     OW45876   7.775   1.746   6.412 -0.3672  0.3397 -0.3441
13177SOL    HW145877   7.858   1.732   6.367  0.6119  0.5284  1.3168
13177SOL    HW245878   7.743   1.658   6.430 -0.6905  0.2631 -1.2266
13178SOL     OW45879   2.455   1.182   2.409 -0.3915 -0.2993 -0.0676
13178SOL    HW145880   2.545   1.157   2.428  0.2005 -0.7169 -2.9976
13178SOL    HW245881   2.411   1.100   2.386 -1.4427 -0.0386  0.8915
13179SOL     OW45882   1.687   1.568   8.010  0.3834 -0.3735  0.5703
13179SOL    HW145883   1.670   1.636   8.075 -0.8883 -0.4425  0.3356
13179SOL    HW245884   1.610   1.569   7.953  0.6163 -1.6014  0.1994
13180SOL     OW45885   5.333   8.698   7.797 -0.7429 -0.4059  0.6438
13180SOL    HW145886   5.304   8.770   7.853 -2.3752 -1.5370  1.3534
13180SOL    HW245887   5.319   8.619   7.850  1.8501 -1.2389  0.2383
13181SOL     OW45888   8.223   1.599   2.980  0.2790  0.1129 -0.2180
13181SOL    HW145889   8.262   1.530   3.033  0.1046  0.2163  0.0467
13181SOL    HW245890   8.130   1.596   3.001  0.2282  0.2371 -0.4231
13182SOL     OW45891   5.335   0.370   7.747  0.0740  0.2489 -0.0717
13182SOL    HW145892   5.318   0.378   7.653 -1.9414  1.1348  0.3198
13182SOL    HW245893   5.427   0.343   7.752  0.3224  0.4749 -2.2730
13183SOL     OW45894   7.788   6.475   4.861  0.3569 -0.0170 -0.5831
13183SOL    HW145895   7.769   6.399   4.807 -3.5929 -0.3318  0.9209
13183SOL    HW245896   7.866   6.449   4.911  1.4138 -1.4466 -2.7927
13184SOL     OW45897   1.664   7.624   6.465  0.5759 -0.3024  0.3728
13184SOL    HW145898   1.754   7.600   6.444  0.4918  0.1636 -0.6180
13184SOL    HW245899   1.671   7.700   6.523  0.8685  1.0416 -1.3072
13185SOL     OW45900   7.678   2.242   6.945  0.1105  0.1978  0.3132
13185SOL    HW145901   7.732   2.229   6.868 -0.5484  2.0963 -0.5215
13185SOL    HW245902   7.652   2.334   6.942 -0.8753  0.0431  2.1858
13186SOL     OW45903   8.230   8.880   4.995 -0.3267 -0.5635  0.0152
13186SOL    HW145904   8.323   8.859   4.982 -0.0628 -0.0906  1.0275
13186SOL    HW245905   8.183   8.807   4.956  0.4832 -1.0697 -0.0399
13187SOL     OW45906   2.244   0.489   1.085  0.2724  0.2776  0.4004
13187SOL    HW145907   2.221   0.441   1.005  0.1305  0.1000  0.5465
13187SOL    HW245908   2.329   0.528   1.065  0.9542 -0.9858  0.6901
13188SOL     OW45909   1.924   4.299   4.899 -0.1911 -0.1256  0.1473
13188SOL    HW145910   1.892   4.385   4.872  1.4508  0.7813  0.9755
13188SOL    HW245911   1.948   4.256   4.817 -0.8449  0.2644 -0.2590
13189SOL     OW45912   5.486   0.533   5.493  0.0474  0.0526  0.5393
13189SOL    HW145913   5.438   0.586   5.429 -0.0926  0.1849  0.7519
13189SOL    HW245914   5.425   0.523   5.566  0.0733 -0.3968  0.5067
13190SOL     OW45915   0.854   3.834   0.807  0.3194 -0.1148 -0.5857
13190SOL    HW145916   0.805   3.780   0.745  0.1401 -0.9125  0.2195
13190SOL    HW245917   0.888   3.771   0.871 -0.8660  0.7976  1.0382
13191SOL     OW45918   2.833   7.830   6.489  0.3295 -0.2014  0.5048
13191SOL    HW145919   2.748   7.786   6.482 -0.5727  1.4688  0.4931
13191SOL    HW245920   2.825   7.906   6.431  1.8282  0.0189  0.5461
13192SOL     OW45921   5.152   8.816   3.156  0.2976  0.1084  0.2891
13192SOL    HW145922   5.062   8.824   3.189  0.1735 -0.7983  0.1955
13192SOL    HW245923   5.146   8.753   3.084  0.9319  0.4222 -0.0550
13193SOL     OW45924   8.437   6.945   0.505 -0.0900  0.3650 -0.1109
13193SOL    HW145925   8.504   6.923   0.570 -1.9118 -2.3567  1.0020
13193SOL    HW245926   8.354   6.936   0.551 -1.5270 -2.5725 -2.8885
13194SOL     OW45927   3.842   8.938   6.519  0.0917  0.6057 -0.2797
13194SOL    HW145928   3.776   9.006   6.532 -1.2317 -0.6901 -0.0592
13194SOL    HW245929   3.854   8.899   6.605 -0.8044 -0.8875 -0.7897
13195SOL     OW45930   1.607   7.695   5.075  0.1218  0.3081 -0.0125
13195SOL    HW145931   1.668   7.637   5.120  0.3715  0.5738 -0.0045
13195SOL    HW245932   1.619   7.676   4.982  2.0664  2.1082 -0.2188
13196SOL     OW45933   4.898   4.610   7.087 -0.3301 -0.4220  0.1820
13196SOL    HW145934   4.932   4.652   7.165 -0.6355  2.7304 -1.2265
13196SOL    HW245935   4.808   4.584   7.110  0.1973 -1.2826  1.3863
13197SOL     OW45936   4.051   4.079   3.484  0.0966  0.2632 -0.0594
13197SOL    HW145937   4.059   3.998   3.434 -1.5455 -0.8484  1.3658
13197SOL    HW245938   3.958   4.085   3.507  0.1388  2.6163 -0.1683
13198SOL     OW45939   0.274   2.686   5.583 -0.2239 -0.5750  0.3916
13198SOL    HW145940   0.304   2.741   5.512 -2.1368 -0.4981 -0.4193
13198SOL    HW245941   0.245   2.605   5.541 -1.5742 -0.4491  1.0187
13199SOL     OW45942   1.137   0.956   6.250  0.3485  0.7049  0.1835
13199SOL    HW145943   1.044   0.971   6.265  0.5163  3.8005 -1.1346
13199SOL    HW245944   1.180   0.989   6.328  0.4150  1.1600 -0.0411
13200SOL     OW45945   6.652   5.690   4.215 -0.2250 -0.0935 -0.2616
13200SOL    HW145946   6.559   5.713   4.219 -0.4286 -0.9931  0.7691
13200SOL    HW245947   6.692   5.738   4.288  0.5999  2.1388 -2.0647
13201SOL     OW45948   0.297   0.869   6.994 -0.0064 -0.2209  0.1093
13201SOL    HW145949   0.225   0.806   7.003  0.9737 -1.6815 -1.5808
13201SOL    HW245950   0.376   0.817   7.002  0.9147  1.2868  1.4720
13202SOL     OW45951   6.146   6.984   7.958 -0.1328 -0.0853 -0.1135
13202SOL    HW145952   6.086   6.955   7.889 -1.1620  1.2076  0.2034
13202SOL    HW245953   6.094   7.044   8.011  1.0092 -0.1055  1.0786
13203SOL     OW45954   8.722   6.785   2.248 -0.1269  0.0496  0.0484
13203SOL    HW145955   8.795   6.751   2.299  0.2065  1.1998  0.3704
13203SOL    HW245956   8.707   6.719   2.180  1.8793  0.2453 -0.6544
13204SOL     OW45957   1.331   4.421   2.795 -0.4423 -0.2548 -0.1097
13204SOL    HW145958   1.404   4.466   2.752 -1.8955  0.9020 -1.4535
13204SOL    HW245959   1.370   4.341   2.830  0.7427 -1.8413 -4.4142
13205SOL     OW45960   8.165   3.983   4.290  0.2277 -0.1510  0.0918
13205SOL    HW145961   8.187   3.895   4.321  0.5202 -0.3062 -0.5347
13205SOL    HW245962   8.071   3.979   4.271 -0.0476  0.0674  1.3266
13206SOL     OW45963   9.017   3.349   8.008  0.5477 -0.7110  0.4177
13206SOL    HW145964   9.046   3.371   8.096  1.7202 -0.2346 -0.0696
13206SOL    HW245965   9.078   3.395   7.950 -0.3906 -0.7529 -0.6480
13207SOL     OW45966   4.402   8.494   0.776 -0.2549  0.1755  0.7093
13207SOL    HW145967   4.381   8.402   0.790  0.4786 -0.0090  0.6391
13207SOL    HW245968   4.319   8.534   0.749 -0.3624 -0.6822 -0.3303
13208SOL     OW45969   9.191   3.375   6.423 -0.2441 -0.6105 -0.4774
13208SOL    HW145970   9.252   3.322   6.372 -0.5445 -1.1782 -0.2624
13208SOL    HW245971   9.192   3.334   6.510 -1.3327 -0.9702 -0.6203
13209SOL     OW45972   1.666   6.173   5.201 -0.1793  0.0231 -0.4965
13209SOL    HW145973   1.677   6.084   5.167  1.8194  0.3907 -0.9585
13209SOL    HW245974   1.748   6.192   5.246 -0.5738  1.6267 -0.3865
13210SOL     OW45975   6.108   7.751   6.809 -0.0073  0.2791 -0.0089
13210SOL    HW145976   6.058   7.830   6.787 -1.5276 -0.2428  1.4068
13210SOL    HW245977   6.117   7.754   6.904  1.1689 -0.5362 -0.0813
13211SOL     OW45978   4.973   0.787   2.357  0.3408  0.0864  0.3676
13211SOL    HW145979   4.934   0.700   2.359 -2.1750  1.0660 -0.8439
13211SOL    HW245980   4.947   0.827   2.440  1.3453 -0.2196  0.8460
13212SOL     OW45981   3.750   2.792   2.916 -0.2940  0.1060  0.4535
13212SOL    HW145982   3.691   2.827   2.848 -0.3056  0.3421  0.5831
13212SOL    HW245983   3.817   2.744   2.867 -0.0027  0.7198  0.2402
13213SOL     OW45984   7.128   8.723   7.628  0.7736 -0.3552 -0.4646
13213SOL    HW145985   7.056   8.785   7.637  0.6855 -0.5933  0.6212
13213SOL    HW245986   7.206   8.773   7.653  1.0537 -0.0098 -1.9310
13214SOL     OW45987   0.429   0.401   5.442 -0.1252 -0.5149  0.8801
13214SOL    HW145988   0.512   0.386   5.486  0.0167 -1.6616  0.2535
13214SOL    HW245989   0.396   0.313   5.421  0.1118 -0.0466 -1.8113
13215SOL     OW45990   0.644   4.992   7.855  0.2491 -0.3743  0.2434
13215SOL    HW145991   0.614   4.913   7.900  0.9130 -0.8527 -0.1467
13215SOL    HW245992   0.572   5.015   7.796  0.1144 -0.7659  0.2540
13216SOL     OW45993   0.923   1.709   1.040 -0.1955  0.7098  0.2373
13216SOL    HW145994   0.890   1.760   1.114  0.6883  0.4043  0.8623
13216SOL    HW245995   0.975   1.639   1.080 -1.2552 -0.6106 -0.6026
13217SOL     OW45996   0.990   5.351   0.966  0.0845 -0.1307  0.8580
13217SOL    HW145997   0.934   5.426   0.986 -3.0786 -1.0837 -3.1635
13217SOL    HW245998   1.066   5.389   0.923  0.2307  0.9293  2.0108
13218SOL     OW45999   3.807   8.332   3.808  0.1751  0.1257  0.3861
13218SOL    HW146000   3.851   8.384   3.875  0.5371  0.2762  0.0418
13218SOL    HW246001   3.754   8.395   3.760 -1.8545 -0.3250  1.8945
13219SOL     OW46002   8.585   7.995   4.675  0.3266 -0.3055 -0.0715
13219SOL    HW146003   8.642   8.061   4.637 -1.7324  1.9443  0.4874
13219SOL    HW246004   8.601   8.001   4.770 -0.2088 -0.2618  0.0204
13220SOL     OW46005   2.361   6.144   0.321  0.0491  0.1551 -0.4707
13220SOL    HW146006   2.302   6.138   0.397  0.7401 -1.1686 -0.0077
13220SOL    HW246007   2.449   6.138   0.359  0.3899 -1.7122 -1.4347
13221SOL     OW46008   4.658   1.183   5.305 -0.6186  0.0063 -0.0775
13221SOL    HW146009   4.659   1.129   5.226 -0.4784 -0.8276  0.4897
13221SOL    HW246010   4.660   1.121   5.377 -1.1487  0.7548  0.5944
13222SOL     OW46011   1.991   8.981   0.828 -0.3458  0.4648  0.4610
13222SOL    HW146012   2.043   9.041   0.775 -0.0548  0.4476  0.7246
13222SOL    HW246013   1.995   9.017   0.917  1.4582 -0.9917  1.0178
13223SOL     OW46014   0.279   3.700   7.433 -0.0862 -0.3227  0.3185
13223SOL    HW146015   0.317   3.631   7.379 -1.3647  0.5258 -1.8231
13223SOL    HW246016   0.331   3.778   7.414 -0.3157 -0.0981  0.5888
13224SOL     OW46017   0.700   3.830   3.098  0.4442 -0.4635  0.0896
13224SOL    HW146018   0.736   3.893   3.035  0.8479 -0.6658  0.1161
13224SOL    HW246019   0.633   3.879   3.145 -0.2137 -0.4430 -0.8319
13225SOL     OW46020   3.951   1.762   0.565 -0.7398  0.5466  0.3496
13225SOL    HW146021   3.985   1.705   0.634  0.2894  0.8209  0.0878
13225SOL    HW246022   4.008   1.839   0.568  0.0226  0.1118 -1.4838
13226SOL     OW46023   4.261   6.180   8.552  0.1607 -0.0526  0.0697
13226SOL    HW146024   4.357   6.190   8.549  0.0166  2.0573  0.4830
13226SOL    HW246025   4.234   6.188   8.461  0.3950 -1.1070 -0.1018
13227SOL     OW46026   2.408   9.129   3.048  0.3384 -0.1421  0.0917
13227SOL    HW146027   2.432   9.041   3.077  0.0773  0.6865  3.2246
13227SOL    HW246028   2.335   9.154   3.104 -0.1241  1.8050 -1.2473
13228SOL     OW46029   8.993   2.980   2.110 -0.0415  0.2495 -0.0655
13228SOL    HW146030   9.023   3.043   2.176  1.7280  1.3784 -1.8665
13228SOL    HW246031   9.044   2.901   2.127  0.9970  0.8015 -0.5423
13229SOL     OW46032   8.203   5.743   4.600  0.7095 -0.1244 -0.1889
13229SOL    HW146033   8.176   5.652   4.607  0.4866 -0.1136 -0.8115
13229SOL    HW246034   8.141   5.782   4.538 -0.0630  0.7933  1.0853
13230SOL     OW46035   6.686   3.041   0.617  0.1786 -0.0417  0.1458
13230SOL    HW146036   6.717   2.994   0.540  0.9161  0.3810  0.1807
13230SOL    HW246037   6.646   3.120   0.582 -0.2975 -0.2780  0.1443
13231SOL     OW46038   6.842   7.175   4.318  0.4064 -0.2974  0.4986
13231SOL    HW146039   6.810   7.143   4.234  1.9699  3.0443 -1.5914
13231SOL    HW246040   6.899   7.105   4.351  0.0074 -1.5546 -1.3674
13232SOL     OW46041   7.474   6.745   7.801 -0.2970  0.0315  0.0839
13232SOL    HW146042   7.445   6.821   7.851 -1.5573 -0.3757  0.0141
13232SOL    HW246043   7.508   6.685   7.867 -0.4288  0.1647  0.2757
13233SOL     OW46044   5.358   1.967   5.757  1.2366 -0.0613  1.2830
13233SOL    HW146045   5.272   1.927   5.744  0.8812  0.6707  1.3095
13233SOL    HW246046   5.352   2.012   5.841  0.8069  2.0265  0.2151
13234SOL     OW46047   5.633   5.074   8.677  0.0336  0.2810 -0.3840
13234SOL    HW146048   5.607   5.152   8.727  1.5214 -0.2169  1.3014
13234SOL    HW246049   5.587   5.002   8.720  1.9178 -0.2513  0.8535
13235SOL     OW46050   5.855   7.066   8.294 -0.5442 -0.0246 -0.1606
13235SOL    HW146051   5.826   6.990   8.244  1.0785 -1.9852  1.6946
13235SOL    HW246052   5.817   7.055   8.381  1.2987  0.1742  0.7279
13236SOL     OW46053   0.228   6.711   5.957  0.5657  0.5133  0.2994
13236SOL    HW146054   0.225   6.744   6.046 -1.6394 -1.5182  1.0957
13236SOL    HW246055   0.136   6.704   5.931  0.8338 -3.3960 -0.2848
13237SOL     OW46056   5.652   2.470   4.088  0.1028  0.0882  0.1119
13237SOL    HW146057   5.712   2.399   4.110  1.7227  1.7547  1.4864
13237SOL    HW246058   5.636   2.461   3.994  1.2526 -1.3495  0.0268
13238SOL     OW46059   4.416   7.934   1.642  0.8867 -0.0746 -0.5232
13238SOL    HW146060   4.412   7.875   1.566 -0.1848 -0.8273  0.0850
13238SOL    HW246061   4.356   7.895   1.705 -2.4112  3.3081 -1.2404
13239SOL     OW46062   5.363   4.641   7.590 -0.0346  0.8501 -0.8125
13239SOL    HW146063   5.311   4.705   7.638  0.8763  0.7244  0.3771
13239SOL    HW246064   5.413   4.693   7.527 -0.0931  1.1955 -0.5749
13240SOL     OW46065   0.800   1.050   4.344 -0.2660 -0.7161 -0.0578
13240SOL    HW146066   0.820   1.133   4.301  1.9254 -2.0356 -1.8639
13240SOL    HW246067   0.884   1.021   4.379 -0.7640 -2.5622 -0.2752
13241SOL     OW46068   5.836   0.843   1.924  0.0540 -0.7101 -0.5163
13241SOL    HW146069   5.908   0.780   1.935  0.5746 -0.1749 -0.8194
13241SOL    HW246070   5.874   0.915   1.874 -1.3845 -1.6426 -3.1772
13242SOL     OW46071   7.348   4.914   2.009 -0.2024  0.0764  0.5108
13242SOL    HW146072   7.404   4.974   2.059  0.3174 -0.3470  0.4418
13242SOL    HW246073   7.401   4.889   1.933 -0.4500 -0.4019  0.4905
13243SOL     OW46074   5.370   7.745   2.156 -0.2059 -0.4486  0.2081
13243SOL    HW146075   5.430   7.775   2.224 -0.1405 -1.3304  0.5406
13243SOL    HW246076   5.421   7.753   2.075 -0.2954  0.6278  0.2416
13244SOL     OW46077   0.994   2.803   5.013 -0.2607 -0.5100  0.4544
13244SOL    HW146078   0.925   2.866   5.033 -2.0548 -2.1853 -0.0380
13244SOL    HW246079   0.973   2.773   4.924 -0.9839 -3.5200  1.5248
13245SOL     OW46080   2.897   2.695   2.646 -0.0095  0.1450  0.0215
13245SOL    HW146081   2.921   2.769   2.701  0.0382 -0.9830  1.5794
13245SOL    HW246082   2.858   2.632   2.706  1.9378 -2.0180 -0.8358
13246SOL     OW46083   6.490   5.059   0.391  0.3650  0.0880 -0.2750
13246SOL    HW146084   6.430   5.125   0.358  0.1894  1.2927  2.2369
13246SOL    HW246085   6.445   5.020   0.466  1.0559 -1.9204 -0.8300
13247SOL     OW46086   2.206   3.832   8.162  0.2983 -0.3991  0.0343
13247SOL    HW146087   2.283   3.882   8.134 -0.6648  0.4224 -1.2538
13247SOL    HW246088   2.158   3.892   8.219  0.1468 -0.5794  0.0977
13248SOL     OW46089   2.873   3.938   9.009 -0.3129 -0.3700 -0.2461
13248SOL    HW146090   2.919   3.944   9.092  0.9269  2.7832 -1.0031
13248SOL    HW246091   2.788   3.900   9.031 -0.0416  0.3755  2.4493
13249SOL     OW46092   6.088   7.764   2.174 -0.5647 -0.1835  0.1965
13249SOL    HW146093   6.025   7.835   2.171 -0.8073 -0.3748  0.7159
13249SOL    HW246094   6.126   7.769   2.262  0.3443  0.1005 -0.1994
13250SOL     OW46095   8.941   6.259   6.521  0.6563 -0.0166 -0.2423
13250SOL    HW146096   9.030   6.223   6.512  0.9484  0.7974 -0.6843
13250SOL    HW246097   8.946   6.346   6.482 -0.6922 -0.4821 -1.5520
13251SOL     OW46098   2.304   0.663   7.119 -0.2091  0.3349 -0.2846
13251SOL    HW146099   2.349   0.684   7.038  0.0092  3.3243  0.5037
13251SOL    HW246100   2.228   0.612   7.092  0.5150  0.1956 -2.2046
13252SOL     OW46101   3.117   0.060   9.068  0.3559 -0.6886 -0.3409
13252SOL    HW146102   3.165   0.071   8.986 -0.3418 -1.0880 -0.8066
13252SOL    HW246103   3.141  -0.028   9.098  0.4232 -0.6339 -0.2326
13253SOL     OW46104   1.034   2.725   0.564 -0.1657 -0.1503  0.2795
13253SOL    HW146105   1.034   2.737   0.659 -0.0541 -0.8877  0.3786
13253SOL    HW246106   1.095   2.653   0.549  1.9530  1.7038 -0.6085
13254SOL     OW46107   6.450   3.469   8.051 -0.1770 -0.4688 -0.0807
13254SOL    HW146108   6.383   3.489   7.986 -0.7342  0.2041  0.6710
13254SOL    HW246109   6.470   3.553   8.092  0.6426 -0.7718  0.1680
13255SOL     OW46110   2.183   6.928   4.990  0.3330 -0.0285 -0.1400
13255SOL    HW146111   2.089   6.935   4.975  0.0195  0.1174  1.7129
13255SOL    HW246112   2.202   6.994   5.057  1.6885 -0.3149 -0.2155
13256SOL     OW46113   3.730   0.769   4.489  0.3441  0.3270  0.3143
13256SOL    HW146114   3.755   0.862   4.492  0.5959  0.2286  1.7076
13256SOL    HW246115   3.813   0.722   4.480  0.3871  0.1624  1.4672
13257SOL     OW46116   4.585   3.644   4.683  0.2397  0.4950 -0.0811
13257SOL    HW146117   4.501   3.599   4.695  1.1555 -1.2435  0.1961
13257SOL    HW246118   4.639   3.614   4.756  1.5821  0.3693 -1.0797
13258SOL     OW46119   8.449   8.244   1.916 -0.0382 -0.2295  0.0085
13258SOL    HW146120   8.470   8.157   1.881  0.8783 -0.8088  1.8759
13258SOL    HW246121   8.456   8.302   1.840 -0.9123 -1.7828 -1.3443
13259SOL     OW46122   3.304   2.821   0.110 -0.0470 -0.2285  0.1223
13259SOL    HW146123   3.365   2.861   0.172 -0.1367 -1.9548  1.4252
13259SOL    HW246124   3.361   2.781   0.044  0.5205 -3.3005  2.2261
13260SOL     OW46125   7.694   7.049   8.891 -0.3243  0.4545  0.1213
13260SOL    HW146126   7.660   6.961   8.909 -1.6929  1.0026  0.2632
13260SOL    HW246127   7.652   7.076   8.810 -0.4873  1.2738  0.4669
13261SOL     OW46128   8.827   8.319   7.033  0.1808 -0.1621  0.0505
13261SOL    HW146129   8.773   8.364   7.098 -0.3830  0.3731 -0.7605
13261SOL    HW246130   8.883   8.260   7.084 -0.9582 -0.5092  0.9477
13262SOL     OW46131   7.132   5.805   6.539  0.1360 -0.0822  0.1163
13262SOL    HW146132   7.097   5.727   6.497  0.4307 -0.5277  0.6810
13262SOL    HW246133   7.060   5.838   6.593 -0.2758  0.5486 -0.7910
13263SOL     OW46134   3.472   1.628   0.905  0.0100 -0.1576  0.5217
13263SOL    HW146135   3.482   1.684   0.828  2.3494  0.6601  1.3451
13263SOL    HW246136   3.442   1.687   0.974 -0.2377 -0.5077  0.7195
13264SOL     OW46137   7.505   1.273   8.964 -0.2175  0.3276 -1.0283
13264SOL    HW146138   7.457   1.328   9.025  2.1144  1.6218 -0.2354
13264SOL    HW246139   7.463   1.188   8.969 -1.9398  1.1997  0.1091
13265SOL     OW46140   3.423   7.610   4.475  0.3729  0.0022  0.1831
13265SOL    HW146141   3.357   7.626   4.408 -0.0622  0.7120  0.7661
13265SOL    HW246142   3.495   7.670   4.453  0.1761  0.3273  0.4210
13266SOL     OW46143   3.752   4.994   8.165  0.6120  0.4410  0.0440
13266SOL    HW146144   3.840   4.956   8.169 -0.0533 -1.3675 -1.1331
13266SOL    HW246145   3.706   4.956   8.240 -0.0688 -1.2836 -1.1616
13267SOL     OW46146   8.871   1.196   6.385 -0.5978 -0.1031 -0.1932
13267SOL    HW146147   8.936   1.255   6.423 -1.0378 -0.1496  0.6831
13267SOL    HW246148   8.922   1.127   6.343 -0.0828  0.1590 -0.0017
13268SOL     OW46149   0.397   3.758   8.349 -0.0784  0.0692  0.1795
13268SOL    HW146150   0.480   3.780   8.390  2.0585 -1.9735 -2.6651
13268SOL    HW246151   0.335   3.754   8.422  2.2859  1.5510  2.4460
13269SOL     OW46152   5.682   2.293   9.157 -0.0849  0.1324 -0.3209
13269SOL    HW146153   5.694   2.202   9.183  1.3012  0.1782 -0.7145
13269SOL    HW246154   5.765   2.317   9.115  0.8089  2.4629  2.4064
13270SOL     OW46155   7.614   0.613   4.926 -0.5912  0.8483 -0.5729
13270SOL    HW146156   7.702   0.582   4.908 -0.3407  0.0396  1.7114
13270SOL    HW246157   7.608   0.697   4.881  0.9762  0.4582 -1.5676
13271SOL     OW46158   7.020   1.365   8.100  0.3650 -0.2363  0.2269
13271SOL    HW146159   7.088   1.351   8.166 -0.2936  0.1207  1.0032
13271SOL    HW246160   6.984   1.277   8.085 -0.5326 -0.1203  1.5293
13272SOL     OW46161   0.527   5.892   0.577 -0.0580 -0.0096  0.5318
13272SOL    HW146162   0.498   5.803   0.594  1.6456 -1.0099 -1.3086
13272SOL    HW246163   0.573   5.887   0.493 -0.1995  2.6817  0.1805
13273SOL     OW46164   1.858   7.547   4.012 -0.0510 -0.4206  0.7202
13273SOL    HW146165   1.865   7.459   3.975  0.5579 -0.1297  0.1196
13273SOL    HW246166   1.947   7.570   4.038 -0.1453  0.1395  0.5751
13274SOL     OW46167   1.978   5.112   6.342  0.1836  0.0134 -0.2530
13274SOL    HW146168   1.910   5.136   6.405  1.2385  0.1682  0.8615
13274SOL    HW246169   1.955   5.023   6.315 -0.2512 -0.0790  0.4003
13275SOL     OW46170   0.130   7.412   0.475  0.3823  0.2456  0.2447
13275SOL    HW146171   0.085   7.328   0.475  0.0607  0.2921  3.3816
13275SOL    HW246172   0.182   7.412   0.556  0.5075  2.9880  0.2793
13276SOL     OW46173   0.285   1.772   4.317  0.6109  0.1988 -0.2321
13276SOL    HW146174   0.285   1.684   4.356 -0.5528  0.7975  1.2361
13276SOL    HW246175   0.352   1.769   4.249  0.4860 -1.8599 -0.3068
13277SOL     OW46176   6.053   3.567   1.810 -0.4058 -0.4566 -0.4386
13277SOL    HW146177   6.018   3.656   1.799  1.2524  0.2824  0.0282
13277SOL    HW246178   6.101   3.549   1.729  2.7752  0.7859  1.0131
13278SOL     OW46179   1.281   0.818   5.047 -0.5184  0.0605  0.2772
13278SOL    HW146180   1.301   0.912   5.050 -2.9482  0.6430  0.6006
13278SOL    HW246181   1.208   0.812   4.985 -1.4908 -1.3623  1.4988
13279SOL     OW46182   8.413   5.945   9.239  0.0697  0.6828  0.0070
13279SOL    HW146183   8.419   5.944   9.144 -0.4216 -0.1982 -0.0203
13279SOL    HW246184   8.320   5.956   9.258  0.0008 -0.4620  0.3774
13280SOL     OW46185   4.483   4.321   3.947  0.2539  0.4760 -0.0290
13280SOL    HW146186   4.483   4.384   3.875 -0.2483  1.1369  0.5281
13280SOL    HW246187   4.517   4.370   4.022 -0.4143  0.1776  0.4818
13281SOL     OW46188   7.872   2.815   8.285  0.2844 -0.6171  0.2820
13281SOL    HW146189   7.881   2.846   8.375 -2.9083 -1.1863  0.9320
13281SOL    HW246190   7.824   2.885   8.241  0.8804 -0.8111 -0.7026
13282SOL     OW46191   0.318   1.142   6.145  0.6479  0.8328 -0.2481
13282SOL    HW146192   0.339   1.109   6.232  1.6994  1.0460 -0.4118
13282SOL    HW246193   0.395   1.123   6.092 -0.4162 -0.3861 -1.4672
13283SOL     OW46194   1.302   7.400   0.541  0.3340 -0.0361 -0.0837
13283SOL    HW146195   1.248   7.452   0.482  1.2032 -0.4897 -1.3358
13283SOL    HW246196   1.378   7.376   0.488  1.5214  0.1589  1.4626
13284SOL     OW46197   8.561   0.320   1.967 -0.5574  0.5620 -0.7465
13284SOL    HW146198   8.467   0.318   1.987 -0.3285 -0.2256  0.3522
13284SOL    HW246199   8.581   0.230   1.941  0.0847  0.4900 -0.0116
13285SOL     OW46200   8.230   6.079   4.508 -0.2476 -0.0490  0.0746
13285SOL    HW146201   8.195   6.078   4.597 -0.0522  0.2771  0.1582
13285SOL    HW246202   8.194   6.000   4.467 -1.2247  0.3596  0.0991
13286SOL     OW46203   8.374   3.248   1.610  0.0096 -0.0082 -0.3017
13286SOL    HW146204   8.290   3.241   1.565  0.1117  2.1469 -0.9394
13286SOL    HW246205   8.435   3.200   1.554 -0.6570 -1.0872 -0.1395
13287SOL     OW46206   2.985   7.909   0.182 -0.4935  0.1509  0.1065
13287SOL    HW146207   3.007   7.818   0.204 -0.8014  0.3522  1.3134
13287SOL    HW246208   3.048   7.962   0.230 -1.2095  0.6173  0.5534
13288SOL     OW46209   0.747   8.494   3.205  0.2939  0.3287 -0.3705
13288SOL    HW146210   0.793   8.538   3.276  1.3505 -2.5825  0.9071
13288SOL    HW246211   0.656   8.488   3.234  1.0599 -2.5732  1.8132
13289SOL     OW46212   6.334   1.349   7.436  0.6536 -0.5202 -0.1287
13289SOL    HW146213   6.405   1.286   7.448  1.3062  0.2907  0.3480
13289SOL    HW246214   6.277   1.333   7.511  0.2291 -1.2823 -0.5979
13290SOL     OW46215   4.682   2.594   7.303 -0.1043  0.1160  0.5419
13290SOL    HW146216   4.646   2.539   7.373  0.7322  1.4562  2.0840
13290SOL    HW246217   4.765   2.552   7.280  0.2125  0.3451  1.2399
13291SOL     OW46218   5.026   3.665   5.885  0.4101 -0.3141 -0.4262
13291SOL    HW146219   5.078   3.585   5.886  0.3495 -0.3791 -1.7582
13291SOL    HW246220   5.078   3.728   5.934 -0.5604 -1.7424  2.7922
13292SOL     OW46221   0.727   7.854   5.759 -0.8971 -0.6548  0.2905
13292SOL    HW146222   0.664   7.791   5.725 -0.6344 -1.1599  0.7143
13292SOL    HW246223   0.707   7.936   5.714 -2.4653 -0.5637  1.0906
13293SOL     OW46224   1.226   6.710   8.832 -0.3282 -0.3205  0.2756
13293SOL    HW146225   1.161   6.775   8.858  0.9053  0.1164  2.5182
13293SOL    HW246226   1.269   6.749   8.755 -0.0142  1.2719  1.2064
13294SOL     OW46227   7.930   7.364   4.992  0.8522  0.1624 -0.3284
13294SOL    HW146228   7.871   7.440   4.985  1.5346  0.8025  0.7251
13294SOL    HW246229   7.871   7.288   4.990 -0.3348  0.8193  3.2269
13295SOL     OW46230   6.258   7.849   5.222 -0.2372 -0.3992 -0.3466
13295SOL    HW146231   6.330   7.844   5.285 -0.8562  2.2043  0.6729
13295SOL    HW246232   6.300   7.834   5.137  0.5225 -4.5941  0.5413
13296SOL     OW46233   3.163   3.765   2.936 -0.7111 -0.0728 -0.4509
13296SOL    HW146234   3.233   3.718   2.889 -0.7119  0.1251 -0.6544
13296SOL    HW246235   3.084   3.744   2.887 -0.4778  1.4820 -1.5667
13297SOL     OW46236   4.564   2.421   7.881  0.0415  0.0255  0.7587
13297SOL    HW146237   4.608   2.435   7.965  1.3135  0.6149  0.0177
13297SOL    HW246238   4.551   2.509   7.845  2.3509 -0.2648 -1.0516
13298SOL     OW46239   4.662   0.774   3.707 -0.1982 -0.1320 -0.6159
13298SOL    HW146240   4.758   0.767   3.705 -0.2256 -0.5953 -0.3649
13298SOL    HW246241   4.631   0.695   3.664 -0.4872 -0.8620  0.8581
13299SOL     OW46242   2.568   7.824   6.091 -0.0645 -0.0960 -0.0467
13299SOL    HW146243   2.586   7.749   6.148  1.4136  0.3264  0.1007
13299SOL    HW246244   2.598   7.795   6.005  0.4168  0.2740 -0.0093
13300SOL     OW46245   4.950   0.729   1.384 -0.3449  0.5771  0.6981
13300SOL    HW146246   4.897   0.747   1.306  1.0255 -0.7598 -0.6223
13300SOL    HW246247   5.028   0.784   1.373  0.2803 -0.2981  0.6190
13301SOL     OW46248   5.405   8.406   2.277  0.6239  0.2214 -0.4942
13301SOL    HW146249   5.329   8.364   2.316 -0.1578  1.5651 -0.5273
13301SOL    HW246250   5.423   8.355   2.198 -0.2095 -0.1347 -0.4572
13302SOL     OW46251   5.970   5.264   3.679  0.1282  0.2337 -0.7030
13302SOL    HW146252   6.064   5.259   3.697  0.4910  0.5443 -2.3403
13302SOL    HW246253   5.947   5.176   3.650 -0.5246 -0.3599  1.4462
13303SOL     OW46254   4.517   5.564   4.762 -0.2345  0.1644  0.2327
13303SOL    HW146255   4.544   5.497   4.826  0.2699 -0.6574 -0.8044
13303SOL    HW246256   4.600   5.602   4.732 -0.4740  0.5901  0.1174
13304SOL     OW46257   3.735   7.599   3.931  0.0469 -0.8655  0.0807
13304SOL    HW146258   3.664   7.594   3.995 -0.7856  1.2203 -0.5654
13304SOL    HW246259   3.722   7.524   3.874 -2.1296 -0.1800 -0.4346
13305SOL     OW46260   4.906   2.962   4.663  0.4367 -0.1775 -0.0214
13305SOL    HW146261   4.841   2.985   4.597  1.1154  1.3419 -0.2071
13305SOL    HW246262   4.855   2.925   4.735 -0.7963  1.8243  0.2279
13306SOL     OW46263   2.096   3.594   8.060 -0.3578 -0.4612  0.0302
13306SOL    HW146264   2.112   3.673   8.111  0.0636  0.1571 -1.0066
13306SOL    HW246265   2.181   3.551   8.056  0.1054  0.5093 -1.7402
13307SOL     OW46266   4.769   9.065   9.204  0.1732 -0.0436 -0.1770
13307SOL    HW146267   4.734   9.033   9.287  0.0414 -1.0696 -0.6151
13307SOL    HW246268   4.735   9.005   9.138  0.1102  0.8804 -1.0110
13308SOL     OW46269   5.113   3.442   2.130  0.1240  0.0512  0.3079
13308SOL    HW146270   5.094   3.372   2.192 -0.2178  0.3684  0.5692
13308SOL    HW246271   5.191   3.485   2.165  1.1469 -1.0206 -0.5667
13309SOL     OW46272   2.354   1.649   1.511 -0.6089  0.5209 -0.4414
13309SOL    HW146273   2.430   1.612   1.466 -0.7603 -1.3996  0.8011
13309SOL    HW246274   2.279   1.605   1.472 -0.9567  0.9762 -0.2982
13310SOL     OW46275   1.013   0.386   6.096 -0.1870  0.0778 -0.1288
13310SOL    HW146276   0.993   0.327   6.023 -1.7476  1.6511 -1.0502
13310SOL    HW246277   1.026   0.472   6.054  1.1461  0.5852  1.2470
13311SOL     OW46278   6.965   5.618   1.146 -0.2849 -0.2863 -0.3939
13311SOL    HW146279   6.973   5.686   1.214  1.0216  0.5332 -1.3232
13311SOL    HW246280   6.994   5.538   1.189  0.1146  0.1355  0.1467
13312SOL     OW46281   0.119   4.820   2.691 -0.4788 -0.6402  0.0618
13312SOL    HW146282   0.060   4.885   2.729  0.4119 -0.4370  1.1481
13312SOL    HW246283   0.202   4.832   2.738  0.4829 -0.8274 -1.5161
13313SOL     OW46284   7.584   6.023   5.383  1.0323  0.4770 -0.4345
13313SOL    HW146285   7.547   6.062   5.303 -0.9521 -0.1495  0.1238
13313SOL    HW246286   7.627   6.096   5.427  0.1734  1.3441 -0.9711
13314SOL     OW46287   5.263   7.941   8.559  0.0379  0.2158 -0.0180
13314SOL    HW146288   5.285   8.024   8.601  0.4031  0.2405 -0.2576
13314SOL    HW246289   5.266   7.960   8.465 -3.8466  1.0173 -0.1661
13315SOL     OW46290   7.274   3.619   1.290 -0.4608  0.4222  0.3007
13315SOL    HW146291   7.229   3.570   1.221 -1.3234  0.8618  0.5497
13315SOL    HW246292   7.279   3.708   1.258  1.4276  0.1493 -0.3045
13316SOL     OW46293   0.329   5.294   8.532 -0.1407 -0.3690 -0.2390
13316SOL    HW146294   0.311   5.362   8.467 -0.8674 -0.6832 -0.3809
13316SOL    HW246295   0.353   5.217   8.481  1.2055 -0.0991 -0.0662
13317SOL     OW46296   1.327   7.384   7.722  0.4292 -0.4777 -0.2161
13317SOL    HW146297   1.292   7.451   7.663  1.3310 -1.1613 -1.5841
13317SOL    HW246298   1.295   7.301   7.686  1.3768 -0.9378 -0.0295
13318SOL     OW46299   1.850   7.006   0.156  0.2113  0.8741  0.5374
13318SOL    HW146300   1.910   6.988   0.084  1.7221  0.6923  1.7753
13318SOL    HW246301   1.861   7.100   0.173 -0.6331  1.0549  0.1247
13319SOL     OW46302   4.803   6.077   1.172  0.4888  0.2356 -0.2904
13319SOL    HW146303   4.771   6.013   1.236  0.0028  0.7952  0.0456
13319SOL    HW246304   4.784   6.038   1.087  1.8184 -0.8496 -0.1195
13320SOL     OW46305   0.249   3.672   4.619  0.1599 -0.0123 -0.1685
13320SOL    HW146306   0.253   3.583   4.652  0.0255 -0.5069 -1.4362
13320SOL    HW246307   0.211   3.723   4.690 -1.1400 -1.2283  0.0323
13321SOL     OW46308   1.737   0.372   4.215  0.2855  0.2653  0.5383
13321SOL    HW146309   1.748   0.277   4.216  1.1783  0.3521 -0.0482
13321SOL    HW246310   1.661   0.388   4.158  2.2787  0.0600 -2.3867
13322SOL     OW46311   2.457   1.122   0.198 -0.0947 -0.2238 -0.3005
13322SOL    HW146312   2.493   1.175   0.127 -0.5469  0.4877 -0.0151
13322SOL    HW246313   2.423   1.186   0.260  1.3108 -0.7951  1.1224
13323SOL     OW46314   9.133   9.208   6.372  0.2150 -0.0150  0.0549
13323SOL    HW146315   9.214   9.156   6.364  0.8111  0.9404 -0.2670
13323SOL    HW246316   9.146   9.259   6.452 -0.0335  0.1945 -0.0390
13324SOL     OW46317   3.334   0.378   3.256  0.6135  0.1339 -0.0178
13324SOL    HW146318   3.370   0.457   3.297 -0.2827  0.5177  0.0592
13324SOL    HW246319   3.409   0.334   3.217  1.4288  0.0547  1.5429
13325SOL     OW46320   2.848   6.842   7.703  0.2850 -0.0393  0.1214
13325SOL    HW146321   2.765   6.872   7.741 -0.5925 -1.4536 -0.5789
13325SOL    HW246322   2.902   6.920   7.699 -0.9035  0.8634  0.8881
13326SOL     OW46323   6.292   1.173   6.110 -0.8082  0.0708 -0.3041
13326SOL    HW146324   6.279   1.120   6.189  0.9828  1.0611  0.7076
13326SOL    HW246325   6.265   1.115   6.038  1.4235 -2.4404  0.6905
13327SOL     OW46326   3.677   0.167   7.780 -0.5061  0.1382  0.6750
13327SOL    HW146327   3.598   0.114   7.782 -0.6844  0.2811 -0.9017
13327SOL    HW246328   3.687   0.200   7.869 -1.0891 -1.5060  1.3868
13328SOL     OW46329   1.431   6.726   2.705 -0.7434  0.3789 -0.3015
13328SOL    HW146330   1.413   6.820   2.703 -1.8612  0.2946  2.0134
13328SOL    HW246331   1.353   6.685   2.666 -0.8233  0.3789 -0.1432
13329SOL     OW46332   3.465   0.706   2.139  0.0643  0.0738  0.0459
13329SOL    HW146333   3.418   0.643   2.194  0.7349  0.2078  0.7905
13329SOL    HW246334   3.542   0.658   2.109  1.2198  0.9024  1.6194
13330SOL     OW46335   4.986   2.153   0.490  0.5542  0.1445 -0.1658
13330SOL    HW146336   4.998   2.217   0.560 -0.0053 -0.3267  0.3738
13330SOL    HW246337   5.010   2.069   0.531  1.4701  0.0246 -0.9185
13331SOL     OW46338   6.196   4.714   6.878 -0.0747  0.2471  0.1792
13331SOL    HW146339   6.186   4.619   6.863  0.4327  0.3949 -1.2779
13331SOL    HW246340   6.114   4.740   6.920 -0.7811 -0.6267 -0.6084
13332SOL     OW46341   2.598   3.769   4.144 -0.1225 -0.0151  0.0457
13332SOL    HW146342   2.621   3.843   4.089  0.3906 -0.6200 -0.5756
13332SOL    HW246343   2.557   3.706   4.085  2.5806 -1.6950 -0.2153
13333SOL     OW46344   2.861   8.065   4.703  0.6877  0.9291  0.0379
13333SOL    HW146345   2.923   8.104   4.764  0.2611 -0.4534  1.4308
13333SOL    HW246346   2.818   7.996   4.753  0.1165 -0.0962 -1.7525
13334SOL     OW46347   5.624   8.487   8.311 -0.5881  0.7553 -0.1745
13334SOL    HW146348   5.719   8.485   8.302 -0.5583 -0.8050  0.1784
13334SOL    HW246349   5.592   8.524   8.229  0.2911  0.5243 -0.6287
13335SOL     OW46350   7.685   5.914   5.053 -0.7613 -0.2302 -0.2152
13335SOL    HW146351   7.773   5.937   5.081 -0.9348 -0.3534  0.4625
13335SOL    HW246352   7.636   5.996   5.056 -1.1606 -0.4912  1.3551
13336SOL     OW46353   4.729   6.333   8.746  0.4936 -0.1406  0.2539
13336SOL    HW146354   4.761   6.292   8.826  2.1099  0.5114 -0.0193
13336SOL    HW246355   4.723   6.426   8.768  0.4041 -0.0337 -0.2161
13337SOL     OW46356   7.948   0.099   7.878  0.1162  0.2815  0.3523
13337SOL    HW146357   7.860   0.098   7.839  0.0123 -0.2311  0.5857
13337SOL    HW246358   7.951   0.179   7.930 -0.0885  0.4776  0.0684
13338SOL     OW46359   7.096   8.881   2.486  0.2207 -0.3199 -0.3655
13338SOL    HW146360   7.084   8.970   2.454 -0.3044 -0.0694  0.5010
13338SOL    HW246361   7.191   8.867   2.483  0.3051  0.2622 -0.5001
13339SOL     OW46362   3.279   6.485   0.445  0.5844 -0.1324 -0.2253
13339SOL    HW146363   3.235   6.400   0.440  0.9566 -0.5112  1.8956
13339SOL    HW246364   3.365   6.471   0.406  0.8646 -0.9081  0.6481
13340SOL     OW46365   8.031   5.193   0.358 -0.3107  0.4603 -0.0650
13340SOL    HW146366   8.121   5.225   0.369 -0.1039  1.0954 -2.9249
13340SOL    HW246367   8.039   5.121   0.296 -1.7678  0.5082 -0.3378
13341SOL     OW46368   9.031   0.319   5.863  0.2731  0.5508 -0.0762
13341SOL    HW146369   8.948   0.337   5.905 -0.0771  3.5652 -1.7243
13341SOL    HW246370   9.008   0.280   5.778  0.5730  0.6642 -0.2141
13342SOL     OW46371   7.754   2.754   1.462  0.2543 -0.2283 -0.0342
13342SOL    HW146372   7.795   2.840   1.454  1.1429 -0.7724 -2.0897
13342SOL    HW246373   7.772   2.727   1.552  1.2295  1.1170  0.2021
13343SOL     OW46374   4.750   8.257   0.610  0.6068  0.0689  0.6049
13343SOL    HW146375   4.705   8.341   0.624 -0.4839 -0.3373 -0.3190
13343SOL    HW246376   4.818   8.255   0.677  0.5038  1.5941  0.7855
13344SOL     OW46377   6.257   6.479   0.331 -0.0653  0.0043 -0.4032
13344SOL    HW146378   6.348   6.475   0.302  0.2237 -1.3951  0.5525
13344SOL    HW246379   6.247   6.402   0.388 -1.3292  1.1449  1.0022
13345SOL     OW46380   3.325   2.820   8.936 -0.2050  0.7681 -0.0263
13345SOL    HW146381   3.240   2.787   8.908 -0.2155  1.7169 -1.2057
13345SOL    HW246382   3.359   2.753   8.996 -1.3193 -0.1126 -0.3497
13346SOL     OW46383   8.379   5.825   5.329  0.0381 -0.1891  0.6410
13346SOL    HW146384   8.404   5.916   5.314  0.5890 -0.4675 -0.1837
13346SOL    HW246385   8.285   5.828   5.344 -0.7809  0.1298 -3.4407
13347SOL     OW46386   6.457   5.172   8.098  0.4313  0.1983  0.1242
13347SOL    HW146387   6.478   5.154   8.006  0.3506 -0.1391  0.1721
13347SOL    HW246388   6.361   5.184   8.098  0.4195  0.1015  0.1822
13348SOL     OW46389   9.231   2.161   5.945 -0.2614  0.1883 -0.1033
13348SOL    HW146390   9.283   2.123   5.874  1.2956  2.0542 -0.0581
13348SOL    HW246391   9.292   2.168   6.018 -1.0811  0.7832  0.5415
13349SOL     OW46392   8.666   2.181   8.733 -0.2805 -0.2522 -0.1315
13349SOL    HW146393   8.571   2.188   8.734 -0.2445  0.9818  2.0007
13349SOL    HW246394   8.694   2.240   8.662 -1.0602  0.9442  0.5192
13350SOL     OW46395   0.018   9.146   2.511 -0.7025  0.7095 -0.5177
13350SOL    HW146396  -0.004   9.239   2.504  0.8063  1.0125 -1.3982
13350SOL    HW246397   0.105   9.138   2.472  0.3752 -0.6158  1.9111
13351SOL     OW46398   6.370   1.935   0.357 -0.6904 -0.2212  0.2735
13351SOL    HW146399   6.431   1.989   0.408 -0.0502 -0.5357 -0.1387
13351SOL    HW246400   6.388   1.846   0.385 -0.2360 -0.4092 -0.5896
13352SOL     OW46401   5.926   1.068   8.068 -0.3528  0.0362 -0.2095
13352SOL    HW146402   5.947   1.115   7.987  0.7156 -2.6994 -1.6611
13352SOL    HW246403   5.895   0.983   8.038 -2.9952  0.0145  2.2668
13353SOL     OW46404   1.891   6.842   3.934  0.3739 -0.4984  0.1961
13353SOL    HW146405   1.933   6.893   3.865  0.5837 -0.1958  0.5455
13353SOL    HW246406   1.811   6.891   3.954 -0.3450 -1.2606 -0.7191
13354SOL     OW46407   1.518   3.077   6.870 -0.1311  0.3092 -0.3072
13354SOL    HW146408   1.431   3.089   6.908 -0.5827  1.4146 -1.5963
13354SOL    HW246409   1.503   3.022   6.793  0.8041 -2.1406  1.1230
13355SOL     OW46410   2.059   2.059   6.822  0.3652  0.1467  0.0220
13355SOL    HW146411   1.966   2.058   6.798  0.4370  0.8322 -0.3035
13355SOL    HW246412   2.103   2.096   6.746  0.8510  0.3173  0.3823
13356SOL     OW46413   6.069   3.397   8.291 -0.2081  0.5521 -0.0228
13356SOL    HW146414   6.159   3.395   8.259  0.1330  0.4226  0.9099
13356SOL    HW246415   6.049   3.305   8.311 -0.9902  0.4080 -1.3982
13357SOL     OW46416   1.838   3.205   7.420 -0.0465  0.0780 -0.6125
13357SOL    HW146417   1.912   3.164   7.464  0.8884  0.2030 -1.9817
13357SOL    HW246418   1.764   3.190   7.478  1.0815  0.1576  0.9282
13358SOL     OW46419   7.017   3.593   0.638  0.5022 -0.3464  0.2087
13358SOL    HW146420   6.944   3.641   0.597 -0.0897 -0.2443  1.3419
13358SOL    HW246421   7.078   3.661   0.666  1.4506 -0.4612 -1.4138
13359SOL     OW46422   8.864   0.306   9.127 -0.4533  0.2529 -0.8153
13359SOL    HW146423   8.860   0.227   9.073 -2.2524 -0.1624 -0.1562
13359SOL    HW246424   8.932   0.359   9.086 -0.6966 -0.6942 -2.5824
13360SOL     OW46425   4.127   8.026   2.651 -0.0658 -0.1456  0.7123
13360SOL    HW146426   4.155   8.101   2.599  1.7100 -0.5581  1.0257
13360SOL    HW246427   4.031   8.035   2.656  0.0620  1.8653  0.4107
13361SOL     OW46428   1.763   5.020   7.565 -0.0846 -0.0388  0.0374
13361SOL    HW146429   1.754   4.929   7.538  0.2076 -0.2262  0.5610
13361SOL    HW246430   1.767   5.017   7.660 -1.0883  0.6111  0.1145
13362SOL     OW46431   5.809   5.954   7.080 -0.1353 -0.6473 -0.1530
13362SOL    HW146432   5.772   5.971   7.167 -0.2631  1.1152 -0.5228
13362SOL    HW246433   5.852   5.869   7.089 -0.2987 -0.5835  1.5847
13363SOL     OW46434   2.418   5.575   3.861 -0.1797  0.1834  0.0040
13363SOL    HW146435   2.428   5.551   3.953  1.7544 -0.4014 -0.3257
13363SOL    HW246436   2.375   5.499   3.821 -0.5472  0.2240  0.3144
13364SOL     OW46437   0.992   7.067   7.301  0.1157 -0.2988  0.1815
13364SOL    HW146438   0.943   7.081   7.382 -0.4205  1.4745 -0.4186
13364SOL    HW246439   0.962   7.136   7.242 -0.0241 -1.9483 -1.7953
13365SOL     OW46440   6.712   9.019   6.885  0.0295 -0.6378 -0.2326
13365SOL    HW146441   6.705   9.004   6.979 -0.2994  0.3723 -0.0878
13365SOL    HW246442   6.777   9.089   6.877  0.7504 -1.3538 -0.8207
13366SOL     OW46443   7.671   1.767   5.505 -0.1862  0.5772  0.6324
13366SOL    HW146444   7.750   1.789   5.554 -0.0760  0.4713  0.5047
13366SOL    HW246445   7.695   1.782   5.413  0.0615 -0.5695  0.4995
13367SOL     OW46446   8.337   0.333   1.696  0.1413 -0.2948  0.0129
13367SOL    HW146447   8.322   0.285   1.614  0.3355 -2.3000  1.0992
13367SOL    HW246448   8.301   0.420   1.679  0.3371 -0.5910 -2.2563
13368SOL     OW46449   4.286   1.553   1.130 -0.0555  0.1397  0.1240
13368SOL    HW146450   4.250   1.626   1.181 -0.7128 -1.8059  2.6730
13368SOL    HW246451   4.209   1.501   1.106  0.3876  0.3099 -1.8101
13369SOL     OW46452   2.892   5.445   4.045 -0.3182 -0.1894 -0.2085
13369SOL    HW146453   2.835   5.423   4.119  0.7547 -0.4575  0.5582
13369SOL    HW246454   2.836   5.434   3.968 -1.3472 -0.2839  0.5312
13370SOL     OW46455   2.054   6.963   2.607 -0.0065 -0.2427 -0.2813
13370SOL    HW146456   2.109   6.926   2.676  1.6605  0.5766 -1.1101
13370SOL    HW246457   2.047   7.055   2.628  1.4093  0.2456 -1.7051
13371SOL     OW46458   0.356   5.037   4.166 -0.1020 -0.0048 -0.7304
13371SOL    HW146459   0.342   4.943   4.178  2.5728 -0.1775  2.2191
13371SOL    HW246460   0.391   5.045   4.077  0.0717 -1.8564 -0.8657
13372SOL     OW46461   6.629   1.365   9.076 -0.1296  0.8161  0.1737
13372SOL    HW146462   6.643   1.336   8.985 -0.4361  2.7778 -0.5555
13372SOL    HW246463   6.661   1.292   9.129 -0.8685 -0.8280 -1.4908
13373SOL     OW46464   8.965   0.155   0.199 -0.4175 -0.2566  0.0889
13373SOL    HW146465   8.880   0.192   0.176 -0.9005 -1.7245 -0.5904
13373SOL    HW246466   9.020   0.172   0.123 -0.8739 -1.6189 -0.5615
13374SOL     OW46467   3.184   7.867   0.987  0.0420 -0.0099  0.4999
13374SOL    HW146468   3.276   7.855   1.013  0.4911 -0.6928 -1.2580
13374SOL    HW246469   3.173   7.962   0.982 -0.0427  0.1761  2.8719
13375SOL     OW46470   5.514   4.730   4.972  0.0802  0.2021 -0.0546
13375SOL    HW146471   5.572   4.766   4.904 -0.3524  0.1465 -0.4545
13375SOL    HW246472   5.440   4.791   4.976  0.2840  0.4170  0.6438
13376SOL     OW46473   8.136   2.443   0.459 -0.3857 -0.3284 -0.2449
13376SOL    HW146474   8.172   2.481   0.379  0.1210  1.2059  0.6693
13376SOL    HW246475   8.156   2.349   0.452 -0.4750 -0.2441 -1.9484
13377SOL     OW46476   8.838   0.950   7.195  0.3354  0.0364  0.6446
13377SOL    HW146477   8.827   0.939   7.289 -3.5070  1.3182  0.5189
13377SOL    HW246478   8.913   1.009   7.185  0.1826  0.6940  2.9526
13378SOL     OW46479   1.037   0.382   0.291  0.5503 -0.9259 -0.4416
13378SOL    HW146480   1.114   0.438   0.295  0.1001 -0.2248 -1.2604
13378SOL    HW246481   1.024   0.353   0.381  0.7068  0.4171  0.0404
13379SOL     OW46482   8.556   7.979   1.219 -0.5803 -0.1537  0.1847
13379SOL    HW146483   8.580   7.963   1.128 -0.4650  0.3118  0.1302
13379SOL    HW246484   8.520   7.896   1.250 -2.1257  0.1281 -0.7679
13380SOL     OW46485   8.652   1.342   9.105 -0.0624 -0.3379 -0.4861
13380SOL    HW146486   8.712   1.348   9.030 -1.6765  2.3793 -1.7486
13380SOL    HW246487   8.706   1.367   9.180  1.2917 -1.8419 -0.9007
13381SOL     OW46488   9.228   0.791   3.097  0.1740  0.4253  0.2749
13381SOL    HW146489   9.185   0.714   3.061 -1.8810  0.5146  2.3388
13381SOL    HW246490   9.186   0.865   3.052  0.6634  0.4264 -0.1932
13382SOL     OW46491   2.539   3.474   4.177  0.2801 -0.5832  0.2486
13382SOL    HW146492   2.603   3.480   4.106  1.3429 -0.0829  1.2184
13382SOL    HW246493   2.574   3.531   4.246 -0.6018 -1.2408  1.2701
13383SOL     OW46494   1.551   2.358   5.776 -0.2579 -0.0788 -0.0537
13383SOL    HW146495   1.603   2.282   5.751 -2.5617 -1.2182 -1.7508
13383SOL    HW246496   1.528   2.342   5.868  2.9427  0.9213  1.0787
13384SOL     OW46497   7.313   3.307   2.863  0.2640 -0.3852  0.2760
13384SOL    HW146498   7.237   3.257   2.833 -0.1890  0.1613  0.4929
13384SOL    HW246499   7.285   3.344   2.947  1.5537 -2.0112  1.4883
13385SOL     OW46500   2.183   1.294   1.223  0.2160  0.9587 -0.4662
13385SOL    HW146501   2.259   1.308   1.167  1.6897 -0.3627  1.1012
13385SOL    HW246502   2.157   1.203   1.207  0.6621  0.5529  0.9273
13386SOL     OW46503   6.009   2.805   0.493 -0.4776  0.3456 -0.7710
13386SOL    HW146504   5.967   2.720   0.506  0.0223  0.0755 -0.8934
13386SOL    HW246505   6.102   2.787   0.501 -0.3967  0.9959 -0.1847
13387SOL     OW46506   2.777   2.578   0.078 -0.0518  0.1982 -0.2685
13387SOL    HW146507   2.826   2.591   0.159  1.6754  0.2645 -1.2780
13387SOL    HW246508   2.686   2.567   0.106  0.3045  1.5618  1.5570
13388SOL     OW46509   9.197   1.564   3.245 -0.1722 -0.3003  0.4187
13388SOL    HW146510   9.144   1.542   3.321  0.1207 -0.9905  0.4380
13388SOL    HW246511   9.287   1.548   3.273 -0.1146 -1.4589 -0.3432
13389SOL     OW46512   4.136   6.838   5.504  0.5652  0.2627 -0.0546
13389SOL    HW146513   4.113   6.913   5.557  0.9139  1.6906 -1.8161
13389SOL    HW246514   4.062   6.778   5.513  0.0243  1.0539  0.9434
13390SOL     OW46515   2.645   5.450   1.891 -0.5323 -0.1471  0.3384
13390SOL    HW146516   2.594   5.510   1.945 -0.6938  1.2057 -1.2243
13390SOL    HW246517   2.581   5.409   1.833 -0.3027 -1.2287  0.8280
13391SOL     OW46518   6.471   7.695   5.761 -0.0979 -0.0696 -0.6416
13391SOL    HW146519   6.559   7.673   5.791 -0.2481 -0.2850 -0.3548
13391SOL    HW246520   6.472   7.790   5.752 -0.1753  0.0473  0.4470
13392SOL     OW46521   7.944   5.914   1.700 -0.5268  0.0028  0.7552
13392SOL    HW146522   8.032   5.934   1.731 -0.5732  0.2808  0.7114
13392SOL    HW246523   7.937   5.819   1.708 -0.1030 -0.0590  0.4418
13393SOL     OW46524   0.187   3.259   6.725  0.0077  0.3404 -0.2936
13393SOL    HW146525   0.232   3.342   6.706 -0.0085  0.4260  0.0275
13393SOL    HW246526   0.097   3.274   6.696 -0.9724  1.7587  2.9807
13394SOL     OW46527   4.026   4.209   2.448 -0.5206 -0.1489  0.1989
13394SOL    HW146528   3.938   4.212   2.485 -0.2508  1.5791  0.7677
13394SOL    HW246529   4.084   4.206   2.523 -0.0684 -1.7003 -0.1781
13395SOL     OW46530   7.759   1.337   1.100  0.6609  0.2857 -0.3659
13395SOL    HW146531   7.744   1.422   1.142 -1.6724  0.1163 -0.7152
13395SOL    HW246532   7.767   1.358   1.007 -1.2444  0.0400 -0.6102
13396SOL     OW46533   5.353   5.197   8.292  0.1592 -0.4198  0.1355
13396SOL    HW146534   5.317   5.144   8.220 -0.0501 -1.7495  1.1665
13396SOL    HW246535   5.445   5.171   8.297 -0.0443 -1.0236  0.9141
13397SOL     OW46536   5.717   2.399   1.769  0.4312 -0.2453  0.0282
13397SOL    HW146537   5.623   2.416   1.778  0.5268 -0.5570  1.8925
13397SOL    HW246538   5.758   2.483   1.790  0.5809  0.8961 -3.9525
13398SOL     OW46539   2.194   3.172   3.941 -0.3617  0.5722  0.1804
13398SOL    HW146540   2.264   3.149   4.002 -0.5022 -0.1349  0.0774
13398SOL    HW246541   2.237   3.228   3.876  0.6918 -1.7335 -1.2349
13399SOL     OW46542   7.429   0.436   8.174  0.0061 -0.6267 -0.6145
13399SOL    HW146543   7.350   0.404   8.131 -0.1676 -1.1210  0.0563
13399SOL    HW246544   7.500   0.411   8.114 -0.3081 -0.5375 -1.0258
13400SOL     OW46545   6.084   3.108   7.995 -0.6811  0.3759  0.3059
13400SOL    HW146546   6.014   3.109   8.062 -1.7561 -2.2386 -0.6329
13400SOL    HW246547   6.142   3.038   8.023  0.0306  0.6639 -0.4186
13401SOL     OW46548   5.910   2.230   8.973 -0.0049  0.2444 -0.2605
13401SOL    HW146549   5.973   2.214   8.902  1.5477  2.2689  0.5313
13401SOL    HW246550   5.926   2.159   9.035 -1.0324 -1.2664 -1.6548
13402SOL     OW46551   7.340   1.816   8.365 -0.1685  0.0964  0.9074
13402SOL    HW146552   7.356   1.741   8.308  0.4039  0.6291  0.3449
13402SOL    HW246553   7.281   1.783   8.433 -2.0044 -0.2259 -0.7638
13403SOL     OW46554   1.344   3.491   1.121 -0.3291  0.1612 -0.5753
13403SOL    HW146555   1.305   3.452   1.199 -0.5714  0.4923 -0.5278
13403SOL    HW246556   1.403   3.558   1.156 -1.3227  1.1300 -0.6933
13404SOL     OW46557   4.505   1.986   6.251 -0.9458 -0.1711 -0.3040
13404SOL    HW146558   4.459   2.060   6.291 -1.2476 -0.8882  0.7218
13404SOL    HW246559   4.559   1.950   6.321  0.1414 -0.1836 -1.1262
13405SOL     OW46560   2.231   4.448   5.785  0.5147 -0.2626 -0.2003
13405SOL    HW146561   2.173   4.506   5.834 -0.0904 -0.7058 -0.3772
13405SOL    HW246562   2.217   4.471   5.694 -1.4722 -2.1763 -0.4754
13406SOL     OW46563   5.767   5.032   6.110  0.0468  0.0910  0.0315
13406SOL    HW146564   5.861   5.051   6.107  0.1910 -0.5633  0.2242
13406SOL    HW246565   5.733   5.064   6.026  0.1793  1.6490  0.5545
13407SOL     OW46566   6.054   4.523   1.005  0.9750 -0.3882 -0.4654
13407SOL    HW146567   5.995   4.490   1.073  1.5064  0.1076  0.2465
13407SOL    HW246568   6.100   4.445   0.973  2.1117 -0.3913  1.0990
13408SOL     OW46569   9.202   1.020   1.699  0.3302 -0.1392 -0.6667
13408SOL    HW146570   9.155   0.942   1.673 -0.2865  0.1151 -0.3376
13408SOL    HW246571   9.294   0.993   1.702  0.1898 -0.6826 -1.1466
13409SOL     OW46572   0.940   5.096   3.083 -0.6133  0.3833  0.1108
13409SOL    HW146573   0.880   5.023   3.076  0.7265 -0.6310 -1.9960
13409SOL    HW246574   1.013   5.063   3.135 -0.4117  0.4956 -0.0943
13410SOL     OW46575   3.363   6.251   1.050 -0.4306  0.1332  0.3469
13410SOL    HW146576   3.389   6.163   1.023 -1.0723  0.7128 -2.4728
13410SOL    HW246577   3.444   6.293   1.078 -0.3601 -1.8580  3.7509
13411SOL     OW46578   5.982   7.873   3.497  0.4433  0.0929 -0.8211
13411SOL    HW146579   5.951   7.904   3.412 -3.4315  1.3142  0.8245
13411SOL    HW246580   5.993   7.779   3.486  0.8652  0.3490 -2.8531
13412SOL     OW46581   3.773   2.323   4.178  0.1168  0.1572 -0.0008
13412SOL    HW146582   3.736   2.408   4.154  2.4581  0.6174 -2.5753
13412SOL    HW246583   3.720   2.260   4.129 -0.7519  0.2325  0.8173
13413SOL     OW46584   1.256   3.955   2.165  0.7963  0.2211 -0.1176
13413SOL    HW146585   1.277   3.862   2.158  2.0119  0.4732 -0.0673
13413SOL    HW246586   1.271   3.976   2.257  1.2864  0.6211 -0.2802
13414SOL     OW46587   2.208   7.189   9.114 -0.1167 -0.5148 -0.0496
13414SOL    HW146588   2.255   7.272   9.123  0.0309 -0.5842 -0.1677
13414SOL    HW246589   2.116   7.214   9.103 -0.3706 -0.4334  1.9624
13415SOL     OW46590   2.965   7.321   6.334  0.5602 -0.0331 -0.3267
13415SOL    HW146591   3.032   7.275   6.384  0.4126  1.1946  1.0722
13415SOL    HW246592   2.889   7.325   6.393 -0.7722 -1.3226 -1.8360
13416SOL     OW46593   5.877   2.630   8.635 -0.6758  0.1335 -0.6067
13416SOL    HW146594   5.922   2.549   8.613 -0.0148  1.0137 -2.6746
13416SOL    HW246595   5.784   2.606   8.640 -0.3295 -1.0633  0.5711
13417SOL     OW46596   8.464   0.009   1.643  0.5177 -0.1252  0.4620
13417SOL    HW146597   8.383   0.052   1.673 -0.1916 -1.0170 -0.1060
13417SOL    HW246598   8.446  -0.084   1.654  0.3726 -0.5020 -2.2661
13418SOL     OW46599   2.426   6.498   9.063 -0.0283 -0.2543  0.1444
13418SOL    HW146600   2.519   6.513   9.078  0.0191 -1.7497  1.6254
13418SOL    HW246601   2.419   6.482   8.969  1.2292 -0.2374  0.0387
13419SOL     OW46602   0.155   4.800   4.291 -0.3166  0.4875 -0.1991
13419SOL    HW146603   0.073   4.751   4.297  0.6288 -1.1965 -0.5365
13419SOL    HW246604   0.172   4.830   4.381 -0.8305  0.0620  0.0409
13420SOL     OW46605   4.981   6.041   0.635 -0.2579  0.0290 -0.7060
13420SOL    HW146606   5.015   6.121   0.597 -1.5818  1.1081  0.2833
13420SOL    HW246607   4.888   6.042   0.614 -0.1567 -1.6975 -1.4019
13421SOL     OW46608   2.196   4.892   5.793  0.5031 -0.4089  0.7216
13421SOL    HW146609   2.145   4.968   5.821  0.5238 -0.4635  0.9100
13421SOL    HW246610   2.283   4.927   5.773 -0.0621 -0.0349 -1.2196
13422SOL     OW46611   8.313   1.087   4.446  0.1707  0.0148 -0.0520
13422SOL    HW146612   8.294   1.127   4.361  0.6095  1.5965  0.5567
13422SOL    HW246613   8.276   0.999   4.440 -2.4929  1.0888 -0.8300
13423SOL     OW46614   8.581   4.005   8.235  0.5168  0.0817 -0.4201
13423SOL    HW146615   8.534   3.967   8.161 -1.0576 -0.5870  0.8653
13423SOL    HW246616   8.584   4.099   8.216 -2.3746  0.3390 -0.0935
13424SOL     OW46617   3.685   4.253   6.594  0.7338  0.0426 -0.2836
13424SOL    HW146618   3.705   4.347   6.602  2.7211 -0.4310  1.0184
13424SOL    HW246619   3.767   4.213   6.566  0.1062 -1.4079 -0.1442
13425SOL     OW46620   3.560   2.682   8.458 -0.9125  0.3318  0.1918
13425SOL    HW146621   3.502   2.606   8.457  0.7011 -0.9780 -0.0844
13425SOL    HW246622   3.607   2.675   8.542  1.8199 -1.1513 -1.2949
13426SOL     OW46623   0.194   3.189   0.310  0.2772  0.5622 -0.6856
13426SOL    HW146624   0.232   3.266   0.352 -1.3660  1.7101 -1.1919
13426SOL    HW246625   0.223   3.116   0.363  0.1033  1.7492  1.1168
13427SOL     OW46626   3.800   2.169   4.915  0.0789 -0.5786 -0.3730
13427SOL    HW146627   3.705   2.159   4.901  0.3518 -2.6564 -1.1689
13427SOL    HW246628   3.839   2.140   4.832  1.4388 -1.2049  0.4543
13428SOL     OW46629   7.419   1.333   7.756  0.6907  0.3444  0.4476
13428SOL    HW146630   7.365   1.363   7.684 -0.4223 -0.3660  0.9524
13428SOL    HW246631   7.375   1.366   7.835  2.9820  2.8760  0.8022
13429SOL     OW46632   1.745   6.394   1.921 -0.0011 -0.0358 -0.9544
13429SOL    HW146633   1.671   6.452   1.904 -0.4180 -0.0243  0.6984
13429SOL    HW246634   1.712   6.306   1.901 -0.6766 -0.0901  0.2584
13430SOL     OW46635   3.423   3.683   7.904  0.3647  0.1568 -0.1811
13430SOL    HW146636   3.409   3.712   7.814  1.5138  0.1091 -0.3838
13430SOL    HW246637   3.335   3.680   7.942  0.0347  2.2096 -0.6688
13431SOL     OW46638   0.518   3.827   5.683  0.8842 -0.0399  0.9297
13431SOL    HW146639   0.523   3.736   5.651  0.6020  0.2888 -0.0904
13431SOL    HW246640   0.576   3.876   5.624 -1.3116  0.9543 -0.5221
13432SOL     OW46641   0.417   1.980   7.443  0.7250 -0.1099  0.2841
13432SOL    HW146642   0.492   1.946   7.492  0.2986 -1.3350  0.1144
13432SOL    HW246643   0.341   1.957   7.496  0.4079  0.4588  0.0881
13433SOL     OW46644   6.451   0.070   4.678 -0.0116 -0.0530 -0.3933
13433SOL    HW146645   6.362   0.038   4.693  0.5044 -0.6446  1.7297
13433SOL    HW246646   6.473   0.039   4.590 -0.9380 -2.2244  0.0865
13434SOL     OW46647   1.323   7.400   1.926  0.1477 -0.0404  0.3072
13434SOL    HW146648   1.394   7.435   1.981 -0.4266  0.5286  0.7079
13434SOL    HW246649   1.316   7.463   1.854 -0.0790  0.0149  0.3760
13435SOL     OW46650   2.995   1.647   3.947 -0.2865  0.2660 -0.4080
13435SOL    HW146651   2.978   1.628   3.855  0.3509  0.0777 -0.4930
13435SOL    HW246652   3.087   1.672   3.950 -0.1856 -0.1426  0.2370
13436SOL     OW46653   6.750   5.372   2.645 -0.0748 -0.2676 -0.9824
13436SOL    HW146654   6.784   5.408   2.563  1.2073  0.3439 -0.2214
13436SOL    HW246655   6.672   5.425   2.663 -0.4993 -0.5657 -1.9222
13437SOL     OW46656   8.386   1.351   4.517  0.3125 -0.2280 -0.1144
13437SOL    HW146657   8.377   1.259   4.494 -1.0794  0.1021 -0.9857
13437SOL    HW246658   8.377   1.398   4.434  0.6548  0.7136  0.3656
13438SOL     OW46659   1.096   4.718   2.168 -0.1718 -0.0390 -0.2960
13438SOL    HW146660   1.086   4.645   2.229  1.6824 -0.1910 -0.1345
13438SOL    HW246661   1.125   4.791   2.222 -0.8304  0.4983 -0.6519
13439SOL     OW46662   2.370   8.415   2.571  0.2582 -0.3872  0.3242
13439SOL    HW146663   2.301   8.457   2.622 -0.3762  0.2814 -1.0228
13439SOL    HW246664   2.441   8.479   2.569 -0.5520  0.5202 -1.3884
13440SOL     OW46665   3.502   8.135   2.539  0.0646  0.3046 -0.0109
13440SOL    HW146666   3.425   8.192   2.538 -0.9408 -0.7917  3.1141
13440SOL    HW246667   3.482   8.068   2.474 -0.1697  1.6699 -1.4238
13441SOL     OW46668   5.564   8.919   1.717 -0.1944 -0.3944 -0.6543
13441SOL    HW146669   5.594   8.904   1.807 -1.4880 -0.3836 -0.1980
13441SOL    HW246670   5.468   8.910   1.722 -0.3688  0.5373 -1.8359
13442SOL     OW46671   1.608   6.219   0.415  0.2635  0.2376  0.7590
13442SOL    HW146672   1.664   6.142   0.410 -1.5457 -1.1154  0.2339
13442SOL    HW246673   1.544   6.197   0.482  0.5903  1.9301  1.6698
13443SOL     OW46674   1.080   2.318   0.000  0.7843  0.7166  0.4622
13443SOL    HW146675   1.078   2.374  -0.077  4.0628  1.1537  0.5701
13443SOL    HW246676   1.067   2.378   0.074  1.7514  0.9466  0.4489
13444SOL     OW46677   3.862   8.436   4.790  0.3150  0.0407  0.2615
13444SOL    HW146678   3.802   8.362   4.787  1.3679 -0.8217 -2.4105
13444SOL    HW246679   3.808   8.510   4.819 -2.3630 -0.4891 -2.8263
13445SOL     OW46680   6.461   2.030   7.529 -0.2305 -0.4821  0.5460
13445SOL    HW146681   6.518   1.990   7.595  1.1707  0.0229 -0.2993
13445SOL    HW246682   6.499   2.116   7.514  0.5101 -1.1831 -2.0809
13446SOL     OW46683   4.884   7.366   0.319 -0.2951 -0.3406 -0.0332
13446SOL    HW146684   4.911   7.401   0.405  0.7066 -0.9084 -0.1066
13446SOL    HW246685   4.806   7.315   0.338 -1.4859  1.4495  0.1664
13447SOL     OW46686   0.071   2.095   0.077 -0.2693 -0.0727 -0.2074
13447SOL    HW146687   0.053   2.008   0.042  0.7921 -0.2034 -0.4721
13447SOL    HW246688   0.158   2.117   0.043 -1.3624  1.9986 -1.9318
13448SOL     OW46689   5.739   3.702   4.315  0.1535 -0.1782 -0.2462
13448SOL    HW146690   5.772   3.759   4.384 -1.0947  1.3085 -0.8224
13448SOL    HW246691   5.810   3.639   4.299  1.4936  1.0744  0.5641
13449SOL     OW46692   3.741   1.788   1.480  0.0214 -0.1104  0.8772
13449SOL    HW146693   3.799   1.713   1.493 -0.5023 -0.5246  0.8891
13449SOL    HW246694   3.700   1.802   1.565  0.6916  0.6854  1.0742
13450SOL     OW46695   7.158   0.867   7.615 -0.0646 -0.2209 -0.4450
13450SOL    HW146696   7.209   0.828   7.545 -2.0342 -1.8080 -1.0987
13450SOL    HW246697   7.127   0.951   7.578  0.1509 -0.3411 -0.9079
13451SOL     OW46698   3.033   3.573   3.706  0.2323 -0.1630  0.9729
13451SOL    HW146699   3.100   3.558   3.772  0.6390  2.1940  1.1852
13451SOL    HW246700   3.069   3.537   3.625  0.0456 -2.4015  1.8260
13452SOL     OW46701   2.830   0.910   6.406 -0.3821 -0.1927 -0.3390
13452SOL    HW146702   2.887   0.986   6.413 -1.0267  0.3837 -1.0812
13452SOL    HW246703   2.885   0.836   6.431  0.3955  0.4520 -0.0784
13453SOL     OW46704   8.598   8.670   0.651  0.9448  0.1442  0.1483
13453SOL    HW146705   8.693   8.659   0.656  1.1010  1.5551  0.6375
13453SOL    HW246706   8.563   8.589   0.687  1.9928  0.5512  2.2169
13454SOL     OW46707   1.567   7.389   4.521 -0.1774  0.1878 -0.0454
13454SOL    HW146708   1.607   7.416   4.604 -0.2646 -0.8504  0.3527
13454SOL    HW246709   1.571   7.293   4.524 -2.5948  0.0470 -0.0484
13455SOL     OW46710   9.121   0.130   7.931  0.4804 -0.5936  0.4895
13455SOL    HW146711   9.124   0.092   8.019  1.5956 -1.9598 -0.0953
13455SOL    HW246712   9.200   0.096   7.888  0.7558  1.2699 -0.5581
13456SOL     OW46713   2.374   2.680   2.298  0.4590  0.3258 -0.1934
13456SOL    HW146714   2.348   2.591   2.321 -0.0950  0.1853 -1.3201
13456SOL    HW246715   2.469   2.676   2.292  0.8302  0.6955  3.3389
13457SOL     OW46716   2.136   2.363   3.922  0.2650  0.7309  0.3910
13457SOL    HW146717   2.058   2.323   3.884  0.6945  1.9440 -1.9337
13457SOL    HW246718   2.137   2.452   3.888  1.6940  1.3476  1.8832
13458SOL     OW46719   7.962   4.647   4.543  0.1757 -0.3160 -0.1258
13458SOL    HW146720   8.028   4.678   4.605  0.6310  0.1579 -0.8210
13458SOL    HW246721   8.011   4.636   4.461 -0.6569  0.2623 -0.7129
13459SOL     OW46722   7.107   3.453   6.882  0.2321 -0.1740 -0.2054
13459SOL    HW146723   7.135   3.533   6.927 -0.6548 -1.5581  3.0663
13459SOL    HW246724   7.181   3.431   6.825  1.7504  1.3656  1.0610
13460SOL     OW46725   6.376   3.885   8.309 -0.3661  0.5929  0.1099
13460SOL    HW146726   6.290   3.912   8.277 -0.3038  1.4793  0.6420
13460SOL    HW246727   6.409   3.961   8.357 -0.9438 -0.9611  3.2973
13461SOL     OW46728   2.847   5.074   6.628 -0.0297 -1.0116 -0.1964
13461SOL    HW146729   2.829   5.059   6.721 -2.3199 -2.8211 -0.8463
13461SOL    HW246730   2.887   4.993   6.597  1.7149 -0.0490 -0.6445
13462SOL     OW46731   8.531   4.357   4.214 -0.4558 -0.0309  0.1064
13462SOL    HW146732   8.498   4.408   4.140 -0.3492 -0.6846 -0.4038
13462SOL    HW246733   8.615   4.323   4.185 -0.8630 -1.1152  0.1429
13463SOL     OW46734   0.515   1.496   4.937  0.2163  0.2037  0.4660
13463SOL    HW146735   0.481   1.443   5.009  0.4116  0.0239  0.4294
13463SOL    HW246736   0.452   1.567   4.927 -0.4220 -0.3975  0.0661
13464SOL     OW46737   5.747   1.319   5.710  0.7242 -0.3541  0.1342
13464SOL    HW146738   5.764   1.269   5.630  1.3322  1.2774 -0.8130
13464SOL    HW246739   5.667   1.281   5.745 -0.7636  0.2035 -2.3842
13465SOL     OW46740   8.543   3.682   2.739  0.3867 -0.3230 -0.6436
13465SOL    HW146741   8.458   3.638   2.731 -0.2076  0.9244 -1.4653
13465SOL    HW246742   8.531   3.745   2.810 -0.0353  1.2509 -2.0623
13466SOL     OW46743   0.213   8.187   5.385  0.2181  0.0882  0.2173
13466SOL    HW146744   0.203   8.102   5.344 -0.6117  0.0871  0.4002
13466SOL    HW246745   0.295   8.222   5.349  1.1113 -1.2013  0.9095
13467SOL     OW46746   0.290   1.118   2.254 -0.1525  0.6613  0.5312
13467SOL    HW146747   0.302   1.031   2.215  0.1656  0.7360  0.4624
13467SOL    HW246748   0.246   1.169   2.186  0.4601  0.8098  0.2386
13468SOL     OW46749   9.176   4.273   6.527 -0.0646 -0.3294  0.4085
13468SOL    HW146750   9.247   4.304   6.583  0.2176 -0.3384  0.0533
13468SOL    HW246751   9.171   4.179   6.543 -0.5310 -0.2089  1.0382
13469SOL     OW46752   5.273   6.934   7.656  0.2331 -0.7334 -0.0531
13469SOL    HW146753   5.228   6.853   7.631  2.7512 -1.9956 -0.9459
13469SOL    HW246754   5.342   6.905   7.717  0.7585  0.8426  0.1454
13470SOL     OW46755   0.358   8.592   3.562 -0.0754  0.1000 -0.0445
13470SOL    HW146756   0.366   8.524   3.628  2.2049  0.3187 -0.0231
13470SOL    HW246757   0.334   8.546   3.482  0.5638 -0.6279  0.1733
13471SOL     OW46758   6.336   8.664   4.214 -0.2161 -0.5814 -0.2859
13471SOL    HW146759   6.336   8.641   4.122  0.1868 -0.9330 -0.2022
13471SOL    HW246760   6.298   8.752   4.217 -0.0433 -0.4843 -0.8056
13472SOL     OW46761   5.036   8.981   5.175 -0.4876 -0.4890 -0.2453
13472SOL    HW146762   5.038   8.921   5.249  0.9935 -1.1745 -0.7960
13472SOL    HW246763   5.020   8.924   5.099 -1.0512  0.0796 -0.5648
13473SOL     OW46764   2.862   5.653   5.093  0.4508  0.6921 -0.0099
13473SOL    HW146765   2.927   5.671   5.026 -0.0834 -2.9162 -1.7828
13473SOL    HW246766   2.908   5.600   5.158 -0.5452 -2.4200 -1.5807
13474SOL     OW46767   5.271   4.957   0.338 -0.2539 -0.8114 -0.0518
13474SOL    HW146768   5.305   4.868   0.342 -0.3357 -0.7999  2.0012
13474SOL    HW246769   5.332   5.009   0.390 -0.5633  0.2065 -0.6812
13475SOL     OW46770   1.397   7.541   5.875 -0.3835  0.1867  0.3198
13475SOL    HW146771   1.447   7.459   5.884 -0.0131  0.2396 -1.1053
13475SOL    HW246772   1.327   7.533   5.940 -0.2974 -1.2179  0.2706
13476SOL     OW46773   2.246   6.260   5.572  0.7909  0.4714 -0.2203
13476SOL    HW146774   2.314   6.242   5.637  0.1331 -0.3404  0.2596
13476SOL    HW246775   2.224   6.174   5.537 -1.0911  0.4994  0.7648
13477SOL     OW46776   3.001   2.420   7.550 -0.3727 -0.2670 -0.3267
13477SOL    HW146777   2.967   2.401   7.638  0.3713  0.3961  0.1170
13477SOL    HW246778   3.051   2.501   7.561  3.7591 -2.5368 -0.2422
13478SOL     OW46779   5.404   2.185   1.614 -0.6067 -0.3400 -0.6528
13478SOL    HW146780   5.466   2.133   1.664 -2.5166 -0.5115  1.7190
13478SOL    HW246781   5.382   2.130   1.539  0.8845 -0.9135 -0.7041
13479SOL     OW46782   0.903   8.853   8.374  0.2410 -0.0187  0.7937
13479SOL    HW146783   0.828   8.832   8.431 -0.6884  2.0012  0.4229
13479SOL    HW246784   0.980   8.835   8.428 -0.5121 -1.4392  1.4490
13480SOL     OW46785   7.891   2.577   0.403 -0.1309  0.2194  0.7791
13480SOL    HW146786   7.890   2.543   0.314 -1.2327  2.3418 -0.0899
13480SOL    HW246787   7.981   2.603   0.418  0.1916 -0.7164  0.5438
13481SOL     OW46788   8.978   7.672   7.063  0.1827 -0.4462  0.1668
13481SOL    HW146789   9.046   7.609   7.088  0.3212  0.2443  1.6002
13481SOL    HW246790   8.917   7.620   7.010  0.1015 -1.9078  1.6015
13482SOL     OW46791   1.548   8.450   6.023  0.0703 -0.2415 -0.6020
13482SOL    HW146792   1.614   8.385   5.997  0.1498  0.0170 -1.0496
13482SOL    HW246793   1.599   8.525   6.054 -0.0086 -0.9211  1.3307
13483SOL     OW46794   0.595   5.300   1.490  0.0407  0.4704  0.1056
13483SOL    HW146795   0.515   5.255   1.463  1.5801 -2.1233 -0.4728
13483SOL    HW246796   0.592   5.385   1.444 -3.1718  1.2897  1.5493
13484SOL     OW46797   4.684   0.921   8.503  0.7000  0.0891  0.7074
13484SOL    HW146798   4.604   0.873   8.480  0.7701  0.1160  0.4067
13484SOL    HW246799   4.659   1.013   8.496  0.4109  0.1136  1.8078
13485SOL     OW46800   6.438   7.345   5.741 -0.2948 -0.0735 -0.3833
13485SOL    HW146801   6.478   7.259   5.731  0.6781  0.4857 -1.6407
13485SOL    HW246802   6.476   7.381   5.821 -1.7304 -1.3086  0.9172
13486SOL     OW46803   9.078   5.427   5.890 -0.5052 -0.6067  0.4306
13486SOL    HW146804   9.134   5.420   5.967 -0.6389 -0.4981  0.5384
13486SOL    HW246805   9.138   5.445   5.818 -0.5831  1.7308  0.8743
13487SOL     OW46806   7.884   2.175   6.772  0.3905  0.1762  0.0234
13487SOL    HW146807   7.899   2.094   6.723 -1.1206  0.4191 -0.8823
13487SOL    HW246808   7.948   2.237   6.736  0.6620 -0.2221 -0.1917
13488SOL     OW46809   0.500   0.308   4.224 -0.2956 -0.0103 -0.8381
13488SOL    HW146810   0.513   0.386   4.170  1.9306  0.5786  0.3968
13488SOL    HW246811   0.471   0.342   4.309  1.4336 -0.3890 -0.0503
13489SOL     OW46812   8.898   5.151   9.072  0.5369 -0.2598 -0.8404
13489SOL    HW146813   8.897   5.193   8.986 -1.8499  0.7318 -0.4094
13489SOL    HW246814   8.990   5.136   9.090  1.3252  2.3170 -2.2514
13490SOL     OW46815   8.227   1.153   2.198  0.1864  0.3253 -0.3073
13490SOL    HW146816   8.270   1.184   2.119 -1.7412  1.3099 -1.0439
13490SOL    HW246817   8.290   1.093   2.238  1.4751  0.3171 -2.2199
13491SOL     OW46818   7.645   1.546   8.483 -0.3333 -0.3741  0.0436
13491SOL    HW146819   7.723   1.530   8.538 -0.3728  1.1167  0.5690
13491SOL    HW246820   7.673   1.522   8.395  0.0969 -1.7056  0.5106
13492SOL     OW46821   1.841   8.037   5.770 -0.3847 -0.5174  0.5382
13492SOL    HW146822   1.802   7.955   5.740 -0.5131 -0.5747  0.8597
13492SOL    HW246823   1.768   8.088   5.804 -1.0572  1.5000 -3.4026
13493SOL     OW46824   2.222   6.800   2.314 -0.2789 -0.2191 -0.1724
13493SOL    HW146825   2.156   6.758   2.369  2.3230 -1.7476  2.0183
13493SOL    HW246826   2.242   6.736   2.246  0.0293 -0.3834  0.0737
13494SOL     OW46827   8.492   3.153   8.844 -0.5907  0.6114 -0.1733
13494SOL    HW146828   8.527   3.068   8.819  1.8990  1.6563 -0.6233
13494SOL    HW246829   8.436   3.179   8.771 -2.9441 -1.3391  0.7830
13495SOL     OW46830   4.963   8.569   4.410  0.0745  0.0030  0.0263
13495SOL    HW146831   4.980   8.649   4.460  0.4478 -0.8404  1.3146
13495SOL    HW246832   5.048   8.545   4.373  1.0763 -2.0553  3.1945
13496SOL     OW46833   1.951   2.592   1.669  0.3355  0.6033  0.5361
13496SOL    HW146834   2.014   2.663   1.685 -1.6310  2.0800  2.1639
13496SOL    HW246835   1.917   2.610   1.581  0.0202  1.5916  0.8447
13497SOL     OW46836   2.426   5.819   3.756  0.0477 -0.2068 -0.1737
13497SOL    HW146837   2.423   5.794   3.663 -1.6514  0.7732 -0.4273
13497SOL    HW246838   2.444   5.737   3.802  2.0888 -0.5127 -1.4094
13498SOL     OW46839   7.913   4.040   7.810  0.0584  0.1581  0.2872
13498SOL    HW146840   7.947   4.099   7.876  2.0863 -0.6851  0.0621
13498SOL    HW246841   7.989   3.990   7.780 -0.9690 -0.2272 -1.9323
13499SOL     OW46842   0.392   5.915   9.125  0.6350 -0.3365  0.2850
13499SOL    HW146843   0.447   5.876   9.057  1.8501 -1.5968  1.8841
13499SOL    HW246844   0.323   5.851   9.139  0.2071  0.0670  0.0109
13500SOL     OW46845   2.577   3.075   1.368 -0.0819 -0.0810  0.4900
13500SOL    HW146846   2.499   3.094   1.315  0.6744 -0.1024 -0.6655
13500SOL    HW246847   2.549   3.007   1.429 -1.4360  1.0933  1.2582
13501SOL     OW46848   9.051   4.218   4.554  0.3432  0.3959  0.2373
13501SOL    HW146849   8.990   4.250   4.488 -0.1822 -0.1464  0.4488
13501SOL    HW246850   9.051   4.123   4.543  0.1423  0.2867  1.0891
13502SOL     OW46851   8.679   0.361   5.322  0.0771  0.1650  0.1340
13502SOL    HW146852   8.656   0.453   5.323  1.4709  0.5386  0.2747
13502SOL    HW246853   8.621   0.321   5.387 -1.4200  0.6835 -0.8192
13503SOL     OW46854   2.849   6.029   7.074  0.2050  0.2112  0.6386
13503SOL    HW146855   2.755   6.015   7.062  0.4600 -2.1956  0.9704
13503SOL    HW246856   2.875   6.078   6.996 -1.2571  0.6039  0.3573
13504SOL     OW46857   3.340   5.878   8.266 -0.1761  0.2240  0.2773
13504SOL    HW146858   3.366   5.959   8.309 -1.6098  0.9818 -0.2211
13504SOL    HW246859   3.400   5.871   8.191  2.8145 -1.4682  2.5889
13505SOL     OW46860   7.098   6.727   9.196  0.3391 -0.6707 -0.3459
13505SOL    HW146861   7.018   6.773   9.172 -0.5475 -1.4793  0.9520
13505SOL    HW246862   7.099   6.728   9.291  2.9647  1.0912 -0.2916
13506SOL     OW46863   1.634   1.203   7.247  0.1079 -0.3651 -0.3732
13506SOL    HW146864   1.690   1.184   7.323 -0.1681  0.7652  0.1396
13506SOL    HW246865   1.621   1.118   7.205  0.8938 -0.8966  0.4134
13507SOL     OW46866   4.158   6.355   4.124  0.2620  0.5761 -0.3020
13507SOL    HW146867   4.205   6.437   4.109  1.7504  0.0327  1.1227
13507SOL    HW246868   4.206   6.312   4.194 -1.0395 -1.1060 -0.3730
13508SOL     OW46869   9.191   5.614   7.895  0.0227 -0.0200  0.1308
13508SOL    HW146870   9.158   5.529   7.868  0.6397 -0.7336  1.5262
13508SOL    HW246871   9.151   5.676   7.834 -1.2915 -1.1874 -0.2499
13509SOL     OW46872   7.239   2.021   4.775  0.6064  0.8112  0.6707
13509SOL    HW146873   7.204   2.107   4.756  0.8383  1.1117  1.5424
13509SOL    HW246874   7.169   1.975   4.822  1.0078  1.0759  1.5612
13510SOL     OW46875   3.397   3.616   2.901  0.3918  0.2106  0.1825
13510SOL    HW146876   3.476   3.618   2.847  0.4767  6.0820 -0.1843
13510SOL    HW246877   3.427   3.641   2.988 -0.7377 -0.7991  0.8954
13511SOL     OW46878   0.597   6.447   8.189  0.2552  0.0311  0.9962
13511SOL    HW146879   0.677   6.500   8.194 -0.6472  1.7629 -1.5210
13511SOL    HW246880   0.534   6.494   8.244  0.2320  0.0319  0.9686
13512SOL     OW46881   4.563   4.686   1.748  0.0022 -0.0876 -0.0853
13512SOL    HW146882   4.505   4.624   1.704  0.5402 -0.0896 -0.8017
13512SOL    HW246883   4.505   4.733   1.809 -0.3246 -1.5758  0.7989
13513SOL     OW46884   3.538   7.557   4.100  0.1359  0.0335  0.3900
13513SOL    HW146885   3.529   7.462   4.107 -0.3865  0.0745  0.2995
13513SOL    HW246886   3.457   7.591   4.137 -0.2091  0.4122 -0.6847
13514SOL     OW46887   3.326   7.338   3.198  0.3202  0.8691 -0.3136
13514SOL    HW146888   3.320   7.434   3.194  1.2493  0.9386 -0.3556
13514SOL    HW246889   3.373   7.321   3.279  0.6668  0.4788 -0.5931
13515SOL     OW46890   5.514   1.333   5.386  0.1042 -0.1230 -0.0853
13515SOL    HW146891   5.428   1.314   5.426 -0.3787  0.0734 -1.0026
13515SOL    HW246892   5.572   1.268   5.425 -0.7789 -1.2176 -0.5144
13516SOL     OW46893   1.507   2.688   9.106  0.1234  0.3207 -0.1830
13516SOL    HW146894   1.506   2.593   9.102 -0.4009  0.0143  3.8172
13516SOL    HW246895   1.415   2.712   9.118  0.2676  1.3820 -1.0291
13517SOL     OW46896   7.193   2.362   1.710  0.0402  0.2163  0.6654
13517SOL    HW146897   7.145   2.411   1.777  1.7626  0.6155  1.6845
13517SOL    HW246898   7.161   2.272   1.719  1.3404 -0.1137  3.2574
13518SOL     OW46899   7.716   2.996   8.119  0.0101  0.5268 -0.1244
13518SOL    HW146900   7.707   2.925   8.055 -3.1630  0.5276  0.1433
13518SOL    HW246901   7.679   3.072   8.075  2.3321  1.7992  0.0068
13519SOL     OW46902   8.008   1.328   8.386  0.2720  0.2993  0.1481
13519SOL    HW146903   8.041   1.238   8.385  2.0661  0.9016  0.1440
13519SOL    HW246904   7.917   1.321   8.359  0.3161 -1.5282  0.3175
13520SOL     OW46905   1.764   0.139   3.114  0.3852  0.1571  0.4747
13520SOL    HW146906   1.807   0.060   3.146 -0.6884 -1.2697 -1.3569
13520SOL    HW246907   1.756   0.196   3.191 -0.9438 -2.5053  2.4524
13521SOL     OW46908   4.742   8.831   7.558 -0.0852  0.0941 -0.0779
13521SOL    HW146909   4.774   8.883   7.632  1.8656  0.2102 -0.9419
13521SOL    HW246910   4.817   8.824   7.499 -1.6398  0.1751 -2.1777
13522SOL     OW46911   6.381   5.967   3.493 -0.3426 -0.5537  0.0062
13522SOL    HW146912   6.434   5.944   3.417 -1.5266 -0.3164 -0.9153
13522SOL    HW246913   6.444   5.974   3.565  0.7294 -1.2904 -0.8352
13523SOL     OW46914   2.095   2.191   5.604 -0.2660 -0.1944 -0.3756
13523SOL    HW146915   2.186   2.218   5.616 -0.3041 -0.2139 -0.0265
13523SOL    HW246916   2.094   2.098   5.624 -0.5036 -0.0349  0.4071
13524SOL     OW46917   2.909   5.237   1.265  0.0733  0.5167  0.1022
13524SOL    HW146918   2.900   5.177   1.339 -2.0486  2.0187  1.1678
13524SOL    HW246919   2.966   5.307   1.298 -0.1410  0.7397  0.0018
13525SOL     OW46920   5.788   0.612   5.310 -0.2059  0.0550 -0.2791
13525SOL    HW146921   5.727   0.649   5.373 -1.3667 -0.6179 -0.9634
13525SOL    HW246922   5.869   0.599   5.359 -1.7627 -2.7569  1.8377
13526SOL     OW46923   5.698   2.642   5.424  0.0378  0.0634 -0.3532
13526SOL    HW146924   5.752   2.624   5.347 -2.2645  0.4926 -2.1729
13526SOL    HW246925   5.627   2.697   5.392 -0.2571  1.5227  2.4070
13527SOL     OW46926   2.294   5.521   5.308  0.0176  0.1442 -0.6791
13527SOL    HW146927   2.256   5.469   5.379  1.5177 -0.7200 -0.4747
13527SOL    HW246928   2.388   5.521   5.325  0.0408  3.8794 -0.0579
13528SOL     OW46929   1.304   4.802   1.290 -0.4061  0.1532 -0.0184
13528SOL    HW146930   1.331   4.779   1.379 -2.2577  0.5271  0.6967
13528SOL    HW246931   1.384   4.830   1.246  0.6688 -0.7624  1.2904
13529SOL     OW46932   3.718   6.698   7.974  1.3134  0.5744 -0.1511
13529SOL    HW146933   3.673   6.767   8.021  0.3372  0.4596 -0.8889
13529SOL    HW246934   3.782   6.743   7.919 -0.8256  1.1506 -2.3315
13530SOL     OW46935   0.526   8.544   5.597 -0.4477 -0.1550  0.1777
13530SOL    HW146936   0.515   8.538   5.502  0.9320  0.8965 -0.0874
13530SOL    HW246937   0.485   8.627   5.621 -2.9057 -1.4891  0.9182
13531SOL     OW46938   1.287   5.076   7.146  0.1471 -0.2669 -0.4848
13531SOL    HW146939   1.355   5.017   7.178  1.1837 -1.4477 -4.3835
13531SOL    HW246940   1.237   5.024   7.083 -2.7560  1.3677  0.2597
13532SOL     OW46941   8.227   7.511   3.587 -0.0146  0.6436  0.3091
13532SOL    HW146942   8.243   7.593   3.540 -0.4422  0.9047  0.6097
13532SOL    HW246943   8.277   7.445   3.539 -1.9808  0.5090 -1.7166
13533SOL     OW46944   6.484   8.995   7.097 -0.1450  0.2020  0.1971
13533SOL    HW146945   6.548   9.032   7.158  0.1781  1.1063 -0.6678
13533SOL    HW246946   6.502   8.901   7.098  0.8267  0.3792  0.3865
13534SOL     OW46947   2.904   2.404   1.936 -0.6454  0.4090  0.3011
13534SOL    HW146948   2.945   2.489   1.951 -0.1339  0.0706  0.8450
13534SOL    HW246949   2.915   2.389   1.842  0.1578  0.4847  0.3791
13535SOL     OW46950   0.367   2.883   8.581 -0.4172 -0.7097  0.1262
13535SOL    HW146951   0.332   2.848   8.499  1.2337 -0.3182 -0.8097
13535SOL    HW246952   0.374   2.977   8.565 -0.7107 -0.5319  0.9906
13536SOL     OW46953   9.093   0.476   6.454 -0.6212  0.0193  0.7707
13536SOL    HW146954   9.081   0.563   6.417  0.9832  0.3602  0.9838
13536SOL    HW246955   9.098   0.490   6.548 -3.1673 -0.6669  1.0774
13537SOL     OW46956   3.070   3.527   8.415 -0.3012 -0.2298  0.5949
13537SOL    HW146957   2.975   3.534   8.414 -0.3342 -0.4995  1.4332
13537SOL    HW246958   3.100   3.614   8.442 -0.2222  0.4252 -1.4461
13538SOL     OW46959   1.739   7.284   7.191 -1.1689 -0.0139 -0.2250
13538SOL    HW146960   1.814   7.249   7.240 -2.2738 -2.0199  0.1700
13538SOL    HW246961   1.664   7.272   7.251 -2.3370 -1.2557 -1.8343
13539SOL     OW46962   1.040   0.164   4.046  0.2142 -0.6306 -0.0378
13539SOL    HW146963   1.005   0.192   3.961 -0.0216  2.0750  0.8564
13539SOL    HW246964   1.124   0.208   4.053  0.2279 -0.8137  1.1300
13540SOL     OW46965   3.063   5.435   2.413  0.1423  0.5454 -0.0058
13540SOL    HW146966   3.091   5.363   2.470  0.3121  0.9865  0.4724
13540SOL    HW246967   3.039   5.506   2.473 -2.1361  0.1607 -0.3874
13541SOL     OW46968   3.921   4.930   8.589  0.3102 -0.0699  0.1699
13541SOL    HW146969   3.834   4.939   8.551  0.7193  0.5955 -0.6556
13541SOL    HW246970   3.943   4.838   8.578 -0.5862 -0.4050  1.0786
13542SOL     OW46971   7.354   0.744   5.159  0.3127  0.0073  0.3605
13542SOL    HW146972   7.310   0.791   5.230 -0.6742  0.5069 -0.5657
13542SOL    HW246973   7.423   0.804   5.130 -1.5562  1.4037 -1.4739
13543SOL     OW46974   8.911   7.543   7.921 -0.1893  0.2469  0.0451
13543SOL    HW146975   8.933   7.622   7.872  1.5358 -1.2394 -1.7304
13543SOL    HW246976   8.971   7.543   7.996  0.2694  0.2933 -0.3195
13544SOL     OW46977   5.866   6.549   6.724 -0.5434 -0.6891 -0.3405
13544SOL    HW146978   5.921   6.625   6.705 -1.2138  0.1229  0.8472
13544SOL    HW246979   5.920   6.495   6.781  0.2415 -1.5399 -1.8298
13545SOL     OW46980   6.594   3.718   1.242  0.6560 -0.3408  0.1112
13545SOL    HW146981   6.635   3.771   1.310 -1.2075 -0.7342  1.6391
13545SOL    HW246982   6.663   3.705   1.176  2.5849 -0.0639  1.9668
13546SOL     OW46983   8.820   1.908   0.235 -0.3794  0.2941 -0.5011
13546SOL    HW146984   8.778   1.824   0.252 -1.3818  0.4727 -1.9328
13546SOL    HW246985   8.772   1.944   0.160 -0.1929  2.2906  0.2804
13547SOL     OW46986   3.535   4.728   5.916 -0.2759  0.1427  0.8237
13547SOL    HW146987   3.481   4.717   5.995  0.3737 -1.9006  1.0367
13547SOL    HW246988   3.591   4.803   5.936 -2.5638  1.9609  0.8342
13548SOL     OW46989   3.752   5.506   0.638 -0.5790  0.0156  0.4365
13548SOL    HW146990   3.706   5.580   0.598 -0.7743 -0.8661 -1.0960
13548SOL    HW246991   3.839   5.540   0.659 -0.6702  0.6886 -0.2242
13549SOL     OW46992   0.691   4.620   0.087 -0.1214 -0.3502 -0.0551
13549SOL    HW146993   0.699   4.526   0.072 -1.2200 -0.2364 -1.5221
13549SOL    HW246994   0.781   4.653   0.081  0.1872 -1.1969 -0.2483
13550SOL     OW46995   3.603   2.327   2.173  0.4675 -0.1991 -0.0338
13550SOL    HW146996   3.623   2.281   2.254 -0.0582  0.9089  0.7579
13550SOL    HW246997   3.682   2.317   2.119  0.5502 -1.5515  0.3104
13551SOL     OW46998   7.224   7.428   8.843  0.1283 -0.0304  0.2604
13551SOL    HW146999   7.214   7.485   8.767  1.2398  0.2912  0.3338
13551SOL    HW247000   7.318   7.430   8.862  0.1208 -1.4853  0.5760
13552SOL     OW47001   5.080   2.042   8.617  0.1858 -0.3995 -0.3439
13552SOL    HW147002   4.998   1.993   8.623  1.2962 -2.2188  1.3783
13552SOL    HW247003   5.141   1.981   8.574  0.2242  1.6534 -3.5691
13553SOL     OW47004   1.348   7.812   4.664  0.5198  0.2989  0.0886
13553SOL    HW147005   1.363   7.903   4.689 -1.2835  0.4251  0.9110
13553SOL    HW247006   1.308   7.817   4.577 -0.4240  0.3836  0.5111
13554SOL     OW47007   3.923   9.240   0.667  0.3472 -0.5348  0.4816
13554SOL    HW147008   3.918   9.334   0.683  2.1901 -0.7434  2.9019
13554SOL    HW247009   3.847   9.204   0.711  1.0498 -0.3552  1.9011
13555SOL     OW47010   6.608   8.636   1.371  0.3513 -0.2491  0.2568
13555SOL    HW147011   6.516   8.632   1.346  0.1624  0.0274  0.8927
13555SOL    HW247012   6.614   8.583   1.451  0.5288  0.5944  0.8131
13556SOL     OW47013   4.344   1.168   3.205  0.0316  0.4379 -0.2989
13556SOL    HW147014   4.373   1.224   3.133 -0.4968  0.9001 -0.1651
13556SOL    HW247015   4.331   1.228   3.279  0.2853  0.0139  0.0975
13557SOL     OW47016   4.100   5.210   5.954 -0.3020 -0.6490  0.5016
13557SOL    HW147017   4.039   5.284   5.949 -0.1263 -0.5416 -0.1937
13557SOL    HW247018   4.183   5.249   5.981  0.4762 -0.1377 -2.3558
13558SOL     OW47019   0.247   4.468   3.144 -0.1034  0.5724 -0.3262
13558SOL    HW147020   0.298   4.535   3.189  1.8975  0.9296 -2.8970
13558SOL    HW247021   0.183   4.518   3.093 -1.5603  0.2285  1.0797
13559SOL     OW47022   4.583   8.991   6.112  0.3461 -0.8330 -0.0772
13559SOL    HW147023   4.538   8.961   6.192  1.5394  0.2546  1.0531
13559SOL    HW247024   4.624   9.074   6.138 -0.3720  0.2554 -2.2391
13560SOL     OW47025   7.995   8.686   5.173  0.6238 -0.1721 -0.3009
13560SOL    HW147026   7.937   8.755   5.206 -1.4871 -1.3364 -1.3417
13560SOL    HW247027   8.016   8.713   5.083  1.3068 -0.0041 -0.0960
13561SOL     OW47028   0.893   1.860   8.906  0.3724  0.0665 -0.1521
13561SOL    HW147029   0.962   1.905   8.858  0.5576 -0.0792 -0.0249
13561SOL    HW247030   0.876   1.917   8.981 -1.4600  1.4268 -1.5088
13562SOL     OW47031   5.834   1.733   7.972  0.2060 -0.3366  0.2037
13562SOL    HW147032   5.902   1.800   7.958 -0.8624  0.9379  0.8399
13562SOL    HW247033   5.821   1.694   7.886  1.8154 -0.6824  0.0964
13563SOL     OW47034   4.494   0.261   1.585 -0.1696 -0.4720 -0.3064
13563SOL    HW147035   4.542   0.322   1.529  0.4933 -1.5834 -0.9816
13563SOL    HW247036   4.551   0.184   1.590  0.2239 -0.1251  2.5728
13564SOL     OW47037   9.065   4.542   5.079 -0.4612 -0.1649 -0.2271
13564SOL    HW147038   9.148   4.542   5.126 -2.1205  0.2675  3.0129
13564SOL    HW247039   9.078   4.482   5.005  2.9131  0.5677 -0.3687
13565SOL     OW47040   4.177   2.694   1.109 -0.4032  0.1891 -0.4849
13565SOL    HW147041   4.167   2.713   1.202  1.4125  1.2499 -0.4688
13565SOL    HW247042   4.231   2.615   1.107 -0.2932  0.2689 -0.6451
13566SOL     OW47043   3.226   1.265   4.092 -0.0169 -0.4994 -0.1307
13566SOL    HW147044   3.267   1.326   4.152 -0.2100 -2.0339  1.6528
13566SOL    HW247045   3.162   1.218   4.145 -0.7116 -1.4194 -1.7113
13567SOL     OW47046   6.540   1.246   8.793  0.0280  0.2991 -0.8972
13567SOL    HW147047   6.506   1.327   8.755  2.7472  1.9485 -0.0622
13567SOL    HW247048   6.608   1.217   8.732 -1.1139 -1.6077 -1.3471
13568SOL     OW47049   7.387   2.560   0.040  0.1036  0.4764 -0.1212
13568SOL    HW147050   7.394   2.478   0.090  1.9744  0.0207 -1.0188
13568SOL    HW247051   7.402   2.629   0.104  0.0728  0.0201  0.3837
13569SOL     OW47052   0.839   7.898   1.573  0.3083 -0.0241 -0.1017
13569SOL    HW147053   0.931   7.910   1.550  0.1343  0.4944 -0.5302
13569SOL    HW247054   0.819   7.971   1.631 -0.1462  0.5294 -0.9411
13570SOL     OW47055   9.008   4.238   6.883 -0.4101 -0.3425  0.2874
13570SOL    HW147056   8.940   4.193   6.934 -0.3356  0.5408  1.2021
13570SOL    HW247057   9.084   4.241   6.941 -0.2505  0.4845  0.0538
13571SOL     OW47058   4.241   2.698   4.487 -0.1263  0.4837  0.4689
13571SOL    HW147059   4.291   2.777   4.506 -1.2992  0.8499  2.3159
13571SOL    HW247060   4.192   2.718   4.408 -0.2410  1.5347  0.7945
13572SOL     OW47061   3.874   4.393   3.270 -0.1926  0.1074 -0.6125
13572SOL    HW147062   3.830   4.364   3.350 -0.0638 -0.0854 -0.6088
13572SOL    HW247063   3.805   4.394   3.204 -0.1757 -0.3303 -0.6399
13573SOL     OW47064   9.089   5.250   7.236  0.3505  0.3166 -0.6093
13573SOL    HW147065   9.077   5.275   7.328  0.4409 -0.0540 -0.4983
13573SOL    HW247066   9.070   5.157   7.233  1.1760  0.1478 -0.8074
13574SOL     OW47067   7.222   8.971   5.850 -0.1926  0.8304  0.3169
13574SOL    HW147068   7.187   9.056   5.879 -0.4307  1.4869 -1.7256
13574SOL    HW247069   7.316   8.979   5.863 -0.3138  0.9075  1.2880
13575SOL     OW47070   2.258   7.497   3.611 -0.2074 -0.3236 -0.1352
13575SOL    HW147071   2.314   7.573   3.597 -0.2834 -0.6138 -2.3638
13575SOL    HW247072   2.170   7.528   3.592 -0.0459 -1.3210 -2.9806
13576SOL     OW47073   0.140   2.696   4.581 -0.4642  0.0474 -0.0482
13576SOL    HW147074   0.156   2.748   4.502 -0.1882  1.1196  0.6904
13576SOL    HW247075   0.121   2.761   4.649 -1.0513 -0.8788  0.6864
13577SOL     OW47076   5.223   1.813   5.229 -0.1195  0.4631  0.2357
13577SOL    HW147077   5.301   1.757   5.222  1.1077  2.1692 -0.3749
13577SOL    HW247078   5.167   1.785   5.156 -0.0723 -0.7521  0.6500
13578SOL     OW47079   1.698   3.069   5.422 -0.6568  0.1188  0.0526
13578SOL    HW147080   1.636   3.046   5.353 -0.4804  0.1483 -0.1134
13578SOL    HW247081   1.645   3.067   5.502 -0.8353 -0.0209 -0.0675
13579SOL     OW47082   1.359   1.140   0.470 -0.1364  0.2214  0.6912
13579SOL    HW147083   1.289   1.205   0.479 -0.8808 -0.3822 -0.5664
13579SOL    HW247084   1.362   1.096   0.555 -2.3505 -0.7591  0.3216
13580SOL     OW47085   3.387   2.290   7.317  0.0205  0.1457  0.1043
13580SOL    HW147086   3.357   2.377   7.345 -1.2770 -0.0311 -0.6427
13580SOL    HW247087   3.459   2.269   7.376 -0.2533  1.3337  0.8991
13581SOL     OW47088   2.607   6.251   7.028  0.0906  0.2769 -0.1178
13581SOL    HW147089   2.656   6.323   6.987 -1.4007  0.7959 -1.0587
13581SOL    HW247090   2.565   6.206   6.954  0.1103 -0.8916  0.5614
13582SOL     OW47091   1.780   6.719   7.255 -0.0436 -0.3172 -0.0723
13582SOL    HW147092   1.707   6.663   7.227 -0.4648 -0.7223  1.7053
13582SOL    HW247093   1.746   6.767   7.330  0.4114  2.1595 -1.3726
13583SOL     OW47094   1.805   0.261   5.729  0.2575  0.7229  0.5880
13583SOL    HW147095   1.758   0.261   5.645  1.2304 -0.5895  0.0112
13583SOL    HW247096   1.794   0.172   5.762  0.3150  1.0903  1.6230
13584SOL     OW47097   7.151   1.615   0.245 -0.3735  0.3430 -0.0492
13584SOL    HW147098   7.086   1.628   0.314 -0.9129 -0.2074 -0.4491
13584SOL    HW247099   7.139   1.688   0.185 -0.0543  0.7001  0.3176
13585SOL     OW47100   3.844   2.281   8.542  0.0430 -0.0204  0.2544
13585SOL    HW147101   3.764   2.328   8.519  0.6582  0.4909 -0.8708
13585SOL    HW247102   3.829   2.192   8.510 -0.8676 -0.4839  1.8367
13586SOL     OW47103   5.635   6.718   7.350 -0.0600  0.1018 -0.6326
13586SOL    HW147104   5.618   6.803   7.390  1.4877 -0.1670  0.7206
13586SOL    HW247105   5.731   6.710   7.351 -0.1735 -1.7018 -0.6300
13587SOL     OW47106   3.654   8.494   5.615  0.5443  0.1969 -0.2633
13587SOL    HW147107   3.569   8.469   5.579  0.8916 -1.5223  0.0502
13587SOL    HW247108   3.646   8.476   5.709  1.5986 -1.0588 -0.3940
13588SOL     OW47109   1.116   7.010   3.489  0.0137  0.1128 -0.0244
13588SOL    HW147110   1.153   7.011   3.401  2.1453  2.4251  0.7845
13588SOL    HW247111   1.167   6.944   3.536  0.5510  0.6099  0.0974
13589SOL     OW47112   0.346   4.429   3.905 -0.0232  0.1886  0.4543
13589SOL    HW147113   0.306   4.454   3.821 -0.3535 -0.9428  0.2570
13589SOL    HW247114   0.440   4.431   3.887 -0.0703  0.4262  0.2050
13590SOL     OW47115   4.144   8.567   2.214 -0.7300 -0.5883  0.1534
13590SOL    HW147116   4.085   8.528   2.278  0.8154  1.4661  3.0968
13590SOL    HW247117   4.093   8.640   2.176 -0.7327  0.0243  1.2943
13591SOL     OW47118   5.488   8.576   0.920 -1.0170  0.0170 -0.3393
13591SOL    HW147119   5.460   8.658   0.878 -1.2527 -0.3368 -0.8870
13591SOL    HW247120   5.583   8.583   0.925 -1.1460  1.0413  1.1280
13592SOL     OW47121   3.678   6.760   8.480  0.5054 -0.0208  0.1692
13592SOL    HW147122   3.647   6.673   8.456  0.7412 -0.8926  2.7179
13592SOL    HW247123   3.770   6.761   8.452  0.0500  0.1184 -1.4375
13593SOL     OW47124   1.011   5.303   8.093 -0.1673 -0.1731  0.7176
13593SOL    HW147125   1.079   5.251   8.135 -0.6306 -0.9404  0.5240
13593SOL    HW247126   0.946   5.316   8.162 -0.5695 -0.7885  0.4566
13594SOL     OW47127   5.249   7.472   7.197  0.2423  0.4775 -0.0676
13594SOL    HW147128   5.329   7.487   7.147 -0.4341  0.1345 -1.2746
13594SOL    HW247129   5.260   7.385   7.235  1.8268  1.6793  2.4892
13595SOL     OW47130   7.090   4.735   7.328  0.0584 -0.4516 -0.0288
13595SOL    HW147131   7.028   4.710   7.260  0.7260 -0.6522 -0.5753
13595SOL    HW247132   7.046   4.805   7.376 -0.2576 -0.0279 -0.9139
13596SOL     OW47133   2.133   7.840   7.974  0.0268  0.0513 -0.7551
13596SOL    HW147134   2.193   7.773   7.943 -0.9288 -1.5133  0.6458
13596SOL    HW247135   2.049   7.818   7.934 -0.8580 -1.0874  1.5284
13597SOL     OW47136   2.718   6.782   7.447 -0.4193  0.3876  0.1212
13597SOL    HW147137   2.639   6.829   7.473 -0.4804  0.2702  0.1476
13597SOL    HW247138   2.779   6.794   7.520  0.3627  2.2588 -0.7706
13598SOL     OW47139   9.039   8.574   5.384  0.2227  0.0232 -0.2717
13598SOL    HW147140   9.094   8.566   5.305  0.0363 -0.5146 -0.3565
13598SOL    HW247141   9.100   8.598   5.453  0.3743  0.6010 -0.6005
13599SOL     OW47142   7.660   3.036   2.860 -0.1694 -0.1503  0.2934
13599SOL    HW147143   7.644   2.942   2.876 -0.4837  0.0207  1.0454
13599SOL    HW247144   7.693   3.040   2.771  0.6619 -1.0710  0.5458
13600SOL     OW47145   6.147   5.478   8.711 -0.2867 -0.3503  0.4188
13600SOL    HW147146   6.236   5.459   8.739 -0.1836 -0.3745  0.0811
13600SOL    HW247147   6.098   5.491   8.792 -0.1024 -0.9100  0.6182
13601SOL     OW47148   8.380   4.564   9.190  0.6512 -0.0929  0.4509
13601SOL    HW147149   8.438   4.559   9.114  0.2016 -0.6174  0.1387
13601SOL    HW247150   8.398   4.650   9.228  0.2375  0.5564 -0.7725
13602SOL     OW47151   4.760   5.650   9.182  0.1639 -0.1865  0.0042
13602SOL    HW147152   4.726   5.646   9.271  0.4451 -0.0514  0.1163
13602SOL    HW247153   4.817   5.727   9.181  2.4190 -1.7456  0.5076
13603SOL     OW47154   5.422   0.765   8.897 -0.1110  0.1249  0.4823
13603SOL    HW147155   5.392   0.675   8.907 -0.2997  0.1833  0.4414
13603SOL    HW247156   5.433   0.797   8.987  1.4301 -0.4210  0.5286
13604SOL     OW47157   2.740   1.310   2.755 -0.0304 -0.0145  0.0918
13604SOL    HW147158   2.704   1.221   2.754 -0.6635  0.2147  0.8178
13604SOL    HW247159   2.833   1.299   2.739  0.0010 -0.8738  0.7939
13605SOL     OW47160   7.304   4.963   6.556 -0.4206  0.5284 -0.6997
13605SOL    HW147161   7.395   4.954   6.527 -0.5786  0.1250 -1.0684
13605SOL    HW247162   7.309   5.025   6.629  0.0257  1.2525 -1.3265
13606SOL     OW47163   4.414   1.588   7.440  0.2743 -0.4629 -0.0261
13606SOL    HW147164   4.495   1.619   7.481 -0.1079 -0.1243  0.4837
13606SOL    HW247165   4.365   1.547   7.511 -1.8276  2.9403  0.6815
13607SOL     OW47166   7.415   2.883   0.602  0.2312 -0.5973  0.4087
13607SOL    HW147167   7.442   2.975   0.594  0.1294 -0.6754 -1.3704
13607SOL    HW247168   7.494   2.833   0.581  0.1661 -0.9183  0.9150
13608SOL     OW47169   7.454   7.797   6.953  0.0626  0.0109  0.7586
13608SOL    HW147170   7.492   7.713   6.979  0.7584  0.0900  0.0598
13608SOL    HW247171   7.485   7.810   6.863  0.2596  1.1771  0.9738
13609SOL     OW47172   6.590   5.747   6.619 -0.2753  0.2823 -0.1742
13609SOL    HW147173   6.555   5.777   6.703  1.6376  0.6031  0.5673
13609SOL    HW247174   6.615   5.655   6.635 -0.0225  0.3074 -0.4121
13610SOL     OW47175   3.785   0.463   3.190 -0.3455 -0.0757 -0.7967
13610SOL    HW147176   3.842   0.394   3.223  0.9077  1.1444 -0.3213
13610SOL    HW247177   3.807   0.472   3.098 -0.8929 -0.6564 -0.9909
13611SOL     OW47178   6.434   4.881   3.402  0.5107  0.4979  0.2392
13611SOL    HW147179   6.458   4.867   3.311  0.7434 -0.7865  0.4793
13611SOL    HW247180   6.338   4.876   3.403  0.5579 -1.2949  0.2966
13612SOL     OW47181   7.386   5.332   1.274 -0.4060 -0.1725  0.1288
13612SOL    HW147182   7.316   5.273   1.248 -0.3083 -0.9574  1.5699
13612SOL    HW247183   7.452   5.323   1.205 -0.5140 -1.5412  0.1891
13613SOL     OW47184   5.548   0.405   4.691 -0.3048  0.4771 -0.3401
13613SOL    HW147185   5.523   0.316   4.664  0.0668 -0.0953  1.0865
13613SOL    HW247186   5.601   0.391   4.770 -0.4939  1.9996  0.0730
13614SOL     OW47187   0.444   4.898   2.246  0.3024  0.0023  0.2492
13614SOL    HW147188   0.484   4.938   2.168  1.1703 -0.7980  0.2660
13614SOL    HW247189   0.420   4.972   2.301 -2.1350  0.7004 -1.6053
13615SOL     OW47190   5.641   1.781   6.222  0.5445 -0.7585 -0.1978
13615SOL    HW147191   5.650   1.783   6.126 -2.6601  0.7556 -0.5708
13615SOL    HW247192   5.601   1.696   6.240  0.5942 -0.7932 -0.2473
13616SOL     OW47193   6.482   7.502   1.397  0.1168  0.4688 -0.2698
13616SOL    HW147194   6.516   7.414   1.417 -3.1067 -1.1928 -1.4445
13616SOL    HW247195   6.453   7.536   1.482  1.1056  0.3158  0.1493
13617SOL     OW47196   8.386   0.870   9.103 -0.6321 -0.2406  0.2097
13617SOL    HW147197   8.406   0.815   9.179  0.2727  0.2970  0.3775
13617SOL    HW247198   8.417   0.957   9.128  0.1863 -0.1571 -0.9687
13618SOL     OW47199   0.476   4.983   5.522 -0.4244  0.5515 -0.1032
13618SOL    HW147200   0.420   5.031   5.462  1.1887 -0.3397 -2.4585
13618SOL    HW247201   0.425   4.905   5.546 -0.7458  0.4332 -1.1258
13619SOL     OW47202   7.047   1.843   3.225 -0.2666  0.5559  0.3003
13619SOL    HW147203   7.059   1.899   3.302 -1.8198 -0.9838  1.7482
13619SOL    HW247204   7.065   1.901   3.151  2.0123  1.9061  1.7866
13620SOL     OW47205   5.482   8.873   6.826  0.6372  0.2606 -0.4697
13620SOL    HW147206   5.428   8.921   6.889  0.5808 -0.2371 -0.1371
13620SOL    HW247207   5.548   8.829   6.880  0.3887 -0.4362 -0.7274
13621SOL     OW47208   7.913   5.551   6.729 -0.4826  0.0086 -0.0175
13621SOL    HW147209   7.853   5.540   6.803  1.3191  1.0955  1.7403
13621SOL    HW247210   7.996   5.515   6.761  0.2307  0.0253 -1.7406
13622SOL     OW47211   3.455   7.018   6.074  0.2350  0.2754 -0.7241
13622SOL    HW147212   3.492   6.981   5.994  0.9825 -0.8135  0.0843
13622SOL    HW247213   3.362   7.027   6.056 -0.0447 -2.2627 -0.9345
13623SOL     OW47214   2.907   1.652   0.087  0.1467 -0.2117  0.4720
13623SOL    HW147215   2.980   1.687   0.139 -0.8630  1.0896  1.0825
13623SOL    HW247216   2.922   1.558   0.085  0.8956 -0.1668  2.1104
13624SOL     OW47217   4.369   3.791   5.514 -0.3958 -0.4329  0.0106
13624SOL    HW147218   4.330   3.826   5.594 -1.5683 -2.1085  0.2299
13624SOL    HW247219   4.417   3.714   5.543 -0.9283 -1.1271 -0.8984
13625SOL     OW47220   3.314   7.086   6.653  0.0002  0.6645 -0.1069
13625SOL    HW147221   3.240   7.093   6.593  0.4138  1.7368 -0.5026
13625SOL    HW247222   3.275   7.057   6.735 -0.8867  1.3110 -0.2849
13626SOL     OW47223   6.976   0.425   6.507  0.2916 -0.2525  0.8320
13626SOL    HW147224   7.002   0.490   6.442 -2.1283 -0.6069 -0.6436
13626SOL    HW247225   6.976   0.473   6.590 -1.1130  1.5950 -0.1530
13627SOL     OW47226   4.625   6.913   5.318  0.4310 -0.0205 -0.2449
13627SOL    HW147227   4.550   6.879   5.366  1.0159 -0.2077  0.5560
13627SOL    HW247228   4.609   6.888   5.227 -0.7704  0.4849 -0.1887
13628SOL     OW47229   4.336   7.822   0.361 -0.1853 -0.2365 -0.3458
13628SOL    HW147230   4.308   7.844   0.273 -0.4085  0.2872 -0.1436
13628SOL    HW247231   4.422   7.862   0.370 -0.7114  0.8120  0.1201
13629SOL     OW47232   5.335   6.025   3.196 -0.7302  0.1779 -0.4136
13629SOL    HW147233   5.244   6.052   3.204 -0.5582  0.7762 -0.4553
13629SOL    HW247234   5.372   6.040   3.283 -1.0361 -1.4933  0.0535
13630SOL     OW47235   5.524   2.616   8.826 -0.3092  0.4685 -0.2079
13630SOL    HW147236   5.439   2.589   8.859 -0.7843  0.9672 -0.9811
13630SOL    HW247237   5.555   2.543   8.773  1.2826 -1.1024  2.6728
13631SOL     OW47238   0.505   2.216   7.365 -0.8167  0.0759 -0.6738
13631SOL    HW147239   0.484   2.124   7.380  0.5576 -0.1591 -0.0152
13631SOL    HW247240   0.556   2.216   7.283  0.2806  0.0592 -0.0160
13632SOL     OW47241   5.993   7.771   5.128 -0.5317 -0.3124 -0.4723
13632SOL    HW147242   6.074   7.808   5.162  1.7313 -1.5891 -3.8941
13632SOL    HW247243   5.925   7.802   5.188  2.2830  1.7871  1.9340
13633SOL     OW47244   5.352   5.416   2.100 -0.1609  0.5301 -0.2355
13633SOL    HW147245   5.353   5.510   2.084 -0.0382  0.5565 -0.0866
13633SOL    HW247246   5.425   5.402   2.160 -0.2010  0.3446 -0.2293
13634SOL     OW47247   8.227   2.416   3.071  0.2128  0.4064 -0.0737
13634SOL    HW147248   8.223   2.466   3.153 -0.1768 -0.3270  0.3776
13634SOL    HW247249   8.266   2.332   3.097 -1.6186 -0.5584 -0.2256
13635SOL     OW47250   6.057   4.105   1.632  0.4936 -0.3159  0.1938
13635SOL    HW147251   6.030   4.158   1.557  1.4694 -0.2298 -0.1061
13635SOL    HW247252   5.980   4.104   1.690  0.0136  0.2942 -0.4238
13636SOL     OW47253   3.896   7.542   5.355 -0.2154 -0.7201  0.5199
13636SOL    HW147254   3.817   7.512   5.400 -1.0816  0.6281 -0.0231
13636SOL    HW247255   3.947   7.587   5.422 -1.4428  1.1741  0.2518
13637SOL     OW47256   3.135   6.043   4.214 -0.1603 -0.1546 -0.2585
13637SOL    HW147257   3.161   6.098   4.141  0.8882 -0.7953 -0.3933
13637SOL    HW247258   3.040   6.055   4.222  0.1005  2.0714  0.0788
13638SOL     OW47259   7.518   2.123   2.843 -0.0566  0.0106  0.2536
13638SOL    HW147260   7.492   2.160   2.758 -1.5083  1.5942  1.3264
13638SOL    HW247261   7.589   2.062   2.821  0.2394  1.0326 -1.9970
13639SOL     OW47262   7.785   6.817   0.811 -0.0532  0.2150  0.1237
13639SOL    HW147263   7.874   6.850   0.796  1.0262 -1.7618  1.7029
13639SOL    HW247264   7.779   6.808   0.906 -2.2318  0.9618  0.1055
13640SOL     OW47265   8.288   8.794   0.069 -0.2134 -0.4204 -0.2907
13640SOL    HW147266   8.375   8.769   0.100 -0.1205 -1.1946 -1.1357
13640SOL    HW247267   8.287   8.889   0.073  0.5678 -0.4168  0.0025
13641SOL     OW47268   2.625   5.137   4.798  0.2972 -0.0279 -0.1821
13641SOL    HW147269   2.607   5.084   4.875 -0.5729 -0.4621 -0.6644
13641SOL    HW247270   2.570   5.099   4.729 -0.5469  1.6235 -0.4871
13642SOL     OW47271   0.699   4.009   5.562 -1.1350  0.4887 -0.1284
13642SOL    HW147272   0.754   3.933   5.542 -0.4344  0.9495  0.0137
13642SOL    HW247273   0.705   4.063   5.484 -0.0553  1.3135  0.4989
13643SOL     OW47274   5.158   2.634   2.364  0.4186  0.4324 -0.4841
13643SOL    HW147275   5.116   2.580   2.297  1.4288 -1.8140  0.6004
13643SOL    HW247276   5.236   2.585   2.389  0.4867  1.5824  1.7857
13644SOL     OW47277   7.715   1.685   4.522 -0.8180 -0.1261  0.2414
13644SOL    HW147278   7.732   1.653   4.610  0.4261  0.4578  0.2303
13644SOL    HW247279   7.680   1.774   4.535  1.6520  0.9400  0.1321
13645SOL     OW47280   0.201   5.832   7.746  0.4584 -0.5214 -0.2586
13645SOL    HW147281   0.175   5.868   7.831 -1.3975 -0.5916 -0.7477
13645SOL    HW247282   0.273   5.888   7.717  1.0102 -0.3875  1.2549
13646SOL     OW47283   5.978   0.597   8.367 -0.9899  0.9553  0.4251
13646SOL    HW147284   5.993   0.502   8.365 -0.0440  1.0642 -2.0889
13646SOL    HW247285   5.965   0.618   8.459 -2.0156 -1.7201  0.9883
13647SOL     OW47286   8.996   1.234   0.877 -0.3431 -0.2421  0.4707
13647SOL    HW147287   9.034   1.241   0.790 -1.4798  0.1189 -0.0253
13647SOL    HW247288   9.071   1.231   0.937  0.4456 -0.2632 -0.4983
13648SOL     OW47289   4.878   4.832   5.143 -0.7385 -0.1758  0.2638
13648SOL    HW147290   4.816   4.865   5.078 -0.9842  0.2156  0.6926
13648SOL    HW247291   4.824   4.794   5.212 -0.4628 -1.2030 -0.0687
13649SOL     OW47292   3.167   7.698   2.029  0.8915 -0.0145  0.5115
13649SOL    HW147293   3.225   7.772   2.048 -0.5540  1.1508  0.5842
13649SOL    HW247294   3.212   7.622   2.067  1.2889  1.1844  2.6094
13650SOL     OW47295   6.979   5.027   2.801  0.1061  0.1901 -0.1181
13650SOL    HW147296   6.919   4.965   2.843  1.7648 -1.9509 -0.7308
13650SOL    HW247297   7.065   5.004   2.836  0.7391  2.5155 -0.0231
13651SOL     OW47298   8.820   2.753   1.283  0.4297  1.0518  0.8136
13651SOL    HW147299   8.817   2.848   1.295 -0.4174  1.1336  0.0708
13651SOL    HW247300   8.736   2.731   1.241 -0.1077 -0.2463  2.4441
13652SOL     OW47301   0.096   3.794   4.392 -0.0583 -0.6273 -0.2214
13652SOL    HW147302   0.011   3.812   4.431  0.8174  1.6389  0.8261
13652SOL    HW247303   0.153   3.774   4.466  0.9632  0.8700 -0.5452
13653SOL     OW47304   7.272   4.460   7.150  0.0121 -0.2885 -0.1296
13653SOL    HW147305   7.279   4.554   7.166  3.7305 -0.4457 -0.0140
13653SOL    HW247306   7.291   4.420   7.234  1.1403 -1.1231 -0.7620
13654SOL     OW47307   0.054   2.176   7.420  0.1896 -0.3056 -0.5620
13654SOL    HW147308   0.095   2.124   7.490  0.1453  1.5044  0.8816
13654SOL    HW247309   0.128   2.211   7.370  0.3272  0.3314  0.0674
13655SOL     OW47310   8.329   0.956   8.406 -0.5929  0.1882 -0.5463
13655SOL    HW147311   8.301   1.012   8.334 -2.2999 -0.6746 -0.5853
13655SOL    HW247312   8.383   0.889   8.366  1.2695  1.5819 -0.5339
13656SOL     OW47313   2.111   8.230   1.986 -0.0716  0.0624  0.0639
13656SOL    HW147314   2.114   8.218   2.080 -0.7841 -2.0916 -0.1134
13656SOL    HW247315   2.186   8.285   1.965  1.3935 -1.2330  1.6594
13657SOL     OW47316   3.727   7.231   6.822 -0.6088 -0.6863  0.0234
13657SOL    HW147317   3.745   7.272   6.907 -3.7756 -3.2118  2.1617
13657SOL    HW247318   3.635   7.253   6.805 -1.3098 -3.6478 -0.5290
13658SOL     OW47319   9.173   7.331   8.518  0.7209 -0.0570  0.1102
13658SOL    HW147320   9.182   7.425   8.508 -0.0075  0.0857  0.7103
13658SOL    HW247321   9.105   7.320   8.584  0.8908 -1.0032  0.1460
13659SOL     OW47322   8.475   8.140   7.142 -0.5031 -0.0740  0.0148
13659SOL    HW147323   8.418   8.214   7.121 -0.3476  0.0896  0.1638
13659SOL    HW247324   8.553   8.153   7.088  0.4801  1.0847  1.6211
13660SOL     OW47325   8.828   5.059   7.828 -0.1156 -0.0117  0.3254
13660SOL    HW147326   8.734   5.049   7.842 -0.3327  1.4658  0.0360
13660SOL    HW247327   8.866   5.057   7.916 -0.7766  2.5439  0.7496
13661SOL     OW47328   6.113   4.675   7.793 -0.1061 -0.2410  0.4708
13661SOL    HW147329   6.127   4.754   7.845 -1.2508 -0.2168  0.7683
13661SOL    HW247330   6.038   4.631   7.835 -0.5603 -0.6160 -0.6838
13662SOL     OW47331   0.917   7.666   2.405 -0.2118  0.2676  0.3110
13662SOL    HW147332   0.975   7.732   2.443  0.6614 -0.2875 -0.0548
13662SOL    HW247333   0.847   7.656   2.470  0.4621  0.4351  1.0724
13663SOL     OW47334   1.032   6.444   4.411  0.1546 -0.2649 -0.2169
13663SOL    HW147335   0.982   6.370   4.446 -0.1425  0.0492  0.0250
13663SOL    HW247336   1.122   6.411   4.406 -0.1302 -0.9572 -1.0064
13664SOL     OW47337   3.950   0.429   0.551  0.1463 -0.4235 -0.3870
13664SOL    HW147338   3.914   0.468   0.471 -0.5714  3.8483  1.7247
13664SOL    HW247339   3.873   0.402   0.601  0.3016  0.7212  0.5093
13665SOL     OW47340   6.349   3.230   8.175 -0.1590  0.2936 -0.2609
13665SOL    HW147341   6.333   3.181   8.095 -0.6364 -1.5976  0.9249
13665SOL    HW247342   6.401   3.305   8.147  1.1974 -1.2101 -2.0993
13666SOL     OW47343   8.999   6.437   4.637 -0.3702 -0.0855  0.0316
13666SOL    HW147344   9.033   6.360   4.591  0.4352  0.2667  0.0085
13666SOL    HW247345   8.957   6.402   4.715  0.4774 -0.5217  0.3051
13667SOL     OW47346   0.614   1.564   7.747 -0.1691  0.1004  0.5212
13667SOL    HW147347   0.548   1.589   7.812 -0.2354  1.5081 -0.0429
13667SOL    HW247348   0.580   1.599   7.664  1.3385  1.0176  0.2396
13668SOL     OW47349   6.033   6.063   0.261 -0.2957 -0.6232 -0.3673
13668SOL    HW147350   6.071   6.099   0.341 -2.4774  0.3814  0.3024
13668SOL    HW247351   6.060   5.971   0.261 -0.4498 -0.7174  1.6643
13669SOL     OW47352   4.263   7.262   1.303  0.3370  0.2234 -0.4631
13669SOL    HW147353   4.227   7.197   1.364  0.8137  0.3906  0.0096
13669SOL    HW247354   4.189   7.319   1.283  0.6218  1.4224  1.6128
13670SOL     OW47355   7.265   3.175   0.589 -0.6744 -0.3032 -0.5231
13670SOL    HW147356   7.281   3.235   0.662  0.2729  0.9328 -1.6985
13670SOL    HW247357   7.169   3.166   0.587 -0.6790 -0.8880  1.2560
13671SOL     OW47358   8.850   4.424   7.071  0.4276 -0.5147  0.6505
13671SOL    HW147359   8.871   4.401   6.981 -0.5799  0.7480  0.0792
13671SOL    HW247360   8.932   4.459   7.106  0.3765  0.6933 -0.3556
13672SOL     OW47361   7.507   2.388   0.294  0.1552  0.0262  0.0784
13672SOL    HW147362   7.462   2.462   0.335 -2.5197 -1.7665  0.6578
13672SOL    HW247363   7.442   2.349   0.236  1.6818 -1.5089 -0.7166
13673SOL     OW47364   3.438   4.785   1.825 -0.5181 -0.8434 -0.1528
13673SOL    HW147365   3.409   4.866   1.781 -0.9343 -0.8993  0.0128
13673SOL    HW247366   3.529   4.803   1.849 -0.5336 -0.5100 -0.3242
13674SOL     OW47367   0.393   6.571   8.324  0.0638  0.3430  0.5754
13674SOL    HW147368   0.313   6.597   8.280 -0.4216  0.9070  1.7591
13674SOL    HW247369   0.400   6.630   8.400 -0.0795 -1.7038  2.2810
13675SOL     OW47370   4.280   7.016   7.810  0.3586 -0.4970  0.2864
13675SOL    HW147371   4.310   6.934   7.847  0.7445  0.1659  1.4926
13675SOL    HW247372   4.347   7.080   7.834  0.1446  0.1572 -0.7520
13676SOL     OW47373   2.002   1.876   4.866 -0.1967 -0.4433  0.3646
13676SOL    HW147374   2.020   1.876   4.772  1.0964 -1.9074  0.5753
13676SOL    HW247375   1.917   1.920   4.874  0.0317  0.3989 -1.3982
13677SOL     OW47376   4.932   2.389   0.957 -0.2284 -0.4479  0.0123
13677SOL    HW147377   4.922   2.296   0.937  1.0064 -0.7361  0.6733
13677SOL    HW247378   4.965   2.428   0.876  0.0659 -0.7360 -0.0062
13678SOL     OW47379   8.611   0.750   0.674 -0.1756 -0.4596  0.5476
13678SOL    HW147380   8.607   0.836   0.634 -0.0049 -0.1730  1.1357
13678SOL    HW247381   8.618   0.767   0.768 -0.8435 -1.1180  0.7280
13679SOL     OW47382   2.817   1.118   0.258 -0.2072  0.2131 -0.5103
13679SOL    HW147383   2.756   1.172   0.308  0.2202 -1.4048  1.9354
13679SOL    HW247384   2.805   1.030   0.293  4.2996 -0.0264  1.1175
13680SOL     OW47385   6.296   3.537   7.750 -0.6135 -0.1330  0.2083
13680SOL    HW147386   6.384   3.512   7.724 -0.7841  0.5717 -1.1286
13680SOL    HW247387   6.250   3.454   7.764  0.0599 -0.5033  0.2476
13681SOL     OW47388   1.688   7.441   7.572 -0.0256 -0.2428  0.2267
13681SOL    HW147389   1.778   7.475   7.576  0.1173 -0.6013  0.1079
13681SOL    HW247390   1.642   7.503   7.516 -0.2945  0.9156  1.6639
13682SOL     OW47391   8.183   1.185   4.232 -0.2671 -0.1030  0.4557
13682SOL    HW147392   8.124   1.251   4.268 -1.3728 -0.6262 -0.3061
13682SOL    HW247393   8.144   1.164   4.146  0.7168 -0.8832  0.1889
13683SOL     OW47394   2.672   3.840   8.583  0.2074 -0.1208  0.0616
13683SOL    HW147395   2.753   3.857   8.632 -0.9866  1.0358  1.7313
13683SOL    HW247396   2.623   3.779   8.637  0.5593 -2.0607 -1.6835
13684SOL     OW47397   5.772   4.999   6.844  0.0751  0.7037 -0.5867
13684SOL    HW147398   5.718   5.025   6.769 -0.1454  2.6530  0.1777
13684SOL    HW247399   5.851   5.052   6.836  1.2365 -1.0118 -0.8508
13685SOL     OW47400   4.904   0.377   7.538  0.1361 -0.1411  0.3087
13685SOL    HW147401   4.850   0.447   7.503  0.0946 -0.0798  0.4948
13685SOL    HW247402   4.842   0.308   7.562  0.0521  0.2785  1.3489
13686SOL     OW47403   3.277   3.179   1.218  0.3203  0.6401 -0.1822
13686SOL    HW147404   3.225   3.247   1.261 -0.2846 -0.4745  0.8865
13686SOL    HW247405   3.306   3.122   1.289  0.6128 -0.3687 -1.0817
13687SOL     OW47406   4.827   0.397   9.155 -0.0423  0.1043 -0.3579
13687SOL    HW147407   4.875   0.450   9.218  1.1555  0.8459 -1.8568
13687SOL    HW247408   4.881   0.318   9.144  0.2723  0.4310 -1.2000
13688SOL     OW47409   9.148   2.854   6.373  0.9645 -0.2054 -0.2321
13688SOL    HW147410   9.221   2.792   6.367  1.7782  0.8236 -1.6460
13688SOL    HW247411   9.190   2.939   6.389  0.0406  0.3251 -0.5507
13689SOL     OW47412   0.645   5.035   0.780  0.3375  0.3459  0.0185
13689SOL    HW147413   0.596   5.115   0.761 -0.8466 -0.1304  0.9514
13689SOL    HW247414   0.704   5.061   0.851  0.2564  0.4919  0.0344
13690SOL     OW47415   6.883   2.877   8.796  0.4136  0.0721 -0.2281
13690SOL    HW147416   6.820   2.949   8.802  0.0890 -0.1771 -0.5903
13690SOL    HW247417   6.832   2.803   8.765  0.4605 -0.6990  1.4238
13691SOL     OW47418   1.539   7.712   1.948  0.4726 -0.2906 -0.3637
13691SOL    HW147419   1.505   7.681   1.864  0.8271  2.1301 -1.4881
13691SOL    HW247420   1.464   7.755   1.990  0.8599  0.6575 -0.5981
13692SOL     OW47421   5.490   7.541   4.518  0.1554 -0.7637 -0.1631
13692SOL    HW147422   5.493   7.595   4.439 -2.0425 -1.1228 -0.5548
13692SOL    HW247423   5.517   7.599   4.588 -0.3199  0.2958 -0.8345
13693SOL     OW47424   5.458   7.429   9.062  0.0476 -0.2587 -0.0516
13693SOL    HW147425   5.376   7.444   9.109 -0.5198  1.3892 -1.4375
13693SOL    HW247426   5.431   7.391   8.979  0.7771 -0.5718 -0.1464
13694SOL     OW47427   2.821   2.763   1.819 -0.0287  0.3588  0.0326
13694SOL    HW147428   2.895   2.721   1.863 -0.5869 -1.0693 -0.3460
13694SOL    HW247429   2.796   2.703   1.750 -2.7539 -0.1764  1.3384
13695SOL     OW47430   7.495   5.658   0.015 -0.2118 -0.4782  0.6103
13695SOL    HW147431   7.435   5.629   0.083 -0.4651 -2.3514 -0.3418
13695SOL    HW247432   7.448   5.642  -0.067  0.8794 -0.2712 -0.0818
13696SOL     OW47433   2.864   8.489   6.267 -0.1289 -0.2324  0.1566
13696SOL    HW147434   2.881   8.489   6.173  0.9625 -1.1009  0.3244
13696SOL    HW247435   2.949   8.510   6.306 -0.4964 -0.1989  0.9574
13697SOL     OW47436   7.957   0.695   5.418 -0.3244 -0.6011 -0.5485
13697SOL    HW147437   7.863   0.676   5.421 -0.4775  0.3026  1.1792
13697SOL    HW247438   7.987   0.651   5.338 -2.3440 -0.2632 -1.5599
13698SOL     OW47439   4.727   5.487   6.910  0.4425  0.6672  0.7082
13698SOL    HW147440   4.645   5.454   6.872  1.3048  0.9378 -1.5838
13698SOL    HW247441   4.743   5.431   6.986 -1.2714 -0.1304  0.5224
13699SOL     OW47442   8.359   0.025   3.102  0.0273  0.1128 -0.3929
13699SOL    HW147443   8.431   0.087   3.108 -0.1519  0.4080 -1.1763
13699SOL    HW247444   8.283   0.073   3.137  0.1753 -0.1637  0.3374
13700SOL     OW47445   1.519   8.083   3.444 -0.2518 -0.3637 -0.2808
13700SOL    HW147446   1.585   8.108   3.508  0.8433 -2.4517 -0.5397
13700SOL    HW247447   1.443   8.058   3.496 -1.1460  2.5056  0.0102
13701SOL     OW47448   2.544   7.257   1.027  0.0789  0.0306 -0.0318
13701SOL    HW147449   2.626   7.211   1.011  0.8928  1.3990  0.0679
13701SOL    HW247450   2.482   7.188   1.048  1.5153 -0.9504  1.1872
13702SOL     OW47451   6.469   8.388   7.462 -0.0491 -0.3389  0.4286
13702SOL    HW147452   6.386   8.404   7.417  0.6482  0.2291 -0.7034
13702SOL    HW247453   6.505   8.475   7.480  0.3491 -0.5777  0.8299
13703SOL     OW47454   4.065   3.779   5.458  0.0415  0.2949 -0.3853
13703SOL    HW147455   4.095   3.724   5.531  0.0627  0.9565  0.1169
13703SOL    HW247456   4.132   3.767   5.391 -0.4601 -1.0496 -0.6709
13704SOL     OW47457   5.981   8.528   4.726 -0.7242  0.0174  0.1973
13704SOL    HW147458   5.915   8.491   4.668 -0.5012  0.4864 -0.3718
13704SOL    HW247459   5.931   8.567   4.798 -0.9291 -2.3173  1.4280
13705SOL     OW47460   5.922   6.104   6.647 -0.5301  0.0218 -0.3941
13705SOL    HW147461   5.847   6.156   6.676 -0.7474 -0.3288 -0.3257
13705SOL    HW247462   5.888   6.015   6.640  0.4391 -0.6191  1.9339
13706SOL     OW47463   3.864   5.760   2.325 -0.7908 -0.0048 -0.0036
13706SOL    HW147464   3.868   5.685   2.384 -2.5761  1.2456  1.8626
13706SOL    HW247465   3.946   5.807   2.341 -0.2350 -0.8864 -0.2448
13707SOL     OW47466   8.875   7.228   8.916  0.6174  0.0704 -0.2393
13707SOL    HW147467   8.925   7.275   8.984  0.4695 -0.6993  0.4198
13707SOL    HW247468   8.878   7.137   8.944 -1.3249  0.0266 -0.0755
13708SOL     OW47469   1.938   0.795   5.387 -0.1985 -0.5811 -0.2739
13708SOL    HW147470   1.887   0.867   5.350  2.2266  0.3027 -2.1744
13708SOL    HW247471   1.985   0.833   5.461 -0.1718 -0.6743 -0.2424
13709SOL     OW47472   4.152   7.171   6.061  0.1501  0.0403 -0.0836
13709SOL    HW147473   4.183   7.165   6.151  0.5668 -2.9314 -0.3398
13709SOL    HW247474   4.058   7.187   6.069 -0.0684 -1.5643  0.9518
13710SOL     OW47475   8.950   1.867   7.481  0.3021  0.4536 -0.6891
13710SOL    HW147476   8.981   1.949   7.443  2.9126 -0.7002 -1.2714
13710SOL    HW247477   8.984   1.799   7.423  0.1793 -1.1293  1.0041
13711SOL     OW47478   3.970   7.368   8.470  0.2314 -0.1812  0.1528
13711SOL    HW147479   4.025   7.292   8.450  1.2754  0.7968 -0.8632
13711SOL    HW247480   3.949   7.405   8.384  0.1922  0.9906  0.6532
13712SOL     OW47481   4.980   1.305   3.150  0.2306 -0.3034 -0.3141
13712SOL    HW147482   5.065   1.273   3.120 -0.0891 -0.0384 -1.5780
13712SOL    HW247483   5.000   1.384   3.200  0.7361 -0.2617 -0.5761
13713SOL     OW47484   7.858   4.838   6.010 -0.1612  0.6329  0.7654
13713SOL    HW147485   7.811   4.827   5.927 -0.2565  1.3127  0.7250
13713SOL    HW247486   7.794   4.879   6.068 -0.8756 -1.8479  1.9139
13714SOL     OW47487   0.163   2.437   7.120  0.8248  0.0484 -0.6799
13714SOL    HW147488   0.067   2.435   7.126  0.6360  3.9881  0.1704
13714SOL    HW247489   0.193   2.410   7.207  0.3109  1.2764 -0.0902
13715SOL     OW47490   1.773   1.084   4.687 -0.2142  0.0163 -0.1469
13715SOL    HW147491   1.838   1.153   4.692  0.3883  0.0761 -4.6406
13715SOL    HW247492   1.803   1.017   4.749  2.9521  0.9610 -0.5301
13716SOL     OW47493   3.061   0.570   2.275  0.2667  0.7539  1.0208
13716SOL    HW147494   2.981   0.606   2.237  0.7224 -1.0461 -1.9713
13716SOL    HW247495   3.129   0.632   2.249  0.8081 -1.1506 -2.7690
13717SOL     OW47496   0.773   4.229   4.826 -0.1522  0.2715 -0.1637
13717SOL    HW147497   0.790   4.169   4.753 -1.2522  1.0395 -1.0926
13717SOL    HW247498   0.702   4.284   4.795  0.8796  2.1309  0.6207
13718SOL     OW47499   2.086   0.050   6.031 -0.1051  0.0110 -0.1934
13718SOL    HW147500   1.999   0.010   6.026  0.2411 -0.7410 -0.2372
13718SOL    HW247501   2.100   0.087   5.943 -1.0542  1.5983  0.2748
13719SOL     OW47502   7.210   0.609   8.835  0.2073 -0.0186 -0.2546
13719SOL    HW147503   7.181   0.533   8.784 -1.6586  0.3338  0.1796
13719SOL    HW247504   7.288   0.580   8.881  0.2380 -1.2698 -1.0578
13720SOL     OW47505   4.936   1.951   8.171  0.1005  0.0487  0.0912
13720SOL    HW147506   4.966   1.916   8.087 -1.6509 -1.1851 -0.0682
13720SOL    HW247507   4.909   1.874   8.221 -3.3877  1.0272 -0.0683
13721SOL     OW47508   2.886   1.717   1.594  0.1950 -0.2144  0.1369
13721SOL    HW147509   2.798   1.681   1.609 -0.5192  0.2936 -2.4237
13721SOL    HW247510   2.876   1.811   1.603  0.7358 -0.2046  0.7873
13722SOL     OW47511   0.706   4.057   8.716  0.2162 -0.4680 -0.3915
13722SOL    HW147512   0.795   4.048   8.751 -0.5458 -2.3357  1.2568
13722SOL    HW247513   0.652   4.074   8.793 -0.8470  1.0784 -1.4232
13723SOL     OW47514   8.605   5.922   1.303  0.4616  0.2677  0.1804
13723SOL    HW147515   8.653   5.911   1.220 -1.1736 -0.8241 -0.6691
13723SOL    HW247516   8.536   5.984   1.282  0.3449  0.3722  0.8800
13724SOL     OW47517   7.354   2.451   5.340  0.2961 -0.5972  0.7837
13724SOL    HW147518   7.285   2.516   5.355 -0.3096 -1.1442  0.4137
13724SOL    HW247519   7.390   2.474   5.255  1.2060  0.2432  1.3753
13725SOL     OW47520   3.274   6.489   8.560  0.2767  0.0559 -0.2828
13725SOL    HW147521   3.328   6.412   8.577 -1.8588 -1.3138  0.7305
13725SOL    HW247522   3.214   6.461   8.490 -1.6047  0.1522  1.1948
13726SOL     OW47523   1.285   1.769   1.166 -0.6352  0.1710  0.0107
13726SOL    HW147524   1.283   1.736   1.255  0.5871 -2.6501 -0.8841
13726SOL    HW247525   1.371   1.811   1.157 -0.2148 -0.6989 -0.1617
13727SOL     OW47526   1.653   3.653   8.168 -0.0036 -0.1678 -0.0546
13727SOL    HW147527   1.673   3.563   8.194 -2.2578 -0.8099 -0.3585
13727SOL    HW247528   1.651   3.650   8.072 -0.9359 -0.0210 -0.0477
13728SOL     OW47529   1.064   5.878   4.912 -0.4892  0.0314 -0.2652
13728SOL    HW147530   1.129   5.873   4.842 -0.9764  0.0133 -0.7231
13728SOL    HW247531   1.011   5.799   4.900 -0.0906 -0.3893  0.6172
13729SOL     OW47532   8.282   1.981   5.019  0.2711  0.2929 -0.5409
13729SOL    HW147533   8.349   1.919   5.046 -1.2772 -1.7072 -1.0424
13729SOL    HW247534   8.249   1.947   4.936 -0.0778  2.2746 -1.2646
13730SOL     OW47535   2.571   3.606   0.742  0.1059 -0.0924  0.6337
13730SOL    HW147536   2.606   3.533   0.691 -0.3170 -0.2113  0.5082
13730SOL    HW247537   2.594   3.684   0.690 -0.0268 -0.1866  0.4317
13731SOL     OW47538   5.271   7.429   4.436 -0.1972  0.1882 -0.0674
13731SOL    HW147539   5.262   7.476   4.353  0.6523  0.4309 -0.0255
13731SOL    HW247540   5.345   7.470   4.480 -0.2818 -0.3133  0.5690
13732SOL     OW47541   9.077   2.348   4.861 -0.7691  0.1787  0.0180
13732SOL    HW147542   9.033   2.288   4.800 -2.7907  0.9356  0.6347
13732SOL    HW247543   9.088   2.429   4.812  2.1776 -0.6363 -0.8923
13733SOL     OW47544   4.079   1.554   0.784 -0.3742  0.2786  1.0130
13733SOL    HW147545   4.049   1.463   0.783 -2.6687  0.9327 -1.6994
13733SOL    HW247546   4.004   1.605   0.814 -0.1985  1.5185 -0.5049
13734SOL     OW47547   8.933   3.314   1.874 -0.8569  0.1966 -0.1307
13734SOL    HW147548   8.971   3.377   1.812 -2.7966  0.9178 -0.6464
13734SOL    HW247549   8.989   3.321   1.951  0.6544  0.4588 -1.1983
13735SOL     OW47550   8.846   7.449   0.759  0.0815  1.1319 -0.3389
13735SOL    HW147551   8.847   7.525   0.700  1.1940  0.6552 -0.9836
13735SOL    HW247552   8.825   7.486   0.845  0.2449  2.1195 -0.7021
13736SOL     OW47553   3.289   1.139   2.999  0.2811  0.7804  0.3967
13736SOL    HW147554   3.359   1.112   2.940  1.9935 -1.4274  3.2096
13736SOL    HW247555   3.285   1.071   3.065 -3.8033  1.4161  1.0888
13737SOL     OW47556   0.734   2.903   8.555 -0.1659 -0.2387 -0.5357
13737SOL    HW147557   0.667   2.845   8.519  0.4042 -1.5763  0.4926
13737SOL    HW247558   0.708   2.917   8.646 -0.8180  1.9601 -0.9973
13738SOL     OW47559   4.974   7.595   7.168  0.4304 -0.7668 -0.0908
13738SOL    HW147560   5.045   7.582   7.231 -0.6210 -1.0002  1.0809
13738SOL    HW247561   4.943   7.684   7.185 -0.5634 -1.2051  0.4890
13739SOL     OW47562   2.621   3.263   8.453 -0.2600 -0.2243  0.1237
13739SOL    HW147563   2.555   3.196   8.440  0.3093 -0.8499  0.4230
13739SOL    HW247564   2.574   3.335   8.496 -0.4316 -1.2845  1.7959
13740SOL     OW47565   2.739   9.148   5.621 -0.2963  0.1374  0.1056
13740SOL    HW147566   2.718   9.055   5.619 -0.9100  0.2364  1.3249
13740SOL    HW247567   2.797   9.161   5.546 -1.4538 -0.9111 -1.0232
13741SOL     OW47568   6.384   7.123   8.689  0.0598  0.3403  0.4253
13741SOL    HW147569   6.387   7.029   8.672 -0.2651 -0.0766  2.3669
13741SOL    HW247570   6.366   7.163   8.604  1.0630 -1.2735 -0.5991
13742SOL     OW47571   0.587   0.720   8.441  0.7157 -0.1987 -0.6001
13742SOL    HW147572   0.583   0.773   8.362  0.9206 -0.6993 -0.9540
13742SOL    HW247573   0.604   0.631   8.410  0.0627 -0.5287 -0.0362
13743SOL     OW47574   6.188   2.276   7.435  0.2706 -0.1897  0.0517
13743SOL    HW147575   6.249   2.304   7.503  1.1350 -0.1326 -0.7191
13743SOL    HW247576   6.119   2.230   7.482  1.5344 -1.3508  0.8709
13744SOL     OW47577   2.149   3.869   2.147 -0.2056 -0.1938 -0.0378
13744SOL    HW147578   2.161   3.932   2.218 -3.2857 -0.3470  0.7734
13744SOL    HW247579   2.138   3.923   2.069 -0.0938  0.1510  0.1835
13745SOL     OW47580   8.974   7.279   8.685 -0.5395  0.9054  0.0884
13745SOL    HW147581   8.940   7.249   8.769  0.7760  0.7607  0.5971
13745SOL    HW247582   8.908   7.253   8.621 -0.2371 -1.6445  0.7028
13746SOL     OW47583   4.512   9.179   8.816 -0.4035  0.2131  0.0101
13746SOL    HW147584   4.419   9.199   8.827 -0.4634  0.5451 -0.9477
13746SOL    HW247585   4.536   9.132   8.895 -1.9984 -2.0679 -0.7412
13747SOL     OW47586   6.223   4.731   4.883 -0.2170 -0.2622 -0.3503
13747SOL    HW147587   6.229   4.792   4.810 -1.0265 -0.0749 -0.2651
13747SOL    HW247588   6.182   4.653   4.847 -0.5521 -0.1975 -0.1113
13748SOL     OW47589   0.559   5.732   2.449  0.0648  0.3587 -0.2119
13748SOL    HW147590   0.612   5.655   2.469 -0.7387 -0.2722 -0.4465
13748SOL    HW247591   0.494   5.734   2.519 -0.9852 -0.1916 -1.1489
13749SOL     OW47592   4.515   6.523   0.521  0.9593 -0.3111  0.3225
13749SOL    HW147593   4.508   6.612   0.554  0.7463  0.2020 -1.0630
13749SOL    HW247594   4.564   6.531   0.439 -1.9438 -0.9453 -1.6461
13750SOL     OW47595   3.990   7.850   4.606 -0.1639 -0.6776  0.0203
13750SOL    HW147596   4.049   7.812   4.541  1.3814 -1.0893  1.5975
13750SOL    HW247597   4.030   7.933   4.630 -2.2936  0.9505 -1.6671
13751SOL     OW47598   3.266   3.578   5.089 -0.0363 -0.5503 -0.0706
13751SOL    HW147599   3.319   3.564   5.011 -0.0196  1.5748 -0.5063
13751SOL    HW247600   3.178   3.552   5.064  0.0909 -0.4941 -0.5881
13752SOL     OW47601   7.768   3.670   0.609 -0.2962 -0.4585  0.0691
13752SOL    HW147602   7.722   3.599   0.655  1.2168 -1.5376 -0.0054
13752SOL    HW247603   7.815   3.716   0.678 -0.8341  0.1346  0.0431
13753SOL     OW47604   3.309   6.422   7.796 -0.1481  0.4693 -0.0709
13753SOL    HW147605   3.363   6.355   7.755  0.5041  0.5080  0.7068
13753SOL    HW247606   3.221   6.385   7.796  0.0103  0.0840 -0.6551
13754SOL     OW47607   8.760   5.342   7.579 -0.7688 -0.1581  0.0630
13754SOL    HW147608   8.712   5.422   7.599 -2.4288 -0.7124 -1.3551
13754SOL    HW247609   8.713   5.273   7.627  1.0774 -0.2618  1.8658
13755SOL     OW47610   7.121   7.383   3.740 -0.5311 -0.6659  0.1378
13755SOL    HW147611   7.053   7.424   3.686  0.1255 -1.3442 -1.2663
13755SOL    HW247612   7.086   7.296   3.760 -1.2342 -0.0498  1.7676
13756SOL     OW47613   0.929   6.513   3.277  0.7186  0.8322  0.0087
13756SOL    HW147614   0.977   6.587   3.315  0.1355  1.2326 -0.0135
13756SOL    HW247615   0.930   6.528   3.183  1.6796  0.1352 -0.1064
13757SOL     OW47616   0.245   7.780   3.977 -0.3736  0.1895  0.0467
13757SOL    HW147617   0.240   7.794   3.882  1.4485 -0.2095 -0.1429
13757SOL    HW247618   0.235   7.686   3.988 -2.9560  0.4355  0.5121
13758SOL     OW47619   7.058   1.280   4.225  0.0763 -0.2255  0.2602
13758SOL    HW147620   7.063   1.275   4.130  1.3191  1.0484  0.2233
13758SOL    HW247621   7.049   1.189   4.253 -2.0225 -0.4947 -1.1110
13759SOL     OW47622   2.435   6.637   0.184  0.2193  0.2956  0.4668
13759SOL    HW147623   2.458   6.715   0.234 -0.4403  0.2930  0.7812
13759SOL    HW247624   2.366   6.665   0.125  0.4174  0.0981  0.1410
13760SOL     OW47625   1.172   5.832   4.203  0.4299  0.5031 -0.2155
13760SOL    HW147626   1.127   5.770   4.145  1.9108 -0.4279 -0.4208
13760SOL    HW247627   1.259   5.794   4.216  1.0514  2.0707  0.4518
13761SOL     OW47628   3.734   8.582   3.788  0.4218  0.1134 -0.1544
13761SOL    HW147629   3.735   8.565   3.882  0.9710  1.0179  0.0116
13761SOL    HW247630   3.713   8.675   3.780  3.2917  0.8113 -0.7783
13762SOL     OW47631   5.547   6.307   5.972 -0.1351  0.3014  0.1576
13762SOL    HW147632   5.557   6.211   5.973  0.7226  0.3821  0.2875
13762SOL    HW247633   5.622   6.339   6.023 -0.3704  1.0448  0.0441
13763SOL     OW47634   4.840   5.008   5.918  0.2583  0.0540 -0.1074
13763SOL    HW147635   4.887   4.989   5.999  0.9418 -0.1299 -0.5457
13763SOL    HW247636   4.897   5.066   5.869  0.3565 -0.7416 -0.9595
13764SOL     OW47637   2.042   1.160   0.568  0.1480  0.0169 -0.4960
13764SOL    HW147638   1.982   1.126   0.501  1.5824 -3.0514 -0.3817
13764SOL    HW247639   2.127   1.165   0.524  0.1298  3.3269 -0.3729
13765SOL     OW47640   1.895   0.481   5.887  0.6918  0.1372  0.0800
13765SOL    HW147641   1.872   0.406   5.832 -1.5976  0.1296  0.9509
13765SOL    HW247642   1.953   0.534   5.832 -1.5449  0.1714 -2.4357
13766SOL     OW47643   1.325   6.828   4.330 -0.4266 -0.9893 -0.2526
13766SOL    HW147644   1.237   6.804   4.359 -0.3687 -0.6482  0.2143
13766SOL    HW247645   1.381   6.807   4.405  0.0342 -2.1004 -0.8795
13767SOL     OW47646   6.519   0.785   7.659  0.3162 -0.0679 -0.5731
13767SOL    HW147647   6.569   0.735   7.595 -0.5060 -0.0435 -1.2514
13767SOL    HW247648   6.433   0.796   7.619 -0.2059 -0.0218  0.5205
13768SOL     OW47649   2.610   2.787   4.600  0.3371 -0.0518 -0.2942
13768SOL    HW147650   2.580   2.874   4.574  2.2539  0.7107 -0.1663
13768SOL    HW247651   2.539   2.729   4.575 -0.2227  1.3141 -2.1463
13769SOL     OW47652   4.894   7.251   4.916  0.5235  0.1862 -0.1224
13769SOL    HW147653   4.826   7.197   4.959  0.0007  0.2368 -0.8695
13769SOL    HW247654   4.896   7.331   4.968  0.3214  0.0065  0.1724
13770SOL     OW47655   9.160   8.804   2.136 -0.0711 -0.4378 -0.6418
13770SOL    HW147656   9.112   8.814   2.054 -2.1403  0.4901  0.6029
13770SOL    HW247657   9.224   8.874   2.135 -1.4993  0.9227 -0.5784
13771SOL     OW47658   0.278   6.661   5.552  0.3493 -0.3515  0.1450
13771SOL    HW147659   0.332   6.695   5.623  0.2454 -1.8549  0.9773
13771SOL    HW247660   0.320   6.579   5.526 -1.1636 -1.2686  0.4234
13772SOL     OW47661   0.406   6.812   6.621 -0.0751 -0.2815  0.1426
13772SOL    HW147662   0.439   6.729   6.656 -0.5374 -0.2808  0.6123
13772SOL    HW247663   0.478   6.847   6.569  0.5614 -0.4036  0.9141
13773SOL     OW47664   1.820   5.277   8.227  0.1854  0.0726 -0.5579
13773SOL    HW147665   1.875   5.283   8.149  0.9744 -0.5184 -0.0654
13773SOL    HW247666   1.862   5.333   8.292  0.5211 -0.7834 -0.0099
13774SOL     OW47667   6.505   4.160   0.906 -0.0333  0.0159 -0.3433
13774SOL    HW147668   6.541   4.132   0.822 -0.4466 -0.0792 -0.4934
13774SOL    HW247669   6.564   4.123   0.972 -0.5503 -1.2223 -0.5369
13775SOL     OW47670   7.396   7.248   4.940  0.2833 -0.0749  1.2622
13775SOL    HW147671   7.347   7.308   4.996  0.1193 -1.1646  2.3198
13775SOL    HW247672   7.427   7.179   4.999 -0.3636 -1.5549 -0.0520
13776SOL     OW47673   3.587   4.512   7.875 -0.1248 -0.1333 -0.0572
13776SOL    HW147674   3.569   4.501   7.969  2.1725  2.5809  0.8543
13776SOL    HW247675   3.654   4.447   7.855  1.5223  1.1682  1.0114
13777SOL     OW47676   4.646   3.824   6.088 -0.0702  0.4025 -0.2938
13777SOL    HW147677   4.643   3.914   6.057 -0.6985 -0.4883 -3.0685
13777SOL    HW247678   4.695   3.777   6.021  0.9687 -1.2252  1.4830
13778SOL     OW47679   4.305   5.878   2.285 -0.5233  0.0009 -0.6541
13778SOL    HW147680   4.353   5.794   2.284  1.0908  0.8781 -1.1868
13778SOL    HW247681   4.357   5.935   2.229 -1.7596  1.2909 -0.5249
13779SOL     OW47682   1.486   7.935   2.119 -0.3184  1.1376 -0.0686
13779SOL    HW147683   1.478   8.030   2.131 -0.8584  1.1464 -0.4671
13779SOL    HW247684   1.570   7.924   2.075  0.6902  1.2675  1.7420
13780SOL     OW47685   3.601   3.203   1.356  0.7382  0.1396  0.4896
13780SOL    HW147686   3.553   3.154   1.422 -0.5437  1.0066  0.2263
13780SOL    HW247687   3.604   3.145   1.280  0.6376 -0.1477  0.7071
13781SOL     OW47688   1.991   8.906   6.910  0.1109 -0.2145 -0.3617
13781SOL    HW147689   2.014   8.989   6.867 -1.3473 -0.0617 -0.9079
13781SOL    HW247690   1.923   8.869   6.855 -0.1339 -1.1826  0.5678
13782SOL     OW47691   0.623   0.510   5.265 -0.2536 -0.3389 -0.2500
13782SOL    HW147692   0.544   0.473   5.303  0.1643 -1.4685 -0.4276
13782SOL    HW247693   0.690   0.442   5.278  1.0118  1.0612  1.0049
13783SOL     OW47694   8.521   5.489   6.755 -0.4796  0.3724  0.0786
13783SOL    HW147695   8.583   5.557   6.782 -0.4673  0.0033  1.0393
13783SOL    HW247696   8.515   5.432   6.832 -2.5954  0.8226  0.3018
13784SOL     OW47697   9.049   5.586   6.980 -0.3778 -0.2193 -0.0661
13784SOL    HW147698   8.991   5.517   6.949 -2.5901  1.2053  0.6468
13784SOL    HW247699   9.062   5.644   6.905  2.1252 -1.7172 -0.8947
13785SOL     OW47700   0.291   3.929   8.691  0.4336  0.0437  0.8498
13785SOL    HW147701   0.314   3.964   8.605  0.6269  0.8913  1.2389
13785SOL    HW247702   0.280   3.835   8.676 -0.8399  0.3465 -0.3758
13786SOL     OW47703   3.709   1.277   5.909 -0.1556  0.8882  0.0982
13786SOL    HW147704   3.621   1.251   5.936  0.4396 -0.1675  1.1035
13786SOL    HW247705   3.708   1.372   5.911 -1.5551  0.9163 -0.8633
13787SOL     OW47706   3.065   5.276   7.332 -0.5648  0.0024 -0.0957
13787SOL    HW147707   3.078   5.252   7.423 -1.6276  0.1723  0.1196
13787SOL    HW247708   3.050   5.371   7.334  0.0992  0.1195 -0.5273
13788SOL     OW47709   4.276   1.823   7.673 -0.1061  0.3381  0.3087
13788SOL    HW147710   4.240   1.754   7.617  0.4395  0.3961 -0.1208
13788SOL    HW247711   4.324   1.880   7.613  0.5504  0.3609  0.8511
13789SOL     OW47712   1.470   2.278   5.322 -0.0885 -0.0942  0.4833
13789SOL    HW147713   1.444   2.345   5.385  1.6979 -0.3026  1.4946
13789SOL    HW247714   1.395   2.219   5.316 -0.8867  0.8364  1.1626
13790SOL     OW47715   4.069   1.911   6.885  0.0341 -0.5727  0.0870
13790SOL    HW147716   4.121   1.862   6.821  0.3791  0.0846 -0.1368
13790SOL    HW247717   4.089   2.003   6.868 -0.4671 -0.3553  0.6315
13791SOL     OW47718   8.844   6.754   2.935 -0.3100  0.0332  0.1482
13791SOL    HW147719   8.828   6.783   2.846  1.5250 -0.3430 -0.3377
13791SOL    HW247720   8.768   6.786   2.985 -1.2293  0.4677 -1.4696
13792SOL     OW47721   4.231   1.045   4.340 -0.2103 -0.1019 -0.0972
13792SOL    HW147722   4.220   1.098   4.419 -0.8400 -1.6787  0.9300
13792SOL    HW247723   4.297   1.092   4.289 -2.3812  2.9024 -0.4050
13793SOL     OW47724   7.817   2.929   1.052 -0.3221  0.4110  0.6916
13793SOL    HW147725   7.807   2.937   0.958 -0.5838 -0.2262  0.6617
13793SOL    HW247726   7.731   2.953   1.088 -0.6826 -0.8141  0.6773
13794SOL     OW47727   1.538   6.691   0.445 -0.0636  0.4712  0.2421
13794SOL    HW147728   1.512   6.606   0.409  1.2864 -0.5317  1.5302
13794SOL    HW247729   1.589   6.670   0.523  1.2225  2.4356  0.0100
13795SOL     OW47730   0.841   6.724   8.929  0.3147  0.2340  0.5479
13795SOL    HW147731   0.753   6.722   8.965 -0.1682  1.9451 -0.4151
13795SOL    HW247732   0.831   6.690   8.840  0.5943  0.5468  0.3937
13796SOL     OW47733   7.281   2.502   7.276 -0.1741 -0.3602 -0.8636
13796SOL    HW147734   7.372   2.515   7.248 -0.0138 -1.2422 -0.7719
13796SOL    HW247735   7.262   2.410   7.256 -1.7612  0.3260 -2.9261
13797SOL     OW47736   0.119   0.319   7.729  0.1501  0.1298 -0.1050
13797SOL    HW147737   0.178   0.244   7.715  1.3017  1.2026 -1.2631
13797SOL    HW247738   0.042   0.299   7.676  0.7868  0.1029 -1.0473
13798SOL     OW47739   3.642   2.178   8.773 -0.0902 -0.1785  0.3610
13798SOL    HW147740   3.619   2.188   8.681  0.2516  1.8892  0.4456
13798SOL    HW247741   3.735   2.156   8.773 -0.0050  0.1733  0.2094
13799SOL     OW47742   3.192   0.163   4.439 -0.1355  0.1769  0.3386
13799SOL    HW147743   3.206   0.208   4.522 -0.8206 -0.7859  0.9859
13799SOL    HW247744   3.102   0.132   4.443 -0.2056  0.1635 -0.7974
13800SOL     OW47745   1.535   6.720   1.753  0.8580 -0.2561 -0.5156
13800SOL    HW147746   1.475   6.649   1.776  1.1847 -0.6225 -0.7658
13800SOL    HW247747   1.501   6.754   1.670  1.1065 -0.5963 -0.7597
13801SOL     OW47748   7.507   4.895   8.049 -0.0729  0.1585 -0.2088
13801SOL    HW147749   7.551   4.827   8.099  1.1638 -0.1013 -1.5748
13801SOL    HW247750   7.550   4.977   8.075 -1.8306  0.5534  1.7370
13802SOL     OW47751   1.175   1.393   6.561  0.5923  0.0321 -0.0443
13802SOL    HW147752   1.218   1.338   6.627  1.0875 -0.5961 -0.8569
13802SOL    HW247753   1.085   1.361   6.559  0.2680  0.8272  1.1197
13803SOL     OW47754   3.939   6.493   5.759 -0.2592 -0.3057  0.3594
13803SOL    HW147755   3.952   6.487   5.854 -0.9903  0.4828  0.5249
13803SOL    HW247756   3.997   6.564   5.732 -0.0326 -0.5472  0.2114
13804SOL     OW47757   2.340   1.845   1.252 -0.3599 -0.3891 -0.3543
13804SOL    HW147758   2.280   1.853   1.326  0.6422 -0.1953  0.4621
13804SOL    HW247759   2.338   1.931   1.210 -1.8341 -0.8346 -1.3219
13805SOL     OW47760   0.804   4.187   3.564 -0.0177 -1.0566 -0.0571
13805SOL    HW147761   0.817   4.097   3.536  1.8009 -1.4751  1.8657
13805SOL    HW247762   0.720   4.187   3.609 -2.0790 -0.7714 -3.5364
13806SOL     OW47763   4.192   7.027   1.841 -0.2174 -0.5734  0.1265
13806SOL    HW147764   4.244   7.100   1.876 -0.0248  0.1690 -1.6051
13806SOL    HW247765   4.248   6.988   1.773 -0.7312 -1.7041  0.3164
13807SOL     OW47766   2.836   7.945   1.471 -0.1698 -0.1355 -0.4392
13807SOL    HW147767   2.834   7.922   1.378 -0.4047  1.6174 -0.8897
13807SOL    HW247768   2.832   7.860   1.516  0.8190 -1.0646 -2.0042
13808SOL     OW47769   1.757   1.073   1.139 -0.1396  0.1405 -0.5335
13808SOL    HW147770   1.663   1.087   1.146 -0.1705  0.2790 -1.1860
13808SOL    HW247771   1.767   0.998   1.080  0.1472 -0.2011 -0.0632
13809SOL     OW47772   7.380   6.804   9.233 -0.1611  0.3516  0.2581
13809SOL    HW147773   7.433   6.799   9.154 -0.8644  1.5251 -0.3194
13809SOL    HW247774   7.294   6.771   9.207 -1.0539  2.7438 -0.1413
13810SOL     OW47775   0.735   8.093   0.619  0.0775  0.1282 -0.4117
13810SOL    HW147776   0.698   8.111   0.706 -0.3031 -0.8580 -0.3522
13810SOL    HW247777   0.829   8.096   0.632  0.0713 -2.0529  0.5292
13811SOL     OW47778   8.031   3.506   4.171 -0.3592  0.0358  0.4452
13811SOL    HW147779   8.114   3.483   4.130 -1.1391 -1.4783 -0.3929
13811SOL    HW247780   7.977   3.428   4.160 -1.0993  0.0634  3.1374
13812SOL     OW47781   8.671   0.542   1.093  0.7922  0.4437  0.3705
13812SOL    HW147782   8.722   0.460   1.092 -0.9292 -0.6668  0.5195
13812SOL    HW247783   8.649   0.555   1.185  0.1847  0.5050  0.2183
13813SOL     OW47784   6.806   0.743   0.457 -0.1155  0.0215 -0.2091
13813SOL    HW147785   6.862   0.672   0.426  0.3887  0.2370  0.2088
13813SOL    HW247786   6.866   0.808   0.491 -0.6228  0.2438  0.2641
13814SOL     OW47787   4.827   1.488   1.480 -0.0598  0.3462 -0.3926
13814SOL    HW147788   4.793   1.426   1.416  0.9196 -1.3396  0.6464
13814SOL    HW247789   4.889   1.541   1.431  1.3048 -1.4692 -0.7330
13815SOL     OW47790   1.881   7.069   3.292 -0.4091  0.2630  0.2430
13815SOL    HW147791   1.931   7.150   3.294  1.5401 -0.8601 -0.1377
13815SOL    HW247792   1.911   7.024   3.213 -5.1040  1.2974 -2.5125
13816SOL     OW47793   8.007   5.068   0.704 -0.6186 -0.5401  0.0418
13816SOL    HW147794   8.037   5.011   0.634 -0.8764 -1.3565  0.5815
13816SOL    HW247795   7.960   5.139   0.659  0.3189 -0.3589 -0.6755
13817SOL     OW47796   9.144   6.070   4.888 -0.8202  0.1621  0.4148
13817SOL    HW147797   9.078   6.075   4.958 -0.8849  0.4673  0.3334
13817SOL    HW247798   9.177   6.160   4.881  2.7958 -0.6991  3.4994
13818SOL     OW47799   0.180   7.704   0.686  0.3785  0.1458  0.2158
13818SOL    HW147800   0.211   7.614   0.682  0.3697  0.1755 -0.7922
13818SOL    HW247801   0.088   7.697   0.712  0.4394 -0.1152  0.3657
13819SOL     OW47802   0.365   0.662   8.135 -0.6334  0.6702  0.4000
13819SOL    HW147803   0.314   0.651   8.054  1.7859 -0.5637 -1.0612
13819SOL    HW247804   0.424   0.735   8.116  0.5962 -0.2252  0.6508
13820SOL     OW47805   9.078   8.387   5.881 -0.1917 -0.5370  0.0787
13820SOL    HW147806   9.130   8.311   5.855 -0.7350 -2.2011  3.3235
13820SOL    HW247807   9.138   8.461   5.875  1.3386 -1.7555 -0.0663
13821SOL     OW47808   5.298   2.455   8.396 -0.1878  0.5250  0.5999
13821SOL    HW147809   5.276   2.478   8.486  2.2469 -1.8297  1.9221
13821SOL    HW247810   5.374   2.510   8.375  0.8026 -0.6728  0.9451
13822SOL     OW47811   2.511   4.810   6.420 -0.3867  0.2115 -0.5533
13822SOL    HW147812   2.498   4.883   6.480 -3.4009 -1.0122  0.4839
13822SOL    HW247813   2.435   4.812   6.363  0.0683 -1.4076 -1.2702
13823SOL     OW47814   0.965   1.369   7.381  0.1913  0.4402  0.0513
13823SOL    HW147815   0.929   1.430   7.446  0.7248  0.6282  0.1777
13823SOL    HW247816   0.950   1.412   7.297  0.2359  0.5779  0.1134
13824SOL     OW47817   4.329   2.627   2.162  0.0660  0.2725 -0.1041
13824SOL    HW147818   4.288   2.588   2.085  0.2437 -1.4674  0.6340
13824SOL    HW247819   4.402   2.569   2.182 -1.4597 -0.8269  2.8608
13825SOL     OW47820   6.906   5.559   5.021 -0.2887 -0.0530 -0.5151
13825SOL    HW147821   6.898   5.464   5.027 -0.8568  0.0249  0.0677
13825SOL    HW247822   6.816   5.591   5.027 -0.2878  0.4413 -2.5059
13826SOL     OW47823   5.962   2.378   8.604 -0.1360 -0.3057 -0.4007
13826SOL    HW147824   5.959   2.351   8.512 -1.1524 -2.8842  0.3090
13826SOL    HW247825   5.898   2.322   8.648  1.4543 -0.2827  2.1692
13827SOL     OW47826   7.595   5.137   4.895  0.2325  0.0714 -0.2605
13827SOL    HW147827   7.535   5.211   4.888  0.2854  0.0651 -0.8078
13827SOL    HW247828   7.662   5.166   4.957  0.0470  0.3378 -0.1807
13828SOL     OW47829   8.026   4.173   6.483  0.2370 -0.3039  0.6314
13828SOL    HW147830   7.962   4.103   6.499 -1.3429  1.1171  0.9007
13828SOL    HW247831   8.100   4.129   6.442 -0.5376 -2.1843  1.1315
13829SOL     OW47832   2.522   3.976   2.726  0.3763 -0.4607 -0.7123
13829SOL    HW147833   2.475   4.035   2.666  0.8256 -0.6520 -1.2551
13829SOL    HW247834   2.461   3.903   2.739 -0.4913  0.4534  0.5504
13830SOL     OW47835   1.606   7.424   3.795 -0.3415 -0.0707 -0.3064
13830SOL    HW147836   1.514   7.413   3.821  0.1289  0.2147  1.5432
13830SOL    HW247837   1.650   7.346   3.829  0.5469  0.9999  1.0920
13831SOL     OW47838   6.445   4.225   6.510 -0.2243  0.3573  0.1380
13831SOL    HW147839   6.382   4.222   6.437 -0.1234 -0.1378  0.0631
13831SOL    HW247840   6.462   4.318   6.523 -0.7836  0.4857 -0.0050
13832SOL     OW47841   2.216   3.414   2.104  0.1021 -0.1304  0.6627
13832SOL    HW147842   2.254   3.404   2.192 -0.3717  0.2742  0.9141
13832SOL    HW247843   2.160   3.337   2.093  0.8536 -0.6561  0.3469
13833SOL     OW47844   4.121   3.014   7.523 -0.5468  0.2573 -0.0597
13833SOL    HW147845   4.149   2.923   7.520 -1.3417 -0.2719  3.6226
13833SOL    HW247846   4.033   3.014   7.486 -0.1196 -0.2490 -1.0799
13834SOL     OW47847   1.092   1.345   6.254 -0.4528  0.0029 -0.2588
13834SOL    HW147848   1.050   1.427   6.230  0.1451  0.1576 -0.8062
13834SOL    HW247849   1.150   1.368   6.327 -0.1783  0.0940 -0.5065
13835SOL     OW47850   0.737   2.901   2.095  0.3488  0.2458 -0.0115
13835SOL    HW147851   0.805   2.854   2.047 -0.6712 -1.6402  0.2764
13835SOL    HW247852   0.768   2.901   2.186  0.4042  0.2383 -0.0302
13836SOL     OW47853   5.523   4.808   0.293 -0.3542  0.0434  0.5030
13836SOL    HW147854   5.477   4.795   0.211  1.3805  0.8197 -0.6493
13836SOL    HW247855   5.541   4.902   0.296  1.1008 -0.2214  0.9129
13837SOL     OW47856   9.034   3.690   1.998 -0.4684 -0.4114 -0.2517
13837SOL    HW147857   9.047   3.607   1.952  0.6435 -0.0061 -0.7082
13837SOL    HW247858   9.083   3.753   1.947  1.4813 -0.0655  1.8768
13838SOL     OW47859   0.876   4.254   2.213 -0.4968  0.5436  0.8641
13838SOL    HW147860   0.927   4.179   2.182  1.2213  1.9449  0.1404
13838SOL    HW247861   0.856   4.233   2.305 -1.5032 -1.5014  0.2443
13839SOL     OW47862   7.673   5.669   1.277 -0.4503 -0.3161  0.5814
13839SOL    HW147863   7.701   5.640   1.364 -0.5258  0.1871  0.7765
13839SOL    HW247864   7.714   5.755   1.266 -3.0738  1.1366  1.4944
13840SOL     OW47865   6.160   3.640   8.757  0.6585 -0.7080  0.1067
13840SOL    HW147866   6.065   3.634   8.764  0.6800 -0.7249  0.3940
13840SOL    HW247867   6.179   3.734   8.755  0.8172 -0.6073  2.7628
13841SOL     OW47868   7.546   1.077   3.621  0.2044  0.3095 -0.3353
13841SOL    HW147869   7.475   1.109   3.565 -1.5278 -0.2505  1.4258
13841SOL    HW247870   7.594   1.156   3.645 -0.8820  0.9506 -0.1856
13842SOL     OW47871   5.945   7.894   1.140  0.3495  0.1376  0.6481
13842SOL    HW147872   5.858   7.872   1.106 -0.0316  2.3140  0.1185
13842SOL    HW247873   6.005   7.839   1.090 -0.4460  1.1343 -1.5146
13843SOL     OW47874   4.250   5.033   7.542  0.1577 -0.0685 -0.1028
13843SOL    HW147875   4.286   5.114   7.506  2.2685 -1.4150 -1.2853
13843SOL    HW247876   4.159   5.053   7.563  0.1526  2.1144 -1.9121
13844SOL     OW47877   8.844   5.176   4.126  0.1761  0.5579  0.5541
13844SOL    HW147878   8.854   5.164   4.221 -0.0640 -0.1202  0.5009
13844SOL    HW247879   8.877   5.094   4.088  1.0824  1.1679 -0.0056
13845SOL     OW47880   2.472   5.238   0.497  0.0893 -0.7104  0.7211
13845SOL    HW147881   2.386   5.271   0.471  0.6638  0.9300  0.7913
13845SOL    HW247882   2.468   5.233   0.593  0.2672 -0.0080  0.7722
13846SOL     OW47883   4.315   4.620   6.222 -0.1052  0.7425 -0.6214
13846SOL    HW147884   4.389   4.678   6.242  0.0744  0.9060 -1.7205
13846SOL    HW247885   4.323   4.601   6.129  0.5505 -2.0593 -0.0853
13847SOL     OW47886   7.492   1.071   5.551 -0.2336  0.0053  0.2425
13847SOL    HW147887   7.457   1.101   5.467  0.4831  0.5898  0.1460
13847SOL    HW247888   7.491   0.976   5.544 -1.2872  0.0141  0.0354
13848SOL     OW47889   7.729   9.122   0.219  0.1330  0.4444  0.0731
13848SOL    HW147890   7.761   9.097   0.132 -0.7614 -1.6001  0.2751
13848SOL    HW247891   7.637   9.142   0.205  0.0992  0.5521  0.4615
13849SOL     OW47892   6.063   4.994   2.567  0.0197 -0.1958 -0.3307
13849SOL    HW147893   6.043   5.031   2.654 -1.7247  2.2336 -1.6530
13849SOL    HW247894   6.028   4.906   2.570 -3.4686  1.0621  0.3208
13850SOL     OW47895   1.166   7.521   9.122  0.5010 -0.3995 -0.3544
13850SOL    HW147896   1.132   7.587   9.183 -0.4322 -1.1380 -0.0566
13850SOL    HW247897   1.140   7.554   9.035 -1.3282 -1.1021 -0.1203
13851SOL     OW47898   1.216   4.764   4.771 -0.7663  0.5955  0.0357
13851SOL    HW147899   1.258   4.846   4.794 -1.7136  0.7514  1.3090
13851SOL    HW247900   1.182   4.730   4.854 -1.1891 -0.6256 -0.6097
13852SOL     OW47901   5.032   5.317   5.040 -0.6138  0.4198 -0.1471
13852SOL    HW147902   5.052   5.392   5.096  1.2667  0.1558 -0.4126
13852SOL    HW247903   4.937   5.321   5.028 -1.1743  0.2648  3.3343
13853SOL     OW47904   7.041   8.417   0.089 -0.3568 -0.3172 -0.0835
13853SOL    HW147905   6.971   8.352   0.097 -2.5962  1.8975 -0.1049
13853SOL    HW247906   7.075   8.405   0.000  0.1489 -2.1806  0.3185
13854SOL     OW47907   9.182   3.310   3.481  0.1557  0.3516  0.0242
13854SOL    HW147908   9.239   3.270   3.414 -0.2590 -2.1781  1.0464
13854SOL    HW247909   9.156   3.394   3.443 -0.8455 -1.3139 -3.4917
13855SOL     OW47910   1.226   3.839   8.179 -0.3031  0.2791  0.0724
13855SOL    HW147911   1.322   3.840   8.178 -0.3035  0.1667 -0.3253
13855SOL    HW247912   1.202   3.916   8.230  0.0099 -0.6779  1.7258
13856SOL     OW47913   0.518   6.514   6.988 -0.4437 -0.4353 -0.0324
13856SOL    HW147914   0.609   6.487   6.976 -0.8550 -1.3520 -1.2748
13856SOL    HW247915   0.487   6.533   6.899 -1.3426  0.3008  0.4194
13857SOL     OW47916   2.403   3.689   7.564  0.2984 -0.1085 -0.3756
13857SOL    HW147917   2.359   3.649   7.640  1.3891  1.5472  1.2255
13857SOL    HW247918   2.343   3.675   7.491  0.2420 -3.9329  0.1521
13858SOL     OW47919   2.168   3.452   4.778 -0.1795  0.6163 -0.1257
13858SOL    HW147920   2.258   3.485   4.772  0.4490 -0.9629  0.1250
13858SOL    HW247921   2.173   3.378   4.839 -1.4720 -0.0523 -0.7817
13859SOL     OW47922   0.490   6.869   8.096  0.6164  0.1149 -0.4788
13859SOL    HW147923   0.503   6.791   8.150  1.3776 -0.3696 -1.3253
13859SOL    HW247924   0.571   6.877   8.045  0.3086  1.1107 -0.8456
13860SOL     OW47925   5.342   0.107   5.204 -0.1786 -0.1019  0.6998
13860SOL    HW147926   5.316   0.183   5.257 -0.9716 -1.4647  2.3683
13860SOL    HW247927   5.268   0.047   5.212  1.4183 -2.0591  1.4880
13861SOL     OW47928   3.326   8.466   2.299  0.1783  0.4539  0.4924
13861SOL    HW147929   3.249   8.520   2.277 -0.5669 -0.6247  0.3611
13861SOL    HW247930   3.290   8.378   2.310  1.5037 -0.1856 -0.1998
13862SOL     OW47931   6.947   0.936   2.953 -0.2029 -0.1011 -0.4812
13862SOL    HW147932   6.887   0.864   2.934 -0.5406  0.4891 -1.7366
13862SOL    HW247933   6.996   0.906   3.029 -0.1828 -1.7416 -1.0968
13863SOL     OW47934   8.300   6.255   8.016  0.0671 -0.2636 -0.6197
13863SOL    HW147935   8.301   6.185   7.951 -2.4608 -1.1898  0.2236
13863SOL    HW247936   8.283   6.211   8.099 -0.2512  1.2073  0.1269
13864SOL     OW47937   6.336   1.955   2.187 -0.5569 -0.3653 -0.6446
13864SOL    HW147938   6.361   2.043   2.218  0.0820 -0.7973  0.1323
13864SOL    HW247939   6.258   1.934   2.238 -1.0131 -0.0451 -1.2059
13865SOL     OW47940   3.673   7.885   2.747  0.2228 -0.0335  0.1091
13865SOL    HW147941   3.710   7.797   2.740  2.1434  0.7678 -0.7682
13865SOL    HW247942   3.675   7.905   2.841 -0.8938 -1.1547  0.3893
13866SOL     OW47943   2.988   3.591   5.056  0.9828  0.1945 -0.1333
13866SOL    HW147944   3.030   3.662   5.007 -1.4321  0.1446 -2.5095
13866SOL    HW247945   2.932   3.636   5.120  0.2316  0.4415 -0.9479
13867SOL     OW47946   4.065   7.737   6.224 -0.8448  0.2130 -0.0456
13867SOL    HW147947   3.978   7.760   6.192 -1.0768 -0.2892  0.2213
13867SOL    HW247948   4.077   7.792   6.302 -1.6618 -0.9952  0.9699
13868SOL     OW47949   4.310   6.473   6.020 -0.1848 -0.6844 -0.3230
13868SOL    HW147950   4.383   6.454   6.079 -0.2730 -0.8712 -0.2721
13868SOL    HW247951   4.335   6.433   5.937  0.6122  0.8442 -0.8576
13869SOL     OW47952   5.184   0.590   1.295 -0.5790 -0.1228  0.4634
13869SOL    HW147953   5.184   0.574   1.200 -0.1857  0.2285  0.4030
13869SOL    HW247954   5.148   0.678   1.304  0.9825  0.5389  0.5151
13870SOL     OW47955   9.198   3.068   8.862 -0.4930 -0.4289  0.2864
13870SOL    HW147956   9.192   2.989   8.916  0.9681 -1.0695 -0.4414
13870SOL    HW247957   9.171   3.138   8.921  1.0031 -1.1053  1.8869
13871SOL     OW47958   4.177   1.214   6.938 -0.8681  0.4710  0.0679
13871SOL    HW147959   4.135   1.192   6.855 -0.1077 -2.6483  0.3959
13871SOL    HW247960   4.105   1.241   6.995 -2.0829 -1.7897 -0.2835
13872SOL     OW47961   4.728   6.600   8.828  0.0338  0.2431  0.2039
13872SOL    HW147962   4.671   6.587   8.904 -0.4244  0.4649 -0.0935
13872SOL    HW247963   4.693   6.679   8.786  1.6114  1.3959  0.9615
13873SOL     OW47964   2.147   0.133   8.154 -0.3654  0.3110  0.7422
13873SOL    HW147965   2.219   0.073   8.170 -0.8006 -0.1727  0.9270
13873SOL    HW247966   2.072   0.076   8.134 -1.1214  0.7267  2.2450
13874SOL     OW47967   7.975   2.505   4.453 -0.1574 -0.9687 -0.3531
13874SOL    HW147968   7.959   2.440   4.385  0.9639  1.6024 -3.3590
13874SOL    HW247969   8.044   2.467   4.507  0.0901 -2.5149 -1.6754
13875SOL     OW47970   4.651   1.268   1.841  0.0692  0.2882  0.3517
13875SOL    HW147971   4.720   1.328   1.867  0.3784  0.2980 -0.4736
13875SOL    HW247972   4.693   1.207   1.780  0.0455 -1.4476  1.9682
13876SOL     OW47973   8.070   7.717   5.843  0.3556 -0.3378  0.5508
13876SOL    HW147974   8.066   7.628   5.879  1.5098 -0.3308  0.7195
13876SOL    HW247975   8.147   7.756   5.884 -0.1222  0.7356  0.4478
13877SOL     OW47976   6.934   2.657   0.459 -0.6076 -0.1759  0.4267
13877SOL    HW147977   6.890   2.646   0.543 -0.4697  1.8894  0.8290
13877SOL    HW247978   7.016   2.701   0.480 -0.9640  1.1675 -0.8403
13878SOL     OW47979   2.870   0.485   4.350 -0.6102 -0.2556  0.3736
13878SOL    HW147980   2.892   0.452   4.437  0.3207  1.6030  0.8798
13878SOL    HW247981   2.951   0.522   4.316 -0.8448 -1.2978 -1.5008
13879SOL     OW47982   6.947   5.745   7.192  0.0218 -0.3412 -0.6948
13879SOL    HW147983   6.963   5.654   7.217  1.3225 -0.0563 -0.4365
13879SOL    HW247984   7.013   5.795   7.240 -0.2709  0.6777 -1.3222
13880SOL     OW47985   4.186   0.368   5.270 -0.0282 -0.3142  0.3093
13880SOL    HW147986   4.143   0.315   5.202  0.0276  0.8213 -0.6568
13880SOL    HW247987   4.122   0.371   5.341 -0.0157 -1.6822  0.4018
13881SOL     OW47988   4.910   2.265   5.640  0.3891 -0.1628  0.0260
13881SOL    HW147989   4.996   2.278   5.600 -0.1273  0.7911 -0.8249
13881SOL    HW247990   4.926   2.273   5.734  0.9634  2.0266 -0.1986
13882SOL     OW47991   6.856   0.692   1.802  0.5476 -0.2214 -0.4239
13882SOL    HW147992   6.775   0.660   1.761 -0.7553 -1.2471  2.6453
13882SOL    HW247993   6.837   0.783   1.824 -0.5654 -0.9054  1.8012
13883SOL     OW47994   3.233   4.765   4.688  0.1512  0.2395 -0.1866
13883SOL    HW147995   3.261   4.698   4.750 -0.4523 -1.2656 -1.4689
13883SOL    HW247996   3.138   4.772   4.702  0.0492  0.0589 -0.7638
13884SOL     OW47997   4.257   4.290   0.975  0.4567  0.1494  0.0433
13884SOL    HW147998   4.180   4.237   0.995  0.6347  0.0321  0.4350
13884SOL    HW247999   4.224   4.380   0.975  0.3062  0.0960  0.1538
13885SOL     OW48000   4.502   1.903   2.361  0.1844 -0.8113  0.3063
13885SOL    HW148001   4.530   1.833   2.419  0.1715  0.4410  1.8899
13885SOL    HW248002   4.426   1.942   2.405  1.4135  1.4968  0.5318
13886SOL     OW48003   2.277   3.439   5.103 -0.0003 -0.4845  0.2188
13886SOL    HW148004   2.297   3.465   5.193  0.5713 -1.0280  0.2596
13886SOL    HW248005   2.182   3.431   5.101 -0.0536 -0.0035  0.6427
13887SOL     OW48006   6.294   4.777   6.120 -0.0188 -0.1769  0.1069
13887SOL    HW148007   6.304   4.721   6.043 -0.2643  0.1534 -0.1705
13887SOL    HW248008   6.357   4.742   6.184  0.2040 -0.4360 -0.2506
13888SOL     OW48009   6.346   8.599   1.607  0.2616  0.0096  0.3976
13888SOL    HW148010   6.341   8.692   1.630 -1.0902  0.0070  0.1641
13888SOL    HW248011   6.324   8.596   1.514 -1.6121 -0.7062  0.8225
13889SOL     OW48012   3.594   2.894   6.115  0.0930  0.0497  0.1534
13889SOL    HW148013   3.565   2.924   6.028  2.5910  0.6171 -0.5646
13889SOL    HW248014   3.598   2.799   6.107 -0.9734 -0.0146  0.1245
13890SOL     OW48015   7.210   5.763   7.702 -0.1163  0.7397  0.0812
13890SOL    HW148016   7.274   5.833   7.718 -1.6208  1.8663  1.5296
13890SOL    HW248017   7.133   5.809   7.669 -0.9482 -0.3084  0.5172
13891SOL     OW48018   3.704   6.465   6.386  0.0710 -0.9631 -0.6540
13891SOL    HW148019   3.791   6.506   6.386  0.0898 -0.9194  1.1421
13891SOL    HW248020   3.647   6.530   6.345  0.4767  0.0315  0.2984
13892SOL     OW48021   6.054   3.155   1.167 -0.2849 -0.2813  0.5165
13892SOL    HW148022   6.067   3.166   1.261 -0.5717 -0.3687  0.5685
13892SOL    HW248023   5.960   3.171   1.154 -0.0451  0.8200  0.0813
13893SOL     OW48024   3.395   6.251   0.379 -0.3938  0.0540  0.1448
13893SOL    HW148025   3.355   6.165   0.366 -1.2338  0.1167  1.9849
13893SOL    HW248026   3.356   6.306   0.311 -1.5303 -0.5096  0.3196
13894SOL     OW48027   4.467   0.061   5.112  0.3780 -0.1109  0.3946
13894SOL    HW148028   4.483   0.109   5.030 -0.5274  0.8444  0.7504
13894SOL    HW248029   4.443   0.129   5.175 -2.0174 -1.1009  0.6631
13895SOL     OW48030   5.510   7.764   0.937 -0.0790  0.0619  0.5320
13895SOL    HW148031   5.449   7.694   0.914  1.5763 -1.0026 -0.9116
13895SOL    HW248032   5.498   7.831   0.870  0.8366 -0.5075 -0.2290
13896SOL     OW48033   8.136   6.502   8.173 -0.0433 -0.0746  0.4477
13896SOL    HW148034   8.113   6.587   8.133 -0.3688 -0.4042 -0.0818
13896SOL    HW248035   8.169   6.450   8.099 -0.6753 -0.7041  0.6066
13897SOL     OW48036   5.981   8.277   7.661  0.3641  0.6847 -0.1631
13897SOL    HW148037   6.051   8.279   7.726 -0.1738 -0.6006  0.4887
13897SOL    HW248038   5.911   8.226   7.702 -0.6989  1.3704 -1.0585
13898SOL     OW48039   4.340   1.558   4.892 -0.2294 -0.5585 -0.5575
13898SOL    HW148040   4.343   1.499   4.816  0.9344 -1.5814  0.2367
13898SOL    HW248041   4.307   1.641   4.856 -0.4978 -1.2519 -2.0085
13899SOL     OW48042   8.734   1.536   8.080 -0.0145  0.4669  0.4588
13899SOL    HW148043   8.803   1.592   8.115 -0.8214  1.8509 -0.0706
13899SOL    HW248044   8.677   1.518   8.155  0.6921 -0.3680  0.8131
13900SOL     OW48045   3.026   0.298   0.952 -0.1170  0.0313 -0.1343
13900SOL    HW148046   3.024   0.207   0.921  2.6096 -0.5496  1.0483
13900SOL    HW248047   2.986   0.348   0.881  0.0176 -1.8943 -1.6753
13901SOL     OW48048   8.629   8.034   6.203 -0.5261  0.3899  0.4965
13901SOL    HW148049   8.556   8.087   6.236 -0.1216  0.1671  1.8057
13901SOL    HW248050   8.682   8.015   6.280 -0.1134 -1.0672 -0.1005
13902SOL     OW48051   8.844   3.543   5.524 -0.2607  0.2638 -0.6749
13902SOL    HW148052   8.931   3.504   5.516 -0.0431  0.4269  0.7300
13902SOL    HW248053   8.789   3.491   5.465  0.6492 -0.2460 -1.0934
13903SOL     OW48054   2.438   2.006   8.221  0.3500 -0.3975 -0.1902
13903SOL    HW148055   2.352   1.963   8.214  0.9391 -1.4488 -1.3374
13903SOL    HW248056   2.466   2.019   8.131  1.9094 -1.1236  0.1575
13904SOL     OW48057   6.380   8.853   1.673  0.1020  0.3489 -0.1319
13904SOL    HW148058   6.458   8.841   1.727  0.6306  0.8861 -0.7582
13904SOL    HW248059   6.384   8.944   1.644 -1.5281  0.8254  0.9942
13905SOL     OW48060   7.123   3.892   3.520 -0.1303  0.1158  0.4197
13905SOL    HW148061   7.061   3.819   3.509 -0.5351  0.2977  1.4286
13905SOL    HW248062   7.096   3.935   3.601  0.6659  0.8500  0.3103
13906SOL     OW48063   6.420   5.406   2.345 -0.3964  0.1444  0.3660
13906SOL    HW148064   6.392   5.337   2.405 -1.0043  0.7386  0.7815
13906SOL    HW248065   6.339   5.450   2.320 -0.4045 -1.2425 -2.3748
13907SOL     OW48066   7.676   7.375   5.826 -0.4725  0.2950 -0.1584
13907SOL    HW148067   7.707   7.432   5.756  1.0397 -1.3643 -0.9486
13907SOL    HW248068   7.648   7.295   5.781 -2.3868  0.3153  0.9165
13908SOL     OW48069   1.101   0.046   8.864 -0.0361  0.3415 -0.4928
13908SOL    HW148070   1.152  -0.020   8.817 -0.3549  1.2978 -2.2277
13908SOL    HW248071   1.057   0.096   8.796 -2.7012  0.0735  0.9143
13909SOL     OW48072   6.285   7.275   8.480 -0.4961  0.4907  0.8565
13909SOL    HW148073   6.366   7.320   8.454  0.0264 -0.2492  1.1627
13909SOL    HW248074   6.232   7.342   8.522 -0.2134  1.0797  0.2890
13910SOL     OW48075   2.165   2.547   2.756  0.2727 -0.3459  0.0479
13910SOL    HW148076   2.087   2.539   2.701  1.1421 -0.8280 -1.1675
13910SOL    HW248077   2.166   2.638   2.784 -1.5355 -0.6755  1.3648
13911SOL     OW48078   6.830   5.788   9.030 -0.0615  0.7834  0.1187
13911SOL    HW148079   6.754   5.802   9.086 -1.6969 -0.3155 -1.7297
13911SOL    HW248080   6.818   5.701   8.993  1.2410  1.2519 -1.5354
13912SOL     OW48081   5.873   0.975   3.189 -0.1784 -0.5937 -0.0199
13912SOL    HW148082   5.895   0.925   3.268  0.9763  0.0289  0.0689
13912SOL    HW248083   5.952   1.025   3.169 -1.1984  0.9971 -0.2593
13913SOL     OW48084   4.069   6.447   6.705  0.1917 -0.2112 -0.2691
13913SOL    HW148085   4.131   6.374   6.714 -1.0273 -1.3043 -0.4938
13913SOL    HW248086   3.988   6.406   6.677 -0.0656  1.4314 -2.1293
13914SOL     OW48087   3.296   4.592   5.329  0.0918 -0.2717 -0.0216
13914SOL    HW148088   3.295   4.677   5.374  0.4748 -0.9826  1.3850
13914SOL    HW248089   3.384   4.584   5.294  0.2049 -0.2953  0.2674
13915SOL     OW48090   8.561   4.757   0.015  0.5126 -0.9754  0.0803
13915SOL    HW148091   8.599   4.752  -0.073 -0.2994 -1.5599 -0.2543
13915SOL    HW248092   8.628   4.799   0.068  1.7289 -2.2035 -0.4322
13916SOL     OW48093   5.063   0.422   8.631  0.1489  0.6002  0.5749
13916SOL    HW148094   5.074   0.377   8.715  0.6390 -0.1370  0.1208
13916SOL    HW248095   4.977   0.393   8.600  1.4115 -1.9943 -0.8448
13917SOL     OW48096   6.532   8.612   1.892 -0.2684 -0.0950 -0.1652
13917SOL    HW148097   6.450   8.572   1.922  0.8736 -1.5972  1.1372
13917SOL    HW248098   6.534   8.697   1.936 -1.3389  0.1885 -0.6124
13918SOL     OW48099   4.982   0.927   5.679 -0.1363  0.4027 -0.3994
13918SOL    HW148100   4.950   0.959   5.763  0.6435 -0.9990  0.4782
13918SOL    HW248101   4.957   0.994   5.616 -1.2355  1.2183  0.8604
13919SOL     OW48102   8.650   8.359   1.602  0.5310 -0.0717  0.2044
13919SOL    HW148103   8.605   8.306   1.536  2.8205 -2.8408  0.6701
13919SOL    HW248104   8.580   8.392   1.658 -1.2060 -0.4663 -1.6063
13920SOL     OW48105   8.155   8.862   5.723 -0.0200  0.4239  0.0134
13920SOL    HW148106   8.176   8.836   5.813 -1.0791  0.5292  0.3097
13920SOL    HW248107   8.137   8.955   5.728  2.4863  1.0362 -0.8162
13921SOL     OW48108   2.555   1.674   6.567  0.0627 -0.3375  0.4421
13921SOL    HW148109   2.598   1.737   6.509 -2.1430 -0.5387 -1.5542
13921SOL    HW248110   2.602   1.682   6.650  0.9395  2.7071 -0.2271
13922SOL     OW48111   1.147   8.146   1.668 -0.1769 -0.3174  0.1645
13922SOL    HW148112   1.083   8.214   1.689 -0.7322 -1.1796  1.4143
13922SOL    HW248113   1.204   8.185   1.602 -0.2290  1.4857  1.1362
13923SOL     OW48114   1.337   2.120   8.732  0.0158 -0.1693  0.4409
13923SOL    HW148115   1.346   2.183   8.803  0.6988  0.4637 -0.1873
13923SOL    HW248116   1.247   2.090   8.738  0.0461 -0.0801  1.5307
13924SOL     OW48117   0.712   7.557   6.616 -0.1876  0.6948 -0.4592
13924SOL    HW148118   0.805   7.560   6.592 -0.3409 -0.0275 -1.2123
13924SOL    HW248119   0.708   7.495   6.689 -0.0525  0.8936 -0.2822
13925SOL     OW48120   1.614   5.711   1.932 -0.2214 -0.1722 -0.1788
13925SOL    HW148121   1.591   5.626   1.896  0.4752 -0.1420 -0.7226
13925SOL    HW248122   1.687   5.741   1.878  0.0663  0.4126  0.5087
13926SOL     OW48123   9.171   0.918   1.175 -0.0044 -0.6363  0.4051
13926SOL    HW148124   9.266   0.908   1.179 -0.1603 -2.4265  0.4860
13926SOL    HW248125   9.150   0.973   1.250  1.0168  0.4684 -0.0762
13927SOL     OW48126   2.969   1.839   6.522 -0.4258  0.4022 -0.7330
13927SOL    HW148127   2.991   1.931   6.536 -0.6052  0.4084 -0.4775
13927SOL    HW248128   3.052   1.798   6.498 -0.1867  0.4736 -0.0343
13928SOL     OW48129   7.624   3.458   6.320  0.6262 -0.2969 -0.4844
13928SOL    HW148130   7.557   3.438   6.254  2.6027  0.4398 -2.8629
13928SOL    HW248131   7.651   3.373   6.354 -0.7589 -0.6564 -0.2080
13929SOL     OW48132   5.848   8.420   8.943  0.0802  0.5673 -1.1185
13929SOL    HW148133   5.872   8.348   9.001  1.1991  0.8614 -1.1970
13929SOL    HW248134   5.761   8.397   8.912  0.0429 -0.2904 -0.4189
13930SOL     OW48135   6.272   3.494   6.446 -0.3616 -0.0147 -0.2813
13930SOL    HW148136   6.242   3.496   6.537  1.1749 -0.4945  0.2546
13930SOL    HW248137   6.301   3.583   6.428  0.2376 -0.1402  0.0286
13931SOL     OW48138   1.254   4.541   6.436 -0.3531  0.3519  0.2787
13931SOL    HW148139   1.330   4.592   6.463 -0.3740  0.3247  0.3883
13931SOL    HW248140   1.276   4.450   6.458  0.5776 -0.0075 -1.8225
13932SOL     OW48141   3.517   3.181   7.210 -0.0488  0.1587 -0.0325
13932SOL    HW148142   3.597   3.212   7.252 -1.1732  1.8560  0.9513
13932SOL    HW248143   3.499   3.246   7.142 -1.6580  0.9740  1.1010
13933SOL     OW48144   6.455   4.320   2.429 -0.4238 -0.0140 -0.1982
13933SOL    HW148145   6.432   4.411   2.447  0.5555  0.0057  1.0404
13933SOL    HW248146   6.551   4.318   2.430 -0.4317 -1.2073  0.6733
13934SOL     OW48147   3.345   2.283   3.721 -0.2139 -0.1980 -0.6838
13934SOL    HW148148   3.268   2.227   3.715 -1.4668  1.4863 -1.1595
13934SOL    HW248149   3.363   2.310   3.631  0.4937  0.0097 -0.4903
13935SOL     OW48150   1.255   4.625   7.800 -0.4084 -0.4346 -0.0741
13935SOL    HW148151   1.267   4.678   7.878  1.9434 -0.6082 -0.2365
13935SOL    HW248152   1.227   4.540   7.833  3.4240 -1.4913  1.0373
13936SOL     OW48153   1.753   7.876   0.422  0.0393  0.1155 -0.2978
13936SOL    HW148154   1.785   7.880   0.332  2.0305  0.9864  0.3880
13936SOL    HW248155   1.735   7.967   0.446  0.8779  0.0581  0.6180
13937SOL     OW48156   7.055   1.829   6.033 -0.2919 -0.0583 -0.0213
13937SOL    HW148157   7.024   1.837   6.123  0.4963 -1.4924  0.4191
13937SOL    HW248158   6.999   1.761   5.994 -1.9806  1.9503 -1.2982
13938SOL     OW48159   4.083   1.990   8.348 -0.6964  0.5645  0.1581
13938SOL    HW148160   4.110   1.900   8.330  0.3572  1.1612 -1.4535
13938SOL    HW248161   4.052   1.988   8.438 -0.4217 -1.3452  0.2553
13939SOL     OW48162   8.383   8.919   3.852  0.0699 -0.9087  0.5665
13939SOL    HW148163   8.478   8.933   3.853 -0.3358  2.7917  0.8389
13939SOL    HW248164   8.362   8.904   3.760  0.7649  0.5126  0.1362
13940SOL     OW48165   3.366   6.476   4.400 -0.1380 -0.0396  0.0795
13940SOL    HW148166   3.289   6.512   4.356 -0.7137  0.0706  1.1388
13940SOL    HW248167   3.350   6.382   4.405 -0.2948  0.0028  0.4468
13941SOL     OW48168   8.592   4.247   3.064 -0.3843 -0.0613 -0.9311
13941SOL    HW148169   8.531   4.270   3.134  1.9318  1.2118  0.8547
13941SOL    HW248170   8.635   4.330   3.041  1.6476 -1.0627 -1.0379
13942SOL     OW48171   2.093   2.504   0.454 -0.0797  0.2339 -0.7959
13942SOL    HW148172   2.001   2.521   0.434 -0.2778 -0.7590 -0.7789
13942SOL    HW248173   2.133   2.591   0.455 -0.9800  0.6715 -0.9587
13943SOL     OW48174   1.267   5.179   0.881 -0.3366  0.4917 -0.2393
13943SOL    HW148175   1.267   5.083   0.876 -1.0553  0.3968  1.0712
13943SOL    HW248176   1.260   5.208   0.790 -0.5323 -0.7001 -0.6231
13944SOL     OW48177   7.280   3.190   7.249 -0.3893  0.2161  0.6298
13944SOL    HW148178   7.372   3.215   7.259  0.3522 -2.1865  0.3946
13944SOL    HW248179   7.262   3.198   7.155  0.0212 -0.6705  0.4708
13945SOL     OW48180   1.029   0.820   5.248 -0.1311  0.1514  0.0350
13945SOL    HW148181   1.122   0.810   5.226 -0.6461 -0.6946 -2.0787
13945SOL    HW248182   1.019   0.912   5.268  1.0912  0.3620 -0.2350
13946SOL     OW48183   6.843   4.705   4.194  0.2847  0.3894  0.1524
13946SOL    HW148184   6.758   4.661   4.195  1.5862 -2.4101 -0.6965
13946SOL    HW248185   6.877   4.688   4.107  1.1197  2.8334 -0.0691
13947SOL     OW48186   5.414   8.357   8.445 -0.3605 -0.3961  0.2733
13947SOL    HW148187   5.476   8.391   8.380 -0.9977 -1.0963 -0.7288
13947SOL    HW248188   5.347   8.312   8.393 -0.9713 -0.8439  1.4145
13948SOL     OW48189   2.871   1.584   5.286  0.1178 -0.4808 -0.2440
13948SOL    HW148190   2.875   1.524   5.361  0.7281 -0.1242  0.0181
13948SOL    HW248191   2.834   1.665   5.322  0.1834 -0.3893 -0.3803
13949SOL     OW48192   5.482   7.733   2.861 -0.3048  0.4173  0.1204
13949SOL    HW148193   5.512   7.818   2.893  1.9251 -0.6793  1.1411
13949SOL    HW248194   5.559   7.695   2.818 -1.7578 -0.3691 -1.9865
13950SOL     OW48195   0.642   6.459   2.912  0.9036 -0.0825 -0.2403
13950SOL    HW148196   0.737   6.451   2.903  1.1031  0.9565  0.7564
13950SOL    HW248197   0.624   6.552   2.899 -0.0606 -0.3651 -1.0495
13951SOL     OW48198   7.920   0.488   3.525  0.6046  0.1150 -0.0995
13951SOL    HW148199   7.883   0.553   3.466 -0.9211  0.3957  1.0999
13951SOL    HW248200   7.895   0.403   3.488 -0.8063  0.2991  0.3935
13952SOL     OW48201   3.233   0.042   0.239  0.0574 -0.2048  0.4106
13952SOL    HW148202   3.182   0.048   0.158  0.5821  0.2167  0.1058
13952SOL    HW248203   3.167   0.043   0.308 -0.7224 -4.0291 -0.0315
13953SOL     OW48204   2.128   2.390   1.048  0.4535  0.0020 -0.4222
13953SOL    HW148205   2.201   2.333   1.070  0.9712  0.9981  0.5783
13953SOL    HW248206   2.055   2.358   1.101  0.9868  0.7653  0.8495
13954SOL     OW48207   2.405   7.383   0.418  0.2653 -0.1751 -0.6328
13954SOL    HW148208   2.455   7.351   0.494  0.4296  0.3758 -0.5019
13954SOL    HW248209   2.473   7.412   0.357  0.1637 -1.4055 -1.3596
13955SOL     OW48210   0.137   4.501   7.508 -0.1537 -0.2802 -0.2715
13955SOL    HW148211   0.157   4.532   7.597 -0.2271 -1.1904  0.0734
13955SOL    HW248212   0.111   4.580   7.461 -0.4649  0.1701  0.6222
13956SOL     OW48213   7.446   5.526   5.893 -0.1191 -0.1381 -0.6989
13956SOL    HW148214   7.426   5.441   5.853  0.5920 -1.7387  2.1104
13956SOL    HW248215   7.536   5.544   5.865  0.1938 -0.9719 -0.2455
13957SOL     OW48216   6.340   2.594   6.882 -0.0728 -0.4450  0.2550
13957SOL    HW148217   6.392   2.532   6.831 -1.2547 -0.7062 -0.6618
13957SOL    HW248218   6.253   2.556   6.886 -0.6953  0.8913  0.1187
13958SOL     OW48219   3.973   6.433   0.005  0.1135 -0.6274  0.3575
13958SOL    HW148220   3.946   6.352   0.050 -3.1393  0.6485  0.9874
13958SOL    HW248221   4.047   6.465   0.056  0.4704 -2.4018  1.0238
13959SOL     OW48222   2.279   0.717   8.777  0.5159  0.2880  0.1563
13959SOL    HW148223   2.363   0.678   8.802  0.1855  0.3324  1.4383
13959SOL    HW248224   2.217   0.680   8.839 -0.5943 -0.4301 -1.3403
13960SOL     OW48225   6.725   2.816   6.897 -0.3790  0.0430  0.0962
13960SOL    HW148226   6.793   2.775   6.844 -0.8291 -0.6533  0.0437
13960SOL    HW248227   6.654   2.835   6.836 -0.9892 -0.9580  0.4503
13961SOL     OW48228   4.749   7.976   2.069 -0.2064 -0.1940 -0.5179
13961SOL    HW148229   4.668   7.956   2.022 -0.6060 -1.0918  0.5240
13961SOL    HW248230   4.818   7.960   2.004 -0.8853  2.0430 -1.8895
13962SOL     OW48231   1.100   0.367   3.004 -0.3276  0.3232  0.2301
13962SOL    HW148232   1.130   0.414   3.081 -0.3071  0.8382 -0.0907
13962SOL    HW248233   1.014   0.403   2.985  0.3424  1.3668 -0.9485
13963SOL     OW48234   3.380   5.230   7.039  0.1677  0.2130 -0.0643
13963SOL    HW148235   3.443   5.178   7.088 -0.0349  1.6529  1.8323
13963SOL    HW248236   3.407   5.219   6.947  4.6525  2.4129  0.6789
13964SOL     OW48237   7.086   3.799   6.208  0.4315 -0.4145  0.3561
13964SOL    HW148238   7.036   3.719   6.226  0.7062 -0.3812  1.3117
13964SOL    HW248239   7.082   3.809   6.113  1.2041 -2.1078  0.1045
13965SOL     OW48240   6.958   8.677   2.807  0.6950 -0.1197  0.5654
13965SOL    HW148241   6.942   8.770   2.793  0.6254 -0.0043  1.3784
13965SOL    HW248242   6.909   8.655   2.886 -0.7406 -1.2599 -0.5894
13966SOL     OW48243   6.153   2.514   3.572 -0.5354  1.0404  0.4257
13966SOL    HW148244   6.128   2.580   3.637 -1.2127  1.4624 -0.2376
13966SOL    HW248245   6.173   2.565   3.494 -0.0326  0.5177  0.2079
13967SOL     OW48246   5.547   8.962   0.287 -0.1315 -0.2706 -0.1493
13967SOL    HW148247   5.516   9.049   0.313  3.2511  1.1534 -0.4550
13967SOL    HW248248   5.572   8.921   0.369 -0.0864 -0.2685 -0.1620
13968SOL     OW48249   5.143   0.397   2.527 -0.6348  0.6222  0.5197
13968SOL    HW148250   5.174   0.488   2.530 -0.4014  0.5216  2.4189
13968SOL    HW248251   5.208   0.351   2.473 -1.1376  1.6896 -1.0520
13969SOL     OW48252   7.450   2.471   5.066  0.5299  0.1043 -0.1065
13969SOL    HW148253   7.520   2.471   5.000  1.3416 -0.8299  0.7173
13969SOL    HW248254   7.371   2.449   5.017  0.5819  2.1884 -1.2388
13970SOL     OW48255   8.776   4.077   8.621 -0.2568  1.1274  0.3785
13970SOL    HW148256   8.764   4.065   8.716 -0.3557  0.8742  0.3354
13970SOL    HW248257   8.811   4.165   8.613  1.7734  0.4330  0.8403
13971SOL     OW48258   3.348   8.295   3.221 -0.6419  0.0254 -0.2417
13971SOL    HW148259   3.284   8.226   3.200  0.8075 -1.4856  0.0660
13971SOL    HW248260   3.383   8.269   3.306 -1.1865  2.0647  0.6619
13972SOL     OW48261   2.879   7.606   7.597 -0.3431  0.0059 -0.7398
13972SOL    HW148262   2.804   7.630   7.651 -0.2544 -0.7992 -0.2328
13972SOL    HW248263   2.870   7.658   7.517 -0.8186  0.7478 -0.2109
13973SOL     OW48264   7.797   0.211   0.455  0.6566  0.2635  0.1864
13973SOL    HW148265   7.882   0.242   0.423  0.4716 -0.9396 -1.6556
13973SOL    HW248266   7.797   0.117   0.435 -1.2778  0.3250 -0.2979
13974SOL     OW48267   4.696   6.217   0.374 -0.3828 -0.6315 -0.1571
13974SOL    HW148268   4.613   6.248   0.337  0.0583  0.1973 -0.4812
13974SOL    HW248269   4.754   6.210   0.298  0.1534 -0.1623  0.2037
13975SOL     OW48270   8.441   5.527   0.830  0.8192 -0.0520 -0.0142
13975SOL    HW148271   8.377   5.593   0.802  0.6975 -0.8495 -1.7369
13975SOL    HW248272   8.434   5.526   0.926  0.5477  2.1318  0.0396
13976SOL     OW48273   7.688   5.786   7.167 -0.6197  0.0538  0.1187
13976SOL    HW148274   7.688   5.696   7.135 -0.8101 -0.7805  2.2611
13976SOL    HW248275   7.781   5.809   7.177 -0.5263  0.6824 -1.8131
13977SOL     OW48276   6.254   4.472   5.087  0.1814  0.3329  0.6061
13977SOL    HW148277   6.285   4.390   5.048 -0.6283 -0.2996  1.2546
13977SOL    HW248278   6.332   4.527   5.093  0.3880  0.3825 -1.6733
13978SOL     OW48279   1.391   2.944   1.830 -0.1749 -0.8324  0.1905
13978SOL    HW148280   1.467   2.887   1.824  0.5558  0.2156 -1.0077
13978SOL    HW248281   1.398   3.002   1.754 -0.6854  1.0730  1.5105
13979SOL     OW48282   1.227   1.192   5.584  0.4062  0.0409 -0.0251
13979SOL    HW148283   1.284   1.123   5.618 -0.2986  0.3166  1.8243
13979SOL    HW248284   1.232   1.261   5.650 -0.1159  1.1200 -1.0874
13980SOL     OW48285   1.364   6.047   4.031 -0.4450 -0.5959 -0.0957
13980SOL    HW148286   1.279   6.005   4.046 -0.9049  0.6029  0.9292
13980SOL    HW248287   1.394   6.071   4.119  1.2307 -1.4826 -0.4007
13981SOL     OW48288   7.023   0.925   1.102 -0.8280 -0.6424  0.8225
13981SOL    HW148289   7.098   0.899   1.156 -0.8462  1.5084  1.9686
13981SOL    HW248290   6.974   0.844   1.089  0.7460 -1.7660  1.5502
13982SOL     OW48291   8.716   9.229   2.636  0.1971 -0.7682  0.1903
13982SOL    HW148292   8.657   9.155   2.622  0.0356 -1.2285  2.8548
13982SOL    HW248293   8.795   9.190   2.674  0.4328  0.3360  0.8780
13983SOL     OW48294   1.482   6.263   1.433  0.0403 -0.4953  0.3190
13983SOL    HW148295   1.557   6.305   1.474  0.3397 -1.8046  1.1620
13983SOL    HW248296   1.410   6.325   1.446  0.6719  0.1717  0.6934
13984SOL     OW48297   7.927   3.992   8.996 -0.8419 -0.2756 -0.4165
13984SOL    HW148298   8.001   3.991   8.936 -0.3983 -0.0183  0.1236
13984SOL    HW248299   7.927   4.080   9.034 -1.6645 -0.1386 -0.7012
13985SOL     OW48300   3.479   1.008   2.839  0.4992  0.4909 -0.3773
13985SOL    HW148301   3.544   1.070   2.806  2.3046 -0.8233  0.5387
13985SOL    HW248302   3.493   0.929   2.788 -0.5349  0.2312 -0.2818
13986SOL     OW48303   8.300   7.450   7.128 -0.2223  0.3909 -0.2968
13986SOL    HW148304   8.281   7.488   7.214 -0.5962 -0.3125 -0.0630
13986SOL    HW248305   8.238   7.493   7.069 -2.0092 -1.2116  0.3040
13987SOL     OW48306   0.932   0.937   8.848 -0.1313  0.7173  0.2983
13987SOL    HW148307   0.871   1.003   8.883  1.6466  3.6717 -1.6949
13987SOL    HW248308   0.884   0.893   8.779 -1.1950  0.2382  1.3129
13988SOL     OW48309   2.294   2.002   0.933 -0.1214 -0.1911 -0.4482
13988SOL    HW148310   2.357   2.070   0.955 -0.8077  0.5387 -0.7171
13988SOL    HW248311   2.241   2.040   0.863 -1.4651 -0.4298  0.4164
13989SOL     OW48312   5.899   4.954   4.329  0.3952 -0.4742 -0.2440
13989SOL    HW148313   5.990   4.973   4.308 -0.2731  0.2917 -2.7585
13989SOL    HW248314   5.861   5.039   4.352 -0.2832 -0.2747 -1.9246
13990SOL     OW48315   3.949   1.453   8.107 -0.1436  0.1396  0.0465
13990SOL    HW148316   3.995   1.382   8.063 -2.2255 -1.7189  0.6657
13990SOL    HW248317   3.897   1.494   8.038 -0.9002 -0.6520  0.1231
13991SOL     OW48318   0.874   8.536   1.976 -0.1725 -0.2044  0.1920
13991SOL    HW148319   0.919   8.485   2.044 -1.8412  0.1021  1.6215
13991SOL    HW248320   0.884   8.484   1.897  1.3775 -0.8679  0.7887
13992SOL     OW48321   8.085   6.788   1.817  0.0277 -0.0032  0.4351
13992SOL    HW148322   8.135   6.719   1.772 -0.2072 -0.9954  1.6308
13992SOL    HW248323   8.063   6.749   1.902  0.0709  1.6519  1.2306
13993SOL     OW48324   0.383   4.087   6.712 -0.2149 -0.2600  0.0624
13993SOL    HW148325   0.339   4.003   6.724  0.6495 -0.6011  1.0863
13993SOL    HW248326   0.437   4.075   6.634 -0.7182 -0.3611 -0.2793
13994SOL     OW48327   8.842   2.200   0.862  0.1386 -0.5439 -0.2424
13994SOL    HW148328   8.889   2.254   0.925 -0.7069  2.0602 -1.7285
13994SOL    HW248329   8.899   2.124   0.848  2.2935  0.8643  0.4983
13995SOL     OW48330   7.972   5.228   1.079 -0.5021 -0.2089 -0.1350
13995SOL    HW148331   8.066   5.233   1.058 -0.4101 -2.1946 -0.3953
13995SOL    HW248332   7.969   5.231   1.175  0.0032 -1.8385 -0.0408
13996SOL     OW48333   0.761   7.755   3.081 -0.5256  0.3710  0.2946
13996SOL    HW148334   0.780   7.725   3.170 -0.8235  0.4151  0.3733
13996SOL    HW248335   0.804   7.690   3.025  1.6337  1.5722  0.4556
13997SOL     OW48336   0.391   5.270   8.807  0.4736 -0.2555  0.1440
13997SOL    HW148337   0.438   5.340   8.852  2.0118 -1.1558  0.0221
13997SOL    HW248338   0.358   5.311   8.727  0.1982  0.6438  0.7048
13998SOL     OW48339   2.370   7.468   8.150 -0.0169 -0.2654  0.0279
13998SOL    HW148340   2.428   7.410   8.101 -0.0124 -0.1718 -0.0785
13998SOL    HW248341   2.300   7.411   8.181 -0.7029 -0.1099 -1.1692
13999SOL     OW48342   0.335   4.284   3.438  0.8746 -0.5618  0.6366
13999SOL    HW148343   0.250   4.284   3.394  0.0756 -1.4922  2.1091
13999SOL    HW248344   0.395   4.245   3.375  0.5673  1.4053 -0.9946
14000SOL     OW48345   1.820   0.212   0.318 -0.2288  0.6760  0.0046
14000SOL    HW148346   1.834   0.160   0.240  0.4875 -0.4837  0.8734
14000SOL    HW248347   1.766   0.158   0.375 -3.3831  2.6835 -0.8167
14001SOL     OW48348   2.736   4.266   6.663 -0.5592  0.1548  0.4128
14001SOL    HW148349   2.732   4.345   6.609  1.0843  0.4507  0.6700
14001SOL    HW248350   2.763   4.197   6.604  1.6817  0.5666  0.8608
14002SOL     OW48351   7.651   2.700   8.557  0.0770 -0.7355  0.2225
14002SOL    HW148352   7.637   2.651   8.476  1.8669  1.2238 -1.3863
14002SOL    HW248353   7.592   2.775   8.550  1.4340  0.3487 -0.1606
14003SOL     OW48354   0.612   0.559   8.690 -0.2676 -0.2860 -0.0389
14003SOL    HW148355   0.530   0.511   8.676  0.7012 -1.5323 -1.9320
14003SOL    HW248356   0.607   0.633   8.631 -0.1474 -0.1895  0.0711
14004SOL     OW48357   8.539   3.742   7.463 -0.1895  0.1007 -0.1396
14004SOL    HW148358   8.540   3.709   7.553 -2.4051 -2.5371 -0.9327
14004SOL    HW248359   8.485   3.821   7.466 -0.6347 -0.2268  0.7919
14005SOL     OW48360   1.933   0.687   6.560 -0.3246  0.0335 -0.1795
14005SOL    HW148361   1.985   0.764   6.536 -0.3391 -0.0821 -0.5880
14005SOL    HW248362   1.850   0.698   6.512  0.4485 -1.2655 -1.9186
14006SOL     OW48363   3.188   5.783   8.472 -0.0173  0.1245 -0.4234
14006SOL    HW148364   3.214   5.809   8.384  0.3815 -0.6882 -0.5544
14006SOL    HW248365   3.121   5.847   8.497 -1.0774 -0.3821 -1.8238
14007SOL     OW48366   3.401   2.657   3.569  0.0022 -0.4449 -0.9023
14007SOL    HW148367   3.380   2.738   3.522  0.8416 -0.4798 -1.3663
14007SOL    HW248368   3.337   2.653   3.639  1.1101  1.6712  0.3519
14008SOL     OW48369   6.545   0.412   4.307  0.1848 -0.1131  0.3047
14008SOL    HW148370   6.503   0.416   4.393 -1.7844 -1.7296 -0.4982
14008SOL    HW248371   6.637   0.432   4.324 -0.3862  0.8988  2.5664
14009SOL     OW48372   6.822   1.473   2.123  0.0273  0.1611  0.4608
14009SOL    HW148373   6.856   1.556   2.158 -2.9171  0.9196  1.8730
14009SOL    HW248374   6.816   1.416   2.200 -0.8852 -0.2607  0.0904
14010SOL     OW48375   2.603   6.446   4.903 -0.0747 -0.5632 -0.0852
14010SOL    HW148376   2.560   6.409   4.826 -1.1833  2.4608 -1.0946
14010SOL    HW248377   2.542   6.513   4.934  1.7829  0.5180  1.4422
14011SOL     OW48378   2.916   5.496   6.170 -0.0539  0.0700 -0.4101
14011SOL    HW148379   2.835   5.489   6.120 -2.2654  1.3318  2.7043
14011SOL    HW248380   2.922   5.412   6.216 -0.4150  0.5056  0.4497
14012SOL     OW48381   2.723   2.808   4.901  0.4892 -0.1984 -0.2744
14012SOL    HW148382   2.641   2.837   4.941 -1.1104 -2.7058 -1.4758
14012SOL    HW248383   2.719   2.840   4.811  1.8907  1.4519  0.1927
14013SOL     OW48384   6.331   0.637   2.099  0.5383  0.0208 -0.6528
14013SOL    HW148385   6.375   0.564   2.056  1.1334  0.0810 -0.1662
14013SOL    HW248386   6.318   0.701   2.029  1.7957  0.2602 -0.6968
14014SOL     OW48387   2.286   8.157   3.388 -0.7466  0.0027  0.5414
14014SOL    HW148388   2.373   8.118   3.393  0.2673  2.0800  0.4363
14014SOL    HW248389   2.226   8.088   3.418  0.6996 -2.0890 -1.1096
14015SOL     OW48390   5.466   7.330   2.074  0.4622  0.1743  0.1858
14015SOL    HW148391   5.422   7.414   2.059  0.6978  0.4160  0.8232
14015SOL    HW248392   5.422   7.293   2.150 -0.1686 -0.6557 -0.5637
14016SOL     OW48393   2.553   0.368   5.772  0.2663  0.3978 -0.8145
14016SOL    HW148394   2.606   0.316   5.712  0.5488 -0.4586  0.1352
14016SOL    HW248395   2.488   0.307   5.806  1.8387  0.0251  1.8620
14017SOL     OW48396   2.113   7.471   8.725 -0.0711 -0.4222  0.3625
14017SOL    HW148397   2.043   7.537   8.721  0.4457  0.1904  1.2024
14017SOL    HW248398   2.074   7.398   8.773  0.3841  0.6345  2.4778
14018SOL     OW48399   8.442   4.831   0.773 -0.1757 -0.1277 -0.8135
14018SOL    HW148400   8.405   4.807   0.859 -0.0784 -1.7498 -1.1796
14018SOL    HW248401   8.479   4.918   0.786 -1.4934  0.3011  0.3791
14019SOL     OW48402   6.880   8.176   0.114  0.7209  0.1747 -0.0089
14019SOL    HW148403   6.870   8.163   0.020 -1.2207 -0.8826  0.2726
14019SOL    HW248404   6.936   8.104   0.143  0.4599 -0.1179 -0.2261
14020SOL     OW48405   7.003   7.349   5.316 -0.0064 -0.0457 -0.1375
14020SOL    HW148406   7.023   7.363   5.223  0.3697 -0.4516 -0.1191
14020SOL    HW248407   7.062   7.408   5.362 -0.1303  0.0899 -0.1509
14021SOL     OW48408   4.101   0.414   2.260  0.0290 -0.0968 -0.2157
14021SOL    HW148409   4.036   0.360   2.305 -1.2589 -0.0015 -1.8653
14021SOL    HW248410   4.106   0.378   2.171  0.7944  1.1045 -0.6940
14022SOL     OW48411   3.981   7.649   3.400  0.3220 -0.3749  0.4459
14022SOL    HW148412   3.945   7.561   3.390 -0.0034 -0.1423 -0.6480
14022SOL    HW248413   3.994   7.679   3.310  1.2984  0.3442  0.8106
14023SOL     OW48414   1.194   6.955   8.168  0.0772  0.0085 -0.2101
14023SOL    HW148415   1.224   6.891   8.232 -1.4276  1.2436  1.8692
14023SOL    HW248416   1.179   7.035   8.219  1.6132  1.9954 -2.6367
14024SOL     OW48417   8.231   6.979   8.790  0.2413 -0.3008 -0.7680
14024SOL    HW148418   8.237   7.071   8.765  2.2434 -0.2715 -0.3623
14024SOL    HW248419   8.188   6.936   8.717  1.2175  0.6334 -1.9205
14025SOL     OW48420   8.293   1.478   4.726  0.3180  0.0984 -0.6998
14025SOL    HW148421   8.341   1.436   4.655 -0.4419  1.0614 -1.8098
14025SOL    HW248422   8.202   1.452   4.713  0.3267 -0.6497  0.6142
14026SOL     OW48423   4.645   7.637   5.546  0.6655  0.2810 -0.0447
14026SOL    HW148424   4.583   7.595   5.605 -1.5899  2.7188 -0.5040
14026SOL    HW248425   4.729   7.631   5.592 -0.1002 -1.9673  1.2077
14027SOL     OW48426   9.186   0.976   2.910  0.0623 -0.1847 -0.6737
14027SOL    HW148427   9.185   0.907   2.844  0.0527 -0.4596 -0.3879
14027SOL    HW248428   9.112   1.032   2.887 -2.5781 -2.4938  1.4286
14028SOL     OW48429   2.188   8.734   2.207 -0.1526  0.3268  0.0156
14028SOL    HW148430   2.247   8.746   2.282 -0.7289  0.7171  0.4123
14028SOL    HW248431   2.103   8.764   2.239 -0.6476 -0.5737 -0.4381
14029SOL     OW48432   3.213   5.116   3.296  0.4400 -0.0969  0.0771
14029SOL    HW148433   3.267   5.116   3.218  1.0183  2.1663  0.4073
14029SOL    HW248434   3.124   5.098   3.265  0.5099  1.6534 -1.2681
14030SOL     OW48435   3.505   4.017   3.427  0.0662  0.5800 -0.0173
14030SOL    HW148436   3.600   4.006   3.433 -0.1174 -1.4170  0.0888
14030SOL    HW248437   3.470   3.953   3.490 -1.3629  0.1542 -1.1905
14031SOL     OW48438   4.044   8.204   8.055 -0.5434  0.6009  0.3271
14031SOL    HW148439   4.013   8.247   8.134  1.5158 -0.6408  1.9345
14031SOL    HW248440   4.062   8.275   7.993 -1.6370  1.6343  1.1514
14032SOL     OW48441   7.535   4.678   8.196 -0.4476  0.6435  0.1514
14032SOL    HW148442   7.525   4.640   8.284  0.3747  1.1949  0.4899
14032SOL    HW248443   7.529   4.602   8.137  1.0014 -0.0284  0.8089
14033SOL     OW48444   9.096   8.210   2.677  0.0723 -0.6729 -0.5175
14033SOL    HW148445   9.145   8.291   2.689 -1.5408  0.3919 -0.7001
14033SOL    HW248446   9.160   8.140   2.687  1.4255  0.6167  0.0827
14034SOL     OW48447   1.553   0.225   8.939 -0.0690 -0.3979  0.4034
14034SOL    HW148448   1.556   0.266   8.853  1.4842  0.2902  0.7416
14034SOL    HW248449   1.492   0.279   8.989  0.6154  0.4750  0.3268
14035SOL     OW48450   3.123   4.528   3.954  0.8618  0.5430 -0.4530
14035SOL    HW148451   3.141   4.450   4.005  0.1768  0.3428 -0.5034
14035SOL    HW248452   3.197   4.535   3.893 -0.3373 -1.6354 -2.3255
14036SOL     OW48453   1.014   4.158   5.521  0.5943  0.6516 -0.1793
14036SOL    HW148454   0.981   4.083   5.571  0.3025  0.9968  0.1475
14036SOL    HW248455   0.980   4.144   5.432  0.1185  0.6572 -0.0024
14037SOL     OW48456   3.868   0.992   8.299  0.0165 -0.1593 -0.0615
14037SOL    HW148457   3.861   1.012   8.393 -0.4696  0.9913 -0.3250
14037SOL    HW248458   3.859   1.077   8.256 -1.2203 -0.8420 -1.2113
14038SOL     OW48459   0.829   3.091   8.377 -0.0227 -0.6123 -0.1416
14038SOL    HW148460   0.817   3.019   8.439 -0.9176 -1.2053 -0.9742
14038SOL    HW248461   0.744   3.135   8.375 -0.8635 -2.1579 -2.8171
14039SOL     OW48462   5.440   0.031   7.377  0.4425 -0.2842  0.2631
14039SOL    HW148463   5.526   0.012   7.341  1.1717 -1.2329  2.4149
14039SOL    HW248464   5.413  -0.049   7.422 -1.8157 -0.1995 -0.7688
14040SOL     OW48465   8.876   5.546   5.172  0.7999 -0.5492  0.4285
14040SOL    HW148466   8.848   5.481   5.236 -1.0778 -1.0319 -0.7898
14040SOL    HW248467   8.815   5.619   5.183  2.6501  0.9368  1.5309
14041SOL     OW48468   1.064   7.443   0.704  0.6816 -0.3340  0.4411
14041SOL    HW148469   1.049   7.532   0.735 -1.6584 -0.0266 -1.3027
14041SOL    HW248470   1.145   7.448   0.653  1.1219  0.5257  1.1995
14042SOL     OW48471   5.098   3.801   2.625 -0.0092  0.1717  0.1428
14042SOL    HW148472   5.059   3.722   2.662 -1.2179  0.5189 -0.3279
14042SOL    HW248473   5.049   3.815   2.544  1.9973 -0.1061 -1.1784
14043SOL     OW48474   1.814   8.616   5.987 -0.1968 -0.0292 -0.6433
14043SOL    HW148475   1.842   8.526   5.971  0.6066  0.3680 -1.5764
14043SOL    HW248476   1.747   8.633   5.920 -1.6416 -0.4736  0.6218
14044SOL     OW48477   5.322   2.679   0.077 -0.0313 -0.3503 -0.1844
14044SOL    HW148478   5.348   2.742   0.010  4.1264  0.4912  1.8967
14044SOL    HW248479   5.380   2.605   0.065 -1.0980 -1.3933  0.8090
14045SOL     OW48480   7.424   8.472   0.917 -0.2186  0.3063 -0.3957
14045SOL    HW148481   7.338   8.496   0.882 -1.1579 -1.4460  0.5794
14045SOL    HW248482   7.478   8.459   0.839 -1.2087  0.1688 -1.0884
14046SOL     OW48483   1.521   3.453   1.994  0.2121  0.1809 -0.2200
14046SOL    HW148484   1.571   3.470   1.915  0.8696 -2.9535 -0.6062
14046SOL    HW248485   1.430   3.453   1.965  0.2988  0.9636 -0.5280
14047SOL     OW48486   0.304   1.100   2.699 -0.7527  0.0816  0.0567
14047SOL    HW148487   0.249   1.083   2.622  0.7090 -1.1184 -0.7746
14047SOL    HW248488   0.313   1.014   2.741  0.4105  0.2690  0.2144
14048SOL     OW48489   5.181   3.186   7.659  0.2912  0.4063  0.4005
14048SOL    HW148490   5.091   3.171   7.627  0.0296 -0.0504  1.3190
14048SOL    HW248491   5.173   3.185   7.754  1.2834  0.3196  0.4918
14049SOL     OW48492   7.173   0.066   0.359 -0.0025  0.1999 -0.2446
14049SOL    HW148493   7.155   0.026   0.274  1.0525 -3.1891  0.9614
14049SOL    HW248494   7.094   0.049   0.411  0.3628 -0.1205  0.2151
14050SOL     OW48495   6.529   8.256   7.698 -0.2590 -0.1066 -0.2435
14050SOL    HW148496   6.548   8.325   7.761  1.0430  0.1222 -0.8551
14050SOL    HW248497   6.501   8.302   7.619 -0.5408 -0.3259 -0.2704
14051SOL     OW48498   8.713   1.353   2.016  0.1144  0.0071  0.0959
14051SOL    HW148499   8.626   1.315   2.029  1.1239 -1.9137  1.6996
14051SOL    HW248500   8.697   1.448   2.017 -2.0097 -0.2767 -0.3119
14052SOL     OW48501   8.336   8.088   4.624  0.3413  0.6430  0.1080
14052SOL    HW148502   8.301   8.093   4.713  1.1625  1.5084  0.3972
14052SOL    HW248503   8.425   8.054   4.635  0.5956  1.1464 -0.3369
14053SOL     OW48504   3.804   5.301   8.382 -0.2583 -0.2134 -0.2187
14053SOL    HW148505   3.797   5.261   8.469  0.0269 -0.4573 -0.3088
14053SOL    HW248506   3.881   5.261   8.343 -0.9757 -0.8623 -0.9830
14054SOL     OW48507   1.393   6.927   3.105  0.0877 -0.0182 -1.1582
14054SOL    HW148508   1.422   6.930   3.014 -0.1640 -1.5513 -1.3264
14054SOL    HW248509   1.470   6.897   3.153  0.5532  1.8448 -0.6651
14055SOL     OW48510   3.736   8.247   0.623  0.1657  0.0366  0.3254
14055SOL    HW148511   3.693   8.302   0.688  0.8325  0.0264  0.7925
14055SOL    HW248512   3.707   8.158   0.643 -2.3388  0.3374 -1.5461
14056SOL     OW48513   4.816   5.113   4.825 -0.0174  0.0469  0.1511
14056SOL    HW148514   4.755   5.051   4.864  0.1563 -0.1743  0.0675
14056SOL    HW248515   4.778   5.199   4.845  0.0873 -0.0662  0.8338
14057SOL     OW48516   0.215   4.796   0.703 -0.1498 -0.0425 -0.6146
14057SOL    HW148517   0.306   4.767   0.712 -0.4121 -0.6668  0.1844
14057SOL    HW248518   0.218   4.864   0.636  0.8321 -0.3879 -0.9433
14058SOL     OW48519   4.964   3.414   8.617 -0.0276 -0.4661  0.3548
14058SOL    HW148520   4.895   3.414   8.551  0.0758  0.0719  0.2350
14058SOL    HW248521   5.046   3.412   8.566  0.0433 -0.9371  0.4894
14059SOL     OW48522   5.625   9.134   8.705  0.1547 -0.2304  0.3067
14059SOL    HW148523   5.585   9.221   8.702 -1.5537 -0.9290  1.1232
14059SOL    HW248524   5.593   9.096   8.787  2.4728 -0.9176  0.9799
14060SOL     OW48525   5.975   7.180   6.784  0.0707 -0.2058  0.1898
14060SOL    HW148526   6.046   7.241   6.760  0.2236 -0.6045 -0.4076
14060SOL    HW248527   6.016   7.118   6.843 -0.5919  1.4806  2.5831
14061SOL     OW48528   6.155   8.340   0.440 -0.1944  1.2068 -0.5966
14061SOL    HW148529   6.122   8.259   0.401  1.6597  1.1294 -2.1038
14061SOL    HW248530   6.100   8.409   0.403 -0.2396  0.8576 -1.1934
14062SOL     OW48531   6.688   3.490   3.845 -0.6965 -0.0434  0.3831
14062SOL    HW148532   6.624   3.558   3.867  0.4215  0.7853  1.1396
14062SOL    HW248533   6.720   3.459   3.929  0.0480 -0.3125  0.0073
14063SOL     OW48534   4.773   6.278   7.998 -0.3057  0.6454 -0.2578
14063SOL    HW148535   4.747   6.284   8.090 -1.7252  0.4012 -0.6284
14063SOL    HW248536   4.867   6.257   8.002 -0.2877  0.8468  1.1238
14064SOL     OW48537   4.681   7.984   5.989 -0.0753 -0.1205 -0.0693
14064SOL    HW148538   4.666   8.043   5.915 -1.7197  0.9404  1.0214
14064SOL    HW248539   4.692   7.898   5.950 -0.7536  0.4379 -1.5681
14065SOL     OW48540   1.102   6.891   1.346  0.1248  0.0842 -0.0041
14065SOL    HW148541   1.007   6.896   1.359 -0.0049  0.4131 -0.9727
14065SOL    HW248542   1.112   6.888   1.251  1.0683 -0.4545  0.1073
14066SOL     OW48543   5.454   0.674   3.100  0.2703  0.3625 -0.5088
14066SOL    HW148544   5.440   0.590   3.143 -2.3348  0.2541 -1.3774
14066SOL    HW248545   5.548   0.688   3.103  0.5954 -1.7766  1.1336
14067SOL     OW48546   4.281   1.236   5.778  0.3711 -0.7255  0.0299
14067SOL    HW148547   4.334   1.210   5.702  1.2743 -1.6174  0.9327
14067SOL    HW248548   4.283   1.332   5.777 -1.7473 -0.6005 -2.4983
14068SOL     OW48549   4.025   5.544   7.044  0.2508 -0.1224  0.3037
14068SOL    HW148550   3.940   5.547   7.089  0.2792 -2.2630  0.6145
14068SOL    HW248551   4.022   5.617   6.982 -1.3219  0.5861  1.1460
14069SOL     OW48552   4.390   5.005   6.756  0.3782 -0.0519  0.0384
14069SOL    HW148553   4.402   4.986   6.849  0.3850  0.9306  0.2565
14069SOL    HW248554   4.410   4.923   6.711 -0.2972 -0.7348  0.9442
14070SOL     OW48555   1.287   7.613   5.122  0.0556 -0.3922  0.1995
14070SOL    HW148556   1.237   7.535   5.101 -0.4645  0.4161 -1.8550
14070SOL    HW248557   1.345   7.626   5.047 -1.9988  2.7960 -1.0736
14071SOL     OW48558   2.387   8.315   9.039  0.7118 -0.4762 -0.0379
14071SOL    HW148559   2.298   8.280   9.032  0.7032 -0.2154 -1.7255
14071SOL    HW248560   2.415   8.327   8.948  2.8604 -1.5248  0.4161
14072SOL     OW48561   6.910   6.092   2.321 -0.2851  0.2142 -0.2811
14072SOL    HW148562   7.005   6.105   2.313  0.1530 -1.9612  0.4623
14072SOL    HW248563   6.897   6.001   2.293 -2.1017  0.3619  0.0119
14073SOL     OW48564   3.686   8.014   8.374  0.1515  0.1446  0.0841
14073SOL    HW148565   3.734   8.035   8.454 -0.3044 -0.4928  0.5397
14073SOL    HW248566   3.620   7.951   8.402  0.1076 -0.2318 -0.8350
14074SOL     OW48567   4.267   1.395   2.275 -0.0249 -0.0636  0.0206
14074SOL    HW148568   4.349   1.357   2.308  0.6889  1.3548 -0.0710
14074SOL    HW248569   4.208   1.391   2.350 -0.2307 -1.9763 -0.1756
14075SOL     OW48570   7.618   7.254   1.699  0.6271 -0.1174  0.1929
14075SOL    HW148571   7.548   7.303   1.657  0.2257  0.2369  1.2428
14075SOL    HW248572   7.688   7.250   1.633 -0.4452 -0.6844 -0.9530
14076SOL     OW48573   1.866   1.338   9.120 -0.0137 -0.3433  0.0777
14076SOL    HW148574   1.779   1.305   9.100 -0.7807  1.6339 -0.0852
14076SOL    HW248575   1.899   1.373   9.037 -0.1937  1.3116  0.6660
14077SOL     OW48576   3.336   3.054   2.480 -0.1626  0.0084 -0.4160
14077SOL    HW148577   3.382   2.999   2.417  1.4190  2.4736 -1.5554
14077SOL    HW248578   3.344   3.008   2.563  1.9972 -0.9749 -1.1207
14078SOL     OW48579   4.159   2.414   4.179 -0.2518  0.3756  0.0508
14078SOL    HW148580   4.151   2.346   4.246 -0.1356  1.1099  0.8248
14078SOL    HW248581   4.252   2.434   4.177 -0.5416  2.1889  1.5715
14079SOL     OW48582   7.507   3.735   1.102 -0.5535  0.8881  0.6976
14079SOL    HW148583   7.569   3.798   1.140 -0.3019  1.3907 -0.4908
14079SOL    HW248584   7.550   3.650   1.112  0.9567  1.3511 -1.2048
14080SOL     OW48585   6.464   8.631   0.318  0.4211  0.7637  0.1589
14080SOL    HW148586   6.395   8.680   0.363  0.3392  1.5053 -0.7434
14080SOL    HW248587   6.500   8.574   0.385  1.2529  2.8114  1.5706
14081SOL     OW48588   5.054   6.259   8.094 -0.2329 -0.0994 -0.4684
14081SOL    HW148589   5.081   6.228   8.180 -2.2126 -0.6242  0.0133
14081SOL    HW248590   5.086   6.349   8.089 -0.3200  0.0205  0.9134
14082SOL     OW48591   1.571   7.312   5.990 -0.2210  0.2551 -0.2352
14082SOL    HW148592   1.500   7.274   6.042 -0.3157 -1.3704 -1.4524
14082SOL    HW248593   1.649   7.305   6.046 -0.7614  0.8931  0.6256
14083SOL     OW48594   8.751   6.536   3.902  0.1289 -0.0149  0.0872
14083SOL    HW148595   8.812   6.543   3.975 -1.4241  1.0483  1.3502
14083SOL    HW248596   8.692   6.465   3.927 -0.2885  0.2222 -0.2082
14084SOL     OW48597   4.498   2.087   6.597  0.3625  0.3266 -0.0136
14084SOL    HW148598   4.548   2.017   6.555  1.1644  0.0867  1.2779
14084SOL    HW248599   4.408   2.055   6.598  0.6380 -0.4690  0.1003
14085SOL     OW48600   8.387   0.046   4.466 -0.2676  0.2062 -0.2238
14085SOL    HW148601   8.362  -0.032   4.515 -0.0215 -1.5538 -2.7024
14085SOL    HW248602   8.309   0.101   4.466 -0.6401 -0.2934  1.0992
14086SOL     OW48603   3.740   3.396   1.206  0.3955 -0.0781  0.0157
14086SOL    HW148604   3.665   3.427   1.155  0.6267 -0.3213 -0.4802
14086SOL    HW248605   3.704   3.327   1.262  0.3508 -0.6061 -0.6432
14087SOL     OW48606   7.096   1.572   3.214  0.3552  0.2736 -0.3656
14087SOL    HW148607   7.035   1.537   3.148 -2.1692 -0.4981  2.1816
14087SOL    HW248608   7.082   1.666   3.212  0.2019  0.2442 -0.8237
14088SOL     OW48609   1.483   6.860   1.265  0.0060 -0.2173 -0.5245
14088SOL    HW148610   1.538   6.905   1.200 -1.4446  0.6631 -1.1947
14088SOL    HW248611   1.444   6.787   1.216 -0.3686 -0.1107 -0.3822
14089SOL     OW48612   8.633   0.414   8.049 -0.1347  0.4409 -0.4717
14089SOL    HW148613   8.644   0.492   7.995  2.3729  0.7621  0.4024
14089SOL    HW248614   8.643   0.341   7.987  0.3892  0.8088 -0.8270
14090SOL     OW48615   8.849   5.061   5.940 -0.0138 -0.0775  0.0897
14090SOL    HW148616   8.754   5.073   5.951 -0.7593 -2.2661 -2.6796
14090SOL    HW248617   8.867   4.977   5.981  0.2695 -0.6506 -1.1650
14091SOL     OW48618   4.007   5.868   8.204  0.1434  0.2180 -0.5936
14091SOL    HW148619   3.956   5.879   8.124  0.4581  1.5191 -0.6511
14091SOL    HW248620   3.992   5.778   8.231 -1.4542  0.3026 -1.1040
14092SOL     OW48621   1.846   2.418   5.218 -0.7049 -0.0492  0.2116
14092SOL    HW148622   1.905   2.354   5.257 -0.6417 -0.0637  0.0919
14092SOL    HW248623   1.810   2.466   5.293 -0.4165  0.0696  0.2722
14093SOL     OW48624   4.070   0.228   6.591  0.5396 -0.1117 -0.0688
14093SOL    HW148625   4.039   0.308   6.549 -1.6975 -0.6838  0.3700
14093SOL    HW248626   4.134   0.258   6.656  0.4483  1.2130 -0.5531
14094SOL     OW48627   6.219   6.982   4.792 -0.1617  0.0422  0.0354
14094SOL    HW148628   6.265   6.973   4.708 -2.0532  2.2332 -1.3477
14094SOL    HW248629   6.218   7.076   4.809 -1.6116 -0.1921  1.4751
14095SOL     OW48630   6.969   0.117   7.390 -0.2359 -0.3768  0.3322
14095SOL    HW148631   6.904   0.051   7.369  0.1317 -0.4026 -0.7979
14095SOL    HW248632   6.924   0.200   7.378 -0.2191 -0.4014  0.0997
14096SOL     OW48633   6.924   9.025   3.854  0.1271 -0.2256  0.0944
14096SOL    HW148634   6.940   9.067   3.769  0.2231 -0.2849  0.0829
14096SOL    HW248635   6.899   8.935   3.833 -0.1173 -0.1639  0.1181
14097SOL     OW48636   3.483   5.187   8.766  0.0220 -0.3524 -0.0162
14097SOL    HW148637   3.527   5.272   8.770 -0.4701 -0.1534  1.9735
14097SOL    HW248638   3.414   5.199   8.700  1.4457  0.0121 -1.5045
14098SOL     OW48639   5.988   0.274   6.619  0.3972  0.0653 -0.9972
14098SOL    HW148640   5.899   0.310   6.623 -0.0599 -1.1350  1.5248
14098SOL    HW248641   5.983   0.204   6.554 -0.4424  0.1664 -1.0508
14099SOL     OW48642   8.101   3.836   1.049  0.5695  0.5825  0.2524
14099SOL    HW148643   8.118   3.749   1.084  1.5673  0.7204  0.1377
14099SOL    HW248644   8.069   3.821   0.960  0.0324  0.3162  0.4851
14100SOL     OW48645   2.042   5.227   3.041 -0.2327  0.8820  0.3921
14100SOL    HW148646   2.074   5.247   3.129  1.3449 -0.5860  0.1939
14100SOL    HW248647   1.964   5.174   3.055  0.5595 -0.1681  0.9312
14101SOL     OW48648   1.101   9.209   7.296 -0.2953  0.9766 -0.0424
14101SOL    HW148649   1.047   9.280   7.262 -0.7935  0.9775  0.7206
14101SOL    HW248650   1.165   9.252   7.352  1.5930  1.1473 -2.1890
14102SOL     OW48651   0.302   0.129   4.231  0.3125 -0.1879 -0.7073
14102SOL    HW148652   0.292   0.141   4.325  0.6923 -2.0545 -0.3953
14102SOL    HW248653   0.359   0.200   4.204 -1.5959  1.7604  0.0288
14103SOL     OW48654   0.734   9.010   6.800  0.6993  0.4808  0.1457
14103SOL    HW148655   0.822   8.983   6.775  0.6055  0.4982 -0.2228
14103SOL    HW248656   0.694   9.039   6.717  0.0275 -0.4134  0.1386
14104SOL     OW48657   1.275   0.326   1.946  0.1131  0.1110 -0.2808
14104SOL    HW148658   1.180   0.311   1.947  0.3673 -1.6953 -0.4024
14104SOL    HW248659   1.300   0.330   2.038  0.2175 -1.6817 -0.2094
14105SOL     OW48660   4.414   4.436   7.274  0.3309  0.3797 -0.0292
14105SOL    HW148661   4.447   4.406   7.189  0.4379  0.5306 -0.0410
14105SOL    HW248662   4.340   4.378   7.293 -0.4568  1.1283 -0.7818
14106SOL     OW48663   5.072   9.104   8.364 -0.3285 -0.2196 -0.3206
14106SOL    HW148664   5.132   9.147   8.303  0.9004 -0.0131  0.9759
14106SOL    HW248665   5.015   9.050   8.309  0.6130  0.0973 -1.6410
14107SOL     OW48666   7.335   4.959   3.552 -0.5757  0.3340 -0.4364
14107SOL    HW148667   7.412   4.901   3.561 -0.1244  1.0917  0.9814
14107SOL    HW248668   7.307   4.975   3.642 -0.5293  2.5227 -0.7607
14108SOL     OW48669   7.333   2.328   5.624  0.7862  0.1106  0.3580
14108SOL    HW148670   7.252   2.280   5.642  0.0380  0.7222 -1.2054
14108SOL    HW248671   7.376   2.336   5.710 -0.2935 -1.1153  1.0476
14109SOL     OW48672   2.971   8.621   4.889  0.3188  0.3780 -0.1359
14109SOL    HW148673   2.932   8.664   4.965  0.6404  1.2334 -0.4517
14109SOL    HW248674   2.928   8.662   4.814  0.2485 -0.2220 -0.4281
14110SOL     OW48675   8.868   7.784   5.449 -0.3842  0.1626 -0.2050
14110SOL    HW148676   8.925   7.771   5.525 -0.2623  0.9687 -0.1574
14110SOL    HW248677   8.822   7.865   5.467 -0.5683  0.2107 -0.8655
14111SOL     OW48678   5.132   7.944   1.958 -0.1060 -0.0185  0.1631
14111SOL    HW148679   5.079   7.871   1.991  1.6596 -1.4831 -0.0967
14111SOL    HW248680   5.071   7.995   1.904 -1.4213 -1.2030  0.4720
14112SOL     OW48681   0.025   4.207   3.633  0.4068  0.6360 -0.1562
14112SOL    HW148682   0.066   4.198   3.719  0.5063 -0.0924 -0.2764
14112SOL    HW248683   0.069   4.142   3.578 -1.2726 -0.5747 -0.1477
14113SOL     OW48684   8.293   6.433   7.175  0.1989 -0.0849 -0.5688
14113SOL    HW148685   8.286   6.442   7.270 -2.1452  1.1688 -0.7791
14113SOL    HW248686   8.314   6.521   7.143  2.8784 -0.8508 -1.1672
14114SOL     OW48687   8.934   6.937   7.124  0.0412  0.4013 -0.1889
14114SOL    HW148688   9.024   6.910   7.140  0.2622  1.4310  0.4056
14114SOL    HW248689   8.882   6.881   7.182  0.5652  1.7266  1.6762
14115SOL     OW48690   1.256   3.682   2.102  0.3728  0.2584 -0.5861
14115SOL    HW148691   1.216   3.660   2.018  1.1941 -1.8188 -0.4887
14115SOL    HW248692   1.346   3.706   2.081  0.6661 -0.5484 -0.2966
14116SOL     OW48693   8.768   0.467   2.533  0.7900  0.2745 -0.1493
14116SOL    HW148694   8.769   0.388   2.479  0.9782  0.9436 -1.1427
14116SOL    HW248695   8.812   0.533   2.480  0.3628  1.1326  0.5438
14117SOL     OW48696   4.861   2.870   7.859  0.2049 -0.5799 -0.1503
14117SOL    HW148697   4.782   2.850   7.808  0.2117 -0.1721 -0.3227
14117SOL    HW248698   4.865   2.966   7.861  1.3311 -0.5925 -1.1175
14118SOL     OW48699   0.668   2.528   6.455  0.1328 -0.2278  0.6300
14118SOL    HW148700   0.575   2.540   6.474 -0.7386 -2.6633 -1.5705
14118SOL    HW248701   0.685   2.586   6.381  0.3982  0.1669  0.9885
14119SOL     OW48702   3.879   4.491   1.327  0.2063  0.2357  0.2116
14119SOL    HW148703   3.924   4.565   1.368 -0.4782 -0.0571  1.5380
14119SOL    HW248704   3.790   4.522   1.312  0.2536  0.0877 -0.3776
14120SOL     OW48705   4.656   1.049   4.063 -0.3165  0.1980 -0.4784
14120SOL    HW148706   4.734   1.103   4.074 -1.0214  0.9273  1.3140
14120SOL    HW248707   4.619   1.077   3.980  0.3085  1.1750 -0.4421
14121SOL     OW48708   3.113   1.167   6.978 -0.3863  0.2719 -0.2028
14121SOL    HW148709   3.040   1.196   7.033 -0.9911 -1.0412 -0.2710
14121SOL    HW248710   3.168   1.116   7.037 -0.6280 -0.4884 -0.6202
14122SOL     OW48711   6.556   5.073   2.888  0.4490 -0.0986  0.0179
14122SOL    HW148712   6.480   5.063   2.831 -0.2922 -0.8576  1.1059
14122SOL    HW248713   6.617   5.005   2.858  0.8007  0.6288 -0.9711
14123SOL     OW48714   3.243   4.730   4.390  0.1751  0.3672 -0.3901
14123SOL    HW148715   3.180   4.802   4.383 -0.2044  0.0466 -0.3152
14123SOL    HW248716   3.324   4.771   4.420 -0.2952  0.6271  0.5264
14124SOL     OW48717   8.165   5.276   5.002 -0.7487  0.4637  0.4103
14124SOL    HW148718   8.232   5.237   4.945 -0.3109  0.8829  0.6292
14124SOL    HW248719   8.082   5.257   4.958 -0.4009  1.0518 -0.5393
14125SOL     OW48720   6.428   1.180   4.748 -0.1654 -0.2008  0.2436
14125SOL    HW148721   6.491   1.157   4.680  0.1117 -0.6855  0.6542
14125SOL    HW248722   6.470   1.250   4.797 -1.0660  1.3404 -1.0926
14126SOL     OW48723   0.360   1.935   7.122  0.5529 -0.0208 -0.0455
14126SOL    HW148724   0.409   1.970   7.196 -0.5755  0.0225  0.7153
14126SOL    HW248725   0.270   1.927   7.155  0.0068  0.0855 -1.4382
14127SOL     OW48726   2.987   3.455   3.369 -0.1363 -0.3059 -0.3501
14127SOL    HW148727   2.937   3.516   3.314  1.2438  0.8115 -0.4487
14127SOL    HW248728   3.012   3.385   3.309  0.7075  0.5186 -0.9976
14128SOL     OW48729   9.219   3.463   0.532  0.1446  0.1969 -0.6788
14128SOL    HW148730   9.280   3.412   0.585  0.9125  1.6336 -0.1392
14128SOL    HW248731   9.221   3.421   0.446 -1.4737 -2.4662  0.4484
14129SOL     OW48732   2.077   6.331   2.058  0.3269 -0.0371  0.0451
14129SOL    HW148733   2.076   6.424   2.082 -0.5837  0.0036 -0.1114
14129SOL    HW248734   1.987   6.313   2.029  0.7318 -0.7210 -0.8463
14130SOL     OW48735   8.036   6.982   3.163 -0.3117  0.2554  0.0358
14130SOL    HW148736   8.077   7.067   3.173  2.5733 -1.0835  0.4660
14130SOL    HW248737   8.074   6.945   3.084 -2.3631 -0.2441 -0.7808
14131SOL     OW48738   5.187   1.670   6.206 -0.2280 -0.4450  0.3558
14131SOL    HW148739   5.209   1.723   6.129 -0.7283  0.2299  0.6709
14131SOL    HW248740   5.270   1.633   6.234  0.0220 -0.3724 -0.2736
14132SOL     OW48741   5.956   6.757   1.586  0.0359 -0.2154 -0.4524
14132SOL    HW148742   5.934   6.709   1.666  0.1735  2.0223  1.0053
14132SOL    HW248743   5.925   6.700   1.515 -2.7749 -1.0164  1.2474
14133SOL     OW48744   2.399   2.769   3.214  0.6500  0.4131 -0.7249
14133SOL    HW148745   2.397   2.839   3.148  0.6232  0.0885 -1.0721
14133SOL    HW248746   2.482   2.782   3.259 -0.3746  2.1281  0.8285
14134SOL     OW48747   4.886   0.700   6.691 -0.0336 -0.1493 -0.2032
14134SOL    HW148748   4.902   0.785   6.652  0.3884 -0.2801 -0.3184
14134SOL    HW248749   4.938   0.699   6.771 -1.6785  0.5101  0.9266
14135SOL     OW48750   2.400   1.681   0.547  0.3286  0.3325 -0.2426
14135SOL    HW148751   2.471   1.704   0.487  1.4279 -1.4117  0.3469
14135SOL    HW248752   2.429   1.713   0.633  1.2040 -1.7916  0.3088
14136SOL     OW48753   4.769   0.544   7.371 -0.2765  0.9471 -0.1158
14136SOL    HW148754   4.787   0.636   7.353 -0.8661  0.8693 -1.1927
14136SOL    HW248755   4.674   0.535   7.358 -0.0184 -0.1121 -1.5149
14137SOL     OW48756   7.089   2.381   8.417 -0.4346  0.3328 -0.5589
14137SOL    HW148757   7.107   2.394   8.323  0.6092  1.2092 -0.2651
14137SOL    HW248758   7.114   2.290   8.433 -1.4797 -0.1051 -1.3053
14138SOL     OW48759   2.418   6.137   6.774 -0.2103 -0.3470  0.0787
14138SOL    HW148760   2.359   6.211   6.754 -0.8704  0.5402  4.4143
14138SOL    HW248761   2.422   6.088   6.692 -2.0438  2.9110 -2.2106
14139SOL     OW48762   8.120   0.853   5.212 -0.0676 -0.3580 -1.0510
14139SOL    HW148763   8.036   0.845   5.168 -0.8194 -0.9840  0.4310
14139SOL    HW248764   8.099   0.848   5.305  1.4607  0.9538 -0.5896
14140SOL     OW48765   8.475   2.372   3.287  0.3517  0.0135  0.0211
14140SOL    HW148766   8.435   2.458   3.294  1.1509  0.2486  2.3039
14140SOL    HW248767   8.436   2.321   3.359 -0.0018 -1.5183 -1.1880
14141SOL     OW48768   4.422   3.842   7.216  0.1757  0.0271  0.4265
14141SOL    HW148769   4.447   3.754   7.187  0.5072 -0.1727  1.2665
14141SOL    HW248770   4.333   3.832   7.249  0.3212 -0.0653  0.7982
14142SOL     OW48771   4.977   1.152   8.569 -0.4220  0.2650  0.2781
14142SOL    HW148772   4.923   1.191   8.639 -0.1630 -1.9141  1.7894
14142SOL    HW248773   5.061   1.133   8.612 -0.6228 -2.1253 -0.2502
14143SOL     OW48774   6.491   8.323   2.229  0.3717 -0.5736  0.2895
14143SOL    HW148775   6.576   8.352   2.262  0.2943 -0.3552  0.2983
14143SOL    HW248776   6.448   8.403   2.199 -0.8270 -0.2835  2.5052
14144SOL     OW48777   6.070   4.599   8.273  0.2778  0.9129 -0.3495
14144SOL    HW148778   6.057   4.576   8.181 -1.1933  0.1134  0.0279
14144SOL    HW248779   6.158   4.636   8.276  0.7635 -0.0153 -1.8852
14145SOL     OW48780   4.552   6.839   0.599 -0.8452  0.4859 -0.1414
14145SOL    HW148781   4.591   6.837   0.686 -0.3591  1.0325 -0.3334
14145SOL    HW248782   4.621   6.804   0.542  0.1132  3.0484 -0.7320
14146SOL     OW48783   4.370   3.143   3.824 -0.1544  0.1036  0.4231
14146SOL    HW148784   4.284   3.131   3.785  0.0776 -1.2029  0.2686
14146SOL    HW248785   4.359   3.120   3.916  0.4844 -2.3256 -0.0521
14147SOL     OW48786   5.520   3.890   0.705 -0.1411  0.5928  0.2874
14147SOL    HW148787   5.514   3.859   0.795 -2.5747  0.3086  0.0789
14147SOL    HW248788   5.543   3.812   0.654 -0.7483  0.3298  0.4178
14148SOL     OW48789   0.229   4.151   6.943  0.1330  0.4347 -0.1003
14148SOL    HW148790   0.308   4.160   6.996  0.1946  0.1351 -0.1411
14148SOL    HW248791   0.261   4.137   6.854  0.0593 -1.2875  0.1230
14149SOL     OW48792   2.683   7.704   0.338 -0.3271  0.2292 -0.0791
14149SOL    HW148793   2.668   7.611   0.319 -1.3808  0.4127 -0.2091
14149SOL    HW248794   2.596   7.740   0.355  0.2260  0.8569  1.5930
14150SOL     OW48795   6.077   4.402   8.898 -0.3866  0.1344  0.0382
14150SOL    HW148796   5.993   4.357   8.895 -0.1862 -0.5489  2.3334
14150SOL    HW248797   6.142   4.333   8.884 -0.1581  0.5329 -0.9758
14151SOL     OW48798   5.923   5.612   7.867  0.2699  0.2866  0.4506
14151SOL    HW148799   5.930   5.648   7.778 -0.1996 -0.4523  0.0993
14151SOL    HW248800   5.834   5.635   7.895  0.0869 -0.2863  0.3566
14152SOL     OW48801   4.945   9.042   6.031 -0.2436 -0.2765 -0.5498
14152SOL    HW148802   5.003   9.044   5.955 -0.4119 -1.1934 -0.7157
14152SOL    HW248803   4.961   8.957   6.071 -0.6194 -0.0574  0.0842
14153SOL     OW48804   6.490   7.999   8.745  0.3937 -0.0938 -0.4244
14153SOL    HW148805   6.415   7.947   8.773 -0.4010  1.6269  0.8438
14153SOL    HW248806   6.521   8.042   8.825  3.2091 -1.2582 -0.7579
14154SOL     OW48807   3.371   9.222   4.562  0.1986  0.9154  0.3193
14154SOL    HW148808   3.333   9.274   4.491  0.8940  1.6038  0.4401
14154SOL    HW248809   3.406   9.145   4.518 -1.0815  0.3827  0.1714
14155SOL     OW48810   7.598   0.023   7.519 -0.0353  0.1618  0.1146
14155SOL    HW148811   7.508  -0.003   7.496 -0.2921 -0.4992  1.7813
14155SOL    HW248812   7.645  -0.059   7.529  0.2086  0.4425  1.3540
14156SOL     OW48813   0.346   1.208   4.360 -0.0120  0.7470  0.3262
14156SOL    HW148814   0.272   1.166   4.316 -0.9230  3.0868 -0.5525
14156SOL    HW248815   0.320   1.213   4.452 -0.4372  0.5030  0.2210
14157SOL     OW48816   7.443   7.960   0.791  0.4328 -0.0001  0.1492
14157SOL    HW148817   7.454   7.923   0.704 -3.3744  3.0247 -1.9583
14157SOL    HW248818   7.495   8.041   0.790 -1.1965  1.0984 -0.2197
14158SOL     OW48819   5.274   3.948   3.864  0.0372 -0.4820 -0.0897
14158SOL    HW148820   5.267   3.926   3.957 -1.4670  0.3632  0.0374
14158SOL    HW248821   5.316   3.872   3.824  1.1001 -0.6848  1.3338
14159SOL     OW48822   6.416   1.222   6.852  0.1453 -0.2337 -0.2063
14159SOL    HW148823   6.494   1.166   6.846  1.0649  1.0302 -0.4241
14159SOL    HW248824   6.344   1.161   6.870  1.0747 -1.4993 -0.6376
14160SOL     OW48825   5.445   3.423   7.952 -0.3307  0.3772  0.1883
14160SOL    HW148826   5.462   3.329   7.949  1.5911  0.7072 -0.4546
14160SOL    HW248827   5.531   3.463   7.939 -1.0894  2.2270  0.6429
14161SOL     OW48828   1.906   4.683   5.586 -0.1264  0.2504 -0.2832
14161SOL    HW148829   1.998   4.665   5.605 -1.0677 -3.7971  1.4804
14161SOL    HW248830   1.888   4.636   5.505 -0.6121  1.2223 -0.7567
14162SOL     OW48831   0.233   7.907   3.406  0.1220  0.1798  1.1218
14162SOL    HW148832   0.326   7.897   3.430  0.8224  0.8646 -1.0800
14162SOL    HW248833   0.210   7.822   3.368 -0.2596 -0.0848  1.9251
14163SOL     OW48834   0.383   2.737   4.338  0.2320 -0.2674 -0.0977
14163SOL    HW148835   0.370   2.718   4.245  0.1339  0.2029 -0.1852
14163SOL    HW248836   0.307   2.790   4.362  0.7554  0.4719 -0.0076
14164SOL     OW48837   1.295   0.993   4.168  0.2012  0.4434  0.2010
14164SOL    HW148838   1.221   0.943   4.134 -0.4435  0.1552  1.9368
14164SOL    HW248839   1.268   1.085   4.157 -1.3061  0.3536  2.5296
14165SOL     OW48840   2.823   6.917   1.628 -0.7109  0.0501 -0.0735
14165SOL    HW148841   2.814   6.863   1.549  0.1526 -2.2225  1.2658
14165SOL    HW248842   2.912   6.899   1.658 -1.4585 -0.2368  2.1140
14166SOL     OW48843   4.873   8.187   6.051 -0.3668 -0.1978  0.1702
14166SOL    HW148844   4.797   8.137   6.080 -0.5299 -0.4104 -0.5950
14166SOL    HW248845   4.837   8.256   5.996 -0.0982  0.4522  0.7899
14167SOL     OW48846   9.243   4.524   6.004 -0.0949  0.3491  0.2186
14167SOL    HW148847   9.319   4.580   5.986 -1.0082  1.3348 -0.6868
14167SOL    HW248848   9.183   4.580   6.053  0.4849 -0.9892  2.6218
14168SOL     OW48849   3.833   3.510   3.585  0.3622 -0.5736  0.1114
14168SOL    HW148850   3.881   3.522   3.666 -0.0909  0.7137  0.1985
14168SOL    HW248851   3.817   3.415   3.581 -1.7939 -0.4446  2.7875
14169SOL     OW48852   1.753   7.754   2.966  0.4572  0.0066 -0.1308
14169SOL    HW148853   1.737   7.808   2.889  0.7746  0.9411  0.4359
14169SOL    HW248854   1.682   7.778   3.026  1.6851  1.2882  0.8878
14170SOL     OW48855   9.135   9.149   5.496  0.2735 -0.4675  0.1960
14170SOL    HW148856   9.222   9.175   5.526  0.0689 -1.1285  1.4043
14170SOL    HW248857   9.077   9.221   5.523  0.2703 -0.5310  0.3558
14171SOL     OW48858   7.192   3.692   8.586 -0.5307  0.5253  0.1230
14171SOL    HW148859   7.271   3.696   8.532 -0.7391  0.4599 -0.1886
14171SOL    HW248860   7.156   3.604   8.570 -0.5493  0.4738  0.4326
14172SOL     OW48861   3.625   2.865   4.749 -0.0626 -0.0646  0.3241
14172SOL    HW148862   3.709   2.908   4.765 -0.2073 -0.3900  2.1182
14172SOL    HW248863   3.636   2.776   4.783 -0.9779 -0.2772  0.1048
14173SOL     OW48864   4.196   1.066   0.622 -0.0721 -0.3026 -0.5588
14173SOL    HW148865   4.232   1.120   0.692  0.5239 -2.9803  1.3418
14173SOL    HW248866   4.264   1.065   0.555  0.4304  0.2574 -0.0666
14174SOL     OW48867   4.167   3.182   0.098  0.4377 -0.8680 -0.0845
14174SOL    HW148868   4.239   3.170   0.036  0.8153 -1.6431  0.4877
14174SOL    HW248869   4.098   3.123   0.067  1.2705 -2.5870  1.1749
14175SOL     OW48870   8.035   3.687   5.247  0.4877  0.3203  0.5881
14175SOL    HW148871   8.056   3.677   5.340 -0.8237  0.6241  0.9430
14175SOL    HW248872   7.941   3.708   5.246  0.1081 -1.1968 -0.8694
14176SOL     OW48873   5.719   8.349   6.657  0.7986  1.0492 -0.1120
14176SOL    HW148874   5.690   8.404   6.730  2.8458 -1.3407  2.7385
14176SOL    HW248875   5.645   8.291   6.640  0.6697  0.9522  0.7632
14177SOL     OW48876   4.598   7.992   7.436  0.2973 -0.1067 -0.3884
14177SOL    HW148877   4.628   7.987   7.527  1.1701 -0.3109 -0.6803
14177SOL    HW248878   4.606   8.085   7.413  1.2415 -0.2401 -0.6341
14178SOL     OW48879   6.638   0.985   6.956 -0.1050 -0.9800  0.0075
14178SOL    HW148880   6.646   1.006   7.049  0.4706  0.2430 -0.2930
14178SOL    HW248881   6.724   1.002   6.920 -0.4870 -0.8267 -0.8646
14179SOL     OW48882   2.884   8.867   6.532 -0.4976 -0.0630  0.0850
14179SOL    HW148883   2.942   8.896   6.462 -0.3701 -1.2300 -0.3174
14179SOL    HW248884   2.826   8.942   6.549  0.6946  0.8871  0.0526
14180SOL     OW48885   5.824   0.947   8.860  0.3903 -0.5850  0.3214
14180SOL    HW148886   5.919   0.950   8.860  0.4914  0.5320  3.7364
14180SOL    HW248887   5.802   0.857   8.881  0.6748 -0.7507 -0.0732
14181SOL     OW48888   1.289   3.131   7.018 -0.1206  0.2895 -0.5458
14181SOL    HW148889   1.357   3.075   7.056 -1.2321 -1.8040 -1.4796
14181SOL    HW248890   1.296   3.214   7.066  1.4312 -0.7195  1.0746
14182SOL     OW48891   5.362   5.017   7.440 -0.4949 -0.1091  0.1904
14182SOL    HW148892   5.336   5.060   7.521  0.8352 -0.7101  0.9696
14182SOL    HW248893   5.354   5.085   7.373  3.1042  2.0084  1.6185
14183SOL     OW48894   0.928   4.791   7.149  0.7729  0.3631 -0.0927
14183SOL    HW148895   0.999   4.727   7.140 -1.5060 -2.2583 -0.5340
14183SOL    HW248896   0.848   4.739   7.154 -1.1999  3.1847  0.2980
14184SOL     OW48897   7.009   6.367   7.963 -0.0442 -0.2617  0.4257
14184SOL    HW148898   6.945   6.338   8.026 -0.4566 -2.3036 -0.8501
14184SOL    HW248899   6.993   6.314   7.885  1.0475  1.4768 -1.0946
14185SOL     OW48900   8.162   8.435   2.330  0.0984  0.1479  0.3173
14185SOL    HW148901   8.194   8.376   2.261 -0.3948 -1.1334  1.1433
14185SOL    HW248902   8.170   8.522   2.292  1.1822 -0.4043 -0.8326
14186SOL     OW48903   3.998   0.339   3.311  0.0090  0.0902 -0.2435
14186SOL    HW148904   4.085   0.313   3.280 -1.1386 -2.7980 -1.4134
14186SOL    HW248905   3.974   0.273   3.375 -1.9490 -0.1674 -1.1531
14187SOL     OW48906   3.480   4.339   4.107  0.1360  0.2548 -0.2765
14187SOL    HW148907   3.499   4.433   4.113  1.0829  0.1186 -0.9804
14187SOL    HW248908   3.388   4.335   4.081  0.3186  1.0074 -1.0915
14188SOL     OW48909   2.786   2.675   7.094  0.3619  0.0845  0.2642
14188SOL    HW148910   2.745   2.757   7.122  0.2118  0.6455 -1.4778
14188SOL    HW248911   2.761   2.612   7.161 -3.4334  0.3774 -0.6265
14189SOL     OW48912   6.535   7.996   5.969  0.1433  0.2252  0.1640
14189SOL    HW148913   6.616   7.950   5.946 -0.0371  0.3534 -0.8083
14189SOL    HW248914   6.562   8.068   6.026  0.4607 -0.9360  1.5345
14190SOL     OW48915   3.951   8.321   1.435  0.7129 -0.0572  0.3107
14190SOL    HW148916   3.933   8.404   1.479 -0.4064  0.2409 -0.6218
14190SOL    HW248917   3.984   8.263   1.503  2.6597  1.4910  0.7568
14191SOL     OW48918   3.822   6.466   6.055  0.0842 -0.2232  0.1769
14191SOL    HW148919   3.821   6.561   6.041  0.5876 -0.1873  0.3531
14191SOL    HW248920   3.735   6.446   6.088  0.0555  0.2174  0.3844
14192SOL     OW48921   4.179   2.437   0.708 -0.2812  0.1423  0.2693
14192SOL    HW148922   4.274   2.439   0.720 -0.4129 -0.7330  1.6416
14192SOL    HW248923   4.148   2.518   0.748 -0.2457 -0.3401  1.2944
14193SOL     OW48924   7.784   5.601   8.795  0.0362  0.1908  0.4831
14193SOL    HW148925   7.860   5.653   8.822  0.0144  1.1843 -1.2402
14193SOL    HW248926   7.797   5.586   8.701 -1.9872  0.5653  0.0973
14194SOL     OW48927   2.417   5.275   6.731 -0.4410 -0.3719  0.1585
14194SOL    HW148928   2.484   5.209   6.714 -0.6558  0.0840 -2.9207
14194SOL    HW248929   2.444   5.317   6.813  1.8532 -1.6092  0.0921
14195SOL     OW48930   1.959   5.699   7.289  0.0655  0.1429 -0.4732
14195SOL    HW148931   1.994   5.690   7.200 -1.6824  0.2117 -1.1980
14195SOL    HW248932   1.971   5.612   7.327  1.6840  0.3597 -0.4185
14196SOL     OW48933   3.165   4.032   2.352 -0.2790 -0.2973 -0.0975
14196SOL    HW148934   3.086   3.983   2.372  0.5003 -1.3261  0.5359
14196SOL    HW248935   3.145   4.078   2.270 -1.3681 -0.8831 -0.1704
14197SOL     OW48936   5.160   8.893   7.292  0.2574 -0.0715 -0.0788
14197SOL    HW148937   5.079   8.843   7.297  0.7615 -0.8492  0.4905
14197SOL    HW248938   5.226   8.831   7.262  1.2899 -0.2907  2.3830
14198SOL     OW48939   2.592   1.281   6.025  0.2955 -0.2289 -0.5892
14198SOL    HW148940   2.658   1.277   6.093  1.8276  0.3592 -1.9669
14198SOL    HW248941   2.568   1.373   6.020  0.0269 -0.3028 -0.6956
14199SOL     OW48942   3.700   8.927   4.734 -0.7870  0.3231 -0.4676
14199SOL    HW148943   3.757   8.918   4.657 -0.8947 -0.4827 -0.4671
14199SOL    HW248944   3.697   9.021   4.752  1.5820  0.3093  0.3084
14200SOL     OW48945   5.610   3.193   5.036  0.1516 -0.3074  0.1686
14200SOL    HW148946   5.618   3.098   5.025 -1.9051 -0.5387  0.1929
14200SOL    HW248947   5.586   3.225   4.949  2.7938  0.5130 -0.3326
14201SOL     OW48948   7.536   5.952   4.457  1.0303 -0.1697 -0.3226
14201SOL    HW148949   7.574   6.028   4.501  0.9449  0.0958 -0.7064
14201SOL    HW248950   7.604   5.885   4.464  0.8651 -0.2646  0.5629
14202SOL     OW48951   0.632   1.580   1.741  0.2757  0.3171  0.0384
14202SOL    HW148952   0.644   1.674   1.723 -1.0899  0.6752  0.8215
14202SOL    HW248953   0.567   1.551   1.678 -0.0025  0.1333  0.4032
14203SOL     OW48954   7.469   1.623   1.133 -0.2897 -0.2637 -0.4049
14203SOL    HW148955   7.455   1.543   1.183 -2.7716 -0.2338 -0.8862
14203SOL    HW248956   7.475   1.692   1.199  0.0177 -0.6372 -0.0424
14204SOL     OW48957   3.353   4.244   7.893 -0.3785  0.0847 -0.3204
14204SOL    HW148958   3.365   4.325   7.944  1.0100 -0.4425  0.2413
14204SOL    HW248959   3.379   4.269   7.804  1.2181 -0.0066  0.0866
14205SOL     OW48960   7.966   4.491   0.839  0.5526 -0.1941 -0.7070
14205SOL    HW148961   8.046   4.514   0.791  0.7282 -2.3674 -1.5645
14205SOL    HW248962   7.897   4.543   0.797  0.9058 -1.1807 -2.6189
14206SOL     OW48963   1.122   1.600   8.482 -0.5341 -0.0169 -0.0836
14206SOL    HW148964   1.075   1.516   8.481  0.2903 -0.4814 -0.5530
14206SOL    HW248965   1.103   1.637   8.568 -2.5568  0.2734 -0.5930
14207SOL     OW48966   1.145   5.785   2.765 -0.5674  0.3796 -0.1915
14207SOL    HW148967   1.166   5.845   2.693 -0.9600  0.6175 -0.1141
14207SOL    HW248968   1.059   5.814   2.795 -0.0358  0.8303  0.9440
14208SOL     OW48969   3.548   0.550   3.290 -0.8751 -0.5372  0.0087
14208SOL    HW148970   3.569   0.541   3.383 -0.3686 -1.2143 -0.1646
14208SOL    HW248971   3.632   0.540   3.245 -0.8213  1.4621 -0.4488
14209SOL     OW48972   7.456   6.928   7.560 -0.6052 -0.1336 -0.2228
14209SOL    HW148973   7.460   6.930   7.656  0.4714  1.6141 -0.2472
14209SOL    HW248974   7.374   6.884   7.540 -0.8287 -0.5863  1.4974
14210SOL     OW48975   5.959   4.928   3.987 -0.1119  0.0457 -0.5036
14210SOL    HW148976   6.051   4.935   3.962 -0.6207  0.5508 -2.4556
14210SOL    HW248977   5.930   5.019   3.993  0.0997  0.0094  2.7854
14211SOL     OW48978   2.972   4.831   8.178 -0.1345  0.3915 -0.2539
14211SOL    HW148979   2.910   4.779   8.229 -0.8098  1.0614 -0.3804
14211SOL    HW248980   2.978   4.914   8.225 -0.1210  0.7029 -0.8009
14212SOL     OW48981   6.859   7.673   6.394  0.3646  0.1512  0.9791
14212SOL    HW148982   6.859   7.705   6.484 -4.7951 -0.4374  1.4380
14212SOL    HW248983   6.878   7.579   6.402  0.1057  0.1343  1.4266
14213SOL     OW48984   3.154   6.005   4.763  0.2819 -0.3035 -0.3361
14213SOL    HW148985   3.228   6.043   4.715 -1.0082  1.9428 -0.7003
14213SOL    HW248986   3.077   6.028   4.710 -0.9733  0.1550  1.5998
14214SOL     OW48987   1.429   3.158   3.284 -0.3264 -0.4452 -0.3418
14214SOL    HW148988   1.418   3.170   3.379  2.5941  1.0665 -0.0780
14214SOL    HW248989   1.430   3.063   3.273 -0.0492 -0.6678  1.2668
14215SOL     OW48990   5.266   7.777   7.665  0.1364  0.1763 -0.3937
14215SOL    HW148991   5.286   7.683   7.662  0.0492  0.1689 -0.8577
14215SOL    HW248992   5.342   7.819   7.624 -0.1790  0.2475 -0.9177
14216SOL     OW48993   1.116   0.709   6.693  0.3060  0.8109  0.3688
14216SOL    HW148994   1.121   0.669   6.606 -0.0117 -1.2227  1.2233
14216SOL    HW248995   1.055   0.653   6.741  2.1392  0.5425  2.5457
14217SOL     OW48996   8.966   1.226   5.566  0.2712 -0.1927 -0.2829
14217SOL    HW148997   8.955   1.190   5.653  0.3636  0.6698  0.0944
14217SOL    HW248998   8.878   1.229   5.529  0.3360 -1.3980 -0.5753
14218SOL     OW48999   3.526   8.752   4.837  0.4234 -0.8338  0.2416
14218SOL    HW149000   3.507   8.726   4.747 -0.0244 -1.0795  0.3986
14218SOL    HW249001   3.566   8.838   4.830 -0.5046 -0.4172 -0.1397
14219SOL     OW49002   4.098   6.543   8.295  0.5115 -0.4629 -0.0105
14219SOL    HW149003   4.041   6.587   8.359  0.9779 -1.8953  1.4885
14219SOL    HW249004   4.149   6.613   8.255 -0.3200  0.5602  0.6655
14220SOL     OW49005   5.941   3.490   0.132  0.1243 -0.7376  0.4797
14220SOL    HW149006   6.007   3.519   0.195 -0.9253 -1.3363  1.9357
14220SOL    HW249007   5.860   3.487   0.183 -1.3890  1.4513 -1.6065
14221SOL     OW49008   3.009   6.751   7.275 -0.5133 -0.3035 -0.4093
14221SOL    HW149009   2.957   6.670   7.274 -2.1616  0.7277 -1.2396
14221SOL    HW249010   2.995   6.787   7.363  0.4615 -1.0267  0.0669
14222SOL     OW49011   3.643   7.895   0.412 -0.4363 -0.1412 -0.0608
14222SOL    HW149012   3.550   7.887   0.434 -0.5689  0.8282 -0.1999
14222SOL    HW249013   3.654   7.988   0.389  1.1161  0.4034  2.5112
14223SOL     OW49014   0.364   9.100   1.848  0.8348  0.0500  0.2167
14223SOL    HW149015   0.353   9.172   1.911  0.7292 -0.9919  1.4322
14223SOL    HW249016   0.444   9.123   1.800  0.3354  1.3917 -0.0231
14224SOL     OW49017   7.648   2.793   7.932  0.5102  0.7107 -0.5591
14224SOL    HW149018   7.560   2.811   7.899  0.0947 -0.7097 -0.3098
14224SOL    HW249019   7.637   2.718   7.990  1.9008  0.4845 -0.5432
14225SOL     OW49020   8.783   0.270   3.228 -0.7795  0.3316  0.1986
14225SOL    HW149021   8.728   0.223   3.291 -2.3463  1.6561 -0.0993
14225SOL    HW249022   8.837   0.328   3.282 -0.9263  0.2706  0.4127
14226SOL     OW49023   8.565   2.403   3.709  0.7148  0.1102  0.2508
14226SOL    HW149024   8.586   2.455   3.786  2.9372  1.1436 -0.9403
14226SOL    HW249025   8.481   2.436   3.679  0.1870  0.2156  1.7590
14227SOL     OW49026   4.498   6.996   8.159 -0.2327  0.0730 -0.0272
14227SOL    HW149027   4.500   7.036   8.246  0.1114 -1.4149  0.6807
14227SOL    HW249028   4.418   6.944   8.159 -0.9578  1.1460 -1.1357
14228SOL     OW49029   8.861   6.412   1.003  0.2231  0.5115  0.0773
14228SOL    HW149030   8.787   6.469   1.023 -1.1057 -0.9851 -0.4553
14228SOL    HW249031   8.915   6.465   0.944  0.3951  2.1691  1.6148
14229SOL     OW49032   8.948   9.117   7.603 -0.0824  0.0834  0.1595
14229SOL    HW149033   8.937   9.181   7.673 -0.2447  0.9496 -0.6339
14229SOL    HW249034   8.913   9.036   7.638  0.2410  0.3912  1.2352
14230SOL     OW49035   2.384   0.792   7.336 -0.2294 -0.2135  0.3650
14230SOL    HW149036   2.344   0.747   7.410 -1.1365  0.4193  0.2774
14230SOL    HW249037   2.346   0.751   7.259 -0.9062  0.5472  0.2830
14231SOL     OW49038   3.583   0.826   7.622  0.3466  0.0991  0.5656
14231SOL    HW149039   3.581   0.816   7.717  0.5755 -0.9504  0.4746
14231SOL    HW249040   3.652   0.766   7.592 -1.2814 -1.3703 -0.4406
14232SOL     OW49041   3.787   3.397   5.035 -0.0609  0.6376  0.1506
14232SOL    HW149042   3.727   3.383   5.109  0.1927  0.7564  0.3785
14232SOL    HW249043   3.852   3.458   5.068  0.8190 -0.3326  0.2545
14233SOL     OW49044   1.779   8.800   1.950  0.3847 -0.4206 -0.2465
14233SOL    HW149045   1.795   8.891   1.974 -0.1023 -0.4417  0.1732
14233SOL    HW249046   1.697   8.777   1.993 -0.8892 -0.2774 -2.4322
14234SOL     OW49047   4.318   8.628   7.429  0.4311 -0.1212  0.0988
14234SOL    HW149048   4.336   8.721   7.413  0.3328 -0.4169 -2.0367
14234SOL    HW249049   4.404   8.589   7.444  0.6633  0.0563 -0.7005
14235SOL     OW49050   5.417   4.800   8.088  0.2647  0.5289  0.1840
14235SOL    HW149051   5.472   4.795   8.166  2.8194 -0.7071 -1.5801
14235SOL    HW249052   5.359   4.724   8.095  0.7708  0.1803  0.6389
14236SOL     OW49053   4.135   6.190   4.901 -0.0695  0.5375  0.2779
14236SOL    HW149054   4.042   6.209   4.896 -0.1129  0.3645  0.4194
14236SOL    HW249055   4.150   6.129   4.829  0.2521  1.8137 -0.7777
14237SOL     OW49056   4.777   3.811   6.348  0.4219 -0.4665 -0.0148
14237SOL    HW149057   4.714   3.824   6.277  0.1903  0.7014  0.3789
14237SOL    HW249058   4.803   3.719   6.341 -0.1992 -0.5758 -1.1069
14238SOL     OW49059   0.384   8.886   8.471  0.1866 -0.0207 -0.1620
14238SOL    HW149060   0.354   8.815   8.414  2.4290 -1.8884  0.8348
14238SOL    HW249061   0.305   8.937   8.488 -0.9952 -0.6056 -3.1435
14239SOL     OW49062   0.336   7.605   5.240 -0.1537 -0.7818 -0.5759
14239SOL    HW149063   0.363   7.693   5.268 -0.0973 -0.5238 -1.4248
14239SOL    HW249064   0.368   7.597   5.150  1.3013 -2.3003  0.0272
14240SOL     OW49065   2.602   5.503   5.076  0.2020  0.0726  0.0212
14240SOL    HW149066   2.555   5.586   5.085  1.1137  0.6259 -0.2214
14240SOL    HW249067   2.688   5.528   5.043 -0.1470 -1.1179 -1.9503
14241SOL     OW49068   2.728   0.630   7.158 -0.1889 -0.1997 -0.5307
14241SOL    HW149069   2.691   0.718   7.153  0.0077 -0.0938 -0.1547
14241SOL    HW249070   2.652   0.572   7.166 -0.3229 -0.0748 -0.8542
14242SOL     OW49071   3.642   2.399   5.750  0.0987  0.3226  0.6847
14242SOL    HW149072   3.617   2.363   5.665 -0.4833  0.9017  0.5958
14242SOL    HW249073   3.576   2.467   5.767 -0.8917 -0.9688  2.4289
14243SOL     OW49074   9.141   0.704   8.314 -0.2153  0.3128 -0.4023
14243SOL    HW149075   9.131   0.721   8.220 -0.5655  1.0820 -0.2345
14243SOL    HW249076   9.063   0.653   8.337 -0.2369  0.3101 -0.4836
14244SOL     OW49077   5.752   1.776   7.164 -0.4610  0.2394 -0.1716
14244SOL    HW149078   5.813   1.715   7.122  0.3189  1.1299 -0.3542
14244SOL    HW249079   5.746   1.849   7.103 -1.0169  0.5725  0.2746
14245SOL     OW49080   0.768   0.156   6.074  0.4619  0.3012  0.1481
14245SOL    HW149081   0.782   0.062   6.072 -1.3303 -0.0050 -0.5702
14245SOL    HW249082   0.822   0.188   6.146 -0.2651 -1.5296  1.5676
14246SOL     OW49083   9.011   4.513   3.934  0.1195 -0.4867  0.1157
14246SOL    HW149084   8.959   4.578   3.887  0.4292  0.9857  1.6941
14246SOL    HW249085   9.099   4.523   3.899  0.0897 -0.3110  0.0893
14247SOL     OW49086   4.185   4.064   8.568  0.3872 -0.4688 -0.3937
14247SOL    HW149087   4.213   4.136   8.624 -1.7122  0.4243 -0.4210
14247SOL    HW249088   4.124   4.103   8.506 -0.2905 -2.1462 -0.8504
14248SOL     OW49089   6.707   7.088   3.607  0.1441  0.5767  0.3994
14248SOL    HW149090   6.615   7.086   3.579  0.8829 -0.8157 -2.3173
14248SOL    HW249091   6.735   7.178   3.591 -0.2915  0.5579 -0.5144
14249SOL     OW49092   2.450   7.785   8.100 -0.1448  0.8358 -0.1012
14249SOL    HW149093   2.355   7.798   8.107 -0.4711 -1.3407  0.2671
14249SOL    HW249094   2.485   7.824   8.180 -0.6204  2.3586 -0.6057
14250SOL     OW49095   7.657   5.713   2.833  0.1341  0.0302  0.3612
14250SOL    HW149096   7.660   5.692   2.739  2.2431  1.0287  0.1420
14250SOL    HW249097   7.564   5.712   2.855 -0.3048 -2.1959 -1.2631
14251SOL     OW49098   3.455   6.883   0.262 -0.3368  0.6183 -0.1793
14251SOL    HW149099   3.528   6.844   0.310 -0.4636  2.0304  1.2417
14251SOL    HW249100   3.389   6.813   0.257  0.5550 -0.2425 -0.3043
14252SOL     OW49101   5.921   9.007   1.786 -0.1422  0.0980  0.7302
14252SOL    HW149102   5.988   8.995   1.719 -0.6474  0.7326  0.0844
14252SOL    HW249103   5.865   9.077   1.751 -2.2540 -1.6840  0.3614
14253SOL     OW49104   5.527   1.835   7.407 -0.0615 -0.4390 -0.0768
14253SOL    HW149105   5.559   1.821   7.496  0.3843  0.0448 -0.1596
14253SOL    HW249106   5.606   1.839   7.353 -0.3732 -2.0638 -0.7007
14254SOL     OW49107   5.439   5.584   6.368  0.1115  0.6759  0.2476
14254SOL    HW149108   5.416   5.493   6.385  1.2020  0.1567 -0.8712
14254SOL    HW249109   5.427   5.594   6.273  0.8687  1.4253  0.2188
14255SOL     OW49110   0.569   1.083   6.030  0.4836  0.4198  0.7677
14255SOL    HW149111   0.582   1.083   5.936  0.8644  0.7942  0.8207
14255SOL    HW249112   0.615   1.005   6.061  2.1711  1.4198  0.8862
14256SOL     OW49113   6.200   2.459   2.465  0.0925 -0.5313  0.3023
14256SOL    HW149114   6.294   2.472   2.475  0.0826 -0.7014  0.6121
14256SOL    HW249115   6.181   2.378   2.513 -0.4946  0.4354  1.7828
14257SOL     OW49116   8.552   5.481   0.048 -0.2380 -0.2669  0.1843
14257SOL    HW149117   8.465   5.517   0.031  0.2656  0.7965 -0.2111
14257SOL    HW249118   8.612   5.543   0.007  0.7702 -0.3907  1.4022
14258SOL     OW49119   8.744   2.854   8.471 -0.7447 -0.0918 -0.2513
14258SOL    HW149120   8.837   2.841   8.486 -0.1745  0.4716 -2.7973
14258SOL    HW249121   8.708   2.766   8.462 -0.5737 -0.3231  1.2159
14259SOL     OW49122   5.953   3.257   6.491  0.4599 -0.0688  0.1026
14259SOL    HW149123   5.991   3.256   6.404  1.5865 -1.6876  0.5602
14259SOL    HW249124   5.987   3.336   6.533  1.4698 -0.2986 -0.2804
14260SOL     OW49125   2.866   8.137   0.341  0.3795  0.0747 -0.2170
14260SOL    HW149126   2.951   8.095   0.355 -0.3990 -1.0644  1.3995
14260SOL    HW249127   2.844   8.173   0.427  0.3150  2.5393 -1.1962
14261SOL     OW49128   0.170   6.111   8.853  0.4951  0.3001  0.4397
14261SOL    HW149129   0.127   6.093   8.769  0.0192 -0.1420  0.7741
14261SOL    HW249130   0.252   6.061   8.849 -0.3154 -1.1277  0.9211
14262SOL     OW49131   9.076   1.757   9.013 -0.7335 -0.2494  0.7260
14262SOL    HW149132   9.057   1.825   9.079 -1.7189 -0.6007  0.8138
14262SOL    HW249133   9.092   1.678   9.064  1.8745  0.1768  0.7175
14263SOL     OW49134   7.093   0.032   6.993  0.0362 -0.3047 -0.6690
14263SOL    HW149135   7.128   0.038   7.082 -0.1378 -0.0542 -0.6145
14263SOL    HW249136   7.156  -0.021   6.946 -0.2936 -1.1446 -0.1785
14264SOL     OW49137   1.816   5.114   4.270  0.0042  0.0965  0.2151
14264SOL    HW149138   1.848   5.108   4.360 -0.2770 -1.2375  0.2480
14264SOL    HW249139   1.888   5.154   4.221  0.8332 -0.7574  0.7092
14265SOL     OW49140   7.871   1.981   5.091  0.2533 -0.1106  0.2502
14265SOL    HW149141   7.861   1.956   4.999  0.7651  2.0140 -0.4367
14265SOL    HW249142   7.880   2.076   5.089  2.2314 -0.1628  2.3219
14266SOL     OW49143   4.542   7.886   8.651 -0.0037  0.4902  0.1714
14266SOL    HW149144   4.508   7.803   8.686 -0.6840  0.5935 -0.2286
14266SOL    HW249145   4.585   7.861   8.569  2.2125  0.1424  1.3747
14267SOL     OW49146   3.402   3.241   0.418 -0.0194  0.4388 -0.2102
14267SOL    HW149147   3.468   3.276   0.358 -0.8138 -0.4730 -1.6891
14267SOL    HW249148   3.323   3.232   0.364 -0.7206 -0.5749  0.9267
14268SOL     OW49149   6.185   4.434   7.666 -0.3204 -0.3294 -0.2928
14268SOL    HW149150   6.147   4.436   7.579  0.0121  0.6605 -0.4404
14268SOL    HW249151   6.183   4.526   7.695 -0.1414 -0.5947  0.6084
14269SOL     OW49152   1.998   4.382   6.162 -0.2402 -0.0270 -0.2031
14269SOL    HW149153   2.043   4.302   6.188  0.0093  0.0444 -0.4074
14269SOL    HW249154   1.934   4.354   6.097  0.1739  0.0066 -0.6253
14270SOL     OW49155   8.791   2.609   0.715  0.5180 -0.3492 -0.2476
14270SOL    HW149156   8.736   2.562   0.653 -0.2536  1.3209 -0.8822
14270SOL    HW249157   8.743   2.603   0.798  0.8751 -1.4197 -0.1047
14271SOL     OW49158   1.108   6.570   2.932 -0.2504  0.4257 -0.3254
14271SOL    HW149159   1.156   6.544   3.011  2.1908  1.6067 -1.3256
14271SOL    HW249160   1.060   6.649   2.959 -0.2853  0.2146  0.2522
14272SOL     OW49161   1.888   4.961   2.806 -0.0195 -1.0014  0.0237
14272SOL    HW149162   1.824   4.983   2.737 -1.1485 -1.5010  0.8865
14272SOL    HW249163   1.863   5.016   2.880  1.3412 -0.2911 -0.0075
14273SOL     OW49164   0.028   5.105   7.458  0.6331  0.2213  0.8240
14273SOL    HW149165  -0.038   5.130   7.393  0.7697  1.1481  1.0302
14273SOL    HW249166  -0.023   5.067   7.530  0.4406 -0.3031  0.4183
14274SOL     OW49167   4.585   4.111   0.747 -0.1398  0.8360 -0.1182
14274SOL    HW149168   4.550   4.023   0.761  0.4686  0.9891  3.2673
14274SOL    HW249169   4.509   4.163   0.719 -1.3703 -0.0555  1.3757
14275SOL     OW49170   8.643   5.178   4.922 -0.2675 -0.0473 -0.2361
14275SOL    HW149171   8.593   5.097   4.928 -0.4598  0.1622  1.5120
14275SOL    HW249172   8.723   5.162   4.970  0.6241  0.1806 -1.5842
14276SOL     OW49173   7.411   8.986   1.641 -0.3996  0.4164  0.3191
14276SOL    HW149174   7.464   8.916   1.680 -0.5051 -0.0250 -0.3141
14276SOL    HW249175   7.321   8.966   1.666 -0.6045 -0.4903 -1.0209
14277SOL     OW49176   5.714   3.251   8.202  0.3188  0.2012  0.6767
14277SOL    HW149177   5.645   3.204   8.249  0.9277 -1.5244 -0.0573
14277SOL    HW249178   5.682   3.341   8.195 -2.0699 -0.6275 -0.0243
14278SOL     OW49179   2.975   1.580   3.667 -0.0120  0.1639 -0.0710
14278SOL    HW149180   2.898   1.549   3.620 -0.0142 -0.8235  0.5604
14278SOL    HW249181   3.020   1.637   3.604 -1.2029  0.7037 -0.4665
14279SOL     OW49182   4.489   1.341   8.541 -0.8086  0.5887 -0.2805
14279SOL    HW149183   4.414   1.331   8.482 -0.6331  1.5763 -0.6959
14279SOL    HW249184   4.458   1.311   8.626 -1.3504  0.0124 -0.6726
14280SOL     OW49185   8.790   1.804   8.576  0.2240 -0.0368  0.2377
14280SOL    HW149186   8.851   1.770   8.642 -0.9071 -0.0726  1.3088
14280SOL    HW249187   8.710   1.824   8.626 -0.3644  0.7764 -0.9841
14281SOL     OW49188   2.556   6.280   1.993  0.3508  0.7055  0.4257
14281SOL    HW149189   2.519   6.247   2.075 -0.4744  0.5715  0.0190
14281SOL    HW249190   2.540   6.209   1.930  0.4436  1.0436  0.0171
14282SOL     OW49191   7.760   5.779   6.662  0.2022  0.5596  0.0607
14282SOL    HW149192   7.831   5.715   6.671  0.1644  0.2768 -1.3450
14282SOL    HW249193   7.708   5.768   6.742 -0.0923 -1.5625 -0.3448
14283SOL     OW49194   1.927   5.918   6.542  0.2571  0.0699  0.9132
14283SOL    HW149195   1.870   5.841   6.541  1.3770 -0.7858 -0.1158
14283SOL    HW249196   2.010   5.885   6.576  0.7364  0.8234  0.4814
14284SOL     OW49197   3.306   4.967   7.828 -0.0853  0.0334  0.0639
14284SOL    HW149198   3.395   4.962   7.861 -0.3883 -1.3342  0.7556
14284SOL    HW249199   3.315   5.003   7.739  1.1640 -0.2685  0.0492
14285SOL     OW49200   5.931   1.531   0.144  0.1356 -0.2237  0.4144
14285SOL    HW149201   5.994   1.472   0.104 -0.7948  0.5906 -2.5134
14285SOL    HW249202   5.983   1.604   0.177  0.8566 -0.1771 -0.7865
14286SOL     OW49203   0.272   0.155   5.358 -0.3809 -1.3683  0.3582
14286SOL    HW149204   0.189   0.192   5.327 -0.0800 -0.8678  0.1265
14286SOL    HW249205   0.249   0.109   5.439 -0.8204 -0.9060  0.5072
14287SOL     OW49206   4.442   6.911   7.581 -0.0494  0.1072  0.4463
14287SOL    HW149207   4.429   6.819   7.604 -1.0026 -0.0266 -0.5657
14287SOL    HW249208   4.531   6.914   7.544  0.6243 -0.0781  1.9475
14288SOL     OW49209   5.795   6.715   8.833 -0.0804  0.0355  0.3226
14288SOL    HW149210   5.874   6.768   8.824 -0.2015  0.2115  0.2883
14288SOL    HW249211   5.745   6.732   8.753 -0.4060  0.3510  0.5880
14289SOL     OW49212   0.877   4.150   8.438 -0.1827 -0.0232 -0.1279
14289SOL    HW149213   0.812   4.108   8.494 -0.0702  2.2841  1.9085
14289SOL    HW249214   0.905   4.227   8.487  2.5066  0.2735 -1.8933
14290SOL     OW49215   7.830   1.094   2.228  0.1315 -0.0055 -0.5986
14290SOL    HW149216   7.832   0.998   2.231  1.3044 -0.0470 -1.6786
14290SOL    HW249217   7.882   1.116   2.151  1.1222  1.5458  0.4560
14291SOL     OW49218   8.669   0.385   8.342  0.0892  0.5202 -0.1083
14291SOL    HW149219   8.624   0.407   8.261  0.1189 -1.7307 -0.8048
14291SOL    HW249220   8.599   0.377   8.407 -0.0932  0.8945 -0.2561
14292SOL     OW49221   0.590   5.998   4.883  0.3557 -0.3427  0.4156
14292SOL    HW149222   0.673   6.012   4.837  0.3677 -1.4202  0.0959
14292SOL    HW249223   0.523   6.025   4.820  0.4199 -0.6735  0.2027
14293SOL     OW49224   7.478   5.415   6.767  0.5166  0.1931  0.5407
14293SOL    HW149225   7.553   5.447   6.818  0.2847  1.0344  0.3554
14293SOL    HW249226   7.504   5.429   6.676  0.0064  0.7871  0.4835
14294SOL     OW49227   1.751   2.872   0.181 -0.1100  0.6549  0.4344
14294SOL    HW149228   1.757   2.963   0.209 -1.3225  0.2658  2.1230
14294SOL    HW249229   1.822   2.828   0.227  0.1588  0.6509  0.0187
14295SOL     OW49230   5.243   6.242   6.653 -0.1142 -0.2013  0.4086
14295SOL    HW149231   5.188   6.316   6.625  1.3296  0.6459 -0.3256
14295SOL    HW249232   5.181   6.175   6.680 -1.5055  1.7812  2.4996
14296SOL     OW49233   0.147   7.205   8.614 -0.0372 -0.4935  0.1409
14296SOL    HW149234   0.205   7.187   8.540  0.5673 -0.5389  0.6172
14296SOL    HW249235   0.069   7.243   8.574  0.1356 -0.8498 -0.5505
14297SOL     OW49236   8.882   8.983   5.684 -0.0051  0.2342  0.1278
14297SOL    HW149237   8.932   9.055   5.722  1.7987 -0.0312 -1.5564
14297SOL    HW249238   8.940   8.907   5.691 -1.2321 -0.7117  0.4284
14298SOL     OW49239   0.440   5.631   4.296  0.4291 -0.5079 -0.5307
14298SOL    HW149240   0.457   5.599   4.208  0.6097 -0.4386 -0.5211
14298SOL    HW249241   0.388   5.710   4.284 -0.6326 -1.1874 -0.5304
14299SOL     OW49242   8.120   7.400   2.155 -0.5393  0.9003  0.0465
14299SOL    HW149243   8.205   7.431   2.125 -0.6067  0.0805 -1.0515
14299SOL    HW249244   8.132   7.384   2.249  0.4831  0.9122 -0.0721
14300SOL     OW49245   7.481   1.187   2.144 -0.2606  0.4726 -0.3292
14300SOL    HW149246   7.529   1.172   2.225  1.2266  1.0008 -1.0794
14300SOL    HW249247   7.512   1.118   2.085 -1.1152  0.2668 -0.5513
14301SOL     OW49248   4.748   0.773   0.649  0.3068  0.0650  0.0264
14301SOL    HW149249   4.707   0.744   0.731 -0.7828  1.1879 -0.0906
14301SOL    HW249250   4.814   0.837   0.677  0.2207  0.1474  0.0374
14302SOL     OW49251   0.971   6.884   4.471 -0.0231  0.7724 -0.1154
14302SOL    HW149252   0.935   6.915   4.388 -0.4628  0.0583 -0.1998
14302SOL    HW249253   1.032   6.952   4.498  0.2910  0.9057 -1.1383
14303SOL     OW49254   8.241   6.755   7.781  0.1914  0.8991  0.1423
14303SOL    HW149255   8.333   6.734   7.767  0.1038 -0.3865  1.2962
14303SOL    HW249256   8.204   6.675   7.819 -1.2597  1.6020  0.2616
14304SOL     OW49257   8.068   0.618   4.354  0.0830 -0.0093 -0.5374
14304SOL    HW149258   8.153   0.634   4.314  0.0191 -0.2582 -0.7792
14304SOL    HW249259   8.004   0.650   4.290  0.0087  1.8167  0.3809
14305SOL     OW49260   5.832   2.024   8.446 -0.1686 -0.3534  0.0734
14305SOL    HW149261   5.805   2.088   8.512 -2.0321 -0.8516 -0.1571
14305SOL    HW249262   5.833   1.941   8.493 -0.5103 -0.5604 -0.2797
14306SOL     OW49263   7.923   6.655   2.523  0.3196  0.3275 -0.0474
14306SOL    HW149264   7.845   6.601   2.528 -0.5646  1.6114  0.5203
14306SOL    HW249265   7.995   6.592   2.517 -0.8070 -0.8666 -1.8145
14307SOL     OW49266   4.975   0.782   4.314 -0.1236 -0.6156  0.5818
14307SOL    HW149267   4.937   0.771   4.227  0.5609 -0.2933  0.2309
14307SOL    HW249268   4.957   0.700   4.359  1.0391 -1.4845 -0.4735
14308SOL     OW49269   5.588   5.464   3.518 -0.2724 -0.3985 -0.2351
14308SOL    HW149270   5.598   5.372   3.543 -0.2080  0.0357  1.4642
14308SOL    HW249271   5.634   5.512   3.587 -0.6369  0.9290 -0.8951
14309SOL     OW49272   1.265   9.151   6.613 -0.4224 -0.7335  0.4794
14309SOL    HW149273   1.283   9.217   6.679  0.4429 -0.2530 -0.2121
14309SOL    HW249274   1.251   9.201   6.532 -1.1397 -1.3271  0.2181
14310SOL     OW49275   4.587   6.416   7.870  0.3075 -0.1834 -0.1009
14310SOL    HW149276   4.649   6.362   7.919  1.7826  0.8207 -0.7914
14310SOL    HW249277   4.610   6.401   7.778  2.8189  3.7672 -0.3206
14311SOL     OW49278   3.600   2.791   8.177  0.3289 -0.5036 -0.0067
14311SOL    HW149279   3.667   2.727   8.151  0.1498 -1.1684  1.1172
14311SOL    HW249280   3.566   2.758   8.260  0.7667  1.4424  1.0194
14312SOL     OW49281   8.782   7.139   5.579  0.2968 -0.2323 -0.1796
14312SOL    HW149282   8.782   7.048   5.607 -2.3127 -0.2104  0.1778
14312SOL    HW249283   8.802   7.135   5.485 -0.4249 -1.2553 -0.3080
14313SOL     OW49284   0.471   8.104   0.043 -0.0215 -0.3049 -0.2146
14313SOL    HW149285   0.563   8.099   0.066  0.2218 -1.4838 -1.3290
14313SOL    HW249286   0.447   8.195   0.059  1.2469 -0.0471  0.3476
14314SOL     OW49287   4.567   0.374   6.757  0.0594 -0.0762  0.0403
14314SOL    HW149288   4.647   0.414   6.722  1.1039  0.1853  2.5408
14314SOL    HW249289   4.591   0.343   6.844 -2.0641 -1.7946  0.1129
14315SOL     OW49290   4.951   4.196   5.045 -0.3135  0.4298 -0.1832
14315SOL    HW149291   5.014   4.259   5.010 -0.4870  0.4318 -0.4975
14315SOL    HW249292   4.976   4.186   5.137  1.3266 -0.9775 -0.7268
14316SOL     OW49293   8.401   0.426   3.197 -0.4566 -0.0208 -0.1640
14316SOL    HW149294   8.439   0.510   3.224  0.3001 -0.6000  0.6304
14316SOL    HW249295   8.366   0.389   3.278 -2.8071  0.5025 -0.8724
14317SOL     OW49296   4.129   2.670   7.742 -0.0936 -0.0087 -0.0520
14317SOL    HW149297   4.171   2.711   7.666  0.5219  1.0502  0.8427
14317SOL    HW249298   4.199   2.662   7.807 -0.8407  0.0248  0.7678
14318SOL     OW49299   6.020   2.522   7.865 -0.5315 -0.2451  0.3103
14318SOL    HW149300   5.948   2.476   7.823  1.3066 -1.2867 -1.9382
14318SOL    HW249301   6.073   2.453   7.905 -0.4037  0.4142  1.2964
14319SOL     OW49302   5.447   2.063   7.260  0.2065 -0.2598 -0.2405
14319SOL    HW149303   5.407   2.121   7.325 -1.0148 -0.5240 -0.7271
14319SOL    HW249304   5.481   1.990   7.312  1.5503  0.7434  0.3502
14320SOL     OW49305   8.922   7.106   3.928 -0.2041  0.1116  0.0964
14320SOL    HW149306   8.965   7.048   3.990 -0.0933  0.0011 -0.0845
14320SOL    HW249307   8.933   7.064   3.843 -1.3214 -0.3103  0.1333
14321SOL     OW49308   8.560   2.657   4.792  0.1277  0.0507  0.4894
14321SOL    HW149309   8.639   2.634   4.841  1.7300  0.2419 -1.8501
14321SOL    HW249310   8.560   2.753   4.791  0.2965  0.0439 -0.1681
14322SOL     OW49311   1.724   5.673   3.458 -0.5693 -0.1083  0.5664
14322SOL    HW149312   1.813   5.673   3.423 -1.5813  0.7841 -2.3026
14322SOL    HW249313   1.704   5.581   3.474  0.5400 -0.4018  0.3338
14323SOL     OW49314   0.201   2.504   0.523 -0.1569 -0.2587 -0.1476
14323SOL    HW149315   0.197   2.410   0.541 -1.3627 -0.2169 -0.0744
14323SOL    HW249316   0.291   2.520   0.496  0.6624 -1.0641  1.8810
14324SOL     OW49317   4.126   3.323   4.633 -0.0840 -0.6749 -0.0710
14324SOL    HW149318   4.071   3.306   4.557  1.6435  0.5988 -1.6903
14324SOL    HW249319   4.176   3.242   4.646 -0.1696 -0.7956 -0.4961
14325SOL     OW49320   1.575   5.502   2.678  0.4498 -0.2384 -0.4847
14325SOL    HW149321   1.497   5.523   2.729  0.8259 -0.9203  0.3964
14325SOL    HW249322   1.637   5.571   2.699  0.4585 -0.2907 -0.3333
14326SOL     OW49323   4.644   1.413   8.878  0.5801  0.0257  0.4473
14326SOL    HW149324   4.560   1.381   8.846  0.0215  0.5754  1.3311
14326SOL    HW249325   4.665   1.358   8.953 -0.6964  1.9982  2.3821
14327SOL     OW49326   1.523   8.023   5.512  0.3579  0.0075  0.1112
14327SOL    HW149327   1.563   7.943   5.478 -0.2492 -0.3714  0.2973
14327SOL    HW249328   1.531   8.086   5.440  0.0652 -0.4716 -0.3411
14328SOL     OW49329   1.625   8.228   3.641  0.0809 -0.1962  0.3370
14328SOL    HW149330   1.687   8.299   3.625  0.3301 -0.2214  1.1586
14328SOL    HW249331   1.632   8.210   3.735 -2.1058  0.6987  0.7553
14329SOL     OW49332   3.697   8.284   4.398  0.2026 -0.2308 -0.4796
14329SOL    HW149333   3.772   8.237   4.363 -0.0056  0.6528 -2.2221
14329SOL    HW249334   3.623   8.226   4.384  0.0762  0.2254 -1.8502
14330SOL     OW49335   1.722   7.961   6.168 -0.0332  0.1676 -0.0978
14330SOL    HW149336   1.755   7.955   6.258  1.1503  0.4778 -0.4951
14330SOL    HW249337   1.786   8.015   6.122 -0.6302  0.0299 -1.1300
14331SOL     OW49338   7.953   8.687   1.012 -0.7760  0.1393  0.4625
14331SOL    HW149339   7.958   8.726   1.099 -2.1186  0.9685  0.1993
14331SOL    HW249340   7.986   8.598   1.023 -0.0410  0.5328  1.6064
14332SOL     OW49341   4.083   4.089   4.818 -0.4609  0.2672 -0.7947
14332SOL    HW149342   4.129   4.081   4.901 -1.7137 -0.5222 -0.1311
14332SOL    HW249343   4.029   4.010   4.813  1.0082 -0.6870 -3.2984
14333SOL     OW49344   0.605   1.124   6.442  0.0093  0.4089  0.7209
14333SOL    HW149345   0.613   1.200   6.384 -2.2275  0.8110  0.8378
14333SOL    HW249346   0.512   1.103   6.441  0.5045 -2.1019  1.0404
14334SOL     OW49347   0.044   4.016   1.339 -0.0064  0.7037  0.0939
14334SOL    HW149348   0.081   4.093   1.297 -0.0521  0.7093  0.0636
14334SOL    HW249349   0.120   3.964   1.366  0.0378 -0.0669 -1.3842
14335SOL     OW49350   1.078   0.219   5.862 -0.2469  0.4915  0.5303
14335SOL    HW149351   1.168   0.204   5.892  0.6576 -0.4475 -2.3309
14335SOL    HW249352   1.039   0.132   5.859 -0.1825  0.4994 -1.2343
14336SOL     OW49353   6.931   0.523   2.822  0.2323  0.4386  0.9735
14336SOL    HW149354   6.882   0.455   2.775  2.1094  0.8820 -1.8802
14336SOL    HW249355   7.018   0.485   2.835  1.2247  2.0945 -0.4097
14337SOL     OW49356   2.266   0.260   4.349  0.4012 -0.1142  0.8828
14337SOL    HW149357   2.311   0.249   4.265  0.0626  2.6279  0.2430
14337SOL    HW249358   2.174   0.245   4.329  0.5457 -1.9448  1.3764
14338SOL     OW49359   8.620   3.127   6.115  0.4677  0.5251 -0.6234
14338SOL    HW149360   8.635   3.151   6.023  0.0646  0.2166 -0.7737
14338SOL    HW249361   8.706   3.103   6.148  0.3202 -1.3937 -1.5149
14339SOL     OW49362   1.246   6.025   5.106  0.0323 -0.3015 -0.5345
14339SOL    HW149363   1.175   5.976   5.064 -0.1072  0.1530 -0.8451
14339SOL    HW249364   1.305   6.048   5.035 -0.0375  0.1978 -0.4378
14340SOL     OW49365   0.289   8.313   4.121 -0.4423 -0.1712 -0.5419
14340SOL    HW149366   0.335   8.324   4.204 -0.6259 -0.6081 -0.3767
14340SOL    HW249367   0.198   8.333   4.141 -0.1905  1.6898 -1.0973
14341SOL     OW49368   1.794   1.893   2.786 -0.6619 -0.2313  0.7438
14341SOL    HW149369   1.753   1.911   2.870  1.6283 -0.8421  2.0909
14341SOL    HW249370   1.843   1.811   2.800 -0.2984 -0.4108 -1.2179
14342SOL     OW49371   8.630   1.748   6.112 -0.2620  0.3720  0.2229
14342SOL    HW149372   8.682   1.667   6.113 -1.6372 -0.5517  1.0593
14342SOL    HW249373   8.584   1.746   6.028  1.4545  1.5115 -0.8044
14343SOL     OW49374   8.269   3.381   4.083  0.1119  0.0968 -0.3726
14343SOL    HW149375   8.310   3.450   4.135 -2.4273  0.2393  1.6583
14343SOL    HW249376   8.321   3.303   4.102 -0.8181  0.0759  2.8069
14344SOL     OW49377   8.381   0.053   7.006 -0.6306  0.1085  0.2198
14344SOL    HW149378   8.340   0.121   6.951 -2.9429 -3.0900 -2.4311
14344SOL    HW249379   8.333   0.058   7.089  0.5086  2.7541  0.8392
14345SOL     OW49380   1.143   3.288   0.069  0.2343 -0.4238 -0.2619
14345SOL    HW149381   1.213   3.225   0.084 -0.1890 -0.8553 -0.0659
14345SOL    HW249382   1.081   3.241   0.013 -0.5883 -0.5499  0.7326
14346SOL     OW49383   7.447   8.082   4.688  1.1147  0.3371  0.2051
14346SOL    HW149384   7.362   8.122   4.670 -0.2470 -2.4431 -0.1038
14346SOL    HW249385   7.452   8.080   4.784  0.7635  0.3919  0.2294
14347SOL     OW49386   0.683   3.186   3.035 -0.5859 -0.4685  0.1630
14347SOL    HW149387   0.764   3.195   3.084 -0.5804  1.9019 -0.1665
14347SOL    HW249388   0.619   3.154   3.100  0.0099  0.1472  1.0736
14348SOL     OW49389   1.011   7.365   7.323 -0.5513  0.0570 -0.5909
14348SOL    HW149390   0.994   7.425   7.250 -0.7506  0.2127 -0.4204
14348SOL    HW249391   0.965   7.405   7.397  0.6025  0.5163 -0.0969
14349SOL     OW49392   3.539   9.079   7.429  0.4805 -0.0020 -0.0698
14349SOL    HW149393   3.478   9.126   7.486  0.1281  0.5638 -0.8901
14349SOL    HW249394   3.622   9.125   7.441 -0.1599  1.7834 -1.8878
14350SOL     OW49395   1.055   7.553   2.207 -0.1934 -0.5044 -0.4336
14350SOL    HW149396   0.999   7.564   2.284  0.0863 -0.2332 -0.2646
14350SOL    HW249397   1.112   7.630   2.208  1.0725 -1.4128  0.1660
14351SOL     OW49398   8.449   8.149   0.338 -0.0134  0.4450 -0.4929
14351SOL    HW149399   8.535   8.185   0.320  0.5150  0.0202  1.0963
14351SOL    HW249400   8.465   8.058   0.363 -1.0147  0.0926 -1.0304
14352SOL     OW49401   1.507   6.962   7.048 -0.2842 -0.7203 -0.0569
14352SOL    HW149402   1.536   6.970   7.138  0.5177  1.0172 -0.4339
14352SOL    HW249403   1.422   7.007   7.046 -0.0389 -0.2624 -0.2797
14353SOL     OW49404   3.508   6.421   5.748 -0.1162 -0.4350  0.4175
14353SOL    HW149405   3.553   6.485   5.804 -0.7134  0.4060 -0.0323
14353SOL    HW249406   3.435   6.390   5.802 -2.4677  2.5227 -0.7491
14354SOL     OW49407   1.255   2.226   8.219 -0.1829 -0.3876  0.0075
14354SOL    HW149408   1.221   2.183   8.141  1.4515 -0.8262 -0.5126
14354SOL    HW249409   1.315   2.162   8.257  0.1843  0.3917  0.7785
14355SOL     OW49410   1.893   7.209   8.136 -0.4844  0.2948  0.7736
14355SOL    HW149411   1.887   7.302   8.114 -0.3646 -0.0004 -0.6377
14355SOL    HW249412   1.805   7.175   8.123 -1.2651  0.7294  4.1448
14356SOL     OW49413   4.563   3.390   1.443  0.9230  0.3302 -0.1191
14356SOL    HW149414   4.574   3.409   1.537 -0.7854  0.1083  0.1572
14356SOL    HW249415   4.615   3.458   1.399  0.1553  1.6787  0.9748
14357SOL     OW49416   4.036   5.608   8.321  0.1454  0.6045 -0.0496
14357SOL    HW149417   3.987   5.529   8.300  1.9701 -0.6194  0.0047
14357SOL    HW249418   4.058   5.599   8.414  0.5189  1.0876 -0.0845
14358SOL     OW49419   8.608   8.209   0.894 -0.0147  0.5672 -0.2777
14358SOL    HW149420   8.522   8.212   0.937  1.0525 -1.4083  2.3010
14358SOL    HW249421   8.642   8.122   0.915  2.7454  1.3700 -0.9820
14359SOL     OW49422   6.843   9.239   0.095  0.2314  0.7055 -0.3420
14359SOL    HW149423   6.857   9.175   0.025  1.7398 -1.7800  2.0496
14359SOL    HW249424   6.930   9.273   0.114  0.4177 -0.8955  2.1900
14360SOL     OW49425   6.308   0.548   6.985  0.3774  0.2189 -0.0653
14360SOL    HW149426   6.375   0.537   7.053  1.1719 -1.6882 -1.0759
14360SOL    HW249427   6.231   0.580   7.033  1.7628  1.7807  1.2333
14361SOL     OW49428   8.350   2.722   4.103  0.5494  0.1828 -0.2641
14361SOL    HW149429   8.445   2.713   4.103  0.4484 -1.1006  0.2941
14361SOL    HW249430   8.320   2.662   4.172 -0.6361  0.8678 -0.1581
14362SOL     OW49431   2.466   8.947   3.424  0.1139 -0.5220 -0.4211
14362SOL    HW149432   2.496   9.022   3.477  0.6775  0.6852 -2.3422
14362SOL    HW249433   2.525   8.876   3.449  1.4156  0.4647 -0.5644
14363SOL     OW49434   6.258   8.135   2.245 -0.5290  0.3966 -0.1099
14363SOL    HW149435   6.184   8.171   2.195 -1.1714 -0.1083  0.4570
14363SOL    HW249436   6.335   8.178   2.208 -1.0607  0.5939 -1.0314
14364SOL     OW49437   0.693   1.117   3.183 -0.8233 -0.0512  0.1928
14364SOL    HW149438   0.743   1.158   3.112  0.4586  0.3413  1.2820
14364SOL    HW249439   0.704   1.023   3.170 -0.1575  0.0300  0.1751
14365SOL     OW49440   3.447   1.434   6.548 -1.0000 -0.0043  0.0131
14365SOL    HW149441   3.491   1.417   6.631 -1.5023 -0.1618  0.2486
14365SOL    HW249442   3.384   1.504   6.567 -0.0982  1.0042 -0.5751
14366SOL     OW49443   6.216   6.333   2.763  0.4286  0.6952  0.0936
14366SOL    HW149444   6.139   6.386   2.783 -0.0746 -0.0292  0.0815
14366SOL    HW249445   6.252   6.373   2.684 -0.0976  0.8570 -0.0674
14367SOL     OW49446   7.321   2.063   6.286 -0.1186 -0.2735  0.0549
14367SOL    HW149447   7.261   1.988   6.289 -1.0860  0.5044  1.0413
14367SOL    HW249448   7.320   2.097   6.375  0.9213  0.4548 -0.2011
14368SOL     OW49449   8.721   6.126   7.292  0.1102  0.2940 -0.1738
14368SOL    HW149450   8.625   6.118   7.294  0.0868  0.4844  2.0618
14368SOL    HW249451   8.737   6.208   7.245 -0.8773  0.7150  0.1927
14369SOL     OW49452   3.604   7.955   6.659 -0.2627 -0.1776 -0.5354
14369SOL    HW149453   3.541   8.027   6.650 -0.1368 -0.2037 -1.9193
14369SOL    HW249454   3.690   7.998   6.656 -0.1942 -0.1966  0.7754
14370SOL     OW49455   3.282   9.055   6.302 -0.3127 -0.2816 -0.3490
14370SOL    HW149456   3.346   9.125   6.285  2.0417 -1.5214  2.4847
14370SOL    HW249457   3.285   9.002   6.223  1.2641  0.4125 -0.8126
14371SOL     OW49458   3.911   1.505   3.401  0.5178 -0.6269 -0.1769
14371SOL    HW149459   3.865   1.485   3.320 -1.1074  1.7740  0.0420
14371SOL    HW249460   3.987   1.556   3.374  1.5290 -2.1177 -0.3117
14372SOL     OW49461   7.534   6.981   1.097 -0.5631 -0.0569 -0.0061
14372SOL    HW149462   7.463   6.997   1.159  0.1020 -1.5722  1.2346
14372SOL    HW249463   7.539   6.886   1.090  0.1225  0.0565 -1.5484
14373SOL     OW49464   6.186   0.964   5.959  0.0896  0.0208  0.6550
14373SOL    HW149465   6.155   0.935   5.873  0.1918 -2.2830  1.3227
14373SOL    HW249466   6.277   0.934   5.963  0.4010  0.9958  1.2065
14374SOL     OW49467   6.521   3.176   8.465  0.4858 -0.0291 -0.0039
14374SOL    HW149468   6.533   3.260   8.422 -0.5463  0.5452  0.7962
14374SOL    HW249469   6.523   3.112   8.393  0.9326  0.6952 -0.6539
14375SOL     OW49470   8.803   4.071   6.969 -0.3578  0.1246  0.4766
14375SOL    HW149471   8.739   4.058   7.038 -0.7026 -0.2594  0.0898
14375SOL    HW249472   8.785   4.001   6.906  1.4038 -0.9609  1.0852
14376SOL     OW49473   2.721   2.316   1.062 -0.3229 -0.0156  0.8362
14376SOL    HW149474   2.760   2.381   1.121 -0.6038 -0.0948  1.1126
14376SOL    HW249475   2.771   2.237   1.078  1.1722  0.5563 -0.7567
14377SOL     OW49476   4.366   4.260   6.740  0.1818  0.6838 -0.2602
14377SOL    HW149477   4.287   4.311   6.723  0.4029  0.7403 -1.2185
14377SOL    HW249478   4.406   4.249   6.653  0.7093 -0.1831  0.0775
14378SOL     OW49479   7.846   4.017   1.370  0.1563 -0.0629 -0.3185
14378SOL    HW149480   7.813   4.100   1.404  0.2751 -0.9500  2.1206
14378SOL    HW249481   7.908   4.042   1.301 -0.1443  1.8311  0.0441
14379SOL     OW49482   2.189   8.422   1.302 -0.0680  0.5784  0.0466
14379SOL    HW149483   2.228   8.391   1.220 -0.4198  1.5254 -0.5041
14379SOL    HW249484   2.175   8.343   1.354  1.4538  0.1028 -0.2314
14380SOL     OW49485   4.789   1.952   4.203 -0.3499 -0.0284  0.2385
14380SOL    HW149486   4.750   2.036   4.179 -1.1714 -0.8317 -1.4682
14380SOL    HW249487   4.811   1.911   4.119 -4.2107 -3.4221  0.5530
14381SOL     OW49488   2.164   4.156   5.721  0.5244 -0.0916  0.0499
14381SOL    HW149489   2.193   4.245   5.741  1.8721 -0.1654 -1.3669
14381SOL    HW249490   2.200   4.138   5.634 -2.1362 -1.0023 -0.9594
14382SOL     OW49491   3.348   3.570   5.620  0.7792 -0.3884 -0.2326
14382SOL    HW149492   3.425   3.622   5.596  1.3289 -1.8060 -1.6935
14382SOL    HW249493   3.347   3.498   5.557 -1.9764 -0.2141 -0.5114
14383SOL     OW49494   3.569   8.144   2.241 -0.2080  0.1361 -0.2363
14383SOL    HW149495   3.629   8.069   2.237 -1.3276 -0.7985 -0.0806
14383SOL    HW249496   3.585   8.192   2.159 -0.4940 -1.0836 -1.0265
14384SOL     OW49497   1.912   2.050   4.259  0.1316  0.4954  0.2966
14384SOL    HW149498   1.884   1.959   4.250 -0.5542  0.7652 -0.4142
14384SOL    HW249499   1.865   2.082   4.337  1.0099  0.0210  1.0391
14385SOL     OW49500   3.180   3.168   6.529  0.6111 -0.0672  0.6223
14385SOL    HW149501   3.135   3.126   6.603 -1.7708  1.2743  0.0510
14385SOL    HW249502   3.266   3.127   6.527  0.4012 -0.8709  3.4963
14386SOL     OW49503   7.220   4.723   3.933  0.3450 -0.4730  0.0351
14386SOL    HW149504   7.217   4.642   3.984  0.2386 -1.9533 -2.1514
14386SOL    HW249505   7.279   4.702   3.860  3.5660  2.7477  1.4028
14387SOL     OW49506   1.335   8.252   4.899 -0.2371 -0.2828  0.0977
14387SOL    HW149507   1.312   8.236   4.991  0.7715  0.9815  0.5964
14387SOL    HW249508   1.430   8.246   4.896 -0.3422 -2.2667 -1.2997
14388SOL     OW49509   8.265   2.656   2.275  0.1882 -0.2989 -1.0152
14388SOL    HW149510   8.294   2.587   2.335 -0.5226 -0.2489 -0.6058
14388SOL    HW249511   8.315   2.733   2.304 -1.7660  0.3103  1.0413
14389SOL     OW49512   7.968   7.301   3.351  0.1465  0.4114 -0.2382
14389SOL    HW149513   8.025   7.260   3.285 -0.5140 -1.7388  0.4627
14389SOL    HW249514   7.946   7.387   3.313  0.4468 -0.4185 -2.4494
14390SOL     OW49515   6.283   8.756   8.019 -0.2601 -0.8414 -0.0797
14390SOL    HW149516   6.223   8.825   8.049  1.4252  1.9005 -2.4272
14390SOL    HW249517   6.314   8.715   8.099 -1.6421  0.8881  1.4462
14391SOL     OW49518   3.373   0.558   5.509  0.6248 -0.2088  0.2149
14391SOL    HW149519   3.414   0.484   5.554 -2.5279 -0.6414  2.7735
14391SOL    HW249520   3.332   0.518   5.432 -0.6010 -1.1365  1.2910
14392SOL     OW49521   3.845   1.270   8.281 -0.1920  0.1597 -0.4456
14392SOL    HW149522   3.880   1.309   8.201  1.5471  0.4268  0.3846
14392SOL    HW249523   3.750   1.279   8.274  0.0423  2.4305 -1.3682
14393SOL     OW49524   5.375   9.096   1.007  0.5423  0.1977 -0.2480
14393SOL    HW149525   5.349   9.163   1.071 -0.8875 -0.0862 -0.5100
14393SOL    HW249526   5.349   9.132   0.923  0.4369 -0.3823 -0.4607
14394SOL     OW49527   8.533   6.629   0.413  0.2532  0.2321  0.4341
14394SOL    HW149528   8.627   6.611   0.407 -0.0680 -1.5776  0.3815
14394SOL    HW249529   8.505   6.644   0.323  0.0739 -1.6555  0.1410
14395SOL     OW49530   6.273   9.184   6.441 -0.0375 -0.1265 -0.0373
14395SOL    HW149531   6.349   9.243   6.448  0.1067 -0.0608 -1.7338
14395SOL    HW249532   6.238   9.179   6.530  1.7352  0.1349  0.7237
14396SOL     OW49533   8.912   2.448   3.052  0.1455  0.2663 -0.3564
14396SOL    HW149534   8.992   2.485   3.089  0.4388 -0.7303  0.0620
14396SOL    HW249535   8.841   2.491   3.099  0.5105 -1.0039  1.4754
14397SOL     OW49536   6.532   0.040   8.173 -0.5770  0.2008  0.7072
14397SOL    HW149537   6.483   0.121   8.161  0.6521  1.0048  0.8658
14397SOL    HW249538   6.553   0.010   8.085  0.0032  0.7282  0.6602
14398SOL     OW49539   5.037   0.400   0.800  0.5348  0.5971 -0.3747
14398SOL    HW149540   4.969   0.342   0.833  1.5297 -1.0372 -1.0517
14398SOL    HW249541   4.990   0.478   0.772 -0.7764  0.4090  1.1789
14399SOL     OW49542   1.455   7.505   2.650  0.0250 -0.6249  0.0259
14399SOL    HW149543   1.378   7.560   2.660  0.4858 -0.1171  0.8935
14399SOL    HW249544   1.450   7.473   2.560 -0.9384 -0.2143 -0.0758
14400SOL     OW49545   2.353   2.533   1.838  0.5981  0.2391  0.1804
14400SOL    HW149546   2.434   2.562   1.880  1.1132  0.8751 -1.2200
14400SOL    HW249547   2.286   2.593   1.872  1.1545  1.2738 -0.5194
14401SOL     OW49548   0.208   5.108   1.263  0.0631  0.5978 -0.1090
14401SOL    HW149549   0.181   5.104   1.171  0.0191 -1.2726 -0.0541
14401SOL    HW249550   0.179   5.025   1.300  3.4045 -0.3749  0.6604
14402SOL     OW49551   6.598   6.358   0.128  0.5286 -0.3222 -0.3280
14402SOL    HW149552   6.597   6.394   0.039 -0.1884 -0.2450 -0.2946
14402SOL    HW249553   6.661   6.286   0.124  1.9459  0.8554 -0.4219
14403SOL     OW49554   6.109   1.988   0.312 -0.1434  0.3448 -0.7204
14403SOL    HW149555   6.063   2.072   0.317  1.2949  1.1159  1.0664
14403SOL    HW249556   6.202   2.012   0.319  0.2408 -1.4292  1.7513
14404SOL     OW49557   4.002   2.442   1.370  0.3281  0.3200  0.2293
14404SOL    HW149558   4.095   2.420   1.359  0.2166  0.0240 -0.1121
14404SOL    HW249559   3.955   2.363   1.343 -0.0391  0.6576 -0.1288
14405SOL     OW49560   5.684   4.851   4.785 -0.5645 -0.6708 -0.3948
14405SOL    HW149561   5.772   4.837   4.750 -0.8052 -2.1584 -0.4709
14405SOL    HW249562   5.680   4.946   4.802  0.5423 -0.3470 -1.7083
14406SOL     OW49563   4.122   4.821   2.026 -0.3074  0.3857  0.2845
14406SOL    HW149564   4.093   4.776   1.947  1.1890 -1.8143  0.8731
14406SOL    HW249565   4.090   4.766   2.098  1.0484  0.5852  1.0786
14407SOL     OW49566   5.648   8.096   9.142 -0.3524 -0.2334 -0.1962
14407SOL    HW149567   5.670   8.008   9.114  0.5416 -0.5665  1.3797
14407SOL    HW249568   5.713   8.116   9.210 -1.8836  0.7621  1.0551
14408SOL     OW49569   7.671   7.209   8.635 -0.5751  0.1915  0.1028
14408SOL    HW149570   7.645   7.298   8.613 -1.2033 -0.1921 -0.7885
14408SOL    HW249571   7.624   7.154   8.572  0.3336 -0.7193  0.1810
14409SOL     OW49572   4.841   6.654   8.560  0.0304  0.5405 -0.6623
14409SOL    HW149573   4.917   6.612   8.602 -0.3438 -0.4148 -0.9173
14409SOL    HW249574   4.879   6.719   8.502  0.5815  1.5255  0.7507
14410SOL     OW49575   1.990   7.195   2.402 -0.2573 -0.3434  0.3136
14410SOL    HW149576   2.009   7.111   2.443  0.4497 -0.6708 -0.6591
14410SOL    HW249577   1.895   7.197   2.395 -0.2306 -1.5246 -0.5960
14411SOL     OW49578   8.874   2.328   2.277 -0.2181  0.3539  0.4749
14411SOL    HW149579   8.891   2.387   2.204 -2.2551  0.8919  0.3761
14411SOL    HW249580   8.910   2.244   2.249  1.3781  1.1579 -0.0063
14412SOL     OW49581   1.101   7.937   8.135 -0.1817 -0.4554 -0.2856
14412SOL    HW149582   1.141   8.012   8.179 -1.2654 -0.3633  0.5709
14412SOL    HW249583   1.106   7.866   8.199  1.2832 -1.3009 -1.2631
14413SOL     OW49584   5.630   2.665   1.301  0.0944 -0.2857 -0.0249
14413SOL    HW149585   5.628   2.739   1.241  0.1430 -1.0189 -0.9681
14413SOL    HW249586   5.545   2.622   1.289 -0.5022  0.4078  1.5617
14414SOL     OW49587   7.323   2.926   2.784  0.1690  0.2586  0.4003
14414SOL    HW149588   7.359   2.920   2.873  0.6365 -0.4552  0.1696
14414SOL    HW249589   7.231   2.902   2.793  0.1813  0.3273  0.7140
14415SOL     OW49590   6.053   5.261   1.193 -0.8815 -0.1082 -0.1093
14415SOL    HW149591   6.133   5.296   1.154 -1.5862 -0.6664 -2.1846
14415SOL    HW249592   6.081   5.181   1.237 -0.1292  0.3553  0.2979
14416SOL     OW49593   7.909   1.124   6.191 -0.1829 -0.6531  0.4423
14416SOL    HW149594   7.887   1.192   6.254  1.9434 -0.3244  0.9079
14416SOL    HW249595   7.900   1.167   6.106  1.4639  0.3862  0.7406
14417SOL     OW49596   8.285   8.512   4.960 -0.1335  0.2438  0.2310
14417SOL    HW149597   8.214   8.564   4.923  1.0036  1.4282 -0.3478
14417SOL    HW249598   8.354   8.576   4.980  1.1776 -0.9883 -0.1854
14418SOL     OW49599   4.614   2.062   3.205 -0.2260 -0.2868  0.0579
14418SOL    HW149600   4.664   2.137   3.173  1.9030 -1.0428  1.4031
14418SOL    HW249601   4.641   1.989   3.150 -0.6461 -0.5030  0.1346
14419SOL     OW49602   2.609   2.169   9.005 -0.6967  0.2113  0.1697
14419SOL    HW149603   2.525   2.142   8.970 -0.1483 -0.4022 -0.7234
14419SOL    HW249604   2.638   2.096   9.060  0.0511 -0.3642 -0.9544
14420SOL     OW49605   7.455   8.434   8.027 -0.0986 -0.6018 -0.3739
14420SOL    HW149606   7.549   8.413   8.021  0.0049 -0.1891 -0.2355
14420SOL    HW249607   7.451   8.512   8.082 -0.5271 -0.6207 -0.3742
14421SOL     OW49608   5.625   0.083   0.958  0.1113  0.5724  0.3037
14421SOL    HW149609   5.641   0.069   1.052  1.6510  2.0944  0.3258
14421SOL    HW249610   5.631  -0.004   0.920 -0.1357 -0.0278  1.5770
14422SOL     OW49611   0.873   4.657   5.293 -0.0226 -0.0864 -0.0864
14422SOL    HW149612   0.915   4.687   5.212 -0.3111  0.0699 -0.1798
14422SOL    HW249613   0.815   4.729   5.318  0.2142 -0.0472  0.3696
14423SOL     OW49614   3.503   3.148   4.815  0.4190  0.2072 -0.0604
14423SOL    HW149615   3.455   3.206   4.874  1.2487  0.0206  0.8141
14423SOL    HW249616   3.588   3.134   4.857  0.6921 -0.6688 -0.8482
14424SOL     OW49617   4.121   7.871   1.029 -0.1383 -0.0732 -0.2918
14424SOL    HW149618   4.052   7.915   0.979 -1.1538 -0.6352  0.5730
14424SOL    HW249619   4.157   7.940   1.085 -1.5946 -0.2340  0.9200
14425SOL     OW49620   4.250   4.414   6.365 -0.8000  0.4766 -0.2483
14425SOL    HW149621   4.278   4.495   6.323  1.2253 -0.6741 -1.2283
14425SOL    HW249622   4.194   4.372   6.300 -0.5405  0.3353 -0.3794
14426SOL     OW49623   3.318   7.571   8.321  0.3899  0.5123 -0.1652
14426SOL    HW149624   3.373   7.506   8.364  2.0415  1.8711 -0.1151
14426SOL    HW249625   3.346   7.655   8.358 -0.0003  1.4721 -1.9170
14427SOL     OW49626   6.664   7.445   0.239  0.2852 -0.0411 -0.0235
14427SOL    HW149627   6.729   7.453   0.168 -1.8857  2.3156 -1.9521
14427SOL    HW249628   6.607   7.374   0.211 -0.3451  0.6347 -0.5010
14428SOL     OW49629   3.726   7.871   5.922 -0.1332 -0.1797  0.1682
14428SOL    HW149630   3.774   7.895   6.001 -0.1556  0.4790 -0.0165
14428SOL    HW249631   3.779   7.905   5.850 -1.1979  1.1638 -0.0152
14429SOL     OW49632   1.517   8.757   1.302 -0.3433  0.1487  0.4634
14429SOL    HW149633   1.535   8.846   1.269 -0.4530  0.0184  0.0487
14429SOL    HW249634   1.578   8.746   1.375  0.7930 -0.0216 -0.4789
14430SOL     OW49635   6.871   6.068   0.933 -0.4092 -0.0284 -0.5757
14430SOL    HW149636   6.890   5.974   0.929 -2.7679 -0.5536 -1.0634
14430SOL    HW249637   6.897   6.102   0.848  0.6115 -0.1844 -0.3382
14431SOL     OW49638   1.586   1.192   5.766 -0.0611 -0.2024  0.1909
14431SOL    HW149639   1.668   1.169   5.722  0.4474 -0.6863  1.3575
14431SOL    HW249640   1.536   1.111   5.766 -0.2157 -0.1070  0.1731
14432SOL     OW49641   6.439   1.517   8.746 -0.0542 -0.0636 -0.4805
14432SOL    HW149642   6.454   1.611   8.747 -1.1551  0.1589 -1.8536
14432SOL    HW249643   6.345   1.507   8.757  0.0178 -0.9954 -0.5801
14433SOL     OW49644   3.673   1.843   2.919 -0.4885 -0.0467  0.2237
14433SOL    HW149645   3.758   1.856   2.876 -1.2152  0.9411 -0.9545
14433SOL    HW249646   3.663   1.748   2.924  0.6063 -0.1813  0.2451
14434SOL     OW49647   3.840   8.393   6.743  0.1699 -0.8405 -0.0491
14434SOL    HW149648   3.865   8.357   6.658 -0.2531 -0.4316 -0.3527
14434SOL    HW249649   3.860   8.323   6.805  1.8098 -0.6278 -0.3008
14435SOL     OW49650   2.179   9.135   0.376  0.1394  0.2027 -0.3712
14435SOL    HW149651   2.262   9.088   0.384  0.7362  1.4977  2.1999
14435SOL    HW249652   2.204   9.222   0.345 -0.0545  0.9375  1.4067
14436SOL     OW49653   9.076   3.967   1.555 -0.1160 -0.1061  1.1104
14436SOL    HW149654   9.132   3.896   1.525 -1.2998 -0.6943  0.2402
14436SOL    HW249655   9.111   4.045   1.513 -0.1748 -0.5307  0.2600
14437SOL     OW49656   1.373   1.664   5.860  0.1917  0.4642 -0.6755
14437SOL    HW149657   1.372   1.760   5.865 -0.5853  0.4212  2.4387
14437SOL    HW249658   1.456   1.643   5.818 -0.0352  2.4726 -2.3300
14438SOL     OW49659   9.133   7.950   1.055  0.1854 -0.3198 -0.0798
14438SOL    HW149660   9.186   7.871   1.058  2.3530  0.6986 -4.1999
14438SOL    HW249661   9.189   8.018   1.094 -0.1493 -0.1317  0.0750
14439SOL     OW49662   8.932   8.988   2.425  0.0625  0.1751 -0.0265
14439SOL    HW149663   8.996   8.920   2.447  2.0708  2.1413  0.6820
14439SOL    HW249664   8.929   9.044   2.503 -0.0232  1.9569 -1.2408
14440SOL     OW49665   0.223   8.935   6.937 -0.5185  0.0503 -0.0429
14440SOL    HW149666   0.236   8.843   6.914  0.3749  0.1161  0.1742
14440SOL    HW249667   0.277   8.983   6.875  0.8515  0.3032  1.3069
14441SOL     OW49668   8.081   2.115   3.441 -0.2839  0.2927  0.0554
14441SOL    HW149669   8.091   2.115   3.346 -2.0314  1.1188 -0.1718
14441SOL    HW249670   8.048   2.028   3.462  0.8039 -0.1454  0.0224
14442SOL     OW49671   3.824   6.952   6.659  0.5109  0.0087  0.5686
14442SOL    HW149672   3.815   7.030   6.714  1.3916 -0.5848  1.5988
14442SOL    HW249673   3.918   6.934   6.659  0.5597  0.0703 -1.2858
14443SOL     OW49674   1.291   8.597   9.149 -0.5530  0.0141  0.0666
14443SOL    HW149675   1.226   8.661   9.123  0.1021  1.0964  1.0114
14443SOL    HW249676   1.358   8.647   9.195 -0.4937 -1.4610  1.6954
14444SOL     OW49677   3.778   4.168   1.890 -0.6044 -0.0568  0.0483
14444SOL    HW149678   3.773   4.214   1.974  1.1622  0.0966  0.0922
14444SOL    HW249679   3.687   4.148   1.869 -1.0481 -0.5408  2.2358
14445SOL     OW49680   2.138   2.777   1.706 -0.0221 -0.1858 -0.1869
14445SOL    HW149681   2.187   2.844   1.754 -0.7935  0.2560 -0.0053
14445SOL    HW249682   2.138   2.808   1.616  0.2954 -0.3428 -0.2413
14446SOL     OW49683   9.167   3.524   3.713 -0.8188  0.2781  0.0277
14446SOL    HW149684   9.232   3.496   3.649 -0.7293 -2.6256  1.1882
14446SOL    HW249685   9.216   3.530   3.795 -1.3664  1.5875  0.2689
14447SOL     OW49686   3.975   7.746   7.377  0.5758 -0.4557 -0.2501
14447SOL    HW149687   3.961   7.750   7.282  0.4113 -1.1544 -0.2610
14447SOL    HW249688   3.987   7.653   7.396  2.4323 -0.1820  0.1699
14448SOL     OW49689   0.243   7.160   6.495 -0.2772 -0.2365 -0.0335
14448SOL    HW149690   0.231   7.073   6.534  0.4748  0.0506  0.8762
14448SOL    HW249691   0.223   7.220   6.566  1.3134  0.3015 -0.0037
14449SOL     OW49692   2.134   0.767   7.811  0.3085 -0.1153  0.4359
14449SOL    HW149693   2.170   0.705   7.747 -0.7093  0.9382 -1.2225
14449SOL    HW249694   2.198   0.838   7.813  0.1879 -0.0066  0.3753
14450SOL     OW49695   8.805   8.865   2.026  0.2352  0.6385  0.3443
14450SOL    HW149696   8.828   8.804   1.956  0.2359  0.6102  0.3698
14450SOL    HW249697   8.710   8.873   2.021  0.4226  2.9651 -1.6685
14451SOL     OW49698   3.353   2.705   4.953  0.6607  0.1578  0.1819
14451SOL    HW149699   3.278   2.654   4.925  0.6957  0.4513 -0.4532
14451SOL    HW249700   3.359   2.688   5.047 -0.0684 -0.0296  0.2023
14452SOL     OW49701   5.581   6.366   9.174  0.2396 -0.0941 -0.2617
14452SOL    HW149702   5.544   6.349   9.088  1.7673 -0.1850 -0.9296
14452SOL    HW249703   5.536   6.445   9.205 -0.7325 -0.3997 -0.8744
14453SOL     OW49704   2.138   8.655   4.018 -0.3334 -0.2082 -0.3904
14453SOL    HW149705   2.160   8.688   3.930 -2.4910  0.1574 -0.8441
14453SOL    HW249706   2.081   8.579   4.001 -1.1683  0.1639  0.6809
14454SOL     OW49707   6.528   7.339   2.422  0.2102  0.4990 -0.1334
14454SOL    HW149708   6.484   7.284   2.486 -1.2911 -1.5139 -2.6975
14454SOL    HW249709   6.616   7.352   2.458 -0.1901 -1.4855  1.7634
14455SOL     OW49710   5.868   8.637   7.634 -0.1059 -0.1686  0.4018
14455SOL    HW149711   5.953   8.661   7.670 -0.7079  1.4404  0.8130
14455SOL    HW249712   5.869   8.674   7.546  0.5012 -2.1975 -0.5057
14456SOL     OW49713   8.736   7.073   5.292 -0.0625 -0.1208  0.4152
14456SOL    HW149714   8.709   6.995   5.341  1.3037 -0.3367  0.8722
14456SOL    HW249715   8.729   7.048   5.200  0.1065 -0.6929  0.5577
14457SOL     OW49716   1.193   1.170   2.098 -0.0851 -0.0561  0.8066
14457SOL    HW149717   1.135   1.245   2.114  0.7863  0.9223 -0.3565
14457SOL    HW249718   1.137   1.093   2.111 -1.3294  0.8274  0.8929
14458SOL     OW49719   4.353   4.004   6.851  0.5253  0.1227 -0.0979
14458SOL    HW149720   4.434   3.975   6.891  0.4235  0.9530  0.7685
14458SOL    HW249721   4.370   4.095   6.827  0.1689  0.0057 -0.8021
14459SOL     OW49722   2.226   5.568   1.051  0.4877 -0.1404 -0.4710
14459SOL    HW149723   2.150   5.599   1.101  1.0637  0.4642  0.0451
14459SOL    HW249724   2.285   5.532   1.116 -0.1342 -2.4034 -1.0379
14460SOL     OW49725   2.611   6.063   1.083  0.1995 -0.3466  0.1802
14460SOL    HW149726   2.563   6.077   1.001  1.9544 -1.0335 -1.0402
14460SOL    HW249727   2.644   6.150   1.107  0.3632 -0.2658 -0.3197
14461SOL     OW49728   7.341   3.732   7.245  0.3913 -0.1151 -0.1761
14461SOL    HW149729   7.392   3.813   7.243  0.7862 -0.3428  0.3885
14461SOL    HW249730   7.350   3.701   7.336  0.9218 -1.2208 -0.5910
14462SOL     OW49731   2.381   8.823   2.033  0.6533 -0.1905  0.1444
14462SOL    HW149732   2.446   8.802   2.100 -0.6547 -1.4096  1.1087
14462SOL    HW249733   2.299   8.835   2.081 -0.0812  0.1650 -1.1261
14463SOL     OW49734   4.264   2.159   6.869  0.2583  0.0718 -0.0977
14463SOL    HW149735   4.302   2.244   6.895  1.1474  0.0971 -1.4062
14463SOL    HW249736   4.291   2.099   6.939  1.2655  0.4592 -0.1392
14464SOL     OW49737   6.382   2.555   2.738 -0.1188 -0.2136  0.3562
14464SOL    HW149738   6.442   2.485   2.711 -1.0846 -0.5525 -0.9765
14464SOL    HW249739   6.322   2.513   2.799 -0.4018 -0.4331 -0.0719
14465SOL     OW49740   1.200   8.704   7.644  0.2298  0.4555  0.1888
14465SOL    HW149741   1.153   8.734   7.722 -0.5365  0.4995 -0.2824
14465SOL    HW249742   1.142   8.639   7.604  0.2153  1.0710 -0.8232
14466SOL     OW49743   4.974   6.334   7.134  0.1532 -0.3529 -0.2828
14466SOL    HW149744   4.919   6.255   7.133  0.8819 -0.8829  0.3934
14466SOL    HW249745   5.006   6.342   7.044 -0.0194 -0.7530 -0.3836
14467SOL     OW49746   1.019   8.786   1.963 -0.4730  0.0174 -0.4763
14467SOL    HW149747   0.977   8.855   1.911  0.2818  0.1183 -0.9683
14467SOL    HW249748   0.950   8.721   1.977 -1.5283  1.3361  0.9131
14468SOL     OW49749   5.859   7.291   9.070  0.7272 -0.6816 -0.2649
14468SOL    HW149750   5.875   7.196   9.072 -0.7569 -0.9735 -0.7327
14468SOL    HW249751   5.938   7.330   9.107  0.8932 -2.1621  1.0518
14469SOL     OW49752   5.808   3.634   0.952  0.3756  0.0264 -0.3604
14469SOL    HW149753   5.864   3.606   1.024 -0.2025  0.2809  0.2004
14469SOL    HW249754   5.782   3.723   0.975  1.7661  0.8899 -1.8603
14470SOL     OW49755   5.244   8.192   1.120 -1.0290 -0.0602 -0.3161
14470SOL    HW149756   5.162   8.234   1.147 -0.4220  1.4126 -0.6720
14470SOL    HW249757   5.310   8.261   1.129 -0.3252 -0.3011 -2.8111
14471SOL     OW49758   7.059   3.931   2.754 -0.1653  0.1300  0.4964
14471SOL    HW149759   7.112   3.972   2.823 -0.7239  0.5250  0.7007
14471SOL    HW249760   7.022   4.004   2.706 -1.9371 -0.1009  1.4471
14472SOL     OW49761   0.982   0.191   4.481  0.3937 -0.3375 -0.4735
14472SOL    HW149762   0.924   0.247   4.531 -0.4457 -2.5875  1.2556
14472SOL    HW249763   1.070   0.211   4.513  0.2970  1.0322 -1.0159
14473SOL     OW49764   7.329   7.761   8.823 -0.7433 -0.2110  0.1987
14473SOL    HW149765   7.314   7.768   8.728 -0.9416 -2.3248  0.0305
14473SOL    HW249766   7.417   7.726   8.831 -0.8824 -0.4324  0.7963
14474SOL     OW49767   2.707   1.681   7.588 -0.5138  0.0463 -0.2411
14474SOL    HW149768   2.636   1.723   7.638 -1.0807  0.8770 -1.6765
14474SOL    HW249769   2.763   1.754   7.562  0.4980 -0.5314  0.2808
14475SOL     OW49770   5.609   1.033   3.217  0.4306  0.1506 -0.4244
14475SOL    HW149771   5.592   1.104   3.155 -0.5238 -1.0346 -1.5514
14475SOL    HW249772   5.702   1.014   3.207  0.2615 -0.0980 -1.5846
14476SOL     OW49773   4.226   3.725   7.371  0.3335  0.2767  0.1650
14476SOL    HW149774   4.228   3.644   7.423  1.1316 -0.4228 -0.9060
14476SOL    HW249775   4.158   3.709   7.306  0.1149  0.6986  0.2896
14477SOL     OW49776   3.350   5.618   1.295  0.2555  0.0525  0.6756
14477SOL    HW149777   3.276   5.558   1.307  2.4456 -3.1690 -0.5776
14477SOL    HW249778   3.395   5.618   1.380  1.3882 -1.8332  0.1132
14478SOL     OW49779   6.443   0.648   9.071 -0.1729  0.3944  1.0277
14478SOL    HW149780   6.524   0.658   9.021 -0.5826  0.5534  0.3913
14478SOL    HW249781   6.446   0.558   9.103 -0.6444 -0.2373 -0.5984
14479SOL     OW49782   1.970   7.621   6.407 -0.3096 -0.4762  0.1329
14479SOL    HW149783   2.014   7.610   6.323 -1.2999 -3.6457 -0.0962
14479SOL    HW249784   1.945   7.714   6.410  1.8473  0.2437 -1.9448
14480SOL     OW49785   7.846   2.883   4.971  0.1481 -0.0975  0.3125
14480SOL    HW149786   7.766   2.931   4.951  0.7289  0.9395  0.4145
14480SOL    HW249787   7.915   2.931   4.925  0.6404 -1.3172 -0.2557
14481SOL     OW49788   0.582   1.630   3.654  0.2852 -0.4931  0.4469
14481SOL    HW149789   0.575   1.690   3.728  0.9892 -0.7476  0.7247
14481SOL    HW249790   0.665   1.652   3.613 -0.8728  0.8587 -1.3487
14482SOL     OW49791   5.825   1.527   6.245  0.1317 -0.5844  0.1577
14482SOL    HW149792   5.762   1.539   6.316 -1.2133  0.7269 -1.1909
14482SOL    HW249793   5.824   1.432   6.228 -0.0644 -0.8126  1.3821
14483SOL     OW49794   0.264   1.110   7.124  0.3841  0.6570 -0.6259
14483SOL    HW149795   0.307   1.082   7.205 -0.3290  0.6860 -0.2293
14483SOL    HW249796   0.279   1.038   7.063 -1.0913 -0.4567  0.2625
14484SOL     OW49797   3.425   9.133   1.456 -0.0094  0.0141  0.1601
14484SOL    HW149798   3.360   9.146   1.525 -0.3025 -2.1599  0.3555
14484SOL    HW249799   3.508   9.124   1.503 -0.4857 -3.7461  0.5819
14485SOL     OW49800   0.730   2.509   8.993  0.1276  0.1859  0.3883
14485SOL    HW149801   0.776   2.427   8.971  1.0992  0.9115 -0.3874
14485SOL    HW249802   0.756   2.527   9.083 -0.6119 -0.6911  0.7867
14486SOL     OW49803   5.370   0.134   0.896  0.3280 -0.1265  0.1949
14486SOL    HW149804   5.324   0.186   0.962  1.1731  0.5206  0.2979
14486SOL    HW249805   5.458   0.121   0.933  0.9956  0.7194 -1.0244
14487SOL     OW49806   6.315   8.461   6.457 -0.0039  0.2735  0.6045
14487SOL    HW149807   6.290   8.504   6.538 -1.0950 -0.7012  0.8108
14487SOL    HW249808   6.371   8.388   6.485  1.6867  1.3991  0.2746
14488SOL     OW49809   4.132   8.365   4.511  0.8097 -0.1494 -0.3702
14488SOL    HW149810   4.078   8.406   4.443 -0.5084 -0.8637  0.2030
14488SOL    HW249811   4.131   8.428   4.584 -1.2922 -1.1668  0.5457
14489SOL     OW49812   8.757   0.969   6.218 -0.0111  0.0218 -0.4527
14489SOL    HW149813   8.683   0.967   6.278 -0.5552 -0.1541 -1.1078
14489SOL    HW249814   8.716   0.981   6.132  0.8151  1.4800 -0.6628
14490SOL     OW49815   0.794   7.079   7.506 -0.4675 -0.6849  0.3613
14490SOL    HW149816   0.722   7.044   7.454 -1.0018  1.2936 -0.3398
14490SOL    HW249817   0.757   7.092   7.593 -0.3257 -1.6081  0.5682
14491SOL     OW49818   4.618   1.164   0.036 -0.0711 -0.0226  0.4931
14491SOL    HW149819   4.658   1.082   0.063 -1.5007 -0.7259  0.5532
14491SOL    HW249820   4.530   1.140   0.007  0.3402  1.1198 -1.9471
14492SOL     OW49821   4.106   6.311   0.939  0.1847  0.1347  0.5188
14492SOL    HW149822   4.138   6.369   1.007 -0.3578  1.2677 -0.1730
14492SOL    HW249823   4.176   6.245   0.929  1.4745  1.4716  0.3431
14493SOL     OW49824   1.210   8.081   3.016  0.0155 -0.4616  0.1870
14493SOL    HW149825   1.193   8.032   3.096 -0.0706  0.9320  1.0630
14493SOL    HW249826   1.129   8.128   2.998  0.6727  0.8147  0.4523
14494SOL     OW49827   2.032   7.560   4.727  0.5156 -0.0925  0.0983
14494SOL    HW149828   2.105   7.586   4.672  0.6952 -0.0002  0.3764
14494SOL    HW249829   1.995   7.483   4.684  0.5034  0.1224 -0.2771
14495SOL     OW49830   7.685   1.634   7.331 -0.2607 -0.3459 -0.6853
14495SOL    HW149831   7.609   1.691   7.343 -0.8420 -1.1968 -0.2035
14495SOL    HW249832   7.759   1.694   7.326 -0.8561  0.4522 -0.2151
14496SOL     OW49833   4.434   3.906   6.243 -0.4543 -0.1092  0.3550
14496SOL    HW149834   4.490   3.866   6.176  0.0782  0.7303  0.2913
14496SOL    HW249835   4.346   3.900   6.207 -0.2645 -0.3468 -0.0805
14497SOL     OW49836   6.559   2.631   7.048 -0.0669  0.1684 -0.1835
14497SOL    HW149837   6.621   2.692   7.008 -0.0431 -0.7478 -1.6165
14497SOL    HW249838   6.475   2.653   7.007 -0.2069 -0.2417 -0.1167
14498SOL     OW49839   4.482   5.708   7.433 -0.3744  0.2059  0.4812
14498SOL    HW149840   4.442   5.716   7.520 -0.6214 -1.2131  0.5230
14498SOL    HW249841   4.409   5.720   7.372 -0.4963 -0.3523  0.5125
14499SOL     OW49842   9.020   3.740   0.407  0.1239  0.0424  0.2762
14499SOL    HW149843   9.070   3.769   0.483  0.8402  1.6086 -0.7302
14499SOL    HW249844   8.969   3.817   0.381  0.7601 -0.0875 -1.4806
14500SOL     OW49845   5.347   1.913   8.631 -0.1953 -0.3115  0.4277
14500SOL    HW149846   5.294   1.936   8.707  0.6299 -0.9556  1.2159
14500SOL    HW249847   5.410   1.849   8.664  0.1888 -0.5888 -0.7966
14501SOL     OW49848   5.554   4.066   4.885 -0.2816  0.0213  0.0621
14501SOL    HW149849   5.577   4.159   4.876  1.8971 -0.4247  0.4520
14501SOL    HW249850   5.474   4.067   4.937  1.4173  1.6392  2.9267
14502SOL     OW49851   4.770   3.896   3.669 -0.1892 -0.6370  0.1602
14502SOL    HW149852   4.688   3.918   3.713  0.7233  1.2417  1.0850
14502SOL    HW249853   4.807   3.825   3.721 -0.4480 -0.3352  0.7746
14503SOL     OW49854   1.272   3.452   7.845 -0.1586 -0.1363 -0.5636
14503SOL    HW149855   1.327   3.375   7.829  0.4251 -0.0367  0.8272
14503SOL    HW249856   1.193   3.418   7.886 -0.2430 -0.0645 -0.6636
14504SOL     OW49857   6.516   4.544   7.058 -0.0616 -0.0308  0.5565
14504SOL    HW149858   6.474   4.549   6.972 -1.2098 -0.9156  1.0493
14504SOL    HW249859   6.464   4.602   7.114  0.2623 -0.0009  0.8312
14505SOL     OW49860   9.022   6.438   4.333  0.0949  0.0661 -0.1456
14505SOL    HW149861   9.053   6.379   4.402  0.0921  0.2781  0.0377
14505SOL    HW249862   9.086   6.509   4.331 -0.4678  0.5941  0.3516
14506SOL     OW49863   3.973   2.654   5.372 -0.2641  0.1256  0.0901
14506SOL    HW149864   4.001   2.567   5.344 -0.5738  0.1925 -0.4423
14506SOL    HW249865   3.948   2.644   5.464 -1.3538 -0.6045 -0.2623
14507SOL     OW49866   8.974   6.859   6.017 -0.1152 -0.4608  0.1758
14507SOL    HW149867   8.966   6.803   5.940 -0.9225  2.1959 -1.7852
14507SOL    HW249868   8.900   6.919   6.011  1.3830  1.6337  1.5015
14508SOL     OW49869   8.107   3.555   4.677 -0.0732 -0.3141  0.8423
14508SOL    HW149870   8.168   3.551   4.603 -1.3973  0.2062 -0.3291
14508SOL    HW249871   8.139   3.629   4.730  0.4805 -0.2358  0.4086
14509SOL     OW49872   6.590   7.715   8.672 -0.2245 -0.2061  0.3558
14509SOL    HW149873   6.678   7.725   8.636  0.3056  0.7537  1.8223
14509SOL    HW249874   6.569   7.802   8.707 -1.5199 -0.5767  0.5512
14510SOL     OW49875   8.266   5.418   5.229 -0.6043  0.7101 -0.3153
14510SOL    HW149876   8.213   5.375   5.162  0.2436  1.0311 -1.2185
14510SOL    HW249877   8.356   5.397   5.205 -0.1334  3.0755 -0.8810
14511SOL     OW49878   1.651   4.869   6.468  0.0066  0.2354 -0.6624
14511SOL    HW149879   1.586   4.936   6.492 -1.7119 -1.6488  0.2189
14511SOL    HW249880   1.606   4.815   6.402  1.0877 -0.4893 -0.8191
14512SOL     OW49881   6.111   7.966   1.339 -0.4724  0.5269  0.0941
14512SOL    HW149882   6.032   7.929   1.298 -0.4491  0.4015  0.1644
14512SOL    HW249883   6.157   7.891   1.376 -1.8782  0.8728  2.7874
14513SOL     OW49884   8.165   3.169   1.365 -0.0593  0.4306  0.2777
14513SOL    HW149885   8.116   3.132   1.292  1.0852  0.5968 -0.6012
14513SOL    HW249886   8.253   3.132   1.356  0.1691  0.6383  1.4427
14514SOL     OW49887   6.180   8.245   7.822 -0.2853  0.8029 -0.0397
14514SOL    HW149888   6.198   8.262   7.914 -0.2594 -0.2337  0.1661
14514SOL    HW249889   6.235   8.169   7.801 -0.8787  0.5439 -0.6865
14515SOL     OW49890   2.835   5.020   1.820  0.3091 -0.2850  0.1789
14515SOL    HW149891   2.861   4.983   1.736  2.0896 -1.0327  1.0072
14515SOL    HW249892   2.858   4.952   1.884 -0.8713  0.3225  1.2856
14516SOL     OW49893   5.061   1.994   5.660 -0.8532 -0.1848 -0.3277
14516SOL    HW149894   5.002   1.983   5.735  1.1499 -2.2673  1.0619
14516SOL    HW249895   5.077   2.089   5.657 -1.0594 -0.0213  1.8454
14517SOL     OW49896   0.225   7.507   1.114  0.1095 -0.3450  0.3024
14517SOL    HW149897   0.260   7.461   1.190 -1.7755  0.1741  1.5347
14517SOL    HW249898   0.302   7.546   1.073  1.2415 -1.1096  1.5905
14518SOL     OW49899   5.916   9.188   6.888  0.3768 -0.0348 -0.0137
14518SOL    HW149900   5.863   9.111   6.911 -2.5835  1.3241 -1.7032
14518SOL    HW249901   5.884   9.213   6.801  3.1996  1.5296 -0.7041
14519SOL     OW49902   3.513   0.482   7.549 -0.2319 -0.3790  0.0223
14519SOL    HW149903   3.561   0.483   7.632  0.2250 -0.4446 -0.2357
14519SOL    HW249904   3.573   0.521   7.486 -1.3754  1.6922  0.1340
14520SOL     OW49905   5.055   2.653   6.867 -0.6352  0.2385  0.3189
14520SOL    HW149906   5.036   2.562   6.846  1.4522 -0.3666  0.9154
14520SOL    HW249907   5.079   2.693   6.783  1.2214 -0.5040  0.4682
14521SOL     OW49908   6.478   7.006   8.989  0.2853  0.1695  0.2574
14521SOL    HW149909   6.562   7.050   9.002  0.0474  0.3964  1.1060
14521SOL    HW249910   6.499   6.925   8.942  0.7954  0.9280 -0.8816
14522SOL     OW49911   0.592   0.463   6.614 -0.1747 -0.3416 -0.0272
14522SOL    HW149912   0.675   0.459   6.566  0.7636  0.6314  1.4326
14522SOL    HW249913   0.616   0.499   6.700 -2.1949  0.5046  0.2277
14523SOL     OW49914   5.585   5.706   7.132  0.2986 -0.1829 -0.1748
14523SOL    HW149915   5.668   5.754   7.143  0.4708 -0.2202 -1.2038
14523SOL    HW249916   5.578   5.691   7.037  0.3031 -2.2966  0.1063
14524SOL     OW49917   8.996   9.029   4.636  0.0797 -0.0381 -0.0200
14524SOL    HW149918   9.003   8.979   4.718 -0.6504  1.3911  0.9420
14524SOL    HW249919   9.081   9.073   4.628  0.4076 -0.7276 -0.4157
14525SOL     OW49920   7.119   1.371   6.072 -0.3887 -0.6138 -0.4744
14525SOL    HW149921   7.032   1.411   6.081 -0.7104 -1.3044 -0.4734
14525SOL    HW249922   7.175   1.442   6.041 -0.2945  0.6706  2.3002
14526SOL     OW49923   2.987   7.785   7.984  0.0128  0.1614  0.1369
14526SOL    HW149924   3.052   7.797   8.053  1.1015  0.1601 -0.8689
14526SOL    HW249925   3.036   7.754   7.908 -1.1428  0.2467 -0.6856
14527SOL     OW49926   0.768   5.962   6.976  0.2259 -0.0631 -0.2285
14527SOL    HW149927   0.773   5.897   6.906  0.2028 -0.1607 -0.1403
14527SOL    HW249928   0.676   5.962   7.003  0.5543 -1.3687  1.0549
14528SOL     OW49929   5.895   5.181   4.046  0.4583  0.2653 -0.1960
14528SOL    HW149930   5.872   5.189   4.138  0.2668  1.2619 -0.3144
14528SOL    HW249931   5.969   5.240   4.035 -0.7286  1.6647 -1.0629
14529SOL     OW49932   8.819   8.493   4.375 -0.1466 -0.1300 -1.0647
14529SOL    HW149933   8.781   8.421   4.426 -0.0160 -0.2587 -1.1446
14529SOL    HW249934   8.865   8.546   4.440 -0.0987 -0.2149 -1.0279
14530SOL     OW49935   5.555   8.838   6.475 -0.2174  0.8054 -0.6118
14530SOL    HW149936   5.478   8.894   6.485  0.9751  2.4125  0.0953
14530SOL    HW249937   5.627   8.890   6.511  1.4028 -0.1990 -2.2205
14531SOL     OW49938   1.221   5.464   8.407  0.3825  0.5611 -0.0281
14531SOL    HW149939   1.230   5.558   8.393  2.3483  0.5839  1.0680
14531SOL    HW249940   1.127   5.450   8.415  0.0499  2.4189 -0.2474
14532SOL     OW49941   7.196   6.423   6.992 -0.1179  0.3203  0.3076
14532SOL    HW149942   7.233   6.511   6.980 -0.8394  0.5963  0.0566
14532SOL    HW249943   7.114   6.439   7.039 -0.2442 -0.2241  0.2697
14533SOL     OW49944   3.144   9.097   6.915  0.0317  0.5395 -0.0082
14533SOL    HW149945   3.176   9.155   6.846 -1.2640  0.7925 -0.4268
14533SOL    HW249946   3.214   9.032   6.925 -0.5483 -0.7645 -3.0749
14534SOL     OW49947   1.651   6.696   0.986  0.2196  0.2056 -0.1728
14534SOL    HW149948   1.718   6.763   0.978  0.6127 -0.1510  0.1079
14534SOL    HW249949   1.570   6.745   0.999  0.4445  0.6325 -0.3478
14535SOL     OW49950   3.921   8.997   1.934  0.2032 -0.2043  0.1511
14535SOL    HW149951   3.859   8.954   1.875 -0.5709  1.1451 -0.0613
14535SOL    HW249952   3.882   8.986   2.021  0.5286 -0.8077  0.2234
14536SOL     OW49953   6.008   4.056   1.020  0.4531 -0.6865 -0.2813
14536SOL    HW149954   6.073   4.027   1.084 -0.4161 -1.6197  0.2124
14536SOL    HW249955   6.050   4.042   0.935  1.3904 -0.0074  0.0541
14537SOL     OW49956   8.185   0.205   5.784 -0.1438  0.3136 -0.4350
14537SOL    HW149957   8.145   0.200   5.697 -1.5880  0.7634  0.1790
14537SOL    HW249958   8.158   0.291   5.817  2.1775  1.0889 -0.3693
14538SOL     OW49959   6.034   2.513   4.999  0.0355 -0.0555  0.4187
14538SOL    HW149960   6.085   2.447   5.046  1.5460  0.9089  0.2205
14538SOL    HW249961   5.960   2.532   5.057  2.0431  1.3972  2.7249
14539SOL     OW49962   4.291   1.614   3.045 -0.1036  0.4134  0.2036
14539SOL    HW149963   4.348   1.537   3.045 -1.3315 -0.5475 -1.2527
14539SOL    HW249964   4.351   1.688   3.055  1.0818 -0.7031  1.9175
14540SOL     OW49965   5.072   8.935   1.980 -0.2667 -0.3677 -0.1863
14540SOL    HW149966   5.135   9.005   2.001 -0.3410 -0.6555  1.1275
14540SOL    HW249967   5.116   8.855   2.009 -1.5589 -0.4860  1.6645
14541SOL     OW49968   4.171   6.320   8.765 -0.3044  0.2327  1.0592
14541SOL    HW149969   4.186   6.284   8.677 -0.0410 -0.6005  1.4378
14541SOL    HW249970   4.258   6.331   8.802 -0.3744  1.3438  0.9313
14542SOL     OW49971   7.175   4.790   5.457 -0.1228  0.6271  0.3613
14542SOL    HW149972   7.226   4.711   5.473 -1.3675 -0.2025  0.3614
14542SOL    HW249973   7.240   4.859   5.447  0.9639 -0.2553  1.1026
14543SOL     OW49974   1.143   4.692   0.230  0.2271  0.0945  0.2966
14543SOL    HW149975   1.103   4.774   0.200 -1.3537 -1.1331 -1.0594
14543SOL    HW249976   1.237   4.708   0.223 -0.0679  1.1791 -1.7392
14544SOL     OW49977   0.956   5.899   8.306  0.0040  0.0618  0.4187
14544SOL    HW149978   0.954   5.941   8.220  0.1962  0.0751  0.4214
14544SOL    HW249979   0.906   5.958   8.363  0.1791  0.2289  0.3978
14545SOL     OW49980   6.386   2.688   5.828 -0.3452  0.5451  0.4146
14545SOL    HW149981   6.381   2.672   5.734 -1.7776 -0.2262  0.5835
14545SOL    HW249982   6.329   2.764   5.842 -0.3912  0.4593  0.7004
14546SOL     OW49983   3.189   4.127   0.819  0.3140  0.3899 -0.1285
14546SOL    HW149984   3.180   4.067   0.745 -0.1119  0.6859 -0.3240
14546SOL    HW249985   3.257   4.189   0.791  0.3823  0.3081 -0.1422
14547SOL     OW49986   7.582   5.733   7.776 -0.3025  0.0238  0.4462
14547SOL    HW149987   7.658   5.680   7.801 -0.5351 -1.1487 -1.1583
14547SOL    HW249988   7.509   5.694   7.824 -0.3942 -0.8418 -0.3803
14548SOL     OW49989   8.871   8.594   1.119 -0.1883 -0.1626 -0.8439
14548SOL    HW149990   8.826   8.513   1.094  1.4472 -0.7619 -2.0057
14548SOL    HW249991   8.818   8.663   1.080 -0.4047 -0.8214 -1.7754
14549SOL     OW49992   6.103   3.486   7.995  0.4663  0.2112  0.1072
14549SOL    HW149993   6.151   3.439   7.927  2.6154 -1.0943  2.3549
14549SOL    HW249994   6.068   3.417   8.052  0.3515  1.2558  1.3485
14550SOL     OW49995   6.329   4.502   3.724 -0.0163 -0.0336  0.0962
14550SOL    HW149996   6.375   4.586   3.732 -0.2435  0.0314  0.8447
14550SOL    HW249997   6.398   4.436   3.733  0.0595  0.0691  0.2734
14551SOL     OW49998   2.758   2.268   5.348  0.1602  0.1936 -0.3840
14551SOL    HW149999   2.762   2.180   5.310  2.2248  0.5901 -1.2342
14551SOL    HW250000   2.682   2.309   5.307 -0.3971 -0.9441 -0.5169
14552SOL     OW50001   7.118   7.457   8.418 -0.1716  0.3735 -0.1976
14552SOL    HW150002   7.137   7.524   8.352  1.9328  1.7708  1.6982
14552SOL    HW250003   7.171   7.382   8.392 -2.6300 -0.7525 -2.4009
14553SOL     OW50004   2.752   7.923   3.030 -0.8253  0.3845  0.2411
14553SOL    HW150005   2.690   7.887   3.094  1.8038 -1.5650  1.9205
14553SOL    HW250006   2.768   7.852   2.969 -1.2665  1.3434 -1.0284
14554SOL     OW50007   5.317   1.208   4.624 -0.1803 -0.3187 -0.4664
14554SOL    HW150008   5.376   1.274   4.589 -0.3427  1.8852  2.9009
14554SOL    HW250009   5.375   1.145   4.667 -0.1358  0.0391  0.0104
14555SOL     OW50010   7.703   2.653   2.159 -0.8070 -0.5904 -0.6774
14555SOL    HW150011   7.708   2.725   2.096 -0.7120  0.3921  0.4042
14555SOL    HW250012   7.785   2.659   2.209 -0.0975 -2.4201 -1.5505
14556SOL     OW50013   5.405   4.605   8.546  0.1555 -0.3008 -0.1300
14556SOL    HW150014   5.326   4.584   8.496 -0.4659 -2.0538  1.4577
14556SOL    HW250015   5.379   4.677   8.604 -0.4252 -1.1404  0.6702
14557SOL     OW50016   2.035   8.868   3.208  0.5058 -0.2249 -0.2248
14557SOL    HW150017   2.067   8.907   3.290 -0.7835 -0.0239  0.2110
14557SOL    HW250018   1.940   8.867   3.218  0.1280  1.8503 -2.6322
14558SOL     OW50019   0.029   6.775   2.003 -0.3068 -0.0237 -0.0191
14558SOL    HW150020  -0.049   6.828   1.987 -1.9135 -2.1712  0.1988
14558SOL    HW250021   0.053   6.740   1.917  1.7339  2.1764 -0.4590
14559SOL     OW50022   2.733   4.167   6.008 -0.2814 -0.1515  0.2219
14559SOL    HW150023   2.756   4.155   5.916 -0.4350  1.9464 -0.1606
14559SOL    HW250024   2.643   4.135   6.016  0.3206 -1.9708  0.0947
14560SOL     OW50025   1.094   6.698   7.608 -0.3453  0.2132  0.0174
14560SOL    HW150026   1.058   6.712   7.521 -2.2443  0.6276  0.8254
14560SOL    HW250027   1.168   6.759   7.613  1.6440 -1.7843 -2.2457
14561SOL     OW50028   4.330   1.943   0.676  0.0339  0.4990 -0.0119
14561SOL    HW150029   4.319   1.871   0.739  1.9378  0.7219  0.6225
14561SOL    HW250030   4.383   2.008   0.723 -0.7047  1.8375 -0.9649
14562SOL     OW50031   7.418   7.798   1.432 -1.0342 -0.6460 -0.7270
14562SOL    HW150032   7.430   7.703   1.424  1.8259 -0.4483 -0.0256
14562SOL    HW250033   7.468   7.821   1.511 -0.6675  1.6001 -1.5523
14563SOL     OW50034   6.916   7.205   5.762 -0.6454  0.0092 -0.4505
14563SOL    HW150035   6.838   7.197   5.816 -1.3286  2.7438 -0.8354
14563SOL    HW250036   6.885   7.187   5.673 -0.7828  0.6457 -0.5426
14564SOL     OW50037   1.561   8.857   1.628  0.1907 -0.4879  0.0905
14564SOL    HW150038   1.608   8.928   1.585  0.1381 -0.0292  0.7768
14564SOL    HW250039   1.606   8.777   1.599  0.9416 -0.1044  0.1734
14565SOL     OW50040   4.401   3.766   3.494  0.0959  0.3252 -0.3345
14565SOL    HW150041   4.328   3.721   3.536  0.2323 -0.1721 -0.6211
14565SOL    HW250042   4.477   3.710   3.511  0.6271  1.3584  0.8661
14566SOL     OW50043   2.601   3.719   3.514  0.2398  0.4323  0.2435
14566SOL    HW150044   2.649   3.773   3.451  0.5280 -1.5680 -1.3865
14566SOL    HW250045   2.669   3.670   3.560 -0.0691 -0.8730 -0.6112
14567SOL     OW50046   5.083   3.520   5.123  0.0628 -0.3716 -0.1280
14567SOL    HW150047   5.149   3.492   5.186  0.1401 -0.2069 -0.1330
14567SOL    HW250048   5.001   3.524   5.173  0.4426  1.4655  0.4159
14568SOL     OW50049   3.667   3.137   3.120 -0.8118  0.3332 -0.1080
14568SOL    HW150050   3.624   3.057   3.151 -1.4596  0.2809 -1.0995
14568SOL    HW250051   3.597   3.202   3.116 -0.2278  1.0595  0.9947
14569SOL     OW50052   2.395   8.243   4.629 -0.6213 -0.4109 -0.3072
14569SOL    HW150053   2.428   8.332   4.614  0.9281 -0.7805  0.7203
14569SOL    HW250054   2.465   8.186   4.599 -1.0136 -1.2660  0.3613
14570SOL     OW50055   7.749   6.827   1.562 -0.6479 -0.1960 -0.1785
14570SOL    HW150056   7.687   6.793   1.496 -2.2902  2.8376 -0.3627
14570SOL    HW250057   7.773   6.914   1.530  1.1591  0.0268  1.6017
14571SOL     OW50058   2.840   0.257   7.288  0.0615 -0.4478 -0.0339
14571SOL    HW150059   2.818   0.329   7.348 -1.1677 -0.2696 -0.6609
14571SOL    HW250060   2.800   0.283   7.204 -0.9205 -2.1079 -0.1301
14572SOL     OW50061   6.181   4.589   6.576  0.2203 -0.0625  0.6955
14572SOL    HW150062   6.097   4.543   6.581 -0.4321  0.9539 -0.2765
14572SOL    HW250063   6.157   4.682   6.577  1.0526  0.3039 -2.4104
14573SOL     OW50064   2.699   5.395   6.052  0.1290 -0.2192 -0.5738
14573SOL    HW150065   2.623   5.411   6.107  0.4365 -0.5503 -0.0388
14573SOL    HW250066   2.685   5.307   6.017 -0.3921  0.2527 -1.5734
14574SOL     OW50067   4.126   7.875   0.549 -0.3558 -0.0146 -0.4991
14574SOL    HW150068   4.093   7.790   0.577 -0.9630  0.7205  1.1322
14574SOL    HW250069   4.204   7.855   0.498 -1.2434 -1.6015 -1.2976
14575SOL     OW50070   8.183   6.629   0.382 -0.2922 -0.2972 -0.2461
14575SOL    HW150071   8.218   6.696   0.323  1.4344 -0.8858  0.0407
14575SOL    HW250072   8.177   6.673   0.467 -0.6666 -0.0689 -0.3897
14576SOL     OW50073   0.464   1.179   7.682 -0.1116  0.1737  0.0434
14576SOL    HW150074   0.374   1.147   7.669 -0.3149 -0.2576  2.1144
14576SOL    HW250075   0.512   1.103   7.713  0.8491  0.5431 -0.5012
14577SOL     OW50076   3.660   1.608   5.381  0.1177 -0.5693 -0.3146
14577SOL    HW150077   3.708   1.539   5.334 -2.5967 -1.3039 -2.2457
14577SOL    HW250078   3.631   1.566   5.462  0.3107 -0.9867 -0.4576
14578SOL     OW50079   3.610   3.934   5.151  0.0175  0.0639  0.3420
14578SOL    HW150080   3.613   3.957   5.244  4.0344 -0.5069  0.5387
14578SOL    HW250081   3.694   3.966   5.116  0.3025 -2.9724 -2.2066
14579SOL     OW50082   4.433   3.567   5.962 -0.2411 -0.0417  0.2892
14579SOL    HW150083   4.380   3.488   5.950 -1.4768  0.9305 -0.9676
14579SOL    HW250084   4.504   3.539   6.020 -0.8760 -1.9560  0.2300
14580SOL     OW50085   0.147   9.157   1.242 -0.3066  0.4598 -0.6217
14580SOL    HW150086   0.108   9.200   1.166 -0.3741 -0.0297 -0.8728
14580SOL    HW250087   0.071   9.131   1.296 -0.2299  1.5236  0.0225
14581SOL     OW50088   1.873   3.706   2.441 -0.2870 -0.3166  0.4787
14581SOL    HW150089   1.867   3.801   2.441  1.0135 -0.2242  0.5117
14581SOL    HW250090   1.782   3.676   2.448 -0.7702  0.9094 -0.3342
14582SOL     OW50091   3.186   2.841   7.660 -0.1540  0.2277  0.6175
14582SOL    HW150092   3.187   2.937   7.657  0.9814  0.2480  1.0515
14582SOL    HW250093   3.271   2.818   7.697  0.1532 -0.9913 -0.7520
14583SOL     OW50094   6.961   2.375   5.111  0.1193  0.2246 -0.0591
14583SOL    HW150095   6.932   2.289   5.082  1.4089 -0.3598  0.2731
14583SOL    HW250096   6.931   2.435   5.043 -2.1817 -0.2219  0.4857
14584SOL     OW50097   4.935   0.221   0.226 -0.2181  0.0153 -0.7195
14584SOL    HW150098   5.022   0.260   0.222  0.0777 -0.4001  0.9287
14584SOL    HW250099   4.932   0.159   0.154  0.7478  0.2242 -0.9477
14585SOL     OW50100   5.547   4.891   4.291 -0.1967 -0.3103 -0.2603
14585SOL    HW150101   5.528   4.966   4.348  0.0477  0.0301 -0.6220
14585SOL    HW250102   5.593   4.829   4.348  1.4777  0.6920 -0.4455
14586SOL     OW50103   3.957   3.559   4.232  0.0048  0.2189 -0.2979
14586SOL    HW150104   3.917   3.538   4.147 -0.5631 -0.6303  0.1740
14586SOL    HW250105   3.884   3.586   4.287  0.3162  0.3698  0.0458
14587SOL     OW50106   5.179   0.278   8.442 -0.1330 -0.4964 -0.3126
14587SOL    HW150107   5.165   0.315   8.355 -0.1381 -0.3577 -0.2533
14587SOL    HW250108   5.172   0.353   8.501  0.5595 -0.4665 -0.2546
14588SOL     OW50109   2.041   8.461   6.894 -0.4045  0.0295 -0.2201
14588SOL    HW150110   1.963   8.510   6.921 -1.4704 -1.0286 -1.2607
14588SOL    HW250111   2.099   8.527   6.856 -0.6766  0.8696  0.7664
14589SOL     OW50112   8.453   7.392   3.813  0.3046 -0.1182  0.7608
14589SOL    HW150113   8.545   7.374   3.793 -0.4931 -2.4152 -1.3599
14589SOL    HW250114   8.430   7.466   3.756  0.4952 -0.5125  0.1548
14590SOL     OW50115   6.624   1.524   7.698 -0.1287  0.0403  0.3275
14590SOL    HW150116   6.585   1.447   7.740  0.4905  0.2546  1.3253
14590SOL    HW250117   6.618   1.505   7.604 -0.1557 -1.1457  0.5439
14591SOL     OW50118   0.825   2.097   3.417 -0.2946 -0.0376 -0.1012
14591SOL    HW150119   0.744   2.048   3.418 -0.1751 -0.3114 -1.6357
14591SOL    HW250120   0.894   2.031   3.405 -0.0200  0.3564 -0.7697
14592SOL     OW50121   3.494   9.212   8.599 -0.3183 -0.2486 -0.2289
14592SOL    HW150122   3.586   9.217   8.623 -0.4020 -0.3600  0.1195
14592SOL    HW250123   3.458   9.142   8.653 -0.9212  0.7355  0.6955
14593SOL     OW50124   4.943   0.881   8.543  0.3652 -0.1222  0.7893
14593SOL    HW150125   4.976   0.970   8.528  1.9120 -0.8531 -0.4350
14593SOL    HW250126   4.848   0.892   8.552  0.6558  1.8033  2.1949
14594SOL     OW50127   2.696   3.296   9.060  0.0154 -0.0282  0.5098
14594SOL    HW150128   2.710   3.216   9.011 -1.3971 -0.8569  1.3837
14594SOL    HW250129   2.660   3.267   9.144  0.0039  1.4867  1.0678
14595SOL     OW50130   6.056   3.263   9.152  0.0437 -0.3827  0.5645
14595SOL    HW150131   6.029   3.354   9.145  1.1802 -0.0193  0.8446
14595SOL    HW250132   5.979   3.213   9.121 -1.1966  0.5774  1.9931
14596SOL     OW50133   1.107   0.365   2.381  0.5286 -0.6335 -0.2014
14596SOL    HW150134   1.188   0.346   2.333  0.7791 -0.2487  0.0656
14596SOL    HW250135   1.037   0.354   2.315  0.9393  0.8519 -0.9371
14597SOL     OW50136   5.709   5.586   8.635 -0.3231 -0.0053  0.3704
14597SOL    HW150137   5.733   5.641   8.560  0.2690 -1.4075 -0.5152
14597SOL    HW250138   5.674   5.648   8.699 -0.0181  1.3563 -0.7049
14598SOL     OW50139   1.659   1.992   6.260  0.2035  0.0124  0.4129
14598SOL    HW150140   1.663   2.056   6.331  0.4328 -0.7547  1.1085
14598SOL    HW250141   1.714   2.029   6.191  0.4369  0.5001  0.8566
14599SOL     OW50142   6.237   5.565   1.485  0.4290 -0.5866  0.0566
14599SOL    HW150143   6.324   5.590   1.517 -0.4109  2.2167  0.4241
14599SOL    HW250144   6.193   5.530   1.562  0.8988 -1.1176  0.0921
14600SOL     OW50145   7.024   4.314   7.153  0.5189  0.1163 -0.0316
14600SOL    HW150146   6.967   4.349   7.085 -0.5258 -1.6679 -0.1354
14600SOL    HW250147   7.106   4.363   7.143 -0.8310  2.5273 -0.0796
14601SOL     OW50148   7.645   7.251   0.942  0.2239  0.4722  0.0240
14601SOL    HW150149   7.562   7.296   0.930  1.6087  3.1988  0.0074
14601SOL    HW250150   7.627   7.187   1.011 -2.3594 -0.5249 -1.4327
14602SOL     OW50151   8.547   8.736   6.119  0.6168 -0.1938 -0.0326
14602SOL    HW150152   8.513   8.817   6.158  0.0942 -0.0936 -0.6849
14602SOL    HW250153   8.595   8.694   6.191  0.1777  0.2810  0.5578
14603SOL     OW50154   3.590   4.030   9.238  0.0320 -0.2445 -0.0773
14603SOL    HW150155   3.679   4.063   9.225 -1.3371  3.1202 -2.0510
14603SOL    HW250156   3.544   4.100   9.285 -2.4091 -0.2581 -2.1946
14604SOL     OW50157   4.497   4.302   8.258 -0.1191  0.5565  0.0189
14604SOL    HW150158   4.416   4.278   8.213 -0.9792  0.2416  1.6356
14604SOL    HW250159   4.559   4.320   8.188 -1.6584  1.0697 -1.2735
14605SOL     OW50160   6.445   6.914   2.699 -0.1198  0.3751  0.4691
14605SOL    HW150161   6.537   6.892   2.689 -0.4970 -1.5229  0.6023
14605SOL    HW250162   6.405   6.833   2.732 -2.1558  0.5045 -1.4517
14606SOL     OW50163   8.820   4.201   7.788  0.3826 -0.3777 -0.5611
14606SOL    HW150164   8.875   4.276   7.809  0.4765 -0.2026 -1.4005
14606SOL    HW250165   8.762   4.232   7.719  0.8166 -1.2432 -1.3363
14607SOL     OW50166   1.626   0.246   5.492  0.1542 -0.2011 -0.0748
14607SOL    HW150167   1.535   0.253   5.521  0.1254  0.4082 -0.3172
14607SOL    HW250168   1.620   0.223   5.399  0.2072  2.5409 -0.8326
14608SOL     OW50169   8.565   8.788   6.792 -0.3424 -0.1072  0.0479
14608SOL    HW150170   8.554   8.822   6.704  1.5681  2.1104  0.5732
14608SOL    HW250171   8.521   8.851   6.849  0.4232 -0.2571  0.8366
14609SOL     OW50172   0.537   6.627   1.983 -0.1006 -0.1551  0.0508
14609SOL    HW150173   0.517   6.714   1.947  1.1565 -0.8380 -2.5182
14609SOL    HW250174   0.458   6.576   1.968  0.8944 -0.9008 -3.6069
14610SOL     OW50175   0.571   6.206   5.955 -0.4127  0.4409 -0.4206
14610SOL    HW150176   0.489   6.201   6.004  0.2330  2.4727  1.0208
14610SOL    HW250177   0.636   6.232   6.019  0.6576  2.4034 -2.1655
14611SOL     OW50178   3.208   0.923   0.059  0.0607 -0.1360  0.0363
14611SOL    HW150179   3.160   0.986   0.113  0.6455 -1.2457  1.9526
14611SOL    HW250180   3.147   0.901  -0.012 -2.0622 -0.9748  1.9818
14612SOL     OW50181   7.339   9.032   4.622 -0.1219 -0.5008 -0.2821
14612SOL    HW150182   7.432   9.013   4.622 -0.4725 -2.7925 -2.5468
14612SOL    HW250183   7.298   8.954   4.659 -1.2096 -0.1250 -0.6214
14613SOL     OW50184   1.573   3.298   0.134 -0.2408 -0.6309  0.1567
14613SOL    HW150185   1.543   3.303   0.044 -1.4034  1.0800  0.5773
14613SOL    HW250186   1.614   3.383   0.151  0.2670 -1.0491  1.1238
14614SOL     OW50187   1.907   1.292   6.034 -0.2862  0.0420 -0.0644
14614SOL    HW150188   1.968   1.222   6.008  2.9812  2.4601  0.4176
14614SOL    HW250189   1.895   1.280   6.128 -0.2519 -0.2293 -0.0939
14615SOL     OW50190   0.699   7.928   5.276 -0.0209  0.8046  0.1918
14615SOL    HW150191   0.780   7.877   5.283 -0.7775 -0.4827 -0.1814
14615SOL    HW250192   0.716   7.990   5.205  0.6508  0.5946  0.1587
14616SOL     OW50193   9.088   7.629   8.497 -0.2126  0.3397 -0.3566
14616SOL    HW150194   9.069   7.671   8.581  0.6652 -0.4329  0.2498
14616SOL    HW250195   9.002   7.598   8.467 -0.5643  0.7748  0.1643
14617SOL     OW50196   6.234   5.765   2.838  0.1536  0.1107 -0.1273
14617SOL    HW150197   6.159   5.713   2.808  0.8186  0.5047 -2.7096
14617SOL    HW250198   6.247   5.831   2.769  1.4054  1.5933  1.4286
14618SOL     OW50199   2.771   1.140   2.445  0.5343  0.0803 -0.3401
14618SOL    HW150200   2.811   1.092   2.372  4.1944  0.8720  0.9097
14618SOL    HW250201   2.741   1.222   2.406  1.0684 -0.1380 -1.2414
14619SOL     OW50202   3.858   4.854   0.465  0.0247 -0.5904  0.0947
14619SOL    HW150203   3.839   4.860   0.559 -0.0890 -0.9355  0.0967
14619SOL    HW250204   3.895   4.766   0.454 -3.0123 -1.8852 -0.6993
14620SOL     OW50205   8.174   6.263   4.278  0.1858  0.2280 -0.3361
14620SOL    HW150206   8.206   6.236   4.364  1.3299 -0.4513 -0.9475
14620SOL    HW250207   8.202   6.354   4.269  0.2902  0.2178 -0.1051
14621SOL     OW50208   5.957   2.628   3.327  0.3827  0.4246  0.2365
14621SOL    HW150209   5.968   2.683   3.250 -1.0048 -0.6801 -0.8095
14621SOL    HW250210   6.037   2.576   3.331  0.4734  0.4958 -0.4654
14622SOL     OW50211   0.707   4.080   0.348  0.5526 -0.4864 -0.3397
14622SOL    HW150212   0.717   4.045   0.436  0.6338  0.9586  0.2619
14622SOL    HW250213   0.780   4.043   0.298  1.3758 -0.1735  0.5976
14623SOL     OW50214   1.959   7.731   3.565 -0.2066 -0.5819  0.3173
14623SOL    HW150215   1.979   7.638   3.566  0.8536 -0.4761 -2.2909
14623SOL    HW250216   2.022   7.769   3.626  0.3085 -1.4519  0.3511
14624SOL     OW50217   7.612   8.584   3.979  0.7742 -0.0041  0.1145
14624SOL    HW150218   7.649   8.498   4.002 -0.0197 -0.3523  0.1417
14624SOL    HW250219   7.634   8.595   3.887 -2.1548 -1.9272 -0.9744
14625SOL     OW50220   2.367   6.364   5.060 -0.5052  0.0843  0.3089
14625SOL    HW150221   2.278   6.399   5.053 -0.7130  0.6101  3.6193
14625SOL    HW250222   2.423   6.442   5.059 -0.1832 -0.1458 -0.3615
14626SOL     OW50223   6.276   5.275   1.892 -0.2697 -0.0981  0.0382
14626SOL    HW150224   6.367   5.299   1.909 -0.8416  1.0559  1.6763
14626SOL    HW250225   6.231   5.358   1.879 -1.1246 -0.6506 -0.7163
14627SOL     OW50226   1.265   1.870   3.605 -0.6296 -0.2965 -0.3358
14627SOL    HW150227   1.241   1.872   3.513  1.2805 -0.8505 -0.8831
14627SOL    HW250228   1.341   1.812   3.610  1.8568  2.7000  0.8926
14628SOL     OW50229   3.287   0.433   0.659 -0.5027  0.9717 -0.1868
14628SOL    HW150230   3.335   0.405   0.581 -0.7939  0.3340 -0.1514
14628SOL    HW250231   3.288   0.356   0.716 -1.6825  0.8804 -0.2532
14629SOL     OW50232   6.247   7.132   1.635  0.0240 -0.1068 -0.6346
14629SOL    HW150233   6.232   7.069   1.563 -0.9940 -1.7571  0.9264
14629SOL    HW250234   6.188   7.102   1.704  1.2207  1.2374  1.0205
14630SOL     OW50235   0.979   2.161   6.261 -0.1406  0.4985  0.0249
14630SOL    HW150236   1.029   2.081   6.244  2.3306  2.1553 -1.1367
14630SOL    HW250237   0.906   2.133   6.316 -2.0307 -3.3696 -3.8592
14631SOL     OW50238   6.464   2.256   4.942  0.1115  0.3834 -0.5467
14631SOL    HW150239   6.413   2.318   4.890  0.7685  1.3553 -0.0726
14631SOL    HW250240   6.425   2.170   4.923 -1.2424  1.0067 -0.7288
14632SOL     OW50241   5.843   4.151   1.850  0.0123 -0.4479  0.5127
14632SOL    HW150242   5.768   4.161   1.792  1.5528 -0.6600 -1.6541
14632SOL    HW250243   5.821   4.076   1.905 -1.3427 -0.5178 -0.0844
14633SOL     OW50244   5.336   2.586   2.804 -0.0009 -0.0025  0.1730
14633SOL    HW150245   5.255   2.534   2.802 -0.3563  0.5075  0.8459
14633SOL    HW250246   5.347   2.616   2.714 -1.1527  0.7899  0.2685
14634SOL     OW50247   2.697   6.830   0.484  0.4468 -0.6687  0.6856
14634SOL    HW150248   2.640   6.767   0.526  0.7811 -1.0337  0.5940
14634SOL    HW250249   2.645   6.865   0.412 -0.5513  0.7857  2.0382
14635SOL     OW50250   3.322   8.405   3.739  0.5235 -0.3180  0.7241
14635SOL    HW150251   3.339   8.499   3.737  0.7152 -0.3498 -1.4886
14635SOL    HW250252   3.404   8.365   3.712 -1.0067 -0.7118 -4.5588
14636SOL     OW50253   6.607   4.878   7.334 -0.5999 -0.1048  0.4819
14636SOL    HW150254   6.539   4.945   7.337  1.3739  2.0011  0.7929
14636SOL    HW250255   6.604   4.838   7.421 -1.1508  0.2418  0.6308
14637SOL     OW50256   0.301   9.244   0.578 -0.8524 -0.0036 -0.4859
14637SOL    HW150257   0.359   9.319   0.584 -1.9327  0.7935  0.1700
14637SOL    HW250258   0.274   9.226   0.668 -0.5649 -1.2374 -0.6138
14638SOL     OW50259   6.353   3.331   0.504 -0.1481 -0.1702 -0.0670
14638SOL    HW150260   6.301   3.250   0.508  1.4541 -1.1892  2.1197
14638SOL    HW250261   6.443   3.300   0.497  0.4144  1.5019 -0.6086
14639SOL     OW50262   6.058   3.216   5.663  0.2096 -0.2179  0.3775
14639SOL    HW150263   5.968   3.193   5.640 -0.5954  1.8487  1.2086
14639SOL    HW250264   6.093   3.138   5.705 -1.9943 -0.3590  2.1293
14640SOL     OW50265   7.388   4.513   6.669 -0.0412  0.1395 -0.3184
14640SOL    HW150266   7.363   4.421   6.668 -1.0754  0.3996  0.2139
14640SOL    HW250267   7.359   4.547   6.585 -0.7189  0.2401 -0.0479
14641SOL     OW50268   7.824   4.982   1.673 -0.1384  0.4074 -1.0998
14641SOL    HW150269   7.759   4.913   1.656 -0.0889 -0.3157  1.2193
14641SOL    HW250270   7.907   4.935   1.680 -0.0322  0.7163  0.0202
14642SOL     OW50271   8.869   1.476   6.955  0.1402  0.6780  0.0047
14642SOL    HW150272   8.963   1.469   6.969  0.1401  0.9038  0.1251
14642SOL    HW250273   8.850   1.412   6.886  0.6061  1.6068 -1.0238
14643SOL     OW50274   9.087   7.886   2.792 -0.0410  0.7303 -0.3874
14643SOL    HW150275   9.111   7.976   2.812  0.3987  0.2256  1.6185
14643SOL    HW250276   9.171   7.842   2.775  0.1377  0.0055  1.9920
14644SOL     OW50277   0.013   1.739   6.700 -0.3618 -0.0553 -0.5045
14644SOL    HW150278   0.025   1.779   6.613 -1.0722 -1.8702 -1.4951
14644SOL    HW250279   0.097   1.698   6.719 -0.3755 -0.1286 -0.5985
14645SOL     OW50280   1.436   1.829   6.178 -0.5072 -0.1910  0.7983
14645SOL    HW150281   1.432   1.753   6.236 -0.6827 -0.6179  0.2400
14645SOL    HW250282   1.521   1.869   6.196 -0.0165 -1.0486  0.4505
14646SOL     OW50283   3.505   0.497   2.478 -0.1296  0.2009 -0.1513
14646SOL    HW150284   3.493   0.408   2.512 -0.1935  1.1198  2.4319
14646SOL    HW250285   3.598   0.516   2.494 -0.3914  1.0180  0.4490
14647SOL     OW50286   0.792   1.592   0.187  0.1301 -0.1301  0.1675
14647SOL    HW150287   0.887   1.593   0.202 -0.0024  0.1063  1.0790
14647SOL    HW250288   0.775   1.673   0.139  0.4234 -0.3319 -0.2903
14648SOL     OW50289   3.116   6.967   6.227 -0.1158  0.1015 -0.5794
14648SOL    HW150290   3.140   6.980   6.135  0.1622 -1.0184 -0.6686
14648SOL    HW250291   3.092   6.875   6.233 -0.5592  0.2677  0.3848
14649SOL     OW50292   7.138   2.622   0.236 -0.4524  0.7043 -0.1104
14649SOL    HW150293   7.065   2.585   0.287 -0.2682  0.1468 -0.2366
14649SOL    HW250294   7.098   2.651   0.154 -0.0719 -2.8969 -1.7832
14650SOL     OW50295   6.914   0.493   7.683  0.3233  0.1974  0.2024
14650SOL    HW150296   6.839   0.466   7.736  0.2998 -1.4197 -0.6021
14650SOL    HW250297   6.903   0.445   7.600  1.4816  1.0460 -0.4684
14651SOL     OW50298   3.067   4.190   8.819 -0.0328  0.5005  0.7149
14651SOL    HW150299   3.127   4.131   8.773 -0.3304  1.9501 -1.7314
14651SOL    HW250300   2.989   4.137   8.835 -0.0611 -0.0027 -0.8660
14652SOL     OW50301   0.044   6.530   9.177  0.2829 -0.4939 -0.5762
14652SOL    HW150302  -0.021   6.523   9.247 -0.8452  0.0924 -1.5264
14652SOL    HW250303   0.117   6.577   9.217  0.4241 -1.7342  0.6992
14653SOL     OW50304   8.438   0.144   5.790 -0.1688  0.1381  0.0227
14653SOL    HW150305   8.450   0.145   5.885 -0.5140 -0.8947  0.0869
14653SOL    HW250306   8.348   0.174   5.777 -1.1173 -2.3971  0.2300
14654SOL     OW50307   6.384   0.583   8.315  0.2648 -0.0089 -0.0431
14654SOL    HW150308   6.390   0.538   8.231 -0.4995 -0.6455  0.2235
14654SOL    HW250309   6.375   0.512   8.379  0.4818  0.4823  0.5370
14655SOL     OW50310   5.735   7.945   3.278  0.4055 -0.4168  0.1583
14655SOL    HW150311   5.734   7.960   3.373  0.7242 -0.5151  0.1805
14655SOL    HW250312   5.685   7.864   3.266 -0.4186  0.0834  0.1450
14656SOL     OW50313   0.780   7.178   8.884  0.0649 -0.5050 -0.5322
14656SOL    HW150314   0.823   7.258   8.854 -0.2590 -0.3016 -0.4514
14656SOL    HW250315   0.782   7.120   8.808  0.4105 -0.4669 -0.5534
14657SOL     OW50316   0.522   6.954   5.611  0.2169  0.5025 -0.3370
14657SOL    HW150317   0.495   6.869   5.646 -0.2066  0.9991  0.5844
14657SOL    HW250318   0.463   6.968   5.537  2.1020 -1.2403 -2.3221
14658SOL     OW50319   5.953   2.413   3.868 -0.1893 -0.7774  0.4588
14658SOL    HW150320   5.998   2.395   3.786  0.0134  0.3952  0.2903
14658SOL    HW250321   5.920   2.502   3.858 -2.1335 -1.4077  0.7721
14659SOL     OW50322   1.339   8.641   4.423  0.7194 -0.2038  0.2459
14659SOL    HW150323   1.261   8.696   4.414  0.4751 -0.4181  0.9624
14659SOL    HW250324   1.388   8.679   4.496  0.7383 -0.7021  0.5007
14660SOL     OW50325   8.224   8.690   7.222  0.0653 -0.5507 -0.0610
14660SOL    HW150326   8.217   8.715   7.130  0.2671  0.4466  0.1852
14660SOL    HW250327   8.300   8.632   7.225 -0.7514 -1.7029 -0.7391
14661SOL     OW50328   1.890   5.544   0.225 -0.0068  0.0760  0.2938
14661SOL    HW150329   1.856   5.506   0.306 -0.2834  2.8360  1.6070
14661SOL    HW250330   1.822   5.527   0.160  0.2920 -2.3387  0.5290
14662SOL     OW50331   4.435   8.699   4.178  0.1608 -0.0753 -0.1792
14662SOL    HW150332   4.428   8.755   4.256  1.1323 -1.9052  1.3071
14662SOL    HW250333   4.362   8.726   4.122  0.6164  2.6755  0.4148
14663SOL     OW50334   0.844   7.770   3.363  0.4125  0.3937 -0.3325
14663SOL    HW150335   0.933   7.740   3.382  0.5419  1.1163  0.2334
14663SOL    HW250336   0.789   7.721   3.424  0.6239  1.2429  0.5847
14664SOL     OW50337   0.345   1.314   2.848  0.4725  0.0607 -1.0230
14664SOL    HW150338   0.293   1.299   2.927  0.9147  0.8789 -0.5710
14664SOL    HW250339   0.320   1.242   2.790 -0.0030 -0.4476 -0.2192
14665SOL     OW50340   3.180   7.147   1.542 -0.0172 -0.1713  0.7975
14665SOL    HW150341   3.264   7.149   1.496  0.8006 -0.6199  2.2248
14665SOL    HW250342   3.199   7.104   1.625 -1.8559 -1.1231  0.7833
14666SOL     OW50343   1.625   8.164   5.799 -0.1078  0.3377 -0.4422
14666SOL    HW150344   1.543   8.178   5.847 -0.6264  1.2582 -1.5156
14666SOL    HW250345   1.598   8.120   5.719  0.6891 -0.8531 -0.0753
14667SOL     OW50346   2.095   4.962   2.620 -0.4912 -0.1683 -0.7569
14667SOL    HW150347   2.022   4.955   2.682 -1.1537 -0.5987 -1.5623
14667SOL    HW250348   2.094   4.879   2.573  0.1785  0.0423 -1.1531
14668SOL     OW50349   6.121   1.888   8.228 -0.1540 -0.0567  0.0011
14668SOL    HW150350   6.092   1.960   8.283 -0.8329 -1.0025  0.9140
14668SOL    HW250351   6.216   1.886   8.239 -0.0380  1.1041 -0.5770
14669SOL     OW50352   4.663   0.373   8.951  0.4050  0.2128  0.0420
14669SOL    HW150353   4.690   0.282   8.943 -0.0205 -0.0299  1.1743
14669SOL    HW250354   4.705   0.404   9.032 -0.9715  0.4389  0.6991
14670SOL     OW50355   8.838   1.264   6.091 -0.2770 -0.0670 -0.0271
14670SOL    HW150356   8.773   1.217   6.038  0.7929 -2.1287  0.3936
14670SOL    HW250357   8.817   1.240   6.181  0.5359 -0.0716  0.1643
14671SOL     OW50358   1.351   1.721   2.090 -0.7221 -0.1285 -0.0148
14671SOL    HW150359   1.441   1.730   2.058 -0.4430  0.7713  0.9787
14671SOL    HW250360   1.299   1.771   2.027 -0.2860  0.8748  0.3877
14672SOL     OW50361   8.443   6.163   2.417  0.0321 -0.3169 -0.4903
14672SOL    HW150362   8.355   6.188   2.387  0.2378  0.0245 -0.8054
14672SOL    HW250363   8.437   6.166   2.513 -0.8980 -2.2864 -0.4174
14673SOL     OW50364   0.747   7.436   3.203 -0.6556  1.0244 -0.1716
14673SOL    HW150365   0.678   7.485   3.247 -0.2615  1.4966 -0.0812
14673SOL    HW250366   0.817   7.428   3.267  0.0354  1.9616 -0.7877
14674SOL     OW50367   4.068   6.219   7.630 -0.6651  0.1513  0.1166
14674SOL    HW150368   3.977   6.198   7.650 -0.5783  1.7913  2.6873
14674SOL    HW250369   4.111   6.225   7.716  1.7269  0.0865 -0.9837
14675SOL     OW50370   2.607   7.446   7.716 -0.2392  0.2418 -0.5312
14675SOL    HW150371   2.632   7.538   7.716 -1.3869  0.5609 -0.5284
14675SOL    HW250372   2.618   7.417   7.807 -0.2458  0.4782 -0.4558
14676SOL     OW50373   4.755   0.466   1.045 -0.5639  0.3191 -0.3296
14676SOL    HW150374   4.827   0.441   1.103 -1.9685  1.2441  1.9621
14676SOL    HW250375   4.677   0.464   1.101 -2.1213  0.7700 -2.3442
14677SOL     OW50376   4.993   0.558   4.084  0.0161 -0.1293  0.0736
14677SOL    HW150377   5.021   0.583   3.996 -0.7051  1.4552  0.2516
14677SOL    HW250378   4.901   0.584   4.088  0.1950  0.4133  1.4795
14678SOL     OW50379   2.389   7.770   7.090  0.3970 -0.0461 -0.4226
14678SOL    HW150380   2.313   7.713   7.086  0.3234  0.0039  0.2102
14678SOL    HW250381   2.355   7.856   7.065  0.1755  0.0382  0.1469
14679SOL     OW50382   5.109   2.895   0.412 -0.3949 -0.4967  0.7486
14679SOL    HW150383   5.174   2.830   0.382 -0.6658 -0.2168 -0.4986
14679SOL    HW250384   5.040   2.842   0.453 -0.0847 -0.9078  0.7549
14680SOL     OW50385   7.387   2.572   6.850  0.6807 -0.1003  0.8723
14680SOL    HW150386   7.410   2.660   6.880  1.5182 -0.3002  0.8317
14680SOL    HW250387   7.304   2.553   6.894 -0.1396  1.1661 -0.0278
14681SOL     OW50388   8.733   7.743   3.008  0.1446  0.4259 -0.0041
14681SOL    HW150389   8.644   7.773   3.024 -0.1755 -0.1440 -0.6739
14681SOL    HW250390   8.758   7.787   2.926  0.4227  0.4567  0.0962
14682SOL     OW50391   5.996   7.167   7.572  0.7370  0.2831 -0.4613
14682SOL    HW150392   5.973   7.093   7.628  0.8633  0.0716 -0.6884
14682SOL    HW250393   5.975   7.244   7.625  2.0950  0.0914  0.3947
14683SOL     OW50394   6.914   4.769   5.796 -0.1093 -0.0701 -0.5417
14683SOL    HW150395   6.978   4.817   5.849 -1.4309 -0.0101  1.1051
14683SOL    HW250396   6.952   4.682   5.786 -0.7428 -0.8103  2.4882
14684SOL     OW50397   3.741   1.440   8.597  0.1642  0.3618 -1.3756
14684SOL    HW150398   3.662   1.407   8.554 -0.4908  1.4173 -1.0175
14684SOL    HW250399   3.735   1.408   8.687 -0.4792  1.3997 -1.0236
14685SOL     OW50400   7.150   3.521   9.029  0.1221 -0.6425  0.1854
14685SOL    HW150401   7.207   3.566   8.967  1.4336 -0.1259  1.6851
14685SOL    HW250402   7.062   3.532   8.994  0.2113  3.9915  0.8814
14686SOL     OW50403   2.507   6.284   2.620 -0.2474  0.3624  0.0976
14686SOL    HW150404   2.505   6.357   2.682 -1.2129  1.3162 -1.0279
14686SOL    HW250405   2.443   6.222   2.655  1.6389 -0.7388  1.8977
14687SOL     OW50406   1.079   8.479   5.595  0.2602 -0.1861 -0.4963
14687SOL    HW150407   1.150   8.486   5.531  0.2187  0.7102 -0.4688
14687SOL    HW250408   1.115   8.425   5.666 -0.3732 -2.9214 -2.1341
14688SOL     OW50409   8.121   1.730   5.444  0.7026  0.1639  0.3293
14688SOL    HW150410   8.109   1.721   5.349  4.4174  1.4060 -0.4487
14688SOL    HW250411   8.204   1.686   5.461 -0.1153 -0.4398  3.1662
14689SOL     OW50412   4.265   0.136   2.893  0.4094  0.3241 -0.1182
14689SOL    HW150413   4.204   0.065   2.911  2.0365 -1.1239 -0.0237
14689SOL    HW250414   4.310   0.109   2.812  0.3048  1.7976 -0.7013
14690SOL     OW50415   8.309   1.673   3.762  0.2178  0.1647  0.2143
14690SOL    HW150416   8.335   1.588   3.727 -2.6090  0.1318 -2.1926
14690SOL    HW250417   8.238   1.702   3.704 -1.1999  2.6370  2.9301
14691SOL     OW50418   0.986   8.194   2.904 -0.5092 -0.0323 -0.1462
14691SOL    HW150419   0.916   8.131   2.922  0.1690 -0.8652 -0.3345
14691SOL    HW250420   0.964   8.271   2.957 -0.2641 -1.2065  1.7608
14692SOL     OW50421   0.792   7.932   2.711 -0.0106  0.1507  0.3352
14692SOL    HW150422   0.805   7.839   2.730 -1.4049 -0.1372  0.0052
14692SOL    HW250423   0.762   7.970   2.793  2.4137  0.7589  1.0231
14693SOL     OW50424   1.092   1.479   3.132 -0.1419  0.0326  0.0963
14693SOL    HW150425   1.014   1.531   3.152  0.4872  1.8449 -1.7275
14693SOL    HW250426   1.092   1.473   3.036  1.7416 -0.2327  0.0731
14694SOL     OW50427   3.560   5.355   0.275 -0.4688  0.0352  0.1083
14694SOL    HW150428   3.509   5.287   0.319  1.0415  0.6619  3.1836
14694SOL    HW250429   3.635   5.308   0.238 -1.5601 -0.4589 -1.5481
14695SOL     OW50430   4.069   0.278   4.362  0.1347 -0.0524 -0.0414
14695SOL    HW150431   4.060   0.290   4.457 -1.7944 -0.3648 -0.1460
14695SOL    HW250432   3.999   0.331   4.325  2.0990  1.7164 -1.4651
14696SOL     OW50433   2.249   5.493   1.486  0.5075 -0.0654 -0.0437
14696SOL    HW150434   2.311   5.484   1.415  1.4461  2.1791  0.4129
14696SOL    HW250435   2.292   5.452   1.561  1.3483  1.2032  0.1937
14697SOL     OW50436   6.900   4.311   7.395 -0.4765  0.0705  0.1417
14697SOL    HW150437   6.845   4.389   7.398 -1.8017 -0.8056 -0.4633
14697SOL    HW250438   6.941   4.314   7.309 -0.3060  0.2398  0.2283
14698SOL     OW50439   7.085   5.024   5.681  0.0412 -0.3615  0.4344
14698SOL    HW150440   7.179   5.030   5.667  0.2245  0.2987  1.7374
14698SOL    HW250441   7.068   4.930   5.693  0.3918 -0.5676 -0.6269
14699SOL     OW50442   2.787   5.076   6.111  0.3739  0.0017  0.1766
14699SOL    HW150443   2.716   5.047   6.054  1.2151 -0.2374 -0.7792
14699SOL    HW250444   2.778   5.022   6.190 -1.9835  1.6652  1.1679
14700SOL     OW50445   8.523   4.315   4.789 -0.2742  0.4851  0.0476
14700SOL    HW150446   8.444   4.321   4.735 -0.9490 -0.8777  0.8122
14700SOL    HW250447   8.595   4.305   4.727 -0.8933  0.1587 -0.6326
14701SOL     OW50448   1.443   2.604   1.638 -0.3005  0.9245  0.1637
14701SOL    HW150449   1.486   2.638   1.716  0.2877  0.4771  0.0349
14701SOL    HW250450   1.446   2.509   1.648  0.3407  0.8496 -0.7032
14702SOL     OW50451   4.589   6.346   5.245  0.3961 -0.2305 -0.1354
14702SOL    HW150452   4.594   6.262   5.199 -0.6267 -0.3710 -0.0125
14702SOL    HW250453   4.514   6.336   5.304  0.8968  0.4103  0.6252
14703SOL     OW50454   3.641   7.687   7.567  0.2042 -0.6290 -0.1284
14703SOL    HW150455   3.651   7.632   7.488 -2.1509 -1.8304  0.2888
14703SOL    HW250456   3.546   7.690   7.581  0.4408  1.3295  1.4831
14704SOL     OW50457   6.584   2.910   3.199 -0.0349  0.0136  0.4235
14704SOL    HW150458   6.625   2.995   3.214  0.0668  0.4209 -1.8516
14704SOL    HW250459   6.604   2.889   3.108 -1.2869 -1.7822  0.5057
14705SOL     OW50460   3.671   1.612   7.399 -0.1891 -0.1929  0.4856
14705SOL    HW150461   3.648   1.702   7.419 -0.4169 -0.1709  0.1380
14705SOL    HW250462   3.740   1.618   7.333  0.6697 -0.2629  1.3655
14706SOL     OW50463   7.735   8.365   5.386  0.4007  0.1571 -0.1245
14706SOL    HW150464   7.687   8.309   5.325  0.1140 -0.1624  0.3866
14706SOL    HW250465   7.693   8.350   5.470  0.4025  1.0568  0.0437
14707SOL     OW50466   0.970   8.974   7.372 -0.0553 -0.0765  0.3334
14707SOL    HW150467   0.992   9.049   7.317 -0.9601 -0.1951 -0.2112
14707SOL    HW250468   1.015   8.991   7.455 -0.0825  0.9714  0.1514
14708SOL     OW50469   5.845   3.365   8.562  0.0505 -0.1968 -0.0799
14708SOL    HW150470   5.851   3.395   8.653  0.2464 -0.4807  0.0024
14708SOL    HW250471   5.933   3.333   8.542  0.5626  1.6125 -0.9818
14709SOL     OW50472   0.689   9.056   0.728  0.5200 -0.0359  0.2341
14709SOL    HW150473   0.638   9.124   0.683 -0.3415 -0.6931  0.1969
14709SOL    HW250474   0.630   9.022   0.795  1.0074 -0.6371  0.3630
14710SOL     OW50475   2.226   4.546   2.126 -0.1343 -0.8371  0.2334
14710SOL    HW150476   2.143   4.585   2.100  0.7655  0.7430 -0.4627
14710SOL    HW250477   2.234   4.565   2.219 -1.2462 -2.3966  0.6746
14711SOL     OW50478   5.096   6.084   0.925  0.3900 -0.2527 -0.1212
14711SOL    HW150479   5.023   6.077   0.986 -0.7076  0.3996 -1.2916
14711SOL    HW250480   5.054   6.089   0.839  1.6744  2.2490 -0.7180
14712SOL     OW50481   5.093   3.795   5.447 -0.2006 -0.4972  0.8237
14712SOL    HW150482   5.151   3.742   5.502  1.1017  0.7352  0.6972
14712SOL    HW250483   5.081   3.742   5.368  0.2615 -1.0298  1.1030
14713SOL     OW50484   7.201   1.664   7.423  0.4724  0.4157 -0.3494
14713SOL    HW150485   7.195   1.678   7.518  0.6679  0.8443 -0.3979
14713SOL    HW250486   7.288   1.628   7.409  0.3817  0.1936 -0.3489
14714SOL     OW50487   4.346   1.061   7.394  0.0400 -0.4040  0.4959
14714SOL    HW150488   4.298   1.133   7.351 -0.2039 -0.9678 -0.2069
14714SOL    HW250489   4.378   1.099   7.476 -1.5115  0.0453  0.9449
14715SOL     OW50490   1.352   4.535   5.626 -0.4245  0.4545 -0.1443
14715SOL    HW150491   1.284   4.499   5.683  0.3293  1.5428  1.5537
14715SOL    HW250492   1.400   4.596   5.682  1.1829  0.6432 -1.6189
14716SOL     OW50493   5.832   2.984   2.404 -0.4904  0.1522  0.5911
14716SOL    HW150494   5.831   2.915   2.338 -0.0466 -0.0555  0.7955
14716SOL    HW250495   5.908   2.964   2.459  0.0809  1.2183  0.2194
14717SOL     OW50496   5.410   5.463   0.714  0.5001  0.3188  0.2652
14717SOL    HW150497   5.371   5.548   0.736  0.5742  0.9533 -1.8766
14717SOL    HW250498   5.343   5.399   0.740 -0.8901  1.2389 -0.8737
14718SOL     OW50499   3.029   0.684   2.876 -0.4175  0.5198 -0.2224
14718SOL    HW150500   3.030   0.638   2.792 -1.4408 -0.1376  0.1124
14718SOL    HW250501   2.994   0.620   2.938  0.3003  1.0054  0.7069
14719SOL     OW50502   2.003   8.143   8.396 -0.2120  0.0893 -0.1660
14719SOL    HW150503   2.093   8.174   8.405  0.4411 -1.3220 -1.3733
14719SOL    HW250504   2.007   8.080   8.324 -1.6857 -1.7797  1.2762
14720SOL     OW50505   4.799   2.228   7.490  0.4280  0.4900  0.0138
14720SOL    HW150506   4.735   2.162   7.516 -0.3916  1.2493 -0.0307
14720SOL    HW250507   4.795   2.294   7.559  1.7986  0.1443  0.4646
14721SOL     OW50508   3.808   7.278   0.480  0.2759  0.4395 -0.3354
14721SOL    HW150509   3.866   7.275   0.556  1.6302 -0.4254 -1.3398
14721SOL    HW250510   3.747   7.349   0.498  1.7129  1.4473  0.7506
14722SOL     OW50511   0.330   7.155   2.098 -0.2759  0.0776 -0.2376
14722SOL    HW150512   0.420   7.168   2.069  0.1008  1.2510  1.3275
14722SOL    HW250513   0.336   7.146   2.193 -1.8376  0.4262 -0.0716
14723SOL     OW50514   8.968   6.639   5.839 -0.0213  0.1575  0.5059
14723SOL    HW150515   9.055   6.600   5.842 -0.1766 -0.2152  0.2181
14723SOL    HW250516   8.911   6.575   5.881 -0.5350 -0.6350 -1.2988
14724SOL     OW50517   2.331   7.384   5.622 -0.8199  0.1545  0.1003
14724SOL    HW150518   2.315   7.462   5.676  0.4274  0.2449  0.3713
14724SOL    HW250519   2.408   7.406   5.570 -1.0279 -0.5531 -0.5345
14725SOL     OW50520   2.051   8.436   6.402 -0.7268  0.1027 -0.4907
14725SOL    HW150521   1.965   8.400   6.424 -0.1975 -0.7805  0.2253
14725SOL    HW250522   2.081   8.478   6.483 -0.0049 -0.6022 -0.3803
14726SOL     OW50523   4.987   7.295   0.066 -0.1109  0.2398  0.4144
14726SOL    HW150524   4.933   7.323   0.140 -1.9694 -0.8804 -0.4219
14726SOL    HW250525   5.022   7.210   0.092  0.3554  0.4673  0.5314
14727SOL     OW50526   7.481   7.632   0.726  0.4414  0.0852  0.2840
14727SOL    HW150527   7.531   7.626   0.645  0.9275 -1.3182  0.6488
14727SOL    HW250528   7.547   7.644   0.794  0.2031 -0.5100  0.6355
14728SOL     OW50529   1.577   5.821   3.633 -0.1662 -0.2603  0.2473
14728SOL    HW150530   1.626   5.763   3.574 -0.8024 -2.3323  1.6649
14728SOL    HW250531   1.643   5.853   3.695 -0.0329 -0.4240  0.1907
14729SOL     OW50532   1.158   2.578   6.609  0.5329  0.2102 -0.2769
14729SOL    HW150533   1.251   2.568   6.588  0.3609  2.4978 -2.6007
14729SOL    HW250534   1.116   2.503   6.566  1.0719  0.4480 -1.2343
14730SOL     OW50535   3.773   1.394   7.526  0.1031  0.4456  0.4205
14730SOL    HW150536   3.750   1.449   7.451  1.1575  0.7839  0.3184
14730SOL    HW250537   3.716   1.424   7.597 -1.8746 -0.8020 -0.5701
14731SOL     OW50538   3.483   1.885   0.388 -0.7197  0.0914  0.6889
14731SOL    HW150539   3.448   1.972   0.371  0.3734  0.4412  0.1533
14731SOL    HW250540   3.573   1.888   0.355 -0.8740 -1.4400  0.0390
14732SOL     OW50541   0.768   6.110   2.295 -0.5043  0.5564  0.0219
14732SOL    HW150542   0.804   6.049   2.360  2.3871  1.0376 -0.9954
14732SOL    HW250543   0.764   6.059   2.214 -2.3579  0.4988  0.0979
14733SOL     OW50544   3.635   0.482   8.994  0.2310 -0.3368  0.0940
14733SOL    HW150545   3.567   0.423   9.027  1.3825 -1.5378  0.3872
14733SOL    HW250546   3.664   0.531   9.071  0.0331 -0.1632  0.0593
14734SOL     OW50547   5.090   6.762   3.226 -0.2532  0.9600 -0.0946
14734SOL    HW150548   5.031   6.702   3.181  0.0716 -0.2489  1.0191
14734SOL    HW250549   5.134   6.708   3.291 -1.1931  2.7299  2.1556
14735SOL     OW50550   1.249   6.835   0.597  1.1323 -0.7122 -0.0512
14735SOL    HW150551   1.228   6.907   0.657  0.8746  0.9237 -2.0289
14735SOL    HW250552   1.339   6.852   0.570  0.9648 -0.9569 -0.7748
14736SOL     OW50553   0.552   6.331   1.851 -0.1267 -0.1364 -0.3572
14736SOL    HW150554   0.486   6.271   1.817 -0.2843  0.8272 -1.8163
14736SOL    HW250555   0.551   6.405   1.791  1.5039  0.4086  0.2298
14737SOL     OW50556   7.990   4.102   3.881  0.2825 -0.0726 -0.0987
14737SOL    HW150557   7.909   4.053   3.868  0.1993 -0.2368  0.9639
14737SOL    HW250558   7.997   4.113   3.976  0.6686  1.3683 -0.2711
14738SOL     OW50559   6.035   6.726   3.606  0.0399 -0.2429 -0.1085
14738SOL    HW150560   5.987   6.659   3.558  1.9224 -0.9659 -1.1205
14738SOL    HW250561   6.119   6.732   3.561  0.6074  1.5393  1.0559
14739SOL     OW50562   5.718   4.846   6.323  0.5690 -0.3345 -0.0761
14739SOL    HW150563   5.715   4.916   6.257 -1.8064 -1.0245 -0.8057
14739SOL    HW250564   5.705   4.892   6.406  1.8109  0.3549 -0.2345
14740SOL     OW50565   4.648   4.754   5.919 -0.5156 -0.4309  0.2796
14740SOL    HW150566   4.663   4.845   5.892 -0.5630 -0.3811  0.4214
14740SOL    HW250567   4.612   4.761   6.008  0.6316 -0.6318  0.7748
14741SOL     OW50568   3.031   6.942   5.192  0.3529  0.1605 -0.3154
14741SOL    HW150569   3.026   6.924   5.286  4.6849  0.7216  0.2349
14741SOL    HW250570   3.066   6.861   5.154  0.1194  0.4738 -1.2210
14742SOL     OW50571   5.581   5.336   2.231  0.2043 -0.4692  0.2317
14742SOL    HW150572   5.617   5.382   2.306  1.5008  0.7050 -1.0465
14742SOL    HW250573   5.619   5.249   2.235  0.9424 -0.1401  0.4775
14743SOL     OW50574   7.581   3.240   0.271 -0.7012 -0.2979 -0.2621
14743SOL    HW150575   7.676   3.234   0.276 -0.6268  0.6002 -0.4790
14743SOL    HW250576   7.563   3.332   0.253 -1.5587 -0.6649 -1.4340
14744SOL     OW50577   4.238   5.906   4.207  0.0037  0.5129 -0.1680
14744SOL    HW150578   4.148   5.916   4.240  0.6618  1.5948  1.3852
14744SOL    HW250579   4.293   5.946   4.274  1.6667 -0.1166 -1.1078
14745SOL     OW50580   2.187   5.792   4.932 -0.2199  0.0428 -0.1236
14745SOL    HW150581   2.102   5.750   4.922 -1.1315  1.7986 -0.0473
14745SOL    HW250582   2.194   5.851   4.856  1.0874 -0.3242 -0.3124
14746SOL     OW50583   1.660   4.313   7.993  0.3318 -0.1656  0.1017
14746SOL    HW150584   1.616   4.251   7.934  0.4786 -0.0484 -0.1296
14746SOL    HW250585   1.728   4.261   8.037  1.3211  0.1259 -1.0479
14747SOL     OW50586   1.123   1.225   6.957 -0.2805  0.1342  0.0403
14747SOL    HW150587   1.160   1.302   6.999  0.0968  0.6260 -1.1443
14747SOL    HW250588   1.068   1.185   7.024  3.2008 -1.2877  2.3505
14748SOL     OW50589   0.660   0.079   3.498 -0.0503  0.0482 -0.2397
14748SOL    HW150590   0.750   0.087   3.531  0.1618  0.8827 -0.9978
14748SOL    HW250591   0.606   0.115   3.568  0.1649 -0.7944  0.3772
14749SOL     OW50592   2.403   9.048   1.759  0.7042 -0.5965 -0.1725
14749SOL    HW150593   2.382   9.094   1.841  0.4810 -0.4592 -0.3054
14749SOL    HW250594   2.327   8.992   1.744  0.8024 -0.7151 -0.2196
14750SOL     OW50595   4.111   3.046   4.435  0.5174  0.1415  0.0831
14750SOL    HW150596   4.101   2.967   4.381  0.6766 -1.6122  2.4571
14750SOL    HW250597   4.022   3.079   4.446  0.3034 -0.4504  0.1388
14751SOL     OW50598   1.236   5.937   8.733 -0.5792  0.1938 -0.3844
14751SOL    HW150599   1.238   6.011   8.794  2.6695 -1.5930  2.0159
14751SOL    HW250600   1.289   5.965   8.659 -1.0677  0.9264 -0.4740
14752SOL     OW50601   1.629   1.210   9.063  1.1625 -0.6310 -0.3597
14752SOL    HW150602   1.598   1.278   9.003 -0.2774 -0.6887  0.2884
14752SOL    HW250603   1.563   1.207   9.132  2.8933 -0.4410  1.3558
14753SOL     OW50604   0.683   8.715   4.880  0.0971 -0.1718  0.2880
14753SOL    HW150605   0.726   8.717   4.965  0.0578  1.4882  0.2874
14753SOL    HW250606   0.742   8.663   4.825  1.1256  0.4412  0.7905
14754SOL     OW50607   6.366   0.653   5.276  0.2282  0.3988  0.3242
14754SOL    HW150608   6.421   0.589   5.321 -0.8207 -2.2564 -1.8437
14754SOL    HW250609   6.403   0.658   5.188 -1.0372  1.0893 -0.1932
14755SOL     OW50610   0.511   6.277   4.318  0.1115  0.0665  0.1613
14755SOL    HW150611   0.500   6.242   4.406  1.2774 -1.3689 -0.2273
14755SOL    HW250612   0.532   6.370   4.332  1.1643 -0.3399  1.4544
14756SOL     OW50613   7.417   1.500   7.180  0.2012 -0.1256  0.1135
14756SOL    HW150614   7.442   1.592   7.185  0.2928 -0.2133  2.8180
14756SOL    HW250615   7.494   1.456   7.145  0.0263  0.8200 -1.5717
14757SOL     OW50616   0.698   6.616   7.485 -0.5117  0.2060 -0.4507
14757SOL    HW150617   0.765   6.676   7.451 -0.0652  0.5514  0.9973
14757SOL    HW250618   0.644   6.669   7.543 -0.3719 -0.6788  0.5164
14758SOL     OW50619   7.086   8.323   5.867 -0.1076 -0.5019  0.0323
14758SOL    HW150620   7.155   8.385   5.842  0.5057 -0.2192  2.2309
14758SOL    HW250621   7.098   8.249   5.808  1.6978 -0.1844 -0.0631
14759SOL     OW50622   6.282   7.644   7.698  0.2013 -0.0743  0.2427
14759SOL    HW150623   6.356   7.702   7.682 -0.4633  1.2779  1.7228
14759SOL    HW250624   6.319   7.573   7.751  0.9817 -0.9759 -1.4250
14760SOL     OW50625   2.811   3.752   5.190 -0.0585  0.1415 -0.1598
14760SOL    HW150626   2.737   3.763   5.131  0.2545 -2.9182 -1.2735
14760SOL    HW250627   2.772   3.725   5.273 -0.2517  0.0611 -0.2784
14761SOL     OW50628   1.115   3.570   5.244 -0.3434 -0.0435 -0.3897
14761SOL    HW150629   1.198   3.542   5.206 -0.5901 -0.6034 -0.5280
14761SOL    HW250630   1.056   3.497   5.228 -1.6269  1.3490 -2.6872
14762SOL     OW50631   6.490   0.287   8.761  0.2564  0.1465  0.2734
14762SOL    HW150632   6.433   0.282   8.838  0.9902 -0.4275  0.7902
14762SOL    HW250633   6.566   0.234   8.784  0.5674  0.1155 -0.7841
14763SOL     OW50634   1.571   5.267   7.890  0.5423  0.1641  0.1581
14763SOL    HW150635   1.569   5.343   7.948  0.3906 -0.6659  1.2674
14763SOL    HW250636   1.479   5.245   7.874  0.5676 -0.5705  0.9264
14764SOL     OW50637   6.232   5.649   2.539 -0.2352 -0.0420  0.3711
14764SOL    HW150638   6.253   5.742   2.534 -1.7185  0.2895 -0.2486
14764SOL    HW250639   6.160   5.644   2.601 -0.5651 -0.7013 -0.0551
14765SOL     OW50640   3.188   0.237   3.415 -0.1056  0.5021 -0.2344
14765SOL    HW150641   3.246   0.309   3.392 -1.0342  0.9501 -1.2961
14765SOL    HW250642   3.185   0.183   3.335 -1.6258  0.8405 -0.4345
14766SOL     OW50643   0.656   6.311   1.035  0.5892  0.1321  0.0340
14766SOL    HW150644   0.742   6.287   1.001  0.2024 -0.2325 -0.7248
14766SOL    HW250645   0.618   6.367   0.966  0.0939  0.0179  0.2108
14767SOL     OW50646   1.450   8.878   7.008 -0.2134  0.0662 -0.1817
14767SOL    HW150647   1.403   8.941   7.063 -0.2878  0.3843 -0.6058
14767SOL    HW250648   1.529   8.925   6.980 -0.7965  0.3495 -1.3763
14768SOL     OW50649   6.996   4.187   2.943  0.1031  0.0174  1.0966
14768SOL    HW150650   7.002   4.119   3.009 -1.7606 -1.8122 -0.4810
14768SOL    HW250651   6.934   4.251   2.980 -3.3473 -2.4663  0.1167
14769SOL     OW50652   7.884   0.814   5.080  0.2036 -0.4574 -0.0497
14769SOL    HW150653   7.885   0.740   5.020 -0.2764 -1.2462  0.8911
14769SOL    HW250654   7.790   0.833   5.092  0.3220  0.5001 -0.5055
14770SOL     OW50655   7.808   0.887   8.961  0.1358  0.2856 -0.0595
14770SOL    HW150656   7.775   0.969   8.998  0.0097  0.2297 -0.0444
14770SOL    HW250657   7.845   0.912   8.876 -0.1463  0.3159 -0.1750
14771SOL     OW50658   7.070   2.237   7.522  0.2997  0.2787  0.2483
14771SOL    HW150659   7.014   2.159   7.522  2.2758 -1.2447  1.8267
14771SOL    HW250660   7.108   2.240   7.434 -0.8779  0.3203 -0.2731
14772SOL     OW50661   5.843   8.569   2.225  0.4363 -0.0718  0.8768
14772SOL    HW150662   5.884   8.597   2.143  0.8371 -2.6207  0.1123
14772SOL    HW250663   5.749   8.573   2.207  0.5234 -1.7080 -0.1856
14773SOL     OW50664   4.500   4.972   1.529 -0.6683 -0.2681 -0.1622
14773SOL    HW150665   4.550   5.037   1.579 -0.9837  0.8376 -1.2282
14773SOL    HW250666   4.547   4.890   1.544  1.4410  0.6884 -0.9972
14774SOL     OW50667   2.575   3.890   6.593 -0.1741  0.0258 -0.3841
14774SOL    HW150668   2.637   3.928   6.655 -1.0438 -0.0972  0.5741
14774SOL    HW250669   2.495   3.940   6.604 -0.2687  0.1942 -1.6350
14775SOL     OW50670   1.459   5.074   6.529  0.2420  0.0027 -0.6507
14775SOL    HW150671   1.369   5.043   6.527  0.7395 -1.9613  1.8136
14775SOL    HW250672   1.456   5.157   6.577 -0.1777 -0.4637  0.1380
14776SOL     OW50673   3.310   6.028   2.347 -0.2783 -0.0340  0.5462
14776SOL    HW150674   3.292   6.005   2.438 -1.0574 -1.8502 -0.0071
14776SOL    HW250675   3.318   5.943   2.303 -0.9543  0.8016 -1.2722
14777SOL     OW50676   3.427   6.656   0.034  0.2968  0.5161  0.8170
14777SOL    HW150677   3.512   6.657   0.077  0.6466 -0.1402  0.1636
14777SOL    HW250678   3.372   6.714   0.087  1.7558  2.7717 -0.0016
14778SOL     OW50679   3.110   6.791   5.430 -0.2002 -0.5837  0.5095
14778SOL    HW150680   3.144   6.772   5.517 -2.6772 -2.3440  1.1876
14778SOL    HW250681   3.186   6.782   5.372  1.3085 -0.2247  2.3424
14779SOL     OW50682   1.662   4.474   4.886  0.4221 -0.0456  0.1629
14779SOL    HW150683   1.585   4.451   4.834 -1.1002  0.9361  1.8356
14779SOL    HW250684   1.722   4.514   4.824 -0.3457 -0.9414 -1.2183
14780SOL     OW50685   0.452   6.475   3.311  0.1335 -0.3839 -0.2467
14780SOL    HW150686   0.453   6.529   3.231 -0.0795 -0.1596 -0.0997
14780SOL    HW250687   0.405   6.396   3.286 -2.6947  0.9309  0.4418
14781SOL     OW50688   3.690   3.811   1.943  0.6514 -0.1923 -0.1587
14781SOL    HW150689   3.594   3.804   1.945  0.7441 -2.0756 -0.0561
14781SOL    HW250690   3.710   3.834   1.853  0.1064 -0.0151 -0.2397
14782SOL     OW50691   2.245   6.910   5.396  0.1830  0.0304  0.2175
14782SOL    HW150692   2.250   6.973   5.324 -0.0668 -0.7675 -0.5133
14782SOL    HW250693   2.226   6.826   5.354  0.7735 -0.5948  1.1384
14783SOL     OW50694   0.864   0.789   1.417 -0.4584 -0.0337 -0.7421
14783SOL    HW150695   0.813   0.840   1.480  0.3192  0.6717 -0.6702
14783SOL    HW250696   0.923   0.737   1.471 -1.0000 -0.7583 -0.8312
14784SOL     OW50697   4.041   1.690   5.457  0.1717  0.1366  0.3882
14784SOL    HW150698   4.033   1.596   5.475 -0.2335  0.1718  0.3979
14784SOL    HW250699   4.006   1.733   5.535 -0.9002  0.2890 -0.1561
14785SOL     OW50700   6.896   1.117   2.690 -0.2424 -0.1740  0.4242
14785SOL    HW150701   6.873   1.052   2.624  1.4135 -0.6697  0.2754
14785SOL    HW250702   6.889   1.069   2.773 -0.1143 -0.2142  0.4118
14786SOL     OW50703   3.268   2.092   1.127 -0.1532  0.2838 -0.1772
14786SOL    HW150704   3.304   2.177   1.104  1.5632 -0.7138 -1.4107
14786SOL    HW250705   3.176   2.110   1.147  0.3569  2.5282  0.4736
14787SOL     OW50706   8.088   5.148   5.213  0.2734 -0.3291 -0.1496
14787SOL    HW150707   8.115   5.187   5.130 -0.5260 -3.6555 -2.1755
14787SOL    HW250708   7.996   5.174   5.222  0.3268 -0.0542 -0.3728
14788SOL     OW50709   7.417   4.690   3.763  0.1355 -0.4011  0.2924
14788SOL    HW150710   7.375   4.609   3.736  1.3713 -0.9742  0.0452
14788SOL    HW250711   7.459   4.724   3.684 -1.1678  0.9983  0.1577
14789SOL     OW50712   5.082   2.640   4.321  0.0322 -0.1142 -0.0702
14789SOL    HW150713   5.164   2.603   4.353  0.2797  0.1335 -0.4040
14789SOL    HW250714   5.065   2.715   4.378  0.6723  0.5572 -0.7333
14790SOL     OW50715   3.419   7.850   9.239 -0.1281  0.2512  1.4237
14790SOL    HW150716   3.502   7.809   9.213 -1.9152 -3.0070  0.2294
14790SOL    HW250717   3.354   7.781   9.227 -3.2525  3.0246  1.0394
14791SOL     OW50718   4.927   1.357   2.008  0.1274 -0.6254 -0.2260
14791SOL    HW150719   4.950   1.372   1.916  1.2935 -0.8866  0.0107
14791SOL    HW250720   4.991   1.294   2.039  2.5970  2.5976  1.9369
14792SOL     OW50721   5.637   1.617   2.424 -0.6808 -0.8387  0.6560
14792SOL    HW150722   5.622   1.622   2.329  0.6511 -0.8461  0.4194
14792SOL    HW250723   5.570   1.556   2.456 -0.7449 -1.3373 -0.3817
14793SOL     OW50724   5.876   4.548   6.844  0.2313  0.3087  0.0239
14793SOL    HW150725   5.904   4.631   6.883  0.0230  0.0920  0.6574
14793SOL    HW250726   5.864   4.567   6.751 -0.6162  1.2013  0.2946
14794SOL     OW50727   5.461   3.377   0.415  0.2139 -0.3233  0.5585
14794SOL    HW150728   5.388   3.390   0.475 -0.8698  0.7978 -0.9064
14794SOL    HW250729   5.419   3.366   0.329  1.7414 -0.6739 -0.1746
14795SOL     OW50730   8.925   6.603   4.116 -0.5441  0.3730  0.3320
14795SOL    HW150731   9.011   6.563   4.127 -0.9361 -1.2644 -1.9919
14795SOL    HW250732   8.943   6.697   4.112  1.5154 -0.0232 -2.3967
14796SOL     OW50733   2.515   0.485   5.257  0.7775 -0.1650 -0.2042
14796SOL    HW150734   2.505   0.527   5.171 -0.7778  1.6139  0.7772
14796SOL    HW250735   2.444   0.521   5.310  0.4535 -2.7458  1.2802
14797SOL     OW50736   8.368   5.760   1.172 -0.6354  0.5971  0.4699
14797SOL    HW150737   8.440   5.806   1.214 -1.4862  1.8689  0.5953
14797SOL    HW250738   8.404   5.675   1.149  1.1839  1.5175 -0.2951
14798SOL     OW50739   6.644   2.605   6.298 -0.0398 -0.1862 -0.5945
14798SOL    HW150740   6.655   2.693   6.262 -0.1290 -0.3548 -1.0305
14798SOL    HW250741   6.603   2.555   6.228 -1.1170 -0.2619  0.0705
14799SOL     OW50742   0.276   4.935   5.324 -0.2917  0.6540  0.0934
14799SOL    HW150743   0.262   5.029   5.320 -0.6284  0.6980  1.5311
14799SOL    HW250744   0.218   4.906   5.395 -1.7287 -0.9384 -1.6294
14800SOL     OW50745   7.046   5.044   0.040 -0.2763 -0.1829 -0.6024
14800SOL    HW150746   7.086   5.042  -0.047  0.5800  0.5663 -0.2493
14800SOL    HW250747   6.958   5.079   0.026  0.2582  1.0492 -1.0449
14801SOL     OW50748   4.151   5.490   6.281 -0.5860  0.4165 -0.8093
14801SOL    HW150749   4.199   5.536   6.213 -1.4722  0.7878 -1.1977
14801SOL    HW250750   4.179   5.399   6.273  0.6647  0.7520 -0.4786
14802SOL     OW50751   7.765   6.497   8.140  0.2439  0.1803  0.4213
14802SOL    HW150752   7.822   6.568   8.168 -1.1108  1.0902  0.9955
14802SOL    HW250753   7.775   6.430   8.209 -0.2948  0.8657  1.1930
14803SOL     OW50754   3.166   0.728   6.829 -0.5691 -0.1168 -0.3600
14803SOL    HW150755   3.223   0.666   6.875 -0.6700  0.9372  1.2693
14803SOL    HW250756   3.077   0.704   6.858 -0.6475  0.4355 -0.1266
14804SOL     OW50757   8.050   2.618   2.927 -0.1652 -0.0028 -0.7363
14804SOL    HW150758   8.035   2.699   2.975  0.2193  0.4666 -1.3759
14804SOL    HW250759   8.094   2.561   2.989 -2.7950 -0.7248  0.5640
14805SOL     OW50760   2.006   1.378   4.541  0.1428  0.1383 -0.2515
14805SOL    HW150761   2.092   1.398   4.578  0.0935 -0.7559  0.3627
14805SOL    HW250762   1.947   1.440   4.583  0.2087 -0.3815  0.6262
14806SOL     OW50763   0.817   0.073   2.344 -0.0697 -0.1366  0.3172
14806SOL    HW150764   0.844  -0.008   2.388 -2.8016 -2.1398 -1.3504
14806SOL    HW250765   0.749   0.109   2.401  0.0095  0.1098  0.2570
14807SOL     OW50766   5.856   7.256   5.427 -0.1851 -0.7078  0.3198
14807SOL    HW150767   5.867   7.328   5.365  1.9555 -1.7711 -0.6594
14807SOL    HW250768   5.815   7.295   5.504  1.0921  1.5795 -0.0907
14808SOL     OW50769   3.461   0.371   8.460  0.3597  0.3361 -0.2993
14808SOL    HW150770   3.370   0.380   8.488  0.2347 -1.2120 -0.1286
14808SOL    HW250771   3.472   0.277   8.445  1.4764  0.6868 -1.8965
14809SOL     OW50772   7.687   3.986   8.430  0.5034  0.1650 -0.0347
14809SOL    HW150773   7.731   4.008   8.512 -0.7705  0.5753  0.5593
14809SOL    HW250774   7.634   4.063   8.410  0.2735 -0.2048 -0.8912
14810SOL     OW50775   1.612   2.300   6.727 -0.2727 -0.1324 -0.7945
14810SOL    HW150776   1.546   2.369   6.727 -0.7537 -0.4811  1.7853
14810SOL    HW250777   1.617   2.271   6.636 -4.5099 -0.8543 -1.0014
14811SOL     OW50778   1.171   1.846   5.413  0.6300  0.4823  0.3081
14811SOL    HW150779   1.127   1.777   5.363 -1.0102  1.1604  0.7406
14811SOL    HW250780   1.186   1.807   5.499 -0.5143  0.6991  0.6307
14812SOL     OW50781   8.933   0.656   3.102 -0.5186 -0.4527  0.4925
14812SOL    HW150782   8.923   0.734   3.157  0.0141 -0.4268  0.5646
14812SOL    HW250783   8.844   0.625   3.087 -0.6649 -0.6152  1.5955
14813SOL     OW50784   0.843   5.247   0.604  0.0686  0.1998  0.1031
14813SOL    HW150785   0.796   5.275   0.682 -0.3019 -1.8021  0.6595
14813SOL    HW250786   0.777   5.203   0.551  1.0534 -1.8068  0.4560
14814SOL     OW50787   1.029   6.634   5.138 -0.6874 -0.0842 -0.4410
14814SOL    HW150788   0.939   6.635   5.171 -0.3491  0.4786  0.5041
14814SOL    HW250789   1.069   6.712   5.176  0.2216 -0.3668 -0.7981
14815SOL     OW50790   1.920   3.987   4.534 -0.1992  0.3881  0.6773
14815SOL    HW150791   1.959   3.946   4.456  0.5704  0.3093  1.0926
14815SOL    HW250792   1.895   3.913   4.590  0.7494  0.4609  1.2153
14816SOL     OW50793   5.862   9.136   1.349 -0.0234  0.2012  0.1818
14816SOL    HW150794   5.953   9.109   1.333 -0.2563  0.3820 -1.7754
14816SOL    HW250795   5.844   9.200   1.280 -1.8053 -0.2614  0.1644
14817SOL     OW50796   7.569   1.893   7.640 -0.3759 -0.0715  0.3121
14817SOL    HW150797   7.499   1.957   7.626  1.2505  1.8240  0.4085
14817SOL    HW250798   7.630   1.908   7.569  0.3882 -1.0576  0.7369
14818SOL     OW50799   3.689   6.422   3.321  0.8070 -0.1360 -0.2698
14818SOL    HW150800   3.625   6.449   3.387  0.4655  0.0408 -0.6749
14818SOL    HW250801   3.773   6.447   3.359  0.6030  0.0876  0.0432
14819SOL     OW50802   7.503   9.232   1.601  0.2169 -0.0882  0.3262
14819SOL    HW150803   7.501   9.142   1.632 -0.3722 -0.0519  0.3961
14819SOL    HW250804   7.494   9.226   1.506  0.9452 -0.1388  0.2526
14820SOL     OW50805   1.138   7.781   8.376 -0.3035 -0.3276  0.1817
14820SOL    HW150806   1.210   7.786   8.438 -1.0726 -0.2867  1.1071
14820SOL    HW250807   1.146   7.695   8.336  0.4889 -0.1603 -0.0172
14821SOL     OW50808   3.388   0.958   7.882  0.2451  0.2072 -0.0779
14821SOL    HW150809   3.295   0.966   7.862  0.5810  0.5842 -1.6197
14821SOL    HW250810   3.399   0.866   7.908 -0.5076  0.1084 -0.0786
14822SOL     OW50811   5.366   0.847   7.060 -0.4767 -0.1598  0.1063
14822SOL    HW150812   5.355   0.760   7.022 -3.7951 -0.1360  0.7215
14822SOL    HW250813   5.305   0.903   7.013 -0.1487  1.2932  1.3049
14823SOL     OW50814   1.481   6.077   1.232 -0.5490 -0.4754  1.0143
14823SOL    HW150815   1.491   6.136   1.158  1.7620 -1.3592  0.5169
14823SOL    HW250816   1.472   6.135   1.308 -1.9610  0.4371  0.1951
14824SOL     OW50817   3.763   9.202   4.722  0.0157 -0.5115  0.0722
14824SOL    HW150818   3.793   9.220   4.633 -0.0699  0.4236  0.2208
14824SOL    HW250819   3.840   9.218   4.777 -0.3625  0.5858  0.3201
14825SOL     OW50820   8.001   2.584   5.408  0.3153  0.0265  0.4543
14825SOL    HW150821   7.990   2.514   5.472 -0.1005  1.2810  1.8120
14825SOL    HW250822   7.936   2.650   5.433  1.3710  1.3453 -0.1613
14826SOL     OW50823   6.637   4.523   8.598 -0.3677  0.4423  0.3262
14826SOL    HW150824   6.645   4.584   8.525  0.5115  1.4070  1.1914
14826SOL    HW250825   6.556   4.475   8.580 -0.3598  0.8947 -1.0833
14827SOL     OW50826   2.455   4.655   5.862 -0.2953 -0.4131  0.0280
14827SOL    HW150827   2.390   4.704   5.812 -0.9861 -1.7417 -0.4243
14827SOL    HW250828   2.507   4.609   5.797  1.4031  0.9309  0.3646
14828SOL     OW50829   3.271   1.884   3.672 -0.0808 -0.4694 -0.0876
14828SOL    HW150830   3.221   1.934   3.608  1.2506  0.2898 -0.5788
14828SOL    HW250831   3.277   1.943   3.748 -1.8766 -1.4655  0.8746
14829SOL     OW50832   4.395   4.238   6.155  0.4759 -0.0204 -0.0021
14829SOL    HW150833   4.463   4.211   6.217  0.6916 -1.2916 -0.7554
14829SOL    HW250834   4.319   4.183   6.178 -0.6077  1.9033  1.3208
14830SOL     OW50835   6.659   2.602   8.332  0.2855 -0.1592  0.1690
14830SOL    HW150836   6.712   2.533   8.371  2.1874  0.6754 -0.8170
14830SOL    HW250837   6.666   2.588   8.237 -1.2090  0.0342  0.0063
14831SOL     OW50838   3.225   5.896   3.658 -0.0065  0.2268  0.5452
14831SOL    HW150839   3.309   5.863   3.626 -0.3708  0.0405 -0.2616
14831SOL    HW250840   3.163   5.825   3.638 -0.9299  1.5459 -1.7552
14832SOL     OW50841   1.412   3.187   3.567 -0.1597 -0.3662  0.1110
14832SOL    HW150842   1.341   3.147   3.617 -0.4969 -0.1187 -0.1609
14832SOL    HW250843   1.447   3.255   3.624 -1.7366  1.1614 -0.6396
14833SOL     OW50844   5.781   6.883   4.980  0.1353 -0.3190 -0.2433
14833SOL    HW150845   5.818   6.801   5.014  2.0598  0.1000 -1.1881
14833SOL    HW250846   5.831   6.952   5.024 -0.2478  0.3036 -0.7751
14834SOL     OW50847   4.063   1.235   7.498 -0.0556  0.2013  0.1374
14834SOL    HW150848   3.997   1.301   7.481 -1.8975 -1.2534  1.3032
14834SOL    HW250849   4.134   1.283   7.542 -0.2904  1.7658 -1.0929
14835SOL     OW50850   9.163   0.184   1.371  0.4455  0.0912 -0.2121
14835SOL    HW150851   9.208   0.230   1.300  1.7562  0.3708  0.7479
14835SOL    HW250852   9.098   0.129   1.327  1.1697  0.3023 -1.6134
14836SOL     OW50853   3.226   7.220   9.105 -0.1170  0.0860  0.6229
14836SOL    HW150854   3.224   7.132   9.142  0.2543 -1.0308 -1.8034
14836SOL    HW250855   3.134   7.247   9.104 -0.0795  0.4997  2.9313
14837SOL     OW50856   6.765   7.250   8.604  0.2064  0.2305  0.5355
14837SOL    HW150857   6.792   7.236   8.514 -0.5892 -2.6744  0.6481
14837SOL    HW250858   6.847   7.264   8.652  0.6455  1.5788 -0.5505
14838SOL     OW50859   4.677   7.997   1.484  0.0521  0.1182  0.6846
14838SOL    HW150860   4.596   7.949   1.498  0.4809 -0.7906  0.1471
14838SOL    HW250861   4.652   8.089   1.491 -0.7753 -0.1744  1.7721
14839SOL     OW50862   7.573   0.819   7.072 -0.2639  0.2468  0.4143
14839SOL    HW150863   7.633   0.760   7.026 -0.9308  1.1335 -1.7110
14839SOL    HW250864   7.506   0.761   7.109 -0.5546 -0.4045 -1.0727
14840SOL     OW50865   3.278   8.333   8.339 -0.0680  0.1447 -0.0809
14840SOL    HW150866   3.271   8.420   8.299 -0.3982 -0.2471 -0.8850
14840SOL    HW250867   3.198   8.288   8.313  0.5582 -0.7406 -0.5078
14841SOL     OW50868   3.399   5.454   4.591 -0.0535 -0.0586 -0.1315
14841SOL    HW150869   3.422   5.500   4.510 -1.5086 -1.8157 -1.6496
14841SOL    HW250870   3.313   5.488   4.614 -0.3013 -0.6282 -0.1977
14842SOL     OW50871   7.623   4.572   8.873  0.0608 -0.4433 -0.7227
14842SOL    HW150872   7.649   4.500   8.815  3.1731 -0.9131  1.0324
14842SOL    HW250873   7.617   4.648   8.815  0.8131 -1.3103 -2.0041
14843SOL     OW50874   4.765   5.073   7.542  0.9680 -0.2429 -0.1939
14843SOL    HW150875   4.750   5.164   7.568  2.1456  0.5104 -2.0165
14843SOL    HW250876   4.718   5.064   7.459 -1.1468 -2.0470  1.0982
14844SOL     OW50877   7.828   7.562   5.690 -0.2094 -0.4461 -0.2716
14844SOL    HW150878   7.825   7.577   5.595  1.6723  1.1275 -0.1621
14844SOL    HW250879   7.862   7.645   5.725 -0.1937 -1.2545  1.7040
14845SOL     OW50880   1.842   8.236   7.372 -0.8495  0.0877 -0.5919
14845SOL    HW150881   1.806   8.285   7.446  1.5539  0.8162  0.1831
14845SOL    HW250882   1.833   8.295   7.297  0.9883  1.3416  0.1117
14846SOL     OW50883   0.511   5.913   1.927  0.9051 -0.7265  0.1061
14846SOL    HW150884   0.498   5.986   1.867  1.6645 -0.0699  0.7152
14846SOL    HW250885   0.464   5.840   1.887  0.3977  0.0108 -0.6714
14847SOL     OW50886   1.930   0.869   7.147  0.3330  0.0186  0.3241
14847SOL    HW150887   1.945   0.878   7.241  2.5817 -0.7593  0.0767
14847SOL    HW250888   1.908   0.777   7.134  1.7160 -0.2799 -0.0777
14848SOL     OW50889   2.241   5.350   9.071  0.5779 -0.1193  0.6074
14848SOL    HW150890   2.228   5.320   9.161  0.1610  2.0782  1.3379
14848SOL    HW250891   2.310   5.416   9.077 -0.1012  0.7364 -0.5192
14849SOL     OW50892   1.125   9.195   6.327 -0.1080  0.3121  0.1131
14849SOL    HW150893   1.049   9.139   6.340  1.1050 -1.2889  0.5952
14849SOL    HW250894   1.175   9.151   6.258  0.9276  0.7407  0.5782
14850SOL     OW50895   2.038   1.420   2.438 -0.3806  0.6773  0.4130
14850SOL    HW150896   2.059   1.367   2.361 -0.9836 -0.5270  1.0477
14850SOL    HW250897   2.121   1.458   2.465  0.4017 -1.3256  0.9460
14851SOL     OW50898   1.960   5.959   7.236  0.6125 -0.4799 -0.4085
14851SOL    HW150899   1.964   5.863   7.232 -1.2502 -0.5750 -0.8776
14851SOL    HW250900   2.034   5.983   7.291  0.9947 -2.2019 -0.0865
14852SOL     OW50901   5.699   5.105   2.258  0.0115  0.3729  0.0877
14852SOL    HW150902   5.632   5.062   2.205  1.2862 -0.2327 -1.0764
14852SOL    HW250903   5.735   5.035   2.313  1.4864  0.0662 -1.1918
14853SOL     OW50904   6.839   5.159   6.271 -0.2013  0.3255 -0.0035
14853SOL    HW150905   6.756   5.186   6.231 -0.3048  0.8550  0.5560
14853SOL    HW250906   6.828   5.177   6.365  0.8179  1.1051 -0.0173
14854SOL     OW50907   0.031   3.358   8.943  0.2801  0.1158 -0.6261
14854SOL    HW150908   0.118   3.389   8.969  0.4302 -1.1516  0.4870
14854SOL    HW250909  -0.007   3.321   9.023 -1.3715  0.8012 -1.0490
14855SOL     OW50910   7.221   5.314   2.987  0.0806  0.2532  0.4148
14855SOL    HW150911   7.309   5.346   3.010  0.5283  0.0498 -0.9100
14855SOL    HW250912   7.229   5.219   2.990 -0.7412  0.2120  2.5254
14856SOL     OW50913   3.014   4.348   9.058  0.0122 -0.2426 -0.0599
14856SOL    HW150914   3.017   4.272   9.115  0.0430 -2.4208 -2.7688
14856SOL    HW250915   3.049   4.318   8.975 -0.0673  2.7311 -1.3165
14857SOL     OW50916   1.612   1.840   0.405  0.3579 -0.0250 -0.1568
14857SOL    HW150917   1.704   1.859   0.388  0.8232 -1.3587  0.6454
14857SOL    HW250918   1.606   1.744   0.401 -0.9734  0.0284 -0.0871
14858SOL     OW50919   0.628   3.379   3.572 -0.0523 -0.2766 -0.3323
14858SOL    HW150920   0.548   3.355   3.620 -0.3559  0.1552 -0.6099
14858SOL    HW250921   0.676   3.436   3.632 -0.7634  0.8306 -0.7735
14859SOL     OW50922   5.955   5.938   9.140 -0.1911  0.1921  0.6632
14859SOL    HW150923   5.887   6.000   9.112  2.3828  2.1808 -1.6967
14859SOL    HW250924   5.996   5.908   9.058  1.7373 -0.9889  1.9748
14860SOL     OW50925   4.438   8.592   6.906 -0.0038 -0.3624 -0.5574
14860SOL    HW150926   4.405   8.679   6.930 -1.5752 -1.0971  0.1052
14860SOL    HW250927   4.359   8.538   6.901  1.0822 -2.1272  0.5708
14861SOL     OW50928   9.107   5.635   8.150 -0.6331 -0.2504 -0.7751
14861SOL    HW150929   9.133   5.613   8.061 -1.2481  1.7512 -1.5057
14861SOL    HW250930   9.048   5.710   8.140 -1.7293 -0.7562  1.2363
14862SOL     OW50931   0.325   8.747   5.723 -0.2830  0.1638 -0.2013
14862SOL    HW150932   0.344   8.835   5.688 -0.1283  0.3782  0.4135
14862SOL    HW250933   0.285   8.701   5.650  0.2570  0.5327 -0.7405
14863SOL     OW50934   4.707   5.516   7.383 -0.0027  0.5665  0.4805
14863SOL    HW150935   4.631   5.572   7.367 -0.4731 -0.4246 -0.8986
14863SOL    HW250936   4.778   5.556   7.333 -0.6257 -0.6324 -1.4817
14864SOL     OW50937   3.595   3.729   1.329 -0.5690  0.5069 -0.4027
14864SOL    HW150938   3.511   3.717   1.374 -0.3868  1.6596  0.3116
14864SOL    HW250939   3.626   3.640   1.312  0.1075 -0.1134  3.2542
14865SOL     OW50940   1.717   3.051   1.820  0.1053 -0.0898  0.5684
14865SOL    HW150941   1.683   3.123   1.873  1.5818  1.1619 -0.1216
14865SOL    HW250942   1.665   3.053   1.740  0.7956  0.8642  0.1331
14866SOL     OW50943   0.726   3.199   7.555 -0.4119 -0.2219  0.0783
14866SOL    HW150944   0.645   3.193   7.604  0.1353  2.6127  1.5855
14866SOL    HW250945   0.708   3.264   7.487  0.3922 -0.0659  0.0025
14867SOL     OW50946   6.281   6.616   6.554 -0.4750  0.7849  0.4568
14867SOL    HW150947   6.333   6.554   6.606 -0.6755  1.2764  1.2615
14867SOL    HW250948   6.208   6.640   6.611 -2.2812 -0.7626 -1.0586
14868SOL     OW50949   7.411   0.510   9.054 -0.1157 -0.3446  0.3159
14868SOL    HW150950   7.436   0.495   9.145  1.7627 -1.1678 -0.2725
14868SOL    HW250951   7.452   0.437   9.006 -0.4155  0.4853 -1.2700
14869SOL     OW50952   2.124   7.932   1.602  0.4175  0.1937 -0.2492
14869SOL    HW150953   2.114   7.995   1.673 -0.4219 -1.1939  0.8944
14869SOL    HW250954   2.038   7.891   1.594  0.2833  0.7548 -2.5330
14870SOL     OW50955   4.408   0.558   1.989 -0.2572  0.8479 -0.2330
14870SOL    HW150956   4.483   0.606   1.953 -0.5457  1.5779  0.1132
14870SOL    HW250957   4.385   0.494   1.921  0.6048  0.6871 -0.3888
14871SOL     OW50958   0.470   4.453   9.040  0.0248 -0.3462  0.7977
14871SOL    HW150959   0.470   4.548   9.056  1.2777 -0.1892  0.0192
14871SOL    HW250960   0.562   4.432   9.024 -0.3218 -1.6009  0.3933
14872SOL     OW50961   6.545   6.146   2.965  0.6801  0.1317  0.6232
14872SOL    HW150962   6.464   6.123   2.919  1.6926  0.9358 -1.7044
14872SOL    HW250963   6.601   6.184   2.898  2.9451 -0.2014  2.2023
14873SOL     OW50964   0.739   6.977   7.036  0.1604 -0.5115 -0.1585
14873SOL    HW150965   0.702   6.916   6.974  1.2793 -0.6661 -0.7001
14873SOL    HW250966   0.697   6.955   7.120 -1.8164  0.1050 -0.9318
14874SOL     OW50967   6.540   2.109   0.471 -0.5923 -0.4401  0.1047
14874SOL    HW150968   6.473   2.173   0.445  0.6349  1.4749  1.3858
14874SOL    HW250969   6.617   2.132   0.419 -0.0493 -0.6926  0.7844
14875SOL     OW50970   7.560   0.265   5.057  0.2785 -0.8012 -0.3003
14875SOL    HW150971   7.587   0.350   5.092  1.7127 -0.4799 -2.0210
14875SOL    HW250972   7.587   0.202   5.124  1.8937 -0.1144 -0.2470
14876SOL     OW50973   8.543   7.895   5.986 -0.0623 -0.2681 -0.3884
14876SOL    HW150974   8.621   7.898   5.931  0.4656 -2.5062  0.1618
14876SOL    HW250975   8.567   7.944   6.064  0.6821 -0.6597 -0.3632
14877SOL     OW50976   1.942   3.033   1.586  0.4118  0.5925  0.2811
14877SOL    HW150977   1.863   2.991   1.552  0.3347 -0.4126  1.6071
14877SOL    HW250978   1.921   3.127   1.588 -2.1415  0.1497  3.7777
14878SOL     OW50979   7.541   8.166   6.542 -0.0762  0.4177  0.4106
14878SOL    HW150980   7.496   8.240   6.583  3.3299  2.7290  0.3438
14878SOL    HW250981   7.580   8.203   6.462  1.6983 -1.4491  0.3303
14879SOL     OW50982   4.435   2.779   8.424 -0.3386  0.5427 -0.1583
14879SOL    HW150983   4.528   2.780   8.445 -0.3918 -0.5459  0.1640
14879SOL    HW250984   4.401   2.702   8.469 -0.8165 -0.8756 -2.7540
14880SOL     OW50985   3.743   9.049   7.854 -0.0270  0.4827  0.2480
14880SOL    HW150986   3.785   9.096   7.781 -0.1203  0.9632  0.5051
14880SOL    HW250987   3.808   9.052   7.924  0.5010 -0.9000 -0.1476
14881SOL     OW50988   6.193   4.208   4.244 -0.1539 -0.3312 -0.3517
14881SOL    HW150989   6.175   4.224   4.336  2.4431  0.2841  0.1186
14881SOL    HW250990   6.285   4.184   4.241 -0.2513 -0.6665 -2.7753
14882SOL     OW50991   5.978   0.570   0.714  0.6251 -0.1507  0.1101
14882SOL    HW150992   5.985   0.664   0.697  1.8673 -0.2414  0.0193
14882SOL    HW250993   5.952   0.564   0.806 -0.7202  0.2715 -0.2079
14883SOL     OW50994   9.092   6.552   3.742 -0.5300  0.0444 -0.3774
14883SOL    HW150995   9.076   6.646   3.735 -0.7795  0.2450  1.9627
14883SOL    HW250996   9.187   6.544   3.748 -0.4484  0.0340 -1.4574
14884SOL     OW50997   5.719   8.326   8.669 -0.0968  0.0971 -0.2732
14884SOL    HW150998   5.659   8.287   8.733 -0.5906  0.7854 -0.3131
14884SOL    HW250999   5.778   8.254   8.645 -0.7419 -0.5202 -0.0413
14885SOL     OW51000   2.984   8.401   8.643 -0.2615  0.4842 -0.0489
14885SOL    HW151001   3.008   8.309   8.655 -0.0444  0.4178 -0.9174
14885SOL    HW251002   2.950   8.428   8.728  0.7237 -0.0791  0.5373
14886SOL     OW51003   1.732   8.455   7.551  0.9818 -0.2555 -0.1629
14886SOL    HW151004   1.764   8.439   7.639  1.5738 -2.1143 -0.6745
14886SOL    HW251005   1.809   8.484   7.502  0.7318  0.4124 -0.1811
14887SOL     OW51006   8.739   0.349   5.667  0.0090 -0.7420  0.0177
14887SOL    HW151007   8.647   0.323   5.670 -0.0740 -0.7146 -1.4915
14887SOL    HW251008   8.739   0.431   5.618  1.0805 -2.2715 -2.8172
14888SOL     OW51009   2.761   3.617   5.465  0.1919 -0.0227 -0.2326
14888SOL    HW151010   2.745   3.648   5.554 -0.4073 -0.3839 -0.2075
14888SOL    HW251011   2.855   3.632   5.450  0.1256  0.8194  0.1463
14889SOL     OW51012   2.979   6.329   4.567  0.2750  0.9275 -0.2195
14889SOL    HW151013   3.006   6.378   4.645  1.7508  1.9776 -1.3278
14889SOL    HW251014   3.061   6.306   4.523 -0.4556 -1.1149 -0.6288
14890SOL     OW51015   1.230   7.883   5.148  0.1209  0.2418 -0.4962
14890SOL    HW151016   1.193   7.908   5.063  0.6369  2.8492 -0.0669
14890SOL    HW251017   1.227   7.788   5.150 -2.7943  0.2035 -2.1312
14891SOL     OW51018   7.534   3.228   2.996 -0.2909 -0.3239 -0.2863
14891SOL    HW151019   7.447   3.214   2.958  0.1280 -1.4070 -0.8697
14891SOL    HW251020   7.587   3.156   2.963  0.5885 -0.2316  0.8433
14892SOL     OW51021   2.581   1.778   5.075 -0.8584  0.6015 -0.0120
14892SOL    HW151022   2.511   1.715   5.087 -1.3683  0.8518 -1.4141
14892SOL    HW251023   2.660   1.725   5.063 -0.5519  0.3359  2.7257
14893SOL     OW51024   7.377   8.682   6.608 -0.2312 -0.2873 -0.0001
14893SOL    HW151025   7.287   8.678   6.640 -0.0613  0.2653  0.5575
14893SOL    HW251026   7.431   8.696   6.686  0.3477 -0.6535 -0.3219
14894SOL     OW51027   8.331   1.084   3.533 -0.6869  0.1448  0.4979
14894SOL    HW151028   8.364   1.024   3.600 -2.8542 -1.4180  0.2817
14894SOL    HW251029   8.296   1.026   3.465  0.3146  1.6927 -1.4459
14895SOL     OW51030   0.413   4.557   8.228 -0.0145  0.4623  0.2660
14895SOL    HW151031   0.438   4.550   8.320 -2.1629  1.3397  0.9735
14895SOL    HW251032   0.325   4.520   8.223  0.4844 -0.6330 -1.7016
14896SOL     OW51033   4.043   1.295   3.779 -0.3750 -0.0593  0.0391
14896SOL    HW151034   4.017   1.236   3.708  0.2620  0.2706 -0.4802
14896SOL    HW251035   3.971   1.358   3.785 -0.1679  0.2574 -0.7155
14897SOL     OW51036   5.005   7.673   1.475 -0.0114  0.5796 -0.1399
14897SOL    HW151037   5.040   7.618   1.405  0.4548 -0.5060  0.9119
14897SOL    HW251038   5.072   7.672   1.543 -1.7921 -1.2258  1.7568
14898SOL     OW51039   0.096   8.697   8.550 -0.0639 -0.5754 -0.3932
14898SOL    HW151040   0.127   8.780   8.515  1.0136 -1.0969 -0.6986
14898SOL    HW251041   0.000   8.706   8.552  0.0791  1.4106  1.4341
14899SOL     OW51042   5.440   4.218   6.317 -0.3118 -0.2231 -0.1251
14899SOL    HW151043   5.386   4.256   6.386 -2.3014 -0.8193 -1.2897
14899SOL    HW251044   5.507   4.169   6.364 -0.9879  0.2481  1.3842
14900SOL     OW51045   4.408   2.578   0.815  0.0343  0.1063 -0.1180
14900SOL    HW151046   4.401   2.544   0.904 -0.5718  0.0584 -0.1794
14900SOL    HW251047   4.502   2.574   0.795  0.1204 -0.3099  0.3504
14901SOL     OW51048   2.411   8.874   2.455 -0.1877 -0.2240  0.2090
14901SOL    HW151049   2.350   8.927   2.405  0.0023  2.2662  2.3478
14901SOL    HW251050   2.356   8.815   2.506 -0.5485 -0.5871 -0.5879
14902SOL     OW51051   0.016   7.125   3.841 -0.2243 -0.2794 -0.3765
14902SOL    HW151052   0.050   7.075   3.766  0.9481  0.6250 -0.4753
14902SOL    HW251053   0.014   7.062   3.913  0.3850 -0.6974 -0.7157
14903SOL     OW51054   3.688   4.898   0.022  0.1149  0.4740 -0.2426
14903SOL    HW151055   3.706   4.806   0.001 -1.6374  0.0494 -0.0579
14903SOL    HW251056   3.626   4.894   0.095  0.5382  1.8227  0.2182
14904SOL     OW51057   3.051   0.150   8.089  0.1754  0.2151  0.3119
14904SOL    HW151058   2.960   0.132   8.065  0.7069  1.0444 -2.7326
14904SOL    HW251059   3.087   0.065   8.115 -0.8324 -0.6176 -0.9061
14905SOL     OW51060   6.907   2.708   2.839 -0.7321  0.0657  0.2664
14905SOL    HW151061   6.906   2.674   2.750  0.4940  1.1251 -0.1838
14905SOL    HW251062   6.896   2.631   2.895 -0.3475 -0.7536 -0.7637
14906SOL     OW51063   3.353   0.722   2.941 -0.3193 -0.1481 -0.4259
14906SOL    HW151064   3.407   0.724   2.862  0.4016 -0.6778  0.0413
14906SOL    HW251065   3.265   0.744   2.910 -0.3401 -1.7138 -1.6098
14907SOL     OW51066   6.570   8.764   8.774 -0.0035 -0.0029 -0.1271
14907SOL    HW151067   6.483   8.731   8.753  0.5128 -0.9212 -0.9812
14907SOL    HW251068   6.622   8.684   8.787  0.4258  0.5391  1.6455
14908SOL     OW51069   5.211   7.422   9.212  0.7383  0.4318 -0.1139
14908SOL    HW151070   5.149   7.349   9.216  0.3155  0.6939 -1.4916
14908SOL    HW251071   5.157   7.500   9.226  1.3420  0.4993  2.5252
14909SOL     OW51072   1.481   7.769   4.368 -0.2016  0.0711  0.0789
14909SOL    HW151073   1.403   7.822   4.386  0.4516  1.0619  0.0909
14909SOL    HW251074   1.538   7.827   4.317  0.5138 -0.6433  0.0468
14910SOL     OW51075   8.791   6.949   6.694 -0.1463 -0.7001 -0.3040
14910SOL    HW151076   8.805   7.001   6.615 -0.9250 -0.9713 -0.6298
14910SOL    HW251077   8.872   6.959   6.744 -0.2778  0.8532 -0.3438
14911SOL     OW51078   0.742   7.978   4.020  0.4204  0.0849  0.1838
14911SOL    HW151079   0.809   7.953   3.957  0.5203  0.2585  0.2207
14911SOL    HW251080   0.659   7.963   3.975  0.4671 -0.7288  0.3568
14912SOL     OW51081   4.035   3.091   3.058  0.3685  0.0475  0.1238
14912SOL    HW151082   3.985   3.158   3.104  1.2727  0.4242  0.5648
14912SOL    HW251083   3.986   3.010   3.074 -2.1534  0.8918 -2.4657
14913SOL     OW51084   8.475   3.657   8.814  0.1908 -0.1696 -0.4415
14913SOL    HW151085   8.541   3.589   8.827  0.3156  0.2289  1.2058
14913SOL    HW251086   8.400   3.627   8.865  1.1686  2.1055  2.6511
14914SOL     OW51087   3.965   6.769   1.176 -0.1310  0.3394 -0.2944
14914SOL    HW151088   3.908   6.843   1.157  0.3587  1.6154  2.6373
14914SOL    HW251089   3.917   6.716   1.239  1.2163  0.5255  0.9402
14915SOL     OW51090   0.801   7.553   9.149 -0.7443 -0.1907  0.1144
14915SOL    HW151091   0.759   7.634   9.176  0.6125  0.2339  1.0960
14915SOL    HW251092   0.885   7.581   9.112 -1.7610 -0.8987 -3.0432
14916SOL     OW51093   4.976   9.159   4.712  0.2088 -0.3578  0.0072
14916SOL    HW151094   5.070   9.169   4.728  0.0426 -0.7396  1.3631
14916SOL    HW251095   4.966   9.169   4.618  1.2810  2.3746  0.0765
14917SOL     OW51096   8.346   1.064   5.801  0.1137 -0.1439 -0.5189
14917SOL    HW151097   8.440   1.070   5.818  0.2836 -0.6310 -1.2152
14917SOL    HW251098   8.305   1.084   5.884  0.8533 -0.4618 -0.0672
14918SOL     OW51099   3.460   4.571   0.025  0.4638 -0.2638 -0.1699
14918SOL    HW151100   3.443   4.649   0.079 -1.8532  0.6555 -2.1041
14918SOL    HW251101   3.551   4.582  -0.003  0.5194  1.1757  0.4662
14919SOL     OW51102   8.869   1.659   7.665 -0.0450  0.0371  0.1448
14919SOL    HW151103   8.890   1.742   7.623  0.9072  1.0506  2.4397
14919SOL    HW251104   8.775   1.665   7.685  0.1907  0.9562  1.0388
14920SOL     OW51105   0.439   7.626   1.010  0.3390  0.6428 -0.1606
14920SOL    HW151106   0.485   7.615   0.926 -0.2836 -0.5651 -0.3754
14920SOL    HW251107   0.391   7.708   1.000 -0.5211  0.0352 -1.4117
14921SOL     OW51108   3.382   1.397   7.331  0.0743 -0.0122 -0.2258
14921SOL    HW151109   3.378   1.430   7.421  2.0122  0.0248 -0.1190
14921SOL    HW251110   3.325   1.320   7.332  0.8228 -0.5954  1.3081
14922SOL     OW51111   0.642   2.837   4.360  0.0138  0.0362  0.2574
14922SOL    HW151112   0.556   2.795   4.355  0.1926 -0.3959  0.7076
14922SOL    HW251113   0.695   2.776   4.412  0.6727  0.1631 -0.2553
14923SOL     OW51114   7.649   5.311   0.789 -0.0535  0.0502  0.4957
14923SOL    HW151115   7.664   5.333   0.697 -0.1083  0.1213  0.5039
14923SOL    HW251116   7.713   5.242   0.808  1.8039  1.8252  1.1315
14924SOL     OW51117   5.804   4.720   4.263  0.1837 -0.2462 -0.1479
14924SOL    HW151118   5.747   4.763   4.199  0.6344 -1.3178 -1.2865
14924SOL    HW251119   5.850   4.792   4.306  0.4834  0.4530 -1.6035
14925SOL     OW51120   7.633   2.053   6.427 -0.1996 -0.5091  1.0269
14925SOL    HW151121   7.626   2.110   6.504 -0.4176  0.9660 -0.0485
14925SOL    HW251122   7.727   2.047   6.409 -0.2533  0.9983  0.1042
14926SOL     OW51123   8.188   0.546   1.617  0.3379  0.1370 -0.6414
14926SOL    HW151124   8.144   0.503   1.543 -0.2529 -1.1583  0.4050
14926SOL    HW251125   8.117   0.564   1.679  1.0727 -0.6181  0.4494
14927SOL     OW51126   1.219   2.994   5.226 -0.0687  0.3099  0.0401
14927SOL    HW151127   1.188   2.903   5.222 -0.7048  0.5026  0.3973
14927SOL    HW251128   1.162   3.036   5.291 -0.5854  1.2780 -1.0084
14928SOL     OW51129   1.625   5.628   4.108  0.1461 -0.4784 -0.3209
14928SOL    HW151130   1.704   5.681   4.097  1.6961 -2.9508 -1.8871
14928SOL    HW251131   1.620   5.575   4.029 -1.7991 -2.0435  0.7619
14929SOL     OW51132   0.389   9.009   3.105 -0.2096  0.0531  0.1968
14929SOL    HW151133   0.402   9.047   3.018 -1.1959 -0.1921 -0.0698
14929SOL    HW251134   0.347   9.078   3.156  0.9380  0.4170  0.6821
14930SOL     OW51135   0.525   4.798   1.606  0.1610  0.3919  0.0230
14930SOL    HW151136   0.457   4.855   1.642 -0.5559 -0.4035 -0.0523
14930SOL    HW251137   0.603   4.821   1.656 -0.5222  0.2099  1.2114
14931SOL     OW51138   5.925   8.148   6.509  0.2511 -0.1272 -0.1146
14931SOL    HW151139   5.893   8.218   6.566  2.9706 -0.0563  1.5263
14931SOL    HW251140   5.976   8.193   6.441 -3.6560 -0.1396 -3.4074
14932SOL     OW51141   5.644   4.806   7.904  0.1056 -0.3596  0.1490
14932SOL    HW151142   5.632   4.839   7.814 -0.5851 -2.5679 -0.6303
14932SOL    HW251143   5.568   4.840   7.952  0.4599  0.8076 -0.0878
14933SOL     OW51144   8.167   8.326   7.846 -0.4405  0.1292  0.5487
14933SOL    HW151145   8.188   8.408   7.890  1.0239 -0.4162  0.9329
14933SOL    HW251146   8.227   8.262   7.885  0.8466 -0.4074 -2.0944
14934SOL     OW51147   6.747   6.658   4.176  0.0197  0.8388  0.2523
14934SOL    HW151148   6.661   6.700   4.180  0.1344  1.0108  0.9648
14934SOL    HW251149   6.757   6.633   4.084 -1.8604 -1.4330  0.5811
14935SOL     OW51150   3.752   2.406   1.047  0.2709  0.1243  0.5676
14935SOL    HW151151   3.843   2.382   1.029  0.3391  0.9813 -0.2985
14935SOL    HW251152   3.739   2.487   0.998 -1.4088 -0.7868 -0.5775
14936SOL     OW51153   1.462   5.326   7.096  0.1138 -0.4347  0.0917
14936SOL    HW151154   1.438   5.304   7.186  2.1442 -2.0172  0.3199
14936SOL    HW251155   1.545   5.280   7.081  0.6105  0.9982 -2.1013
14937SOL     OW51156   7.797   4.214   4.986 -1.0006  0.5216  0.0858
14937SOL    HW151157   7.744   4.173   5.054 -0.5800  0.0127  0.1148
14937SOL    HW251158   7.785   4.157   4.909  1.8676 -1.4324  0.8952
14938SOL     OW51159   6.776   0.904   5.654  0.1931  0.1190  0.5076
14938SOL    HW151160   6.717   0.979   5.660 -1.2971 -0.7325 -1.8807
14938SOL    HW251161   6.813   0.909   5.566  0.6082 -1.5319  0.5525
14939SOL     OW51162   0.637   9.105   1.746 -0.6539 -0.3428  0.0387
14939SOL    HW151163   0.623   9.039   1.678  0.1489 -0.1108 -0.3591
14939SOL    HW251164   0.668   9.055   1.822  1.9394 -0.2558 -0.8830
14940SOL     OW51165   3.337   0.556   1.269  0.3391 -0.1204  0.4494
14940SOL    HW151166   3.248   0.523   1.285  0.1595  0.5112  0.7795
14940SOL    HW251167   3.389   0.477   1.255 -0.5343 -0.4598 -1.1959
14941SOL     OW51168   0.575   0.848   8.921 -0.4391  0.1622  0.0599
14941SOL    HW151169   0.616   0.765   8.893 -1.7098 -0.2770 -0.5522
14941SOL    HW251170   0.603   0.911   8.856 -1.5136 -0.3586 -0.9376
14942SOL     OW51171   4.771   9.195   7.821  0.2104  0.2569 -0.0305
14942SOL    HW151172   4.852   9.167   7.863 -0.0010  0.3151  0.4311
14942SOL    HW251173   4.727   9.114   7.796  0.4438  0.2262 -0.3511
14943SOL     OW51174   7.180   0.001   6.525 -0.2211 -0.4612  0.4333
14943SOL    HW151175   7.092  -0.024   6.553 -0.1975 -0.6883  0.3070
14943SOL    HW251176   7.167   0.083   6.477 -0.7159 -1.6781 -1.6708
14944SOL     OW51177   5.571   3.214   7.360 -0.1231  0.6240 -0.2498
14944SOL    HW151178   5.540   3.238   7.273  0.1231  0.1849 -0.4630
14944SOL    HW251179   5.505   3.155   7.394 -0.7482  1.6081  0.2902
14945SOL     OW51180   5.422   8.946   0.030 -0.4656 -0.2606  1.0347
14945SOL    HW151181   5.436   8.959   0.124 -0.4670 -3.4488  1.5687
14945SOL    HW251182   5.330   8.923   0.021 -1.3269  3.0756 -0.2647
14946SOL     OW51183   4.647   4.602   7.116  0.5998 -0.1465 -0.1173
14946SOL    HW151184   4.617   4.682   7.158 -0.1493 -0.1469 -0.6301
14946SOL    HW251185   4.569   4.565   7.075  0.7873 -1.5426  0.7378
14947SOL     OW51186   3.219   4.769   3.516 -0.2320 -0.0250  0.4792
14947SOL    HW151187   3.159   4.744   3.446  0.7623 -0.9914 -0.0539
14947SOL    HW251188   3.162   4.803   3.585 -1.3160 -0.0941 -0.3508
14948SOL     OW51189   9.007   5.056   1.128  0.3370 -0.4751  0.2143
14948SOL    HW151190   9.090   5.076   1.086  0.6711 -2.0725  0.0269
14948SOL    HW251191   9.029   4.991   1.195 -0.7165 -0.7365  0.3331
14949SOL     OW51192   0.126   3.032   2.657 -0.1461 -0.3871 -0.1626
14949SOL    HW151193   0.220   3.012   2.654 -0.0777 -0.6110  1.9903
14949SOL    HW251194   0.121   3.116   2.703 -1.0563 -1.4515  1.8293
14950SOL     OW51195   1.084   2.148   2.001 -0.1993 -0.2207  0.2582
14950SOL    HW151196   1.032   2.208   1.946 -0.8710  0.5627  1.6715
14950SOL    HW251197   1.117   2.204   2.072  0.2717 -1.2744  0.8913
14951SOL     OW51198   8.051   9.070   1.070 -0.4419 -0.4329 -0.7003
14951SOL    HW151199   8.146   9.076   1.056 -0.3833  0.1243 -0.1232
14951SOL    HW251200   8.042   9.023   1.153 -0.6417  0.1626 -0.3765
14952SOL     OW51201   3.257   0.241   2.601  0.1465  0.0786  0.3166
14952SOL    HW151202   3.182   0.275   2.554 -0.2453  0.0725  0.9247
14952SOL    HW251203   3.225   0.164   2.646  0.2846  0.5560  1.2708
14953SOL     OW51204   6.836   1.995   4.036 -0.2949  0.3703  0.8095
14953SOL    HW151205   6.802   2.056   4.101 -0.6621  0.4611  0.5390
14953SOL    HW251206   6.758   1.962   3.991  0.0331  2.5303 -1.5834
14954SOL     OW51207   2.392   7.462   5.173 -0.2963 -0.1264  1.0670
14954SOL    HW151208   2.323   7.413   5.218  0.3329 -4.0197 -1.7040
14954SOL    HW251209   2.467   7.404   5.174  1.7933  2.4014  0.6254
14955SOL     OW51210   7.576   3.956   6.955  0.3574  0.6056 -0.0767
14955SOL    HW151211   7.552   4.045   6.930  0.3986  0.9104  0.9250
14955SOL    HW251212   7.541   3.945   7.043 -0.8125 -0.8392 -0.6807
14956SOL     OW51213   4.032   1.453   1.116 -0.2066  0.4061 -0.0102
14956SOL    HW151214   4.002   1.384   1.175  2.0907 -0.3919  0.3039
14956SOL    HW251215   4.014   1.418   1.028  0.2120 -0.2772  0.1627
14957SOL     OW51216   4.087   0.645   6.241  0.5113  0.0961  0.2146
14957SOL    HW151217   4.101   0.659   6.334  0.7219 -0.4591  0.2684
14957SOL    HW251218   4.048   0.727   6.210  0.6639  0.3709  0.7405
14958SOL     OW51219   6.009   1.553   7.351  0.2365  0.0133 -0.7358
14958SOL    HW151220   6.044   1.519   7.268  1.0894  0.7047 -0.6752
14958SOL    HW251221   6.083   1.600   7.390 -0.4206  0.4457  0.0001
14959SOL     OW51222   6.097   8.182   8.267 -0.4724  0.2571 -0.7367
14959SOL    HW151223   6.015   8.145   8.236 -0.1011 -0.3513 -0.9950
14959SOL    HW251224   6.106   8.148   8.356 -0.3789  0.1305 -0.7948
14960SOL     OW51225   3.580   9.117   0.605 -0.0059 -0.7112 -0.2672
14960SOL    HW151226   3.559   9.026   0.585  0.1909 -1.0941  1.1898
14960SOL    HW251227   3.621   9.115   0.691  2.1086  0.5134 -1.1606
14961SOL     OW51228   1.121   3.731   7.718  0.4435  0.1122  0.4688
14961SOL    HW151229   1.045   3.779   7.684  0.4943  0.3845  0.7362
14961SOL    HW251230   1.092   3.698   7.803  0.8973  0.9158  0.9411
14962SOL     OW51231   5.077   4.302   1.538  0.3199 -0.0272 -0.4531
14962SOL    HW151232   5.058   4.211   1.562 -1.0091  0.7521  1.7596
14962SOL    HW251233   5.081   4.349   1.622  1.6392  1.8531 -1.4939
14963SOL     OW51234   2.106   7.185   3.870  0.1631  0.1425 -0.5389
14963SOL    HW151235   2.190   7.219   3.839  0.8508 -2.1248 -1.3768
14963SOL    HW251236   2.087   7.112   3.811 -1.0882 -1.0492  1.2429
14964SOL     OW51237   3.644   6.269   1.534 -0.0990 -0.1848  0.6804
14964SOL    HW151238   3.592   6.337   1.493  1.2478  0.0406 -0.7467
14964SOL    HW251239   3.586   6.193   1.536  0.0276 -0.5388 -2.6990
14965SOL     OW51240   5.212   0.744   2.000  0.1835 -0.0501 -0.5537
14965SOL    HW151241   5.131   0.694   1.987  0.4751  0.0145 -2.9970
14965SOL    HW251242   5.272   0.711   1.933  2.1180  0.1507  0.9717
14966SOL     OW51243   4.842   4.737   2.924  0.0972 -0.3050  0.0354
14966SOL    HW151244   4.834   4.827   2.892  1.2308  0.2680  1.2645
14966SOL    HW251245   4.815   4.742   3.016 -1.2016 -1.5283 -0.2308
14967SOL     OW51246   2.900   1.889   8.232  0.2809 -0.0046 -0.6078
14967SOL    HW151247   2.807   1.899   8.250  0.4169  0.3728 -0.0877
14967SOL    HW251248   2.943   1.918   8.312  0.7923 -2.5934  0.1466
14968SOL     OW51249   0.513   2.068   4.919  0.3014 -0.8210 -0.2348
14968SOL    HW151250   0.578   2.080   4.988 -1.2578  0.4479  1.0696
14968SOL    HW251251   0.562   2.078   4.837  2.0071 -1.4657  0.6647
14969SOL     OW51252   2.802   4.851   5.006 -0.4565  0.8990 -0.5073
14969SOL    HW151253   2.714   4.887   5.017 -0.3496  0.8509  0.6786
14969SOL    HW251254   2.845   4.868   5.090  0.0873 -0.6130 -0.4410
14970SOL     OW51255   5.443   5.407   2.947  0.0304 -0.2818  0.6878
14970SOL    HW151256   5.494   5.428   2.869 -3.0895 -0.3934 -1.5484
14970SOL    HW251257   5.493   5.338   2.990  2.8808  1.1744 -0.0049
14971SOL     OW51258   8.662   1.350   7.880  0.5846 -0.0839  0.3495
14971SOL    HW151259   8.581   1.300   7.893  1.2723 -1.2352  0.3699
14971SOL    HW251260   8.679   1.391   7.965 -0.8190  1.5372 -0.0792
14972SOL     OW51261   1.376   4.024   5.581 -0.2188 -0.1959  0.4964
14972SOL    HW151262   1.332   3.992   5.660 -0.4619  0.5612  0.6742
14972SOL    HW251263   1.353   3.961   5.513 -1.7469  0.2794  0.5386
14973SOL     OW51264   0.057   6.554   2.152 -0.6334  0.2656 -0.0825
14973SOL    HW151265   0.060   6.627   2.091 -0.6860  0.5962  0.3082
14973SOL    HW251266  -0.036   6.531   2.156 -0.9073  1.4603  1.2897
14974SOL     OW51267   3.304   3.710   8.952 -0.5635 -0.0676 -0.5091
14974SOL    HW151268   3.344   3.763   8.884 -0.7590  0.6310 -0.0936
14974SOL    HW251269   3.226   3.673   8.911 -0.5941  0.2211 -0.7148
14975SOL     OW51270   1.679   6.732   8.966 -0.2582  0.5843  0.1046
14975SOL    HW151271   1.606   6.700   9.020 -0.2630  0.3629 -0.0321
14975SOL    HW251272   1.754   6.733   9.025 -0.1835  0.0081  0.0302
14976SOL     OW51273   0.902   1.665   5.320 -0.7048 -1.0296 -0.2963
14976SOL    HW151274   0.896   1.578   5.360  0.2184 -0.2527  1.6692
14976SOL    HW251275   0.907   1.647   5.226  4.4585 -3.5484  0.0716
14977SOL     OW51276   7.692   8.176   6.786  0.6395  0.0262  0.6805
14977SOL    HW151277   7.762   8.111   6.791  0.2288 -0.3940  1.0336
14977SOL    HW251278   7.642   8.152   6.707  1.7695  1.2313 -0.4523
14978SOL     OW51279   0.514   7.564   4.636 -0.9417 -0.1937 -0.0297
14978SOL    HW151280   0.579   7.547   4.568 -0.5621 -0.0352  0.2927
14978SOL    HW251281   0.490   7.478   4.670 -0.3617 -0.2069  0.3526
14979SOL     OW51282   8.461   1.460   6.690  0.1149  0.0343  0.1164
14979SOL    HW151283   8.495   1.539   6.648 -0.9505 -0.5306 -1.8979
14979SOL    HW251284   8.458   1.482   6.783 -1.0996  2.7362 -0.4789
14980SOL     OW51285   0.969   5.466   6.685 -0.3608 -0.1973  0.1807
14980SOL    HW151286   0.876   5.485   6.697 -0.6685 -1.0813 -0.7372
14980SOL    HW251287   0.990   5.500   6.598 -0.1811 -1.2601 -0.2037
14981SOL     OW51288   9.103   4.221   3.973 -0.3371  0.2882 -0.7519
14981SOL    HW151289   9.041   4.151   3.951 -1.5230  1.1424 -0.2490
14981SOL    HW251290   9.048   4.299   3.983  0.3241  0.4591  2.9627
14982SOL     OW51291   3.727   0.684   7.002  0.1447  0.0936  0.3518
14982SOL    HW151292   3.822   0.694   6.992  0.2102  0.7590  1.4691
14982SOL    HW251293   3.703   0.618   6.938  1.2319  0.5495 -0.5565
14983SOL     OW51294   4.714   7.636   1.479  0.0152  0.1650  0.4205
14983SOL    HW151295   4.806   7.655   1.500  0.9916 -1.2167 -2.1125
14983SOL    HW251296   4.708   7.541   1.482 -0.9081  0.1562 -0.8773
14984SOL     OW51297   1.042   3.701   6.886 -0.1718  0.6936  0.1591
14984SOL    HW151298   1.023   3.795   6.885 -3.0608  0.2232 -1.7445
14984SOL    HW251299   1.017   3.673   6.975 -1.2001  1.4296  0.1219
14985SOL     OW51300   7.622   0.436   6.068 -0.0935  0.2224  0.0591
14985SOL    HW151301   7.666   0.469   6.146 -0.5369  0.3020  0.2800
14985SOL    HW251302   7.685   0.449   5.997 -0.4277  2.0071  0.0400
14986SOL     OW51303   7.532   6.001   8.596 -0.0568  0.0523  0.6004
14986SOL    HW151304   7.604   5.939   8.583  0.8120  1.1165  0.1497
14986SOL    HW251305   7.542   6.065   8.526 -1.9242 -0.1801  0.0705
14987SOL     OW51306   2.093   1.772   8.385  0.0314 -0.5603  0.3643
14987SOL    HW151307   2.095   1.856   8.432  0.1880 -1.1505  1.4182
14987SOL    HW251308   2.002   1.743   8.393 -0.3128  0.0322 -0.9858
14988SOL     OW51309   2.851   8.977   4.118 -0.2232  0.0981  0.4296
14988SOL    HW151310   2.798   9.042   4.163 -2.5756  1.3974 -3.7287
14988SOL    HW251311   2.797   8.898   4.116  1.3956 -1.2068  2.8338
14989SOL     OW51312   6.130   4.985   7.086 -0.4730 -0.1597 -0.1427
14989SOL    HW151313   6.094   4.993   6.998  0.2433  1.5774 -0.3008
14989SOL    HW251314   6.225   4.990   7.075 -0.2770 -1.6377  0.5829
14990SOL     OW51315   0.856   5.653   8.218 -0.5389 -0.1144 -0.1055
14990SOL    HW151316   0.786   5.658   8.153 -1.1839  0.4444  0.6203
14990SOL    HW251317   0.860   5.740   8.257  1.6651  0.3722 -1.2367
14991SOL     OW51318   3.516   5.800   6.118 -0.3428 -0.0299 -0.1433
14991SOL    HW151319   3.439   5.753   6.085  0.8516 -2.6217  0.5212
14991SOL    HW251320   3.499   5.812   6.211 -0.8788  1.4728 -0.3994
14992SOL     OW51321   4.275   2.390   1.400 -0.1730  0.0931  0.0171
14992SOL    HW151322   4.270   2.327   1.471  0.0387 -0.5152 -0.4949
14992SOL    HW251323   4.344   2.356   1.343  0.6140  1.2992  0.2154
14993SOL     OW51324   0.118   4.780   2.115  0.0086 -0.4499  0.7530
14993SOL    HW151325   0.116   4.688   2.092 -0.9346 -0.4212  0.6864
14993SOL    HW251326   0.129   4.781   2.210  3.2219 -0.5731  0.4943
14994SOL     OW51327   2.066   3.271   8.764  0.1912 -0.4630  0.6573
14994SOL    HW151328   2.000   3.221   8.715 -0.0355  1.4534 -1.1168
14994SOL    HW251329   2.017   3.314   8.834 -0.2682  0.1110 -0.0085
14995SOL     OW51330   3.896   7.908   7.103  0.0648  0.4672 -0.2446
14995SOL    HW151331   3.820   7.884   7.156  0.1807 -1.8270 -0.9986
14995SOL    HW251332   3.896   8.004   7.103 -2.4575  0.5517  0.2894
14996SOL     OW51333   8.632   2.714   6.616  0.6444 -0.5155 -0.4694
14996SOL    HW151334   8.712   2.713   6.562  0.2454 -1.6415 -1.0685
14996SOL    HW251335   8.665   2.721   6.706  1.2946  2.3487 -0.8337
14997SOL     OW51336   7.150   0.330   5.762 -0.0247  0.6603 -0.5438
14997SOL    HW151337   7.098   0.357   5.837  0.9662  0.0139  0.4072
14997SOL    HW251338   7.240   0.332   5.793  0.3023 -0.9841 -1.2634
14998SOL     OW51339   1.620   0.592   3.464 -0.0077 -0.6058 -0.5631
14998SOL    HW151340   1.681   0.541   3.517  1.9677  1.2784 -0.8810
14998SOL    HW251341   1.577   0.651   3.526 -1.1630 -1.5813 -0.4154
14999SOL     OW51342   1.640   6.530   3.526  0.3558  0.0162  0.2223
14999SOL    HW151343   1.621   6.466   3.594 -1.3130  1.0329  0.7666
14999SOL    HW251344   1.622   6.615   3.566  1.1722  0.7581 -0.9122
15000SOL     OW51345   2.671   0.186   5.594 -0.1763 -0.4654  0.1286
15000SOL    HW151346   2.626   0.193   5.510  0.6147 -1.4361 -0.4099
15000SOL    HW251347   2.693   0.093   5.601 -0.9812 -0.5666  1.8259
15001SOL     OW51348   1.207   5.687   1.198  0.6772 -0.3452  0.0833
15001SOL    HW151349   1.160   5.739   1.263  1.5743  1.0621 -0.3607
15001SOL    HW251350   1.282   5.741   1.173  0.2533 -0.7350 -2.2786
15002SOL     OW51351   8.450   2.344   1.599 -0.2888 -0.0442 -0.0697
15002SOL    HW151352   8.510   2.331   1.525 -2.6749 -1.1604 -1.9331
15002SOL    HW251353   8.459   2.437   1.621  2.1170 -0.1785 -0.2155
15003SOL     OW51354   7.210   8.501   2.397 -0.4111  0.1144  0.2533
15003SOL    HW151355   7.257   8.514   2.480  0.4723 -0.0429 -0.2156
15003SOL    HW251356   7.279   8.485   2.333 -1.0719  0.6207 -0.5936
15004SOL     OW51357   1.439   5.855   5.255 -0.0163 -0.1774 -0.0140
15004SOL    HW151358   1.387   5.932   5.231  0.9934  0.0988 -1.4977
15004SOL    HW251359   1.463   5.869   5.346 -2.2228 -0.1585  0.6147
15005SOL     OW51360   3.737   3.057   8.755  0.3077  0.0430 -0.2475
15005SOL    HW151361   3.733   3.125   8.822  0.6621 -2.9997  3.1712
15005SOL    HW251362   3.647   3.025   8.748  0.3768 -0.0292 -0.8290
15006SOL     OW51363   5.458   2.826   2.149 -0.7428  0.0820 -0.3857
15006SOL    HW151364   5.467   2.909   2.102 -0.1275 -0.9239 -2.1667
15006SOL    HW251365   5.547   2.793   2.157 -1.1601 -1.9594 -2.7946
15007SOL     OW51366   2.634   4.247   8.864 -0.1955 -0.0490 -0.1586
15007SOL    HW151367   2.561   4.195   8.900 -0.2664  0.8890  1.1197
15007SOL    HW251368   2.591   4.321   8.820 -0.0250  0.7234  0.9466
15008SOL     OW51369   0.755   8.759   6.138  0.7336  0.0766  0.4894
15008SOL    HW151370   0.725   8.761   6.229  0.4849  1.7114  0.4052
15008SOL    HW251371   0.834   8.812   6.138 -0.6159  2.2047 -0.6568
15009SOL     OW51372   2.241   6.465   3.417  0.3979 -0.4948 -0.5545
15009SOL    HW151373   2.195   6.526   3.359 -2.5879 -0.2918  1.7938
15009SOL    HW251374   2.258   6.516   3.496  4.9181 -0.5777 -1.2092
15010SOL     OW51375   4.212   6.550   1.991  0.2730  0.3492 -0.0698
15010SOL    HW151376   4.306   6.560   2.002  0.3138  0.0424 -0.1179
15010SOL    HW251377   4.203   6.496   1.912  0.0929 -0.6175  0.5970
15011SOL     OW51378   5.419   5.844   9.101 -0.4388  0.1350 -0.4392
15011SOL    HW151379   5.444   5.901   9.029  0.1049 -0.5211 -0.7770
15011SOL    HW251380   5.497   5.839   9.157 -0.6152  0.0500 -0.1947
15012SOL     OW51381   0.816   0.916   1.186  0.1285  0.2218  0.2136
15012SOL    HW151382   0.743   0.950   1.238  0.2866  0.5031  0.2506
15012SOL    HW251383   0.840   0.834   1.229 -1.6065 -1.0404 -1.0541
15013SOL     OW51384   3.475   5.950   9.024 -0.2708 -0.4048  0.0871
15013SOL    HW151385   3.495   5.915   8.937 -0.9061 -0.6955  0.0537
15013SOL    HW251386   3.507   6.040   9.021 -0.4868 -0.3396 -0.5274
15014SOL     OW51387   8.694   2.206   3.868  0.0080  0.3411 -0.4432
15014SOL    HW151388   8.671   2.235   3.780 -0.5407  0.7113 -0.1811
15014SOL    HW251389   8.648   2.122   3.878  1.2824 -0.4732 -1.0552
15015SOL     OW51390   1.404   2.214   3.333 -0.4393  0.4214 -0.1532
15015SOL    HW151391   1.312   2.218   3.360 -0.2649  1.7876  0.3253
15015SOL    HW251392   1.402   2.165   3.251 -1.5463  0.1111  0.0334
15016SOL     OW51393   7.367   0.862   2.252 -0.5990  0.0713 -0.2541
15016SOL    HW151394   7.304   0.908   2.197 -1.4233 -0.4026  0.2714
15016SOL    HW251395   7.452   0.880   2.212 -1.2548 -1.1568 -2.3201
15017SOL     OW51396   1.982   3.357   3.663  0.1434  0.3451 -0.1994
15017SOL    HW151397   1.949   3.359   3.753 -0.3368  1.1367 -0.3824
15017SOL    HW251398   2.038   3.434   3.657  0.5574  0.0293 -0.4451
15018SOL     OW51399   0.545   3.199   2.505  0.1517 -0.1621 -0.1186
15018SOL    HW151400   0.568   3.190   2.598  0.1286  1.6360  0.0953
15018SOL    HW251401   0.460   3.243   2.506  0.3348  0.2205 -1.0071
15019SOL     OW51402   4.249   5.057   3.841 -0.4693  0.2713  0.2503
15019SOL    HW151403   4.164   5.017   3.822 -0.0968 -0.4545  0.1023
15019SOL    HW251404   4.249   5.138   3.790 -0.8821  0.0479 -0.1135
15020SOL     OW51405   3.629   0.624   8.753 -0.8944 -0.1759  0.2724
15020SOL    HW151406   3.632   0.589   8.842 -1.6965 -0.3098  0.2561
15020SOL    HW251407   3.660   0.552   8.698  2.1715  0.7365  0.6218
15021SOL     OW51408   5.086   9.162   1.312 -0.1770  0.0183  0.3595
15021SOL    HW151409   4.998   9.181   1.279  0.3784 -0.8035 -1.7501
15021SOL    HW251410   5.071   9.118   1.396 -1.7397  0.3981  0.3169
15022SOL     OW51411   6.823   5.852   0.424 -0.0690  0.0486 -0.1083
15022SOL    HW151412   6.737   5.892   0.441 -0.0019  0.1979 -0.1270
15022SOL    HW251413   6.820   5.769   0.472 -0.2398  0.0353 -0.1409
15023SOL     OW51414   8.111   8.596   8.220  0.3336  0.0244 -0.4148
15023SOL    HW151415   8.203   8.571   8.227  0.3377 -0.3446 -1.4784
15023SOL    HW251416   8.062   8.525   8.262  0.4332 -1.0041 -1.9441
15024SOL     OW51417   0.071   2.844   5.676  0.1146 -0.4109  0.7749
15024SOL    HW151418   0.134   2.773   5.658 -2.1645 -2.8169  1.6901
15024SOL    HW251419   0.006   2.836   5.606  0.0691  1.1883  0.5942
15025SOL     OW51420   4.020   8.274   3.487 -0.3134 -1.3403 -0.4060
15025SOL    HW151421   4.061   8.188   3.497 -1.2273 -1.7982 -0.4537
15025SOL    HW251422   4.071   8.332   3.543  0.6459 -1.8017 -0.7864
15026SOL     OW51423   4.487   2.696   4.746 -0.1051 -0.1868 -0.1059
15026SOL    HW151424   4.553   2.687   4.677  1.4800 -0.8795  1.4289
15026SOL    HW251425   4.499   2.785   4.779  1.3968 -0.8922  1.3965
15027SOL     OW51426   7.924   7.691   6.211 -0.2075 -0.3059  0.2462
15027SOL    HW151427   7.838   7.677   6.252 -0.6092 -0.0253 -0.4707
15027SOL    HW251428   7.917   7.778   6.171 -0.1127 -0.8674 -1.0554
15028SOL     OW51429   2.546   5.643   8.280  0.1264 -0.6324  0.2390
15028SOL    HW151430   2.562   5.629   8.373  0.0208 -1.5322  0.1235
15028SOL    HW251431   2.478   5.580   8.257  2.2112 -2.5687 -1.1084
15029SOL     OW51432   2.891   3.667   0.547 -0.0016 -0.0136 -0.1570
15029SOL    HW151433   2.901   3.702   0.458 -0.6823 -0.2402 -0.3271
15029SOL    HW251434   2.859   3.578   0.534  0.0197 -0.0904  0.3160
15030SOL     OW51435   0.926   8.200   6.176 -0.0729  0.1108 -0.0772
15030SOL    HW151436   0.953   8.126   6.122 -2.0858 -1.8635  1.4639
15030SOL    HW251437   0.885   8.261   6.115 -2.2219 -2.0174 -0.8800
15031SOL     OW51438   9.163   1.685   6.964 -0.0417 -0.6607 -0.4789
15031SOL    HW151439   9.215   1.708   6.886 -0.3990  0.1229 -0.4906
15031SOL    HW251440   9.074   1.714   6.943 -0.0580 -0.0748  0.3929
15032SOL     OW51441   1.146   6.318   9.164 -0.8537  0.0076  0.8931
15032SOL    HW151442   1.150   6.411   9.144 -0.5074  0.0784  1.2546
15032SOL    HW251443   1.106   6.314   9.251  2.4109  0.1094  2.5533
15033SOL     OW51444   2.258   5.472   6.166 -0.6735 -0.2194 -0.3365
15033SOL    HW151445   2.306   5.549   6.197 -1.1265 -0.2614  0.5128
15033SOL    HW251446   2.167   5.500   6.164 -0.8770 -0.8142  0.2670
15034SOL     OW51447   6.265   6.486   4.134 -0.8757  0.2553  0.1184
15034SOL    HW151448   6.198   6.440   4.082 -1.0793  1.8863 -1.1510
15034SOL    HW251449   6.345   6.476   4.082 -0.2304 -1.1316  1.3123
15035SOL     OW51450   3.529   3.951   2.993  0.1870 -0.3622  0.0355
15035SOL    HW151451   3.576   3.933   2.912  1.5083 -1.3801  0.9722
15035SOL    HW251452   3.510   3.865   3.029 -0.5592  0.0752  0.7141
15036SOL     OW51453   7.751   7.557   5.063 -0.0786 -0.3443  0.0803
15036SOL    HW151454   7.664   7.515   5.064 -1.2851  1.9992  0.5346
15036SOL    HW251455   7.733   7.648   5.085  2.2928  0.6687 -1.7953
15037SOL     OW51456   3.874   0.985   7.181  0.1923 -0.1593  0.2722
15037SOL    HW151457   3.880   1.080   7.174  2.2561 -0.1334  1.5171
15037SOL    HW251458   3.863   0.969   7.275 -0.1192 -1.1558  0.0748
15038SOL     OW51459   1.156   2.072   6.781  0.3387 -0.0831  0.1083
15038SOL    HW151460   1.206   2.027   6.713  1.4803  1.4638 -0.1160
15038SOL    HW251461   1.205   2.153   6.798 -3.0016  2.5325 -1.5020
15039SOL     OW51462   2.894   4.925   8.585  0.2189  0.1549 -0.0661
15039SOL    HW151463   2.803   4.932   8.613  0.0960  1.3533 -0.7211
15039SOL    HW251464   2.942   4.899   8.664 -0.2449  2.6135  1.1077
15040SOL     OW51465   2.288   5.924   5.158 -0.0391  0.2068  0.2994
15040SOL    HW151466   2.255   5.904   5.070  2.1277 -0.2937 -0.4770
15040SOL    HW251467   2.270   6.017   5.170  1.6059  0.8800 -1.6834
15041SOL     OW51468   4.259   5.800   5.152 -0.1709  0.4268  0.0243
15041SOL    HW151469   4.258   5.846   5.236  0.7477  0.6773 -0.0846
15041SOL    HW251470   4.306   5.719   5.170  0.7224  0.8306 -0.3981
15042SOL     OW51471   4.136   0.568   7.986  0.3576 -0.0818  0.6015
15042SOL    HW151472   4.110   0.642   8.042  0.0158 -0.5987  1.1348
15042SOL    HW251473   4.229   0.583   7.969  0.1140  0.9108  0.0210
15043SOL     OW51474   1.840   2.388   8.235  0.1588  0.0224 -0.2907
15043SOL    HW151475   1.864   2.422   8.149 -0.5570 -0.0064 -0.5054
15043SOL    HW251476   1.764   2.440   8.261  0.5428  0.2181  0.4490
15044SOL     OW51477   1.254   8.104   0.876 -0.1292  0.3508 -0.5746
15044SOL    HW151478   1.271   8.036   0.942 -1.3185  0.1221 -0.4805
15044SOL    HW251479   1.262   8.186   0.924  1.1751  0.2937 -0.6545
15045SOL     OW51480   4.118   8.085   6.629 -0.8258  0.1832  1.0206
15045SOL    HW151481   4.167   8.165   6.647  0.9397 -0.6895  0.3080
15045SOL    HW251482   4.033   8.099   6.671 -0.2859  2.1003  1.5695
15046SOL     OW51483   1.094   6.710   6.483  0.2535  0.1544 -0.3148
15046SOL    HW151484   1.127   6.795   6.454  1.2654 -0.6143 -1.5514
15046SOL    HW251485   1.006   6.703   6.445 -0.2138  1.0130  0.5742
15047SOL     OW51486   3.092   0.707   1.163  0.0270 -0.0649 -0.1243
15047SOL    HW151487   3.135   0.751   1.089  1.2603  0.3271  0.7847
15047SOL    HW251488   3.144   0.628   1.177  0.3142  0.2764  0.8206
15048SOL     OW51489   2.334   4.058   1.354  0.0647 -0.7044 -0.2949
15048SOL    HW151490   2.370   3.972   1.334  2.3178  0.1677 -0.3495
15048SOL    HW251491   2.323   4.059   1.449  0.9808 -0.7527 -0.1766
15049SOL     OW51492   3.917   0.720   0.075 -0.1168 -0.2502 -0.3082
15049SOL    HW151493   3.855   0.785   0.108  0.3667  0.0165  0.0945
15049SOL    HW251494   3.921   0.737  -0.019 -0.9447 -0.5246 -0.3998
15050SOL     OW51495   0.081   1.235   1.493  0.5187  0.0593  0.4838
15050SOL    HW151496   0.038   1.205   1.573 -0.7269 -0.1061 -0.2283
15050SOL    HW251497   0.125   1.316   1.518  0.4929 -0.2107  1.4305
15051SOL     OW51498   0.367   8.184   6.654  0.0700 -0.4353 -0.0403
15051SOL    HW151499   0.378   8.166   6.560 -0.8134 -2.4730  0.1935
15051SOL    HW251500   0.272   8.189   6.666  0.0524 -2.2446  1.0270
15052SOL     OW51501   8.921   3.739   2.807 -0.8503 -0.0743 -0.7504
15052SOL    HW151502   8.929   3.834   2.803 -0.4206 -0.0438  0.5465
15052SOL    HW251503   8.930   3.710   2.716 -0.5043  1.0813 -1.0932
15053SOL     OW51504   6.141   3.902   8.772  0.5548 -0.1073 -0.0407
15053SOL    HW151505   6.174   3.985   8.738 -0.2186  1.1473  2.0675
15053SOL    HW251506   6.046   3.907   8.760  0.5379 -0.8630 -0.2469
15054SOL     OW51507   1.480   2.297   3.693  0.0011  0.5347 -0.0550
15054SOL    HW151508   1.537   2.273   3.619  0.4622  0.1494  0.4148
15054SOL    HW251509   1.540   2.331   3.760 -0.3446  0.3382  0.3607
15055SOL     OW51510   1.139   1.836   0.413 -0.4004  0.2987  0.7973
15055SOL    HW151511   1.214   1.890   0.440  0.9947 -0.7730 -0.7726
15055SOL    HW251512   1.134   1.768   0.480  0.0846  0.3246  0.8625
15056SOL     OW51513   1.826   3.384   4.426 -0.2732 -0.7961 -0.1884
15056SOL    HW151514   1.916   3.354   4.444  0.1547 -0.2596 -1.3652
15056SOL    HW251515   1.832   3.429   4.342 -0.9888  2.1075  1.1744
15057SOL     OW51516   4.996   3.389   5.693 -0.0947 -0.0038  0.2915
15057SOL    HW151517   4.922   3.387   5.754 -1.2223  0.7412 -0.9809
15057SOL    HW251518   5.073   3.401   5.749 -1.1141  1.0318  1.5610
15058SOL     OW51519   5.205   8.220   8.358  0.1896 -0.1338 -0.5475
15058SOL    HW151520   5.209   8.252   8.268 -1.3232  1.1738 -0.1812
15058SOL    HW251521   5.118   8.244   8.389  0.3908 -1.2602  1.0215
15059SOL     OW51522   5.573   3.369   7.601 -0.2024 -0.0899 -0.1277
15059SOL    HW151523   5.607   3.341   7.516  1.9850  0.7714  0.4070
15059SOL    HW251524   5.645   3.418   7.641 -1.5192  0.3597  1.8279
15060SOL     OW51525   0.168   8.583   0.586 -0.2200  1.0051  0.3991
15060SOL    HW151526   0.196   8.650   0.522  0.6709  0.8068  0.5725
15060SOL    HW251527   0.157   8.504   0.534  0.6788  0.7994  0.5064
15061SOL     OW51528   1.828   3.038   4.671 -0.6752 -0.4129 -0.0878
15061SOL    HW151529   1.803   3.126   4.644 -2.4731 -1.0916 -0.8069
15061SOL    HW251530   1.759   3.011   4.731  0.3702 -0.9894  0.8920
15062SOL     OW51531   6.289   7.595   4.817  0.0862 -0.1865  0.3530
15062SOL    HW151532   6.364   7.539   4.798  1.0941  1.6646 -1.4729
15062SOL    HW251533   6.217   7.557   4.766  1.2959  1.2807 -2.6625
15063SOL     OW51534   3.150   4.236   1.374  0.0123  0.5983  0.1158
15063SOL    HW151535   3.074   4.191   1.336  0.7884  0.3535 -1.2173
15063SOL    HW251536   3.224   4.178   1.354  0.7661  1.5749  0.0206
15064SOL     OW51537   1.816   1.253   4.305 -0.1942  0.1656  0.1589
15064SOL    HW151538   1.769   1.240   4.223  1.3332 -0.4488 -0.6516
15064SOL    HW251539   1.821   1.167   4.345 -0.1353  0.3014  0.4514
15065SOL     OW51540   6.132   2.159   3.222  0.2877  0.3564 -0.3425
15065SOL    HW151541   6.055   2.107   3.243 -0.2801  1.0048 -0.8053
15065SOL    HW251542   6.144   2.217   3.297 -0.5298  1.2488 -0.8860
15066SOL     OW51543   0.752   7.380   1.214  0.1823 -0.1099  0.3638
15066SOL    HW151544   0.798   7.452   1.172  1.6177 -0.9786  0.3807
15066SOL    HW251545   0.774   7.303   1.162  0.2082 -0.8387  1.4127
15067SOL     OW51546   5.019   2.458   8.340 -0.4733  0.1017  0.1155
15067SOL    HW151547   5.113   2.437   8.338 -0.6821 -0.8971 -1.6472
15067SOL    HW251548   4.976   2.372   8.336 -1.5333  0.4265  2.5945
15068SOL     OW51549   3.129   3.772   7.306  0.4026  0.6389 -0.2942
15068SOL    HW151550   3.119   3.694   7.360  1.4817  0.1418 -0.7709
15068SOL    HW251551   3.221   3.771   7.280  0.2355  1.6312 -0.9890
15069SOL     OW51552   4.902   2.472   1.505 -0.6820  0.4345  0.0814
15069SOL    HW151553   4.820   2.423   1.501 -0.0696 -0.5524 -0.9030
15069SOL    HW251554   4.943   2.442   1.586 -0.9987  0.4497  0.2510
15070SOL     OW51555   5.963   6.017   1.685  0.3189 -0.3240 -0.4155
15070SOL    HW151556   5.879   5.973   1.674 -1.9806  2.6146  3.1331
15070SOL    HW251557   6.003   5.974   1.761 -0.4305  1.3519  1.0114
15071SOL     OW51558   2.847   9.008   2.331 -0.2719 -0.8475  0.0744
15071SOL    HW151559   2.892   9.038   2.410 -0.3399 -0.9219  0.1416
15071SOL    HW251560   2.819   9.089   2.288 -0.3492 -0.8091  0.1942
15072SOL     OW51561   6.358   3.028   6.857 -0.1156  0.9975  0.4505
15072SOL    HW151562   6.301   3.084   6.805 -1.1385 -0.2156  0.2041
15072SOL    HW251563   6.408   2.978   6.792 -0.5195  0.3439  0.6370
15073SOL     OW51564   3.833   1.016   8.579 -0.1962  0.5534 -0.0762
15073SOL    HW151565   3.927   1.006   8.595 -0.4433 -1.6624  0.2731
15073SOL    HW251566   3.800   1.064   8.655  0.4224 -0.0216  0.5666
15074SOL     OW51567   0.408   2.234   8.439 -0.5449 -0.1294  0.1451
15074SOL    HW151568   0.402   2.284   8.521 -0.0184 -2.5307  1.7855
15074SOL    HW251569   0.499   2.245   8.410  0.0810 -1.4085  1.4624
15075SOL     OW51570   0.990   4.028   2.156 -0.6620 -0.9126  0.1363
15075SOL    HW151571   1.083   4.040   2.139 -0.7392  0.8632  0.7367
15075SOL    HW251572   0.952   4.007   2.070 -0.0947  1.1602 -0.6799
15076SOL     OW51573   6.106   1.211   8.662 -0.3206  0.1102  0.1363
15076SOL    HW151574   6.178   1.211   8.598 -0.3575  2.9327 -0.0691
15076SOL    HW251575   6.148   1.198   8.746  0.2375  0.1033 -0.1391
15077SOL     OW51576   7.187   3.623   4.357  0.3376 -0.0063  0.0164
15077SOL    HW151577   7.202   3.568   4.280  1.4650 -2.3486  1.7616
15077SOL    HW251578   7.092   3.625   4.367  0.2311 -0.8343 -0.6494
15078SOL     OW51579   1.334   2.361   2.862 -0.3607 -0.2088 -0.2346
15078SOL    HW151580   1.324   2.395   2.951 -1.1046 -1.7649  0.2934
15078SOL    HW251581   1.266   2.405   2.812  0.3830  1.0669 -0.1998
15079SOL     OW51582   8.036   8.272   1.553 -0.4154  0.2870 -0.4484
15079SOL    HW151583   8.025   8.245   1.644  0.6033 -1.4648 -0.7894
15079SOL    HW251584   8.125   8.247   1.531 -0.7241  0.4223 -2.0000
15080SOL     OW51585   8.555   6.348   8.093 -0.1067  0.2046 -0.1141
15080SOL    HW151586   8.566   6.399   8.013  0.4978 -0.6431 -0.5851
15080SOL    HW251587   8.476   6.297   8.078  0.4749 -0.5909 -0.5348
15081SOL     OW51588   0.237   6.262   2.156  0.5294  0.1834 -0.1381
15081SOL    HW151589   0.331   6.247   2.154  0.5940  0.4486  0.9346
15081SOL    HW251590   0.209   6.230   2.242 -0.2875  0.5498 -0.2621
15082SOL     OW51591   0.262   5.102   7.552  0.4138  0.2232  0.4073
15082SOL    HW151592   0.178   5.100   7.507 -0.0787  0.9386  1.2562
15082SOL    HW251593   0.296   5.191   7.538  2.3762 -0.8049 -2.2297
15083SOL     OW51594   2.722   5.641   8.992  0.6562  0.3764 -0.3744
15083SOL    HW151595   2.760   5.686   9.068 -0.2344 -0.1714  0.4143
15083SOL    HW251596   2.669   5.708   8.949 -1.4422 -0.0528  1.3329
15084SOL     OW51597   3.426   4.379   2.170 -0.6029 -0.4402  0.5671
15084SOL    HW151598   3.407   4.341   2.256 -1.3105  0.2923  0.7424
15084SOL    HW251599   3.461   4.466   2.189  1.3070 -1.0742  0.1752
15085SOL     OW51600   6.986   7.339   7.523  0.2998 -0.0632 -0.1781
15085SOL    HW151601   7.011   7.305   7.609  0.1614 -1.5361 -0.6985
15085SOL    HW251602   6.931   7.415   7.543  0.9134  0.0926  1.0231
15086SOL     OW51603   5.062   0.058   2.172  0.1043 -0.3640  0.2712
15086SOL    HW151604   5.020   0.122   2.115 -0.8540 -1.1832  0.0202
15086SOL    HW251605   5.069   0.101   2.256 -0.0870  0.2386 -0.0160
15087SOL     OW51606   1.449   1.243   9.236  0.0378 -0.1619  0.1330
15087SOL    HW151607   1.413   1.167   9.282  0.4243 -1.2196 -1.2267
15087SOL    HW251608   1.372   1.297   9.217 -0.6419 -1.4531 -1.0450
15088SOL     OW51609   1.490   5.405   5.138  0.2742  0.2987  0.1517
15088SOL    HW151610   1.492   5.342   5.066 -1.0900 -0.6426  0.9114
15088SOL    HW251611   1.420   5.375   5.195  1.1401  1.1823  1.7548
15089SOL     OW51612   0.176   5.087   2.245 -0.3095 -0.0945 -0.2102
15089SOL    HW151613   0.177   5.070   2.151 -0.3806  1.1927 -0.4583
15089SOL    HW251614   0.083   5.093   2.268 -0.3189 -1.2706  0.1239
15090SOL     OW51615   6.758   5.902   6.451  0.1123  0.7910 -0.2561
15090SOL    HW151616   6.715   5.834   6.503  0.1491 -0.5842 -1.9186
15090SOL    HW251617   6.812   5.949   6.513  0.0037 -0.6370  0.9902
15091SOL     OW51618   5.866   1.974   3.082 -0.4305 -0.0916 -0.2693
15091SOL    HW151619   5.881   2.064   3.051  0.3305  0.0292  0.4134
15091SOL    HW251620   5.784   1.948   3.041 -1.1560  1.2564  0.2663
15092SOL     OW51621   3.155   7.564   6.288 -0.2894  0.4204 -0.3699
15092SOL    HW151622   3.179   7.471   6.297  0.3586  0.7210  1.4009
15092SOL    HW251623   3.093   7.580   6.359 -0.5731  1.3027 -0.8029
15093SOL     OW51624   0.678   0.653   5.499  0.7085 -0.3673  0.2492
15093SOL    HW151625   0.659   0.606   5.418 -0.0695  0.5714 -0.1223
15093SOL    HW251626   0.773   0.667   5.497  0.8295 -1.1444 -0.0449
15094SOL     OW51627   9.025   0.979   6.226  0.3853 -0.4623  0.2021
15094SOL    HW151628   8.937   0.983   6.190  1.1263 -0.6760 -1.7503
15094SOL    HW251629   9.054   0.889   6.209  1.0155 -0.3698  0.7367
15095SOL     OW51630   4.399   2.242   7.714  0.2627 -0.2095  0.0033
15095SOL    HW151631   4.319   2.236   7.766  0.5450 -0.1280  0.4518
15095SOL    HW251632   4.456   2.300   7.764  0.9633 -1.0116  0.1649
15096SOL     OW51633   1.237   3.356   0.544 -0.0951 -0.2701 -0.3742
15096SOL    HW151634   1.233   3.293   0.616 -1.7827 -0.3061 -0.4639
15096SOL    HW251635   1.308   3.324   0.488  0.1972 -1.1301  0.4684
15097SOL     OW51636   3.161   3.374   9.189 -0.0256 -0.0758 -0.0909
15097SOL    HW151637   3.189   3.334   9.107  0.0480  1.4232 -0.8314
15097SOL    HW251638   3.146   3.300   9.248 -0.2985 -1.2006 -1.5142
15098SOL     OW51639   0.263   6.477   6.215 -0.0454 -0.2265 -0.2407
15098SOL    HW151640   0.324   6.535   6.260  0.2872  0.4235 -1.4969
15098SOL    HW251641   0.182   6.483   6.267 -0.2408  1.9090 -0.7077
15099SOL     OW51642   2.579   2.151   4.274  0.2258  0.0295  0.0228
15099SOL    HW151643   2.503   2.153   4.334  0.1953 -2.9189  0.2284
15099SOL    HW251644   2.545   2.112   4.194  0.9902  1.0706 -0.8343
15100SOL     OW51645   1.365   8.988   4.844 -0.0035 -0.1822 -0.3256
15100SOL    HW151646   1.312   8.954   4.915 -0.6386  0.6420 -0.3913
15100SOL    HW251647   1.389   9.077   4.871  1.2484 -0.4877 -0.3519
15101SOL     OW51648   5.043   5.947   1.777 -0.1650 -0.2372  0.0668
15101SOL    HW151649   5.013   6.038   1.782  0.7306  0.0034  2.8903
15101SOL    HW251650   5.135   5.953   1.753 -0.2860 -0.4400 -0.4448
15102SOL     OW51651   2.064   5.751   3.620 -0.2814  0.1786  0.2595
15102SOL    HW151652   2.053   5.712   3.706  3.2328  0.5145  1.0067
15102SOL    HW251653   2.079   5.677   3.561  0.6566  0.0837  0.6024
15103SOL     OW51654   5.032   6.442   7.574  0.1197  0.6120 -0.5002
15103SOL    HW151655   5.083   6.432   7.493  0.9135  2.1081 -0.2272
15103SOL    HW251656   4.941   6.443   7.545  0.2458 -1.3173 -1.0888
15104SOL     OW51657   8.534   4.549   4.004  0.4849  0.4190 -0.1764
15104SOL    HW151658   8.611   4.571   4.056 -0.1073  0.4518  0.7195
15104SOL    HW251659   8.565   4.546   3.914  1.4377  0.8486  0.1289
15105SOL     OW51660   0.165   7.469   1.599  0.3795 -0.2036 -0.1814
15105SOL    HW151661   0.109   7.428   1.666 -0.6608  0.5607 -0.5558
15105SOL    HW251662   0.249   7.481   1.642  0.4550 -1.9181  0.2181
15106SOL     OW51663   7.015   0.787   3.470 -1.1390 -0.0728 -0.0452
15106SOL    HW151664   7.055   0.813   3.388 -1.6112  0.7066 -0.0411
15106SOL    HW251665   7.074   0.819   3.538 -1.1182 -0.0766 -0.0616
15107SOL     OW51666   5.373   2.751   6.406  0.1285 -0.2921 -0.3393
15107SOL    HW151667   5.302   2.806   6.372  0.4791  0.0555 -0.5207
15107SOL    HW251668   5.328   2.679   6.450 -0.3511 -0.9742 -1.8668
15108SOL     OW51669   2.127   1.907   8.963  0.0970 -0.9359 -0.0911
15108SOL    HW151670   2.039   1.871   8.977  0.1190 -0.6118  0.9513
15108SOL    HW251671   2.184   1.855   9.018  0.1714  0.4294  1.2045
15109SOL     OW51672   5.931   6.156   3.411 -0.2696  0.7809  0.1147
15109SOL    HW151673   5.928   6.252   3.414 -1.8908  0.7638 -0.1715
15109SOL    HW251674   6.010   6.133   3.461 -1.1815  2.1603  2.3419
15110SOL     OW51675   7.840   3.654   5.830  0.2343 -0.1167 -0.5844
15110SOL    HW151676   7.754   3.613   5.818 -1.2520  2.6154 -0.0116
15110SOL    HW251677   7.886   3.638   5.748 -1.5607 -0.0247 -1.6533
15111SOL     OW51678   5.100   0.514   3.815 -0.1800  0.0305 -0.7867
15111SOL    HW151679   5.117   0.424   3.789  0.8201 -0.2724  0.7955
15111SOL    HW251680   5.186   0.557   3.813 -0.6446  0.9704 -1.5435
15112SOL     OW51681   1.447   4.039   9.086  0.4399 -0.1720 -0.2890
15112SOL    HW151682   1.442   3.987   9.165 -1.9243 -1.7996 -1.4093
15112SOL    HW251683   1.417   3.981   9.016  1.8737  1.3698 -2.3291
15113SOL     OW51684   6.424   3.126   5.631  0.1756 -0.3951  0.0941
15113SOL    HW151685   6.505   3.155   5.590 -0.5380  1.7916  0.1163
15113SOL    HW251686   6.410   3.038   5.597  1.6726 -0.1693 -1.2121
15114SOL     OW51687   0.521   6.181   8.120  0.2491  0.4044 -0.3083
15114SOL    HW151688   0.555   6.270   8.129 -0.8979  0.7847  0.5067
15114SOL    HW251689   0.437   6.191   8.076 -0.1343 -0.2018  0.2576
15115SOL     OW51690   1.367   6.393   8.188  0.3535  0.1262  0.1882
15115SOL    HW151691   1.297   6.456   8.204  1.0746  1.3321 -1.0672
15115SOL    HW251692   1.408   6.424   8.107  1.1228 -1.6447 -0.1482
15116SOL     OW51693   4.379   1.960   8.342  0.2258  0.1695 -0.2145
15116SOL    HW151694   4.458   2.006   8.313  0.4788 -0.5468 -0.6757
15116SOL    HW251695   4.310   2.026   8.335  0.7132  0.6945 -0.1657
15117SOL     OW51696   1.975   6.911   6.611 -0.0815  0.1626 -0.2039
15117SOL    HW151697   1.893   6.908   6.562  0.2999 -1.8962 -0.8423
15117SOL    HW251698   1.948   6.899   6.702 -0.6043  1.3551 -0.1906
15118SOL     OW51699   3.985   4.466   7.318 -0.3213 -0.0764  0.5525
15118SOL    HW151700   4.066   4.517   7.310 -0.6067  0.3605  0.3821
15118SOL    HW251701   3.971   4.459   7.412 -0.2410  0.0990  0.5786
15119SOL     OW51702   5.502   2.455   2.405  0.0015  0.0995 -0.2218
15119SOL    HW151703   5.535   2.401   2.476 -0.0381  0.9378  0.4492
15119SOL    HW251704   5.409   2.432   2.398 -0.2318  0.7188  0.6742
15120SOL     OW51705   2.587   4.893   5.989  0.2461 -0.0275  0.0651
15120SOL    HW151706   2.538   4.860   6.064  0.2148 -0.2395 -0.0475
15120SOL    HW251707   2.589   4.820   5.928 -1.3829  0.7380 -0.9702
15121SOL     OW51708   8.437   6.507   6.852 -0.4994  0.8937  0.2562
15121SOL    HW151709   8.451   6.413   6.869 -2.5672  0.5794  0.4936
15121SOL    HW251710   8.409   6.542   6.936 -1.2291  1.3973 -0.1927
15122SOL     OW51711   0.564   5.015   2.017 -0.2538 -0.5468 -0.3392
15122SOL    HW151712   0.629   4.947   2.002 -0.1942 -0.8174  0.9982
15122SOL    HW251713   0.542   5.048   1.930  2.2866  0.1520 -0.7838
15123SOL     OW51714   5.696   4.675   2.117  0.1785  0.2228 -0.7191
15123SOL    HW151715   5.601   4.665   2.111  0.2665 -0.9094 -0.4057
15123SOL    HW251716   5.730   4.625   2.043  0.5446  0.5683 -0.7896
15124SOL     OW51717   2.182   8.165   6.430  0.0648  0.0945 -0.2772
15124SOL    HW151718   2.197   8.258   6.414  0.9398 -0.0738 -0.4691
15124SOL    HW251719   2.186   8.157   6.526 -2.1879  0.5906 -0.0640
15125SOL     OW51720   0.876   5.223   8.581 -0.6074  0.4448 -0.4745
15125SOL    HW151721   0.818   5.298   8.595 -0.3784  0.9923 -2.2021
15125SOL    HW251722   0.883   5.216   8.486  0.8244 -0.6638 -0.3183
15126SOL     OW51723   1.382   3.550   0.214  0.5890 -0.6336 -0.3960
15126SOL    HW151724   1.374   3.472   0.270 -0.5823  0.0650  0.4448
15126SOL    HW251725   1.439   3.609   0.263 -0.7048  0.1137  0.2527
15127SOL     OW51726   7.057   0.840   6.497 -0.4267 -0.4212  0.2392
15127SOL    HW151727   7.018   0.896   6.430 -0.9375 -1.0341  0.0148
15127SOL    HW251728   7.075   0.899   6.570  0.4071  0.3184 -0.5344
15128SOL     OW51729   2.637   2.470   1.397  0.1986 -0.4795 -0.1059
15128SOL    HW151730   2.668   2.548   1.351  1.4479  0.3208  1.9610
15128SOL    HW251731   2.571   2.502   1.459 -1.9437 -1.6259 -1.6579
15129SOL     OW51732   4.440   0.360   4.056  0.1940  0.2100 -0.0701
15129SOL    HW151733   4.434   0.390   3.966  1.0992 -0.0180 -0.2131
15129SOL    HW251734   4.386   0.422   4.106 -0.6583  0.0879 -0.8114
15130SOL     OW51735   0.093   6.114   7.666 -0.0726  0.0161  0.1281
15130SOL    HW151736   0.172   6.075   7.703 -0.4494 -1.6662 -0.7322
15130SOL    HW251737   0.103   6.106   7.572 -0.7120  0.9576 -0.0353
15131SOL     OW51738   0.127   7.364   8.300  0.2421 -0.5425 -0.2003
15131SOL    HW151739   0.143   7.334   8.211 -3.3357  0.4948 -1.3455
15131SOL    HW251740   0.124   7.460   8.293  1.0169 -0.3745  1.2919
15132SOL     OW51741   1.978   8.507   1.443 -0.4468 -0.0057 -0.2183
15132SOL    HW151742   2.010   8.493   1.533 -0.9517 -0.2956 -0.0797
15132SOL    HW251743   2.056   8.494   1.388  0.0337  0.9214  0.2224
15133SOL     OW51744   2.434   8.595   3.356 -0.1380  0.5797  0.6166
15133SOL    HW151745   2.366   8.658   3.332 -0.6746 -0.4857 -0.7930
15133SOL    HW251746   2.469   8.564   3.272  1.2876  0.2380  1.3029
15134SOL     OW51747   1.839   4.292   5.460 -0.2093 -0.2000  0.0050
15134SOL    HW151748   1.860   4.199   5.455 -0.7511 -0.4198  1.3514
15134SOL    HW251749   1.749   4.295   5.494  0.4403  0.8063  1.7835
15135SOL     OW51750   0.923   2.014   5.621  0.3677  0.4352 -0.0422
15135SOL    HW151751   0.993   1.961   5.662  1.9397  1.3742 -1.3858
15135SOL    HW251752   0.912   1.975   5.535 -0.5910  0.4817  0.0572
15136SOL     OW51753   1.836   0.370   7.419 -0.0596  0.0748  0.2911
15136SOL    HW151754   1.789   0.418   7.350 -2.1066 -1.0362  0.8167
15136SOL    HW251755   1.854   0.284   7.380  2.2660  0.7048 -0.1386
15137SOL     OW51756   5.028   7.711   2.065  0.2848 -0.1239  0.2851
15137SOL    HW151757   5.033   7.685   2.157 -0.0679  1.3981  0.7676
15137SOL    HW251758   4.994   7.634   2.020 -0.6562 -0.5285  1.6164
15138SOL     OW51759   7.552   7.914   3.828 -0.4583  0.0755 -0.3963
15138SOL    HW151760   7.607   7.951   3.759 -0.5276  0.4344 -0.2627
15138SOL    HW251761   7.577   7.961   3.907  0.8481 -1.5199  0.1911
15139SOL     OW51762   1.303   5.213   0.611  0.2624 -0.4482 -1.6181
15139SOL    HW151763   1.348   5.243   0.532  0.6932 -1.5128 -1.7937
15139SOL    HW251764   1.219   5.260   0.610  0.8551  0.6402 -1.9243
15140SOL     OW51765   6.373   5.163   5.186 -0.0458 -0.8378  0.1046
15140SOL    HW151766   6.412   5.229   5.129 -2.3577  1.6442  1.1664
15140SOL    HW251767   6.294   5.135   5.140 -0.0248 -1.5461  0.4791
15141SOL     OW51768   0.338   6.105   4.165 -0.4327  0.3298  0.0024
15141SOL    HW151769   0.395   6.164   4.215  2.1815 -1.4869 -0.5774
15141SOL    HW251770   0.362   6.122   4.073 -2.3766  0.9290 -0.4338
15142SOL     OW51771   6.266   7.249   1.311 -0.2795 -0.2521  0.7482
15142SOL    HW151772   6.196   7.314   1.318  0.1710  0.3496 -0.0989
15142SOL    HW251773   6.223   7.165   1.326 -0.7792  0.2612  2.4797
15143SOL     OW51774   3.935   5.855   8.516  0.8597 -0.3091  0.3966
15143SOL    HW151775   4.006   5.850   8.451 -0.1259 -0.4188 -0.6926
15143SOL    HW251776   3.885   5.932   8.491  0.0791 -0.7336  0.6390
15144SOL     OW51777   7.271   3.077   9.115  0.0968  0.0356 -0.3992
15144SOL    HW151778   7.275   3.064   9.210 -2.9759 -0.4794 -0.2154
15144SOL    HW251779   7.299   2.994   9.078 -1.7237 -0.9179  0.2271
15145SOL     OW51780   4.670   0.564   2.553  0.0301  0.0375 -0.3052
15145SOL    HW151781   4.746   0.519   2.515  0.0307 -0.5426  0.3525
15145SOL    HW251782   4.691   0.571   2.646  0.9766  3.3203 -0.6428
15146SOL     OW51783   7.494   4.608   0.310  0.6910  0.0175  0.0253
15146SOL    HW151784   7.506   4.557   0.390  1.3196 -0.2302 -0.2271
15146SOL    HW251785   7.557   4.571   0.248  0.8091  0.7786 -0.3123
15147SOL     OW51786   0.938   5.885   3.934 -0.0037 -0.3847 -0.4776
15147SOL    HW151787   0.919   5.807   3.882 -1.8421  0.8931 -1.8259
15147SOL    HW251788   0.853   5.914   3.967  0.7605  0.5403  0.7901
15148SOL     OW51789   0.671   1.506   8.039 -0.0610  0.1589 -0.1868
15148SOL    HW151790   0.640   1.415   8.048  1.1657 -0.3609 -0.8890
15148SOL    HW251791   0.625   1.539   7.962 -1.6387  0.6682  0.9160
15149SOL     OW51792   1.765   1.193   7.757 -0.6715 -0.1271  0.3762
15149SOL    HW151793   1.721   1.134   7.819 -0.3831 -0.2311  0.4848
15149SOL    HW251794   1.859   1.173   7.768 -0.6937 -1.5734 -1.4879
15150SOL     OW51795   6.657   1.518   3.561  0.2387 -0.2537  0.3597
15150SOL    HW151796   6.675   1.545   3.651  1.7464 -1.7726  0.5596
15150SOL    HW251797   6.704   1.581   3.507  1.4095 -0.7880  0.7311
15151SOL     OW51798   0.921   7.745   6.493  0.1833 -0.1337  0.0768
15151SOL    HW151799   0.897   7.831   6.528 -1.6334 -0.3811 -0.4691
15151SOL    HW251800   0.955   7.764   6.405  2.3532  0.2362  0.9277
15152SOL     OW51801   5.486   1.876   0.850 -0.3450  0.0514  0.5014
15152SOL    HW151802   5.458   1.789   0.878 -0.4029 -0.4207 -0.9040
15152SOL    HW251803   5.465   1.934   0.923 -1.7117 -0.8754  0.8756
15153SOL     OW51804   1.399   3.004   2.096  0.3084 -0.1823 -0.4222
15153SOL    HW151805   1.400   2.925   2.150  0.8321 -0.6961 -1.1576
15153SOL    HW251806   1.371   2.974   2.010 -0.5243  0.6281 -0.4422
15154SOL     OW51807   3.300   3.023   5.040  0.0931 -0.2952 -0.4925
15154SOL    HW151808   3.303   3.118   5.045 -1.0337 -0.2742 -0.0921
15154SOL    HW251809   3.291   2.994   5.130  0.2290 -0.7759 -0.6303
15155SOL     OW51810   0.237   2.009   1.577  0.5980  0.2813 -0.7545
15155SOL    HW151811   0.151   2.049   1.590  0.5622 -0.2098  0.6240
15155SOL    HW251812   0.255   2.021   1.483 -0.4698  1.3654 -0.8394
15156SOL     OW51813   7.045   3.818   3.077 -0.1055  0.0928 -0.3188
15156SOL    HW151814   7.102   3.854   3.008 -1.0608  2.0734 -0.1457
15156SOL    HW251815   7.014   3.735   3.041  1.8466 -0.4326 -0.9456
15157SOL     OW51816   4.537   4.934   5.386  0.3213 -0.5983  0.3338
15157SOL    HW151817   4.628   4.953   5.412 -0.1862  0.8244  1.1837
15157SOL    HW251818   4.490   4.929   5.469 -0.1531 -2.8090 -0.0099
15158SOL     OW51819   3.773   7.055   5.348  0.1515 -0.2059 -0.1228
15158SOL    HW151820   3.698   7.030   5.401  2.1278 -1.2804  2.4058
15158SOL    HW251821   3.810   6.972   5.317  0.7334  0.2493 -0.6911
15159SOL     OW51822   2.280   4.401   6.528  0.3331 -0.5725  0.1561
15159SOL    HW151823   2.190   4.429   6.544  1.5860  3.1468  1.7676
15159SOL    HW251824   2.301   4.346   6.604 -0.3976 -1.0247  0.0417
15160SOL     OW51825   0.294   5.332   0.082  0.2307  0.2168  0.1672
15160SOL    HW151826   0.385   5.361   0.073 -0.2262  2.5078  1.8216
15160SOL    HW251827   0.300   5.247   0.124  1.6174  0.1529 -0.1061
15161SOL     OW51828   5.779   7.616   4.366  0.4139  0.0635 -0.5418
15161SOL    HW151829   5.729   7.657   4.295  0.7946 -0.1448 -0.9408
15161SOL    HW251830   5.755   7.665   4.444  1.2031  1.3532 -1.0771
15162SOL     OW51831   5.113   4.436   5.371 -0.1414  0.3326 -0.1845
15162SOL    HW151832   5.096   4.481   5.453  0.3402 -0.7022  0.5100
15162SOL    HW251833   5.101   4.503   5.303 -1.5545  0.9601  0.6345
15163SOL     OW51834   5.154   3.522   5.503 -0.1588 -0.5344  0.5639
15163SOL    HW151835   5.071   3.510   5.548 -1.3850  0.9174 -1.1685
15163SOL    HW251836   5.172   3.437   5.462 -2.5184 -0.0537 -1.7225
15164SOL     OW51837   0.272   0.530   7.730  0.1756 -0.2919 -0.1431
15164SOL    HW151838   0.217   0.452   7.738  1.4264 -1.4784 -2.1552
15164SOL    HW251839   0.342   0.504   7.671  1.2387  2.0724 -0.0508
15165SOL     OW51840   5.756   2.643   3.857  0.0822 -0.1670  0.1018
15165SOL    HW151841   5.668   2.609   3.846 -0.2805  0.4280  1.0478
15165SOL    HW251842   5.747   2.738   3.852  0.7271 -0.1112 -0.1710
15166SOL     OW51843   5.761   7.862   3.806  0.1850  0.2248  0.3540
15166SOL    HW151844   5.803   7.826   3.883  1.3137 -0.5080 -0.5753
15166SOL    HW251845   5.710   7.790   3.770  0.7830  0.1356 -0.3476
15167SOL     OW51846   8.399   1.121   4.092  0.0221 -0.5573  0.7453
15167SOL    HW151847   8.322   1.154   4.137  0.1113 -0.5776  0.9128
15167SOL    HW251848   8.470   1.177   4.121  0.4960 -1.9220  2.3574
15168SOL     OW51849   6.442   6.174   9.166 -0.1799 -0.4270  0.0155
15168SOL    HW151850   6.466   6.267   9.160  0.1435 -0.2119  3.1718
15168SOL    HW251851   6.486   6.133   9.091  2.4077  1.4588  0.3783
15169SOL     OW51852   0.354   3.978   4.338 -0.1304 -0.3155  0.0487
15169SOL    HW151853   0.404   3.902   4.308  1.2396  0.7545 -0.4645
15169SOL    HW251854   0.341   3.962   4.432 -1.3521 -1.9598 -0.3459
15170SOL     OW51855   7.047   0.477   7.265  0.1620  0.3020 -0.0524
15170SOL    HW151856   6.993   0.477   7.344  0.7411  2.2306  0.3772
15170SOL    HW251857   7.003   0.414   7.207 -1.2652  0.1629  1.1182
15171SOL     OW51858   2.365   7.842   4.880 -0.3002  0.2430 -0.1403
15171SOL    HW151859   2.367   7.748   4.864 -2.7494  0.3308 -1.5550
15171SOL    HW251860   2.340   7.850   4.972 -0.6260 -0.5158 -0.1516
15172SOL     OW51861   5.767   5.591   9.079  0.0792  0.7036 -0.2985
15172SOL    HW151862   5.849   5.550   9.051  0.5489  0.6528  1.1255
15172SOL    HW251863   5.729   5.529   9.142 -1.0310  0.7608 -0.8753
15173SOL     OW51864   9.132   8.763   6.212 -0.5579 -0.2139  0.0502
15173SOL    HW151865   9.063   8.698   6.226  0.3691 -1.4714 -0.9595
15173SOL    HW251866   9.193   8.721   6.152  1.4734  0.5754  1.4374
15174SOL     OW51867   0.426   0.363   0.864 -0.0170 -0.5446  0.2070
15174SOL    HW151868   0.401   0.285   0.915  0.1453 -1.1458 -0.6094
15174SOL    HW251869   0.344   0.397   0.829 -0.0338 -0.6652  0.1276
15175SOL     OW51870   8.992   5.100   0.765 -0.2982  0.3568 -0.0969
15175SOL    HW151871   8.987   5.090   0.860 -1.7415  0.0671 -0.1852
15175SOL    HW251872   8.911   5.061   0.732 -1.1364  2.8414 -1.2557
15176SOL     OW51873   0.845   0.357   3.243 -0.0295 -0.0010  0.0935
15176SOL    HW151874   0.869   0.270   3.210  2.3716  1.1409 -1.4248
15176SOL    HW251875   0.907   0.374   3.313 -0.0532  0.7557 -0.0656
15177SOL     OW51876   1.772   6.104   0.666  0.2833 -0.3071  0.3024
15177SOL    HW151877   1.739   6.185   0.705 -0.5888 -0.1436 -0.7185
15177SOL    HW251878   1.860   6.094   0.702 -0.6165 -0.4181  2.6309
15178SOL     OW51879   5.069   6.427   6.886 -0.3792 -0.0581  0.0721
15178SOL    HW151880   5.035   6.509   6.922 -0.2279 -0.1156  0.3509
15178SOL    HW251881   5.035   6.423   6.797 -1.8986 -0.5716  0.6468
15179SOL     OW51882   8.567   1.631   0.456 -0.2383  0.0995 -0.6552
15179SOL    HW151883   8.499   1.570   0.427 -2.0572  1.8305 -0.2158
15179SOL    HW251884   8.551   1.642   0.550  1.7879 -0.7670 -0.1479
15180SOL     OW51885   2.487   1.717   2.631 -0.1763  0.4164 -0.4972
15180SOL    HW151886   2.398   1.695   2.659 -0.3053 -0.2147 -1.3653
15180SOL    HW251887   2.543   1.683   2.701 -0.4536 -1.7113 -1.2345
15181SOL     OW51888   5.719   5.993   7.317 -0.0001  0.3308 -0.3782
15181SOL    HW151889   5.628   6.013   7.339 -0.0856 -0.4997  0.0803
15181SOL    HW251890   5.758   5.965   7.400  0.8389  1.2485 -0.4519
15182SOL     OW51891   5.535   3.719   3.408  0.2087  0.0997  0.2900
15182SOL    HW151892   5.571   3.806   3.392  1.7653 -1.0253 -3.3247
15182SOL    HW251893   5.610   3.666   3.434 -0.8256 -0.1380  3.0596
15183SOL     OW51894   3.974   0.644   3.289  0.1083  0.3327 -0.1480
15183SOL    HW151895   3.915   0.578   3.252  0.8633 -1.1865  1.2387
15183SOL    HW251896   3.960   0.638   3.383  2.4291 -0.0736  0.2262
15184SOL     OW51897   2.608   0.941   4.580 -0.4937  0.4790  0.0480
15184SOL    HW151898   2.534   0.932   4.519  0.5092  0.8952 -1.2664
15184SOL    HW251899   2.610   1.034   4.602  0.3843  0.7053 -0.9176
15185SOL     OW51900   3.986   1.933   1.406 -0.2254  0.4406 -0.6602
15185SOL    HW151901   3.904   1.884   1.410 -1.0757  1.8554  0.0859
15185SOL    HW251902   4.033   1.908   1.486  0.5116 -1.0389 -1.5124
15186SOL     OW51903   3.771   2.639   1.825  0.2908  0.5773 -0.1619
15186SOL    HW151904   3.794   2.583   1.751 -1.8012  1.1652 -1.3405
15186SOL    HW251905   3.776   2.728   1.791 -1.2672  0.8284  0.1853
15187SOL     OW51906   1.639   8.710   5.789  0.0595 -0.1456 -0.0860
15187SOL    HW151907   1.577   8.780   5.770  1.6670  1.3132 -0.1935
15187SOL    HW251908   1.677   8.688   5.704 -0.5408 -1.2934 -0.0779
15188SOL     OW51909   3.150   5.631   7.584  0.4692  0.1521  0.1733
15188SOL    HW151910   3.055   5.626   7.573  0.4340  1.1544 -0.0657
15188SOL    HW251911   3.180   5.690   7.515  1.0838  0.9811  1.1115
15189SOL     OW51912   7.382   7.955   7.155  0.2901  0.5496 -0.0660
15189SOL    HW151913   7.406   7.885   7.094 -2.3842 -1.2394  0.7589
15189SOL    HW251914   7.346   8.024   7.099  0.7048  0.2369 -0.7257
15190SOL     OW51915   7.271   0.142   1.624 -0.0889  0.2775  0.4432
15190SOL    HW151916   7.282   0.229   1.587  2.0983  0.9159  2.3720
15190SOL    HW251917   7.357   0.100   1.614 -0.9190 -1.4411  0.1217
15191SOL     OW51918   8.879   7.917   8.910  0.0178 -0.4201  0.0968
15191SOL    HW151919   8.834   7.833   8.916 -1.6626  0.4377  0.3143
15191SOL    HW251920   8.888   7.945   9.001 -1.4928  0.6245 -0.0364
15192SOL     OW51921   8.579   1.463   1.391  0.2310 -0.2597  0.0164
15192SOL    HW151922   8.503   1.505   1.433 -0.3318 -0.3572 -0.8626
15192SOL    HW251923   8.549   1.374   1.372  0.5608 -0.2954 -0.3428
15193SOL     OW51924   3.931   4.464   8.240  0.5116 -0.1043  0.4366
15193SOL    HW151925   4.007   4.499   8.194  0.9373  0.3798  1.4781
15193SOL    HW251926   3.933   4.507   8.326 -1.2790  0.3707  0.2763
15194SOL     OW51927   6.534   2.598   5.125 -0.2243  0.5205 -0.2865
15194SOL    HW151928   6.563   2.641   5.205 -1.0674  2.1968 -0.8488
15194SOL    HW251929   6.472   2.531   5.156  2.4698 -1.7241  0.7436
15195SOL     OW51930   6.175   5.814   5.315 -0.2340 -0.3309 -0.2111
15195SOL    HW151931   6.200   5.807   5.223  0.0341 -0.9156 -0.0993
15195SOL    HW251932   6.097   5.870   5.314  1.5390  2.3401 -0.4719
15196SOL     OW51933   8.899   8.467   5.628 -0.2020  0.7669  0.6395
15196SOL    HW151934   8.952   8.388   5.640 -0.4488  0.6407  0.9174
15196SOL    HW251935   8.941   8.514   5.556 -0.9385 -0.3887 -0.6021
15197SOL     OW51936   5.866   3.247   4.187  0.0807  0.0505  0.6139
15197SOL    HW151937   5.783   3.279   4.153 -0.3672 -1.0629  0.6042
15197SOL    HW251938   5.846   3.219   4.277  0.5084  0.0350  0.7075
15198SOL     OW51939   5.206   5.176   5.358  0.2365  0.1153  0.0148
15198SOL    HW151940   5.159   5.218   5.286  1.7446  1.3297 -0.3078
15198SOL    HW251941   5.146   5.108   5.389 -1.5320  1.3132 -0.6335
15199SOL     OW51942   7.718   8.991   7.407  0.1781 -0.5561  0.0798
15199SOL    HW151943   7.763   8.910   7.433  0.8085 -0.1062  0.4204
15199SOL    HW251944   7.674   8.969   7.326  1.8329 -0.7545 -0.8023
15200SOL     OW51945   4.033   0.718   5.183  0.4655 -0.7596  0.4553
15200SOL    HW151946   4.105   0.678   5.134  0.0489 -0.7435 -0.1843
15200SOL    HW251947   3.976   0.756   5.116  0.6134  0.5254  1.0318
15201SOL     OW51948   7.838   2.730   6.864  0.3829  0.1667 -0.2675
15201SOL    HW151949   7.908   2.722   6.929 -0.5896  1.1703  0.9655
15201SOL    HW251950   7.782   2.654   6.879  0.1354  0.4208  0.1082
15202SOL     OW51951   5.799   2.389   7.780  0.3015  0.4139  0.3173
15202SOL    HW151952   5.762   2.347   7.857 -1.3388  0.5942 -0.3115
15202SOL    HW251953   5.761   2.340   7.706  1.9085  0.1742 -0.3818
15203SOL     OW51954   8.174   0.016   3.488  0.4924 -0.3243 -0.0998
15203SOL    HW151955   8.222   0.094   3.459 -0.2446 -0.0292 -0.5774
15203SOL    HW251956   8.087   0.049   3.509  0.3600 -0.9217  0.3123
15204SOL     OW51957   0.315   2.865   5.128  0.1313 -0.1028 -0.3104
15204SOL    HW151958   0.283   2.779   5.100 -0.2430 -0.1594  0.2859
15204SOL    HW251959   0.297   2.922   5.053 -0.1370 -0.4174 -0.4905
15205SOL     OW51960   5.485   2.130   3.478  0.0413 -0.0357 -0.2580
15205SOL    HW151961   5.405   2.179   3.498  0.0135 -0.2726  0.2182
15205SOL    HW251962   5.519   2.171   3.398 -1.5045 -1.0716 -1.5065
15206SOL     OW51963   0.014   3.054   6.610  0.6750  0.5502  0.3702
15206SOL    HW151964   0.096   3.024   6.648 -0.4636 -2.3595  0.7920
15206SOL    HW251965   0.033   3.067   6.517  2.0507  1.9530  0.8071
15207SOL     OW51966   9.211   6.165   5.494 -0.7392 -0.0002  0.1134
15207SOL    HW151967   9.169   6.145   5.410  0.1054 -0.8925 -0.1212
15207SOL    HW251968   9.249   6.252   5.482  1.0240 -0.8620 -1.1470
15208SOL     OW51969   7.144   2.998   4.368 -0.5498 -0.2351 -0.3938
15208SOL    HW151970   7.083   2.940   4.414 -1.1249  1.5605  1.2274
15208SOL    HW251971   7.217   3.008   4.428 -0.7213  1.1444 -0.3899
15209SOL     OW51972   4.070   0.461   8.449 -0.7760  0.4330  0.2826
15209SOL    HW151973   4.120   0.382   8.428  0.4407  1.7027 -2.0261
15209SOL    HW251974   4.065   0.462   8.544  0.6183 -1.5339  0.4360
15210SOL     OW51975   1.369   5.985   5.677 -0.2947 -0.1477 -0.2705
15210SOL    HW151976   1.287   5.970   5.629  0.7088 -0.0176 -2.0924
15210SOL    HW251977   1.436   5.990   5.610  1.0120  1.4323  1.0499
15211SOL     OW51978   2.894   1.839   6.966 -0.1539  0.2705  0.5673
15211SOL    HW151979   2.967   1.813   7.022 -1.0764 -2.0475  0.8564
15211SOL    HW251980   2.885   1.767   6.903 -2.0031  0.5952  0.3902
15212SOL     OW51981   2.110   8.813   4.660  0.3663 -0.6346  0.0316
15212SOL    HW151982   2.188   8.766   4.689  0.1606 -0.1559  1.4915
15212SOL    HW251983   2.073   8.759   4.591  2.5744 -0.3005 -1.5002
15213SOL     OW51984   1.497   1.837   7.765 -0.2455 -0.4336 -0.0634
15213SOL    HW151985   1.515   1.853   7.858 -0.0556 -0.7532 -0.0418
15213SOL    HW251986   1.569   1.880   7.719 -1.3495  1.3499 -0.1688
15214SOL     OW51987   3.436   0.164   4.293  0.1685 -0.5928 -0.3315
15214SOL    HW151988   3.409   0.155   4.201 -1.5298  0.5581  0.0102
15214SOL    HW251989   3.354   0.173   4.341  1.0874  1.7502  0.9644
15215SOL     OW51990   4.015   7.480   7.444 -0.8101 -0.2267 -0.2890
15215SOL    HW151991   4.054   7.422   7.378  0.9499 -0.8608  1.2365
15215SOL    HW251992   3.956   7.423   7.493 -0.5815 -0.2619 -0.0510
15216SOL     OW51993   2.932   5.113   2.178 -0.0672  0.1700 -0.0743
15216SOL    HW151994   2.995   5.122   2.107 -0.1556 -0.0519 -0.1786
15216SOL    HW251995   2.864   5.178   2.158 -0.3440 -0.2365 -0.4553
15217SOL     OW51996   3.337   7.927   3.762  0.7287 -0.4846  0.0712
15217SOL    HW151997   3.346   7.837   3.793 -0.4665 -0.6010  0.1457
15217SOL    HW251998   3.338   7.980   3.842  0.0090 -0.5745  0.1505
15218SOL     OW51999   2.896   0.088   6.295  0.2747 -0.7372 -0.0435
15218SOL    HW152000   2.805   0.060   6.306  0.6309 -0.9269  3.9789
15218SOL    HW252001   2.889   0.179   6.268 -1.0108 -1.3510 -2.0107
15219SOL     OW52002   1.613   3.884   7.267 -0.0021  0.4546  0.3817
15219SOL    HW152003   1.546   3.937   7.225 -2.0832 -2.4158 -0.2265
15219SOL    HW252004   1.606   3.907   7.360 -2.8299 -0.6359  0.5472
15220SOL     OW52005   7.205   6.550   3.743 -0.1805  0.3930  0.5087
15220SOL    HW152006   7.279   6.490   3.747 -1.9718 -2.0230  0.0002
15220SOL    HW252007   7.222   6.613   3.813  2.0974 -0.3398  0.6974
15221SOL     OW52008   6.400   2.320   5.196 -0.3064 -0.2447  0.5096
15221SOL    HW152009   6.490   2.321   5.229 -0.1385  2.0710  0.1623
15221SOL    HW252010   6.409   2.294   5.104  0.0374  0.1328  0.4316
15222SOL     OW52011   3.196   3.675   5.838 -0.2810  0.4394 -0.0200
15222SOL    HW152012   3.193   3.771   5.840  0.3225  0.4530  1.9649
15222SOL    HW252013   3.258   3.655   5.768 -0.8871  1.4568 -0.8854
15223SOL     OW52014   2.183   6.091   8.679 -0.0123 -0.1682 -0.0849
15223SOL    HW152015   2.252   6.133   8.628  1.6224 -0.8286  1.4837
15223SOL    HW252016   2.222   6.079   8.766 -1.8722 -1.2102  0.6426
15224SOL     OW52017   1.022   8.075   0.718 -0.2134  0.3010 -0.3312
15224SOL    HW152018   1.089   8.079   0.785  1.1859  1.1372 -1.7067
15224SOL    HW252019   1.040   8.149   0.661 -0.7612 -0.8886 -2.1623
15225SOL     OW52020   2.872   2.203   5.920 -0.0516  0.5670  0.2877
15225SOL    HW152021   2.934   2.255   5.868 -0.8587  0.9389 -0.3207
15225SOL    HW252022   2.859   2.124   5.869 -0.4934  0.7321  0.1358
15226SOL     OW52023   1.166   0.293   0.976  0.9462 -0.0361 -0.5851
15226SOL    HW152024   1.141   0.210   1.017 -1.0837 -0.5429 -2.6718
15226SOL    HW252025   1.084   0.331   0.946  2.0458  1.7548 -1.5172
15227SOL     OW52026   0.066   0.070   0.500 -0.0001 -0.3412 -0.9587
15227SOL    HW152027   0.028   0.020   0.428  1.1911 -0.9676 -1.1867
15227SOL    HW252028   0.147   0.023   0.521 -0.3544 -0.2036  0.8384
15228SOL     OW52029   2.737   5.908   5.127 -0.5009 -0.0339 -0.7164
15228SOL    HW152030   2.723   5.897   5.033  0.3711  0.0106 -0.8611
15228SOL    HW252031   2.805   5.845   5.149 -1.8024 -1.1731  0.2161
15229SOL     OW52032   5.531   7.063   6.372  0.0308  0.4915 -0.0719
15229SOL    HW152033   5.447   7.031   6.405  0.1316  0.9492  0.6438
15229SOL    HW252034   5.587   6.986   6.372 -0.7689 -0.1575 -1.9338
15230SOL     OW52035   7.630   0.396   6.952  0.9588  0.0582  0.5096
15230SOL    HW152036   7.581   0.423   7.030  0.9157  1.3788  0.0435
15230SOL    HW252037   7.570   0.410   6.880  1.4954  0.2180  0.0892
15231SOL     OW52038   6.733   8.954   8.441  0.2863  0.2937  0.8506
15231SOL    HW152039   6.826   8.942   8.460  0.6506 -0.8016 -1.3094
15231SOL    HW252040   6.696   8.866   8.443 -0.3834  0.5524  0.2177
15232SOL     OW52041   0.114   2.705   4.968  0.4165  0.4676 -0.0290
15232SOL    HW152042   0.050   2.640   4.995 -0.8653  1.8032  0.2810
15232SOL    HW252043   0.071   2.753   4.897 -0.0685  3.1058  1.9059
15233SOL     OW52044   7.091   2.543   7.946  0.2083 -0.1385 -0.3973
15233SOL    HW152045   7.006   2.580   7.969 -1.1725 -3.4365  0.4145
15233SOL    HW252046   7.099   2.558   7.852 -0.6818  1.3002 -0.2658
15234SOL     OW52047   4.465   6.948   4.722 -0.4436 -0.4268 -0.0589
15234SOL    HW152048   4.450   6.943   4.627  0.7617  0.1969 -0.2974
15234SOL    HW252049   4.423   7.030   4.748  0.6777  0.2709 -0.3697
15235SOL     OW52050   4.221   2.237   4.618  0.8119 -0.2652 -0.1898
15235SOL    HW152051   4.181   2.317   4.652  0.6193  0.2434 -1.5333
15235SOL    HW252052   4.276   2.205   4.689 -1.0191 -0.3148  1.2715
15236SOL     OW52053   2.587   5.893   8.871 -0.8055 -0.0264  0.0782
15236SOL    HW152054   2.579   5.987   8.855 -1.0326 -0.1554 -0.6229
15236SOL    HW252055   2.571   5.882   8.964 -0.1249  0.7065  0.2916
15237SOL     OW52056   2.544   6.708   2.135 -0.6331  0.5119 -0.5308
15237SOL    HW152057   2.575   6.644   2.071 -0.8077  1.3063 -1.4380
15237SOL    HW252058   2.591   6.788   2.113 -2.1809  1.3424 -0.9610
15238SOL     OW52059   2.545   1.992   5.505 -0.0805  0.2178  0.0539
15238SOL    HW152060   2.618   2.049   5.528 -0.8205  0.7341  1.1713
15238SOL    HW252061   2.523   1.946   5.586 -0.9623  0.0241 -0.2829
15239SOL     OW52062   6.014   1.543   9.018 -0.4906 -0.0776 -0.2060
15239SOL    HW152063   6.036   1.588   9.100 -4.1174  2.5051 -0.3853
15239SOL    HW252064   5.965   1.466   9.046 -1.1050  0.4118  0.0964
15240SOL     OW52065   1.414   5.313   2.315  0.7092  0.4906 -0.4221
15240SOL    HW152066   1.504   5.292   2.339  0.6401 -1.9680 -1.9633
15240SOL    HW252067   1.421   5.394   2.266  1.8674  1.0978  0.6821
15241SOL     OW52068   8.204   2.575   6.413 -0.9723  0.0609  0.2193
15241SOL    HW152069   8.273   2.536   6.466  0.5016  1.1120 -0.8357
15241SOL    HW252070   8.169   2.502   6.362 -0.4657 -0.4459  0.5800
15242SOL     OW52071   2.331   3.038   6.306 -0.4669  0.2359  0.6749
15242SOL    HW152072   2.328   2.993   6.221  0.0945  1.0374  0.2180
15242SOL    HW252073   2.255   3.096   6.305  0.7135  1.8578 -0.2309
15243SOL     OW52074   1.001   4.774   6.726 -0.0934  0.4896 -0.2697
15243SOL    HW152075   1.011   4.689   6.684  0.3312  0.5746 -0.3456
15243SOL    HW252076   0.909   4.777   6.753 -0.9755  1.2824 -3.0215
15244SOL     OW52077   2.530   5.875   5.338  0.7093  0.0787  0.2863
15244SOL    HW152078   2.453   5.896   5.285  0.3199 -0.3934  0.6645
15244SOL    HW252079   2.601   5.867   5.275  0.0765 -1.3738 -0.2739
15245SOL     OW52080   6.956   2.770   8.399  0.1180  0.0409  0.5271
15245SOL    HW152081   6.877   2.808   8.437 -0.2539 -1.2854  1.1423
15245SOL    HW252082   7.008   2.845   8.371 -1.8103  0.9614 -0.8542
15246SOL     OW52083   8.854   2.269   6.111  0.0325 -0.7029 -0.5443
15246SOL    HW152084   8.807   2.229   6.184 -0.8346 -1.6802 -1.5977
15246SOL    HW252085   8.786   2.302   6.053  0.6118  4.0103  0.9862
15247SOL     OW52086   5.523   2.568   6.038 -0.1387 -0.1017  0.2078
15247SOL    HW152087   5.544   2.564   5.945  0.2496 -2.7324  0.3364
15247SOL    HW252088   5.605   2.547   6.083 -0.6662 -0.3880  1.0777
15248SOL     OW52089   4.361   4.628   4.373 -0.6109  0.0287  0.4303
15248SOL    HW152090   4.456   4.616   4.367 -0.7120 -0.3214 -0.7022
15248SOL    HW252091   4.327   4.540   4.389 -0.8058 -0.0320 -0.2585
15249SOL     OW52092   8.310   2.756   8.287 -0.1904 -0.0805 -0.1902
15249SOL    HW152093   8.386   2.805   8.256 -1.8902  2.2788 -0.8671
15249SOL    HW252094   8.300   2.783   8.379 -0.1389 -0.5189 -0.0523
15250SOL     OW52095   4.712   4.091   6.006  0.4475  0.7424 -0.0170
15250SOL    HW152096   4.788   4.136   5.969  0.1061  0.5483 -0.9708
15250SOL    HW252097   4.643   4.105   5.942  0.0218 -0.1676  0.2359
15251SOL     OW52098   8.477   6.511   5.368 -0.5878  0.3502 -0.4824
15251SOL    HW152099   8.461   6.447   5.438 -0.4870  2.0327  1.1794
15251SOL    HW252100   8.510   6.589   5.414  0.9236  1.0493 -2.5769
15252SOL     OW52101   0.954   8.151   4.401 -0.0498 -0.1985  0.7717
15252SOL    HW152102   0.986   8.104   4.324  0.8643 -3.3587  2.8927
15252SOL    HW252103   0.864   8.174   4.380  0.0447 -1.3377 -1.0877
15253SOL     OW52104   7.679   4.076   0.540  0.8300 -0.2509  0.1030
15253SOL    HW152105   7.734   4.108   0.468  1.1184 -0.8204  0.0601
15253SOL    HW252106   7.738   4.074   0.616  1.1358 -1.6742 -0.1309
15254SOL     OW52107   5.400   3.915   0.218 -0.3219 -0.7769 -0.2758
15254SOL    HW152108   5.428   3.964   0.294  0.7918  0.8010 -1.6279
15254SOL    HW252109   5.458   3.839   0.215  2.1497  1.0226 -1.4949
15255SOL     OW52110   4.107   0.410   0.181  0.0522  0.0850  0.1302
15255SOL    HW152111   4.153   0.489   0.211 -2.5669  0.9469  2.2756
15255SOL    HW252112   4.161   0.337   0.213  0.2968  1.0290  1.9591
15256SOL     OW52113   8.046   1.762   6.309 -0.2592 -0.3635  0.1544
15256SOL    HW152114   8.129   1.808   6.294 -1.3198  0.9826 -2.2273
15256SOL    HW252115   8.017   1.736   6.222 -2.4052 -0.6772  0.8970
15257SOL     OW52116   9.102   0.214   6.143 -0.0116  0.6308  0.1443
15257SOL    HW152117   9.162   0.140   6.131 -1.4471 -0.6997  0.6772
15257SOL    HW252118   9.125   0.275   6.074  0.0842 -1.1492 -1.4882
15258SOL     OW52119   1.855   7.816   8.633  0.1736  0.7117 -0.2006
15258SOL    HW152120   1.897   7.752   8.690  0.6419  1.6679  0.5600
15258SOL    HW252121   1.881   7.789   8.545 -1.6206 -1.5306 -0.1087
15259SOL     OW52122   1.326   0.820   3.299  0.7623 -0.4800  0.2884
15259SOL    HW152123   1.339   0.874   3.221 -1.4119  0.1083  0.2487
15259SOL    HW252124   1.335   0.730   3.268 -1.1641 -0.2999 -0.9593
15260SOL     OW52125   4.301   6.831   2.608 -0.4747  0.3290 -0.0917
15260SOL    HW152126   4.305   6.910   2.662 -0.7140  0.4239 -0.2072
15260SOL    HW252127   4.347   6.765   2.658 -2.0698 -0.0287  0.9867
15261SOL     OW52128   8.253   1.539   8.506  0.3480 -0.2480 -0.6123
15261SOL    HW152129   8.281   1.456   8.543 -0.1372  0.1028  0.5801
15261SOL    HW252130   8.286   1.538   8.416  1.0531 -1.3657 -0.3525
15262SOL     OW52131   4.590   7.694   6.317 -0.2201  0.2919 -0.6052
15262SOL    HW152132   4.523   7.695   6.249  0.5514  2.3233 -1.3797
15262SOL    HW252133   4.557   7.754   6.384  0.6949  1.1211 -0.8809
15263SOL     OW52134   2.193   8.668   9.144 -0.7115  0.4000 -0.7005
15263SOL    HW152135   2.172   8.702   9.231  1.1791 -0.9148  0.3636
15263SOL    HW252136   2.199   8.746   9.089  0.8543  1.6181  1.0316
15264SOL     OW52137   2.766   7.122   0.978  0.4434  0.1398 -0.4299
15264SOL    HW152138   2.830   7.060   1.013 -2.0392 -0.0908  4.3991
15264SOL    HW252139   2.736   7.081   0.897  1.6847 -3.0453  0.5447
15265SOL     OW52140   6.945   9.247   2.712  0.1529  0.4093  0.4090
15265SOL    HW152141   7.010   9.241   2.642 -0.4148 -1.4046 -0.0231
15265SOL    HW252142   6.895   9.326   2.691 -1.3337 -1.1539 -2.4672
15266SOL     OW52143   6.362   8.763   2.328 -0.6898  0.5466  0.3232
15266SOL    HW152144   6.384   8.799   2.242  0.5631  2.8044  1.4843
15266SOL    HW252145   6.396   8.674   2.326 -0.7029  0.5320 -1.4955
15267SOL     OW52146   7.460   2.373   2.923  0.1298 -0.1199 -0.2561
15267SOL    HW152147   7.489   2.288   2.891  0.7895 -0.1407  0.3793
15267SOL    HW252148   7.430   2.420   2.844  0.5982 -0.6084 -0.7271
15268SOL     OW52149   4.603   1.880   8.851 -0.0134 -0.2630  0.1727
15268SOL    HW152150   4.598   1.867   8.756 -0.3276 -0.9767  0.2776
15268SOL    HW252151   4.512   1.879   8.880 -0.0017  1.1975  0.3425
15269SOL     OW52152   4.447   6.528   8.702 -0.4887  0.9458  0.1772
15269SOL    HW152153   4.508   6.526   8.627 -1.2183  3.2407 -0.5761
15269SOL    HW252154   4.367   6.565   8.666 -1.4838  0.3644  1.7286
15270SOL     OW52155   5.733   1.107   4.099 -0.0660 -0.1377  0.1657
15270SOL    HW152156   5.796   1.156   4.045 -1.3476  0.0321 -1.2300
15270SOL    HW252157   5.727   1.022   4.056 -0.9316 -0.0815  0.1695
15271SOL     OW52158   1.355   8.203   4.115  0.3114  0.3222 -0.1623
15271SOL    HW152159   1.304   8.282   4.101  0.8500  0.4147 -1.7732
15271SOL    HW252160   1.312   8.137   4.061 -0.0337 -0.4812  1.0330
15272SOL     OW52161   3.294   1.161   2.660 -0.1020 -1.1189 -0.0555
15272SOL    HW152162   3.202   1.137   2.666 -0.2152 -0.6427  0.2057
15272SOL    HW252163   3.340   1.101   2.719 -0.3487 -0.8329  0.4277
15273SOL     OW52164   7.980   0.852   6.099 -0.4400 -0.3555 -0.9531
15273SOL    HW152165   7.925   0.913   6.149 -0.6133 -0.5011 -0.9620
15273SOL    HW252166   7.938   0.848   6.013 -0.9265 -1.1235 -0.7034
15274SOL     OW52167   5.576   3.095   6.846  0.3730  0.0028  0.1431
15274SOL    HW152168   5.489   3.118   6.813 -0.2504  1.4113  2.5032
15274SOL    HW252169   5.621   3.057   6.771 -1.6235  1.0114 -1.6726
15275SOL     OW52170   4.442   8.772   2.133  0.5657 -0.1309 -0.4746
15275SOL    HW152171   4.422   8.682   2.159  2.4940 -0.7715 -1.1037
15275SOL    HW252172   4.492   8.808   2.206 -1.7573  1.1329  0.6334
15276SOL     OW52173   4.690   4.291   8.064  0.1457 -0.1505  0.1618
15276SOL    HW152174   4.714   4.206   8.102  0.7409 -0.0750 -0.0342
15276SOL    HW252175   4.671   4.272   7.973  0.1237 -0.0985  0.1562
15277SOL     OW52176   4.796   2.433   3.550 -0.1901 -0.5770 -0.1905
15277SOL    HW152177   4.774   2.392   3.634 -0.8686 -1.1707 -0.6461
15277SOL    HW252178   4.815   2.524   3.572 -1.6143 -0.4134  0.4412
15278SOL     OW52179   6.830   0.905   2.544 -0.3213  0.0886 -0.4149
15278SOL    HW152180   6.756   0.915   2.485  0.9343  2.0425 -1.7607
15278SOL    HW252181   6.891   0.848   2.497 -0.7828 -1.2882  0.5709
15279SOL     OW52182   1.333   5.676   3.390 -0.1413  0.1746  0.0659
15279SOL    HW152183   1.331   5.587   3.427  1.9685  0.5406  1.2516
15279SOL    HW252184   1.338   5.733   3.467  2.7231  1.0508 -0.6394
15280SOL     OW52185   1.323   0.614   3.707 -0.1695 -0.3529  0.5008
15280SOL    HW152186   1.367   0.617   3.792  0.6342 -0.9539  0.1136
15280SOL    HW252187   1.383   0.658   3.647 -0.7656  0.1352  0.2382
15281SOL     OW52188   2.479   3.584   0.366 -0.1977 -0.0639 -0.5467
15281SOL    HW152189   2.432   3.631   0.297 -1.0729  1.7109  1.1715
15281SOL    HW252190   2.410   3.553   0.425  0.5929 -0.7291  0.0524
15282SOL     OW52191   0.198   4.920   8.252  0.2009 -0.2459  0.0421
15282SOL    HW152192   0.129   4.913   8.185  1.3112  0.9065 -1.2655
15282SOL    HW252193   0.225   4.829   8.267 -0.6708 -0.5986 -0.4264
15283SOL     OW52194   5.590   8.279   7.774 -0.1842 -0.1278 -0.1225
15283SOL    HW152195   5.593   8.212   7.706 -0.5156  0.9220 -1.2334
15283SOL    HW252196   5.607   8.233   7.855 -1.7161 -1.7743 -0.6760
15284SOL     OW52197   9.090   1.189   3.937 -0.6165  0.0065  0.1739
15284SOL    HW152198   9.126   1.173   4.024  0.6303  0.9941 -0.1414
15284SOL    HW252199   9.099   1.105   3.892 -0.4541 -0.2620  0.6914
15285SOL     OW52200   7.344   3.772   1.739  0.0199 -0.4133 -0.4698
15285SOL    HW152201   7.392   3.699   1.777  1.8944  0.4624 -1.0214
15285SOL    HW252202   7.366   3.769   1.645 -0.7190  0.2388 -0.6768
15286SOL     OW52203   4.170   0.802   6.474  0.2885  0.4780 -0.5998
15286SOL    HW152204   4.257   0.773   6.449 -0.4278 -0.3248 -2.2988
15286SOL    HW252205   4.178   0.823   6.567  1.7427 -1.7302 -0.1585
15287SOL     OW52206   4.639   5.927   7.333 -0.0166 -0.8389 -0.0208
15287SOL    HW152207   4.592   5.846   7.348 -2.9610  0.5070 -1.1343
15287SOL    HW252208   4.730   5.907   7.353 -1.0936 -3.4620  2.9488
15288SOL     OW52209   1.878   4.407   2.897  0.7519  0.3452 -0.1727
15288SOL    HW152210   1.879   4.442   2.808 -0.7654  0.9779  0.0127
15288SOL    HW252211   1.901   4.482   2.952 -1.5887  0.8911  0.1627
15289SOL     OW52212   3.462   4.603   1.618  0.1196 -0.2742 -0.1212
15289SOL    HW152213   3.380   4.554   1.621  0.5328 -0.9591  0.1968
15289SOL    HW252214   3.464   4.652   1.700  0.1465 -0.4457 -0.0200
15290SOL     OW52215   2.082   5.868   3.160  0.0682  0.6911  0.0195
15290SOL    HW152216   2.093   5.958   3.131  1.2227  0.7575  0.6141
15290SOL    HW252217   2.170   5.831   3.158 -0.0434  0.2189  1.8388
15291SOL     OW52218   6.971   2.330   6.412  0.3945  0.4465  0.3235
15291SOL    HW152219   7.057   2.370   6.428  1.0228 -0.5663 -0.3319
15291SOL    HW252220   6.923   2.342   6.494  1.7636 -0.3982  1.2912
15292SOL     OW52221   2.434   4.068   5.744 -0.7519 -0.4425  0.0773
15292SOL    HW152222   2.390   4.115   5.673 -1.0298 -0.9801 -0.1138
15292SOL    HW252223   2.417   4.121   5.822  0.8905  1.0175 -0.4788
15293SOL     OW52224   2.953   8.210   3.939  0.4592 -0.2695 -0.0924
15293SOL    HW152225   3.021   8.151   3.972 -1.4307 -2.4998  0.1089
15293SOL    HW252226   2.933   8.176   3.852 -0.4160  0.3144 -0.1206
15294SOL     OW52227   9.183   6.150   6.460 -0.2391 -0.2696  0.0691
15294SOL    HW152228   9.257   6.126   6.516 -1.0259 -0.3823  1.0993
15294SOL    HW252229   9.222   6.165   6.374  0.8466 -1.2590  0.3545
15295SOL     OW52230   0.167   6.600   8.173  0.6498  0.1751  0.0908
15295SOL    HW152231   0.090   6.547   8.190  1.0933 -0.5271 -0.0456
15295SOL    HW252232   0.139   6.661   8.105  0.0297  0.3609  0.5100
15296SOL     OW52233   4.256   0.553   3.178 -0.6503 -0.4668 -0.5501
15296SOL    HW152234   4.162   0.556   3.194 -0.8090 -0.5447 -1.4355
15296SOL    HW252235   4.265   0.510   3.093  0.3021 -2.5673  0.5383
15297SOL     OW52236   2.656   6.133   1.477 -0.0705  0.6450  0.8424
15297SOL    HW152237   2.609   6.105   1.556 -0.1093  0.8992  0.9113
15297SOL    HW252238   2.670   6.053   1.427  0.5857  0.3777  1.4426
15298SOL     OW52239   0.220   0.049   6.818 -0.3158 -0.3927  0.8506
15298SOL    HW152240   0.210   0.020   6.908  2.0441 -0.1479  1.2674
15298SOL    HW252241   0.295   0.108   6.820  1.1641 -1.9740 -1.5531
15299SOL     OW52242   0.993   1.116   4.593  0.0459 -0.7746  0.2598
15299SOL    HW152243   1.030   1.073   4.516 -0.5096 -1.3322  0.3002
15299SOL    HW252244   1.058   1.103   4.661  1.9367  2.1987 -0.7773
15300SOL     OW52245   9.036   5.644   6.505  0.2490 -0.1911  0.0483
15300SOL    HW152246   9.021   5.736   6.527 -2.6278 -0.7669  0.9142
15300SOL    HW252247   9.129   5.631   6.522  0.7257  2.4952  0.0649
15301SOL     OW52248   0.868   1.316   6.525  0.3394  0.0155 -0.0053
15301SOL    HW152249   0.899   1.292   6.612  2.7696  0.7707 -0.5753
15301SOL    HW252250   0.798   1.379   6.541 -0.6556 -1.3676  1.3765
15302SOL     OW52251   2.845   0.778   6.688 -0.2417 -0.5277 -0.5752
15302SOL    HW152252   2.910   0.724   6.644 -0.2503 -1.6254  0.6995
15302SOL    HW252253   2.886   0.864   6.694 -0.2666 -0.3058 -2.7290
15303SOL     OW52254   9.070   3.596   4.027  0.1115 -0.0012 -0.1606
15303SOL    HW152255   9.088   3.546   4.107  1.3374 -0.1415 -0.5043
15303SOL    HW252256   9.156   3.609   3.987 -0.4786  0.1041 -1.4445
15304SOL     OW52257   2.524   6.317   1.147 -0.1024  0.3297 -0.3040
15304SOL    HW152258   2.591   6.371   1.106  0.6618 -0.0841  0.3826
15304SOL    HW252259   2.473   6.378   1.200  1.3585  0.2749  1.2498
15305SOL     OW52260   2.470   7.828   2.259  0.2787 -0.0939  0.1639
15305SOL    HW152261   2.384   7.853   2.225 -0.0314  1.9717  2.2813
15305SOL    HW252262   2.458   7.739   2.292 -0.6189 -0.3720 -0.8533
15306SOL     OW52263   1.729   0.565   8.236 -0.8680  0.3087  0.1394
15306SOL    HW152264   1.676   0.521   8.302 -0.7354  0.1404  0.1340
15306SOL    HW252265   1.780   0.495   8.195 -2.9772 -0.0468 -2.0941
15307SOL     OW52266   4.620   6.461   6.572 -0.0282 -0.7608  0.0772
15307SOL    HW152267   4.638   6.469   6.666 -0.9278  0.5279  0.1627
15307SOL    HW252268   4.706   6.450   6.532  0.4438 -0.3806  0.9708
15308SOL     OW52269   0.620   4.736   7.955  0.2028  0.1086  0.3063
15308SOL    HW152270   0.706   4.712   7.921  1.8313  0.7322  3.5310
15308SOL    HW252271   0.575   4.652   7.968  0.5006 -0.2592 -0.9101
15309SOL     OW52272   1.869   5.395   7.106 -0.9941 -0.0381 -0.0382
15309SOL    HW152273   1.867   5.360   7.017  1.5856  0.7045 -0.4832
15309SOL    HW252274   1.845   5.487   7.096  0.5676  0.3794 -0.2227
15310SOL     OW52275   6.942   2.889   1.139 -0.0328  0.4263  0.2211
15310SOL    HW152276   6.935   2.800   1.105  0.4568  0.4455  0.0575
15310SOL    HW252277   6.863   2.933   1.108  0.4016  0.4500 -0.9325
15311SOL     OW52278   9.219   4.246   0.365 -0.3917  0.3121 -0.1680
15311SOL    HW152279   9.302   4.289   0.385 -0.4365  0.6189 -0.6231
15311SOL    HW252280   9.237   4.195   0.287 -0.8266  1.0018 -0.7368
15312SOL     OW52281   3.085   5.716   4.887  0.0886  0.4503  0.4154
15312SOL    HW152282   3.152   5.772   4.848  0.3554  0.4797  0.9177
15312SOL    HW252283   3.004   5.766   4.877  0.4189  1.2473  1.4636
15313SOL     OW52284   3.458   3.910   0.586 -0.2160 -0.1071 -0.5957
15313SOL    HW152285   3.430   3.862   0.664  2.2396 -1.3321 -0.3524
15313SOL    HW252286   3.380   3.913   0.531 -2.2510  1.3748  2.0927
15314SOL     OW52287   8.696   7.510   3.780 -0.1722 -0.3262  0.3797
15314SOL    HW152288   8.752   7.585   3.799 -1.4796  0.7859 -0.1085
15314SOL    HW252289   8.737   7.468   3.704  0.1967  0.2695  0.2438
15315SOL     OW52290   0.094   9.064   6.520  0.1949 -0.2360 -0.4587
15315SOL    HW152291   0.041   9.113   6.584 -1.1057 -0.4490 -1.3266
15315SOL    HW252292   0.054   8.977   6.518  0.6264 -0.4221 -1.1085
15316SOL     OW52293   8.455   2.470   6.515  0.1312 -0.3717  0.5873
15316SOL    HW152294   8.536   2.514   6.540 -0.6256  0.3803  1.8186
15316SOL    HW252295   8.474   2.377   6.526  0.8328 -0.2063  0.8283
15317SOL     OW52296   8.475   1.113   9.182 -0.0685 -0.1995 -0.1291
15317SOL    HW152297   8.548   1.103   9.242 -0.2472 -0.0220  0.1223
15317SOL    HW252298   8.486   1.200   9.144  0.3887 -0.5539 -0.8259
15318SOL     OW52299   4.883   2.271   6.705  0.3561  0.1575  0.8685
15318SOL    HW152300   4.958   2.239   6.655  0.1822 -1.3554  1.5145
15318SOL    HW252301   4.921   2.308   6.784  0.4839  0.1887  0.7920
15319SOL     OW52302   0.752   4.346   0.148 -0.0782 -0.0104 -0.5397
15319SOL    HW152303   0.674   4.312   0.192  0.5637 -1.2717 -0.3474
15319SOL    HW252304   0.817   4.355   0.217  0.4812 -0.6188 -0.9751
15320SOL     OW52305   0.803   4.145   1.017  0.0878 -0.8075  0.5972
15320SOL    HW152306   0.828   4.149   0.925 -0.2877 -0.5703  0.5006
15320SOL    HW252307   0.876   4.185   1.064 -1.2774  2.6377  0.0942
15321SOL     OW52308   6.975   3.399   5.148 -0.2656 -0.0349 -0.4129
15321SOL    HW152309   7.038   3.332   5.176  1.8048  2.7323  2.2238
15321SOL    HW252310   7.022   3.449   5.080 -0.1709  1.1270  0.4848
15322SOL     OW52311   1.899   5.364   5.663 -0.6848 -0.4809  0.1444
15322SOL    HW152312   1.874   5.389   5.575  1.7121 -1.7376 -0.9818
15322SOL    HW252313   1.906   5.269   5.660 -1.2018 -0.6082  1.8905
15323SOL     OW52314   6.994   1.951   8.494 -0.2585  0.2717  0.0112
15323SOL    HW152315   6.909   1.910   8.506  0.1276 -0.5514 -0.0177
15323SOL    HW252316   6.994   1.981   8.403  0.0272 -1.0310 -0.4336
15324SOL     OW52317   5.028   4.416   1.780 -0.0976 -0.0090  0.1316
15324SOL    HW152318   4.948   4.366   1.766 -1.0147  0.7993  2.0722
15324SOL    HW252319   5.065   4.379   1.861 -1.5014  3.0917  2.4117
15325SOL     OW52320   5.756   5.268   0.232 -0.5598 -0.0165 -0.5648
15325SOL    HW152321   5.673   5.221   0.236 -0.7211  0.2098 -1.1966
15325SOL    HW252322   5.745   5.343   0.290  0.1570 -1.4460  1.5143
15326SOL     OW52323   4.099   8.071   0.224 -0.1412 -0.1319 -0.0880
15326SOL    HW152324   4.092   8.035   0.136  0.7508 -0.5848  0.0183
15326SOL    HW252325   4.042   8.014   0.277 -0.2873 -0.1667 -0.2800
15327SOL     OW52326   2.364   1.963   2.060 -0.0642  0.0687 -0.1591
15327SOL    HW152327   2.429   1.898   2.086  0.1699  0.3960  0.0761
15327SOL    HW252328   2.405   2.009   1.987 -0.6745 -0.7753 -1.0645
15328SOL     OW52329   3.770   5.145   4.124  0.3032 -0.0196 -0.3830
15328SOL    HW152330   3.782   5.236   4.097 -0.9177  0.5296  0.7764
15328SOL    HW252331   3.692   5.116   4.076  0.0821 -0.0992  0.0146
15329SOL     OW52332   4.563   0.203   2.238  0.4730 -0.5694 -0.0784
15329SOL    HW152333   4.481   0.239   2.273  0.8076  0.2317 -0.0871
15329SOL    HW252334   4.553   0.109   2.246 -2.0722 -0.8144 -3.5573
15330SOL     OW52335   3.757   9.167   2.127  0.8632 -0.1362 -0.7514
15330SOL    HW152336   3.835   9.220   2.142  0.5090  1.0331 -2.6181
15330SOL    HW252337   3.708   9.172   2.209  1.1703  1.9387 -0.6394
15331SOL     OW52338   2.662   2.342   2.512  0.3152  0.8319 -0.0615
15331SOL    HW152339   2.731   2.342   2.446  1.8290  0.4854  1.4667
15331SOL    HW252340   2.615   2.259   2.498 -2.5463  2.7606 -3.7299
15332SOL     OW52341   3.172   1.268   5.237  0.5969 -0.1360 -0.2725
15332SOL    HW152342   3.163   1.174   5.256  0.3033  0.1775  1.3420
15332SOL    HW252343   3.251   1.274   5.183  0.9242 -1.2742  0.0418
15333SOL     OW52344   2.003   0.108   1.175  0.1551  0.2786  0.3567
15333SOL    HW152345   2.085   0.152   1.195 -0.1265  0.1859  1.8376
15333SOL    HW252346   2.029   0.029   1.128  1.0309 -0.3173  1.7714
15334SOL     OW52347   1.688   4.530   1.321 -0.2196 -0.6923  0.4123
15334SOL    HW152348   1.669   4.530   1.415 -0.8716  0.7799  0.3083
15334SOL    HW252349   1.775   4.491   1.314  0.9262  1.4041  1.9143
15335SOL     OW52350   4.642   1.615   8.490 -0.1449  0.5526  0.1901
15335SOL    HW152351   4.585   1.555   8.442  1.2241  0.0672 -0.8876
15335SOL    HW252352   4.685   1.560   8.556  2.1287 -0.0580 -1.6610
15336SOL     OW52353   5.814   4.232   3.468 -0.2570 -0.0658  0.0399
15336SOL    HW152354   5.857   4.246   3.553  1.8658  0.4128 -1.0427
15336SOL    HW252355   5.722   4.217   3.490  0.2218  0.0688  2.4152
15337SOL     OW52356   2.772   8.803   7.288  0.3722 -0.4619  0.5247
15337SOL    HW152357   2.715   8.739   7.245  0.9362  0.0247 -1.0443
15337SOL    HW252358   2.857   8.792   7.246  1.0695 -0.2019  1.8191
15338SOL     OW52359   7.323   2.175   5.239  0.1285  0.4036 -0.1020
15338SOL    HW152360   7.355   2.103   5.185  1.4990  0.0999  1.0545
15338SOL    HW252361   7.290   2.239   5.176 -1.4518 -1.3192 -1.1628
15339SOL     OW52362   2.979   3.767   6.702  0.5639  0.0727  0.1454
15339SOL    HW152363   2.980   3.697   6.766 -0.3039  1.4732  1.7861
15339SOL    HW252364   3.059   3.817   6.720  1.1256 -0.4052 -0.9407
15340SOL     OW52365   4.927   2.503   7.257  0.1159  0.4441  0.2372
15340SOL    HW152366   4.987   2.537   7.190  1.5411 -0.3267  1.0797
15340SOL    HW252367   4.958   2.542   7.339 -0.1022 -0.4928  0.7799
15341SOL     OW52368   1.676   3.371   2.973  0.3288 -0.1734  0.4365
15341SOL    HW152369   1.642   3.429   3.040 -0.2917 -0.8197  0.6999
15341SOL    HW252370   1.750   3.418   2.935 -0.1540  0.7696  0.6482
15342SOL     OW52371   7.108   2.944   8.281  0.1738 -0.2503  0.2329
15342SOL    HW152372   7.189   2.986   8.310  1.0465 -1.4410 -0.3709
15342SOL    HW252373   7.098   2.973   8.190  1.1320 -1.7672 -0.4019
15343SOL     OW52374   8.020   7.582   8.126  0.0700 -0.3189  0.0271
15343SOL    HW152375   8.084   7.592   8.056  1.9054 -1.5808  1.4199
15343SOL    HW252376   8.041   7.652   8.188  0.6314 -1.1821  0.8403
15344SOL     OW52377   5.329   3.141   2.897 -0.0959  0.0591 -0.4669
15344SOL    HW152378   5.304   3.172   2.811 -0.1518 -1.5493 -1.0732
15344SOL    HW252379   5.349   3.048   2.884 -0.7899 -0.3980  1.3638
15345SOL     OW52380   8.003   5.939   7.564 -0.1233 -0.5079  0.0005
15345SOL    HW152381   7.943   5.867   7.544 -1.8643  0.9913 -0.4982
15345SOL    HW252382   7.970   5.975   7.646  0.4859 -0.0496  0.0494
15346SOL     OW52383   3.319   0.941   6.738  0.3226 -0.0028  0.2656
15346SOL    HW152384   3.271   0.865   6.772  0.1141 -0.3288 -0.7252
15346SOL    HW252385   3.285   1.015   6.789 -1.3734 -0.1994 -0.4969
15347SOL     OW52386   8.526   6.878   8.503  0.2691 -0.0963 -0.4447
15347SOL    HW152387   8.512   6.784   8.491 -0.8996 -0.2028  1.4469
15347SOL    HW252388   8.581   6.884   8.581 -2.1831  0.8411  1.3016
15348SOL     OW52389   6.493   3.697   3.786  0.9696 -0.1474  0.1887
15348SOL    HW152390   6.414   3.734   3.824  1.2446 -0.4347  1.0510
15348SOL    HW252391   6.506   3.748   3.705 -0.0593 -0.0693  0.0555
15349SOL     OW52392   6.049   6.160   4.587 -0.1777 -0.1084 -0.3832
15349SOL    HW152393   5.988   6.175   4.515 -1.3931 -1.7049  0.2453
15349SOL    HW252394   6.134   6.149   4.545 -0.6368  0.3216 -1.4554
15350SOL     OW52395   1.525   6.204   4.249  0.0706  0.6599  0.0379
15350SOL    HW152396   1.589   6.249   4.194  0.1555 -2.1129 -2.4140
15350SOL    HW252397   1.577   6.149   4.307 -0.0213 -0.0007 -0.4871
15351SOL     OW52398   5.625   6.342   7.350  0.0370  0.1935 -0.9613
15351SOL    HW152399   5.577   6.354   7.268  1.7870  2.3481 -1.7533
15351SOL    HW252400   5.557   6.317   7.413 -2.1199  2.7522 -2.0701
15352SOL     OW52401   9.027   0.436   0.536 -0.4263 -0.0775 -0.1242
15352SOL    HW152402   9.108   0.396   0.567 -0.6902 -0.5378 -0.0180
15352SOL    HW252403   8.989   0.476   0.614 -0.1711  0.3752 -0.2269
15353SOL     OW52404   3.351   0.241   1.096  0.1106  0.0688  0.5622
15353SOL    HW152405   3.280   0.243   1.160 -0.9641 -1.2624 -0.5573
15353SOL    HW252406   3.310   0.264   1.013  1.0449 -0.4232 -0.0553
15354SOL     OW52407   3.330   9.016   4.774 -0.0067 -0.5223 -0.1734
15354SOL    HW152408   3.362   9.040   4.687 -0.1907  3.7220  0.7023
15354SOL    HW252409   3.248   9.064   4.784  0.5430  0.0328  2.6727
15355SOL     OW52410   7.889   2.770   4.721  0.0927 -0.0803 -0.4598
15355SOL    HW152411   7.914   2.681   4.746 -0.1733 -0.5500 -1.8194
15355SOL    HW252412   7.862   2.811   4.804 -0.7210 -1.5567  0.0445
15356SOL     OW52413   2.319   4.469   6.271  0.3555 -0.0523  0.1231
15356SOL    HW152414   2.314   4.442   6.363 -1.2814  2.7463  0.9837
15356SOL    HW252415   2.228   4.480   6.244  0.8490  0.6351 -1.3905
15357SOL     OW52416   0.581   3.994   1.613 -0.0025 -0.0473  0.2359
15357SOL    HW152417   0.644   3.925   1.596 -1.3714 -1.8809  2.0366
15357SOL    HW252418   0.507   3.975   1.555 -0.6958 -0.6228  1.2587
15358SOL     OW52419   6.754   2.181   1.875 -0.1368 -0.5510 -0.8150
15358SOL    HW152420   6.659   2.185   1.890  0.0018  0.9738 -0.1684
15358SOL    HW252421   6.791   2.168   1.963  0.3812  2.1395 -0.5542
15359SOL     OW52422   1.989   7.506   0.495 -0.5540 -0.5303  0.3413
15359SOL    HW152423   2.049   7.434   0.514  0.0276 -0.4594 -1.1464
15359SOL    HW252424   1.961   7.537   0.582  0.0021 -1.8506  1.0134
15360SOL     OW52425   4.801   2.194   6.399  0.2292  0.0442 -0.4523
15360SOL    HW152426   4.774   2.103   6.410  1.4962 -0.1340  1.8350
15360SOL    HW252427   4.894   2.188   6.375  0.3051  0.7368 -0.3377
15361SOL     OW52428   2.861   4.085   4.374  0.5474 -0.3861  0.1373
15361SOL    HW152429   2.774   4.106   4.341  0.0254 -2.0083  0.3928
15361SOL    HW252430   2.908   4.053   4.297  0.9330  0.4575  0.0061
15362SOL     OW52431   3.914   2.577   4.251  0.0665 -0.3392 -0.0399
15362SOL    HW152432   3.856   2.593   4.177 -1.1077 -0.4727  0.8099
15362SOL    HW252433   3.994   2.542   4.213 -0.9139 -1.4361 -1.1640
15363SOL     OW52434   0.588   0.639   7.924 -0.1805  0.0645  0.6231
15363SOL    HW152435   0.552   0.583   7.993  0.1366 -0.3542  0.4553
15363SOL    HW252436   0.667   0.676   7.962 -0.4431  0.4804  0.7682
15364SOL     OW52437   6.660   6.754   2.849 -0.1624 -0.6307 -0.3559
15364SOL    HW152438   6.691   6.746   2.939 -1.6594 -1.1343  0.1473
15364SOL    HW252439   6.566   6.736   2.854 -0.5943  0.9922 -1.7727
15365SOL     OW52440   4.554   3.247   4.778 -0.1690 -0.0106 -0.0822
15365SOL    HW152441   4.551   3.154   4.757 -0.5729  0.3579 -1.7711
15365SOL    HW252442   4.643   3.274   4.753 -1.1360  0.7659 -3.0702
15366SOL     OW52443   5.887   7.566   0.817 -0.3130 -0.0529  0.6268
15366SOL    HW152444   5.838   7.536   0.894  0.6423  0.6531  1.5325
15366SOL    HW252445   5.976   7.536   0.832 -0.4654 -1.5640 -1.1464
15367SOL     OW52446   4.011   3.397   1.246 -0.1055  0.6934  0.0023
15367SOL    HW152447   4.014   3.487   1.276 -1.6818  0.5530  0.6425
15367SOL    HW252448   3.925   3.365   1.273 -0.1776 -0.5404 -1.5440
15368SOL     OW52449   6.190   2.744   2.036  0.3515  0.2021  0.1226
15368SOL    HW152450   6.222   2.741   2.125 -0.8207 -0.5461  0.5518
15368SOL    HW252451   6.251   2.690   1.986  0.6479  0.0934  0.6033
15369SOL     OW52452   4.897   0.889   0.841 -0.4652 -0.2459  0.5783
15369SOL    HW152453   4.832   0.947   0.801 -0.9464 -1.2622 -0.1693
15369SOL    HW252454   4.980   0.912   0.798 -0.6075  0.0534  0.4612
15370SOL     OW52455   7.025   2.942   7.995 -0.0045  0.4981  0.3106
15370SOL    HW152456   6.977   3.026   8.000  0.5239  0.7953  0.4291
15370SOL    HW252457   7.095   2.958   7.932 -0.7781 -0.3073 -0.7815
15371SOL     OW52458   1.337   6.762   0.150 -0.3647 -0.4157 -0.1586
15371SOL    HW152459   1.412   6.770   0.209 -0.7863 -0.2946  0.3731
15371SOL    HW252460   1.261   6.759   0.208 -0.8977  0.9799 -0.7438
15372SOL     OW52461   6.830   4.452   5.927 -0.1356 -0.6007 -0.3447
15372SOL    HW152462   6.893   4.387   5.895  1.7246  0.6040  0.7197
15372SOL    HW252463   6.882   4.510   5.982 -2.1950  0.5086  0.5018
15373SOL     OW52464   4.642   4.712   1.185 -0.4144 -0.0729 -0.1434
15373SOL    HW152465   4.637   4.736   1.278  1.0799 -1.4279  0.3306
15373SOL    HW252466   4.583   4.774   1.141 -0.3624  1.2638  1.5680
15374SOL     OW52467   2.597   7.681   6.933  0.5675  0.6991 -0.3326
15374SOL    HW152468   2.516   7.696   6.982 -0.2534  0.5064 -1.5616
15374SOL    HW252469   2.569   7.628   6.858  2.0765 -0.4727 -0.1121
15375SOL     OW52470   5.880   2.201   1.700 -0.1911 -0.1376  0.2518
15375SOL    HW152471   5.838   2.185   1.616 -2.6173 -0.6516  1.4649
15375SOL    HW252472   5.829   2.273   1.738  0.7227 -0.0577  1.3734
15376SOL     OW52473   6.398   4.845   7.935  0.6349 -0.3793 -0.6531
15376SOL    HW152474   6.388   4.809   7.847 -2.1556  0.1650 -0.6333
15376SOL    HW252475   6.360   4.779   7.993  2.0173 -0.5210  0.1512
15377SOL     OW52476   2.174   4.872   8.902 -0.2668  0.0184  0.3296
15377SOL    HW152477   2.205   4.805   8.963  0.1142 -1.3466 -1.2880
15377SOL    HW252478   2.079   4.865   8.906 -0.2372 -0.3784  0.4248
15378SOL     OW52479   8.030   8.446   3.775  0.5047  0.4567  0.4098
15378SOL    HW152480   8.040   8.408   3.863  0.9448  1.1809  0.6858
15378SOL    HW252481   8.011   8.539   3.792  0.7341  0.6294 -0.2661
15379SOL     OW52482   1.406   3.718   5.904 -0.0938 -0.5605  0.8957
15379SOL    HW152483   1.339   3.669   5.951  1.2819 -1.4718  1.9750
15379SOL    HW252484   1.469   3.652   5.875  1.8751  0.5054  2.4854
15380SOL     OW52485   5.891   2.923   8.600  0.2289 -0.0307  0.0282
15380SOL    HW152486   5.896   2.947   8.693 -0.1800 -1.3147  0.3915
15380SOL    HW252487   5.847   2.838   8.599 -3.2750  1.5985 -1.5660
15381SOL     OW52488   1.474   2.716   6.810 -0.0805  0.1640  0.0125
15381SOL    HW152489   1.454   2.762   6.892 -0.2872 -1.8251  1.1533
15381SOL    HW252490   1.570   2.712   6.808 -0.0808 -0.9676  0.9193
15382SOL     OW52491   0.188   1.110   4.127  0.0476  0.1116  0.3826
15382SOL    HW152492   0.178   1.194   4.082  1.2117 -0.0771 -0.2538
15382SOL    HW252493   0.146   1.047   4.070  1.4025 -0.1066 -0.4147
15383SOL     OW52494   9.114   3.106   5.481 -0.5721 -0.0656 -0.6088
15383SOL    HW152495   9.072   3.041   5.538  0.8307 -0.0876  0.4817
15383SOL    HW252496   9.099   3.074   5.392 -2.2379 -0.4077 -0.2392
15384SOL     OW52497   3.958   0.075   5.276  0.1944  0.2329  0.2101
15384SOL    HW152498   3.956   0.131   5.199  1.4408  1.0985  0.7800
15384SOL    HW252499   3.953  -0.014   5.241  1.4770  0.5754 -0.9231
15385SOL     OW52500   3.496   3.211   3.938  0.5370 -0.2571  0.2591
15385SOL    HW152501   3.423   3.181   3.883  1.2207 -1.5359  0.0191
15385SOL    HW252502   3.458   3.217   4.026 -0.4978  1.5699 -0.2468
15386SOL     OW52503   7.395   4.705   6.835 -0.5534  0.3000  0.1329
15386SOL    HW152504   7.399   4.632   6.774 -0.2053  0.6207 -0.2381
15386SOL    HW252505   7.305   4.737   6.828 -0.7096 -0.0939  0.3051
15387SOL     OW52506   3.893   0.695   5.410  0.6618 -0.2542 -0.5799
15387SOL    HW152507   3.916   0.607   5.440  0.2296 -0.0887  0.2727
15387SOL    HW252508   3.957   0.714   5.341  1.3469 -0.8651 -0.1318
15388SOL     OW52509   3.821   0.636   5.801 -0.0230  0.0957 -0.4515
15388SOL    HW152510   3.891   0.701   5.798 -0.8961  1.0713 -0.2020
15388SOL    HW252511   3.855   0.567   5.858  0.4821  0.8634  0.1929
15389SOL     OW52512   8.015   6.788   6.384  0.0873  0.0124 -0.5633
15389SOL    HW152513   7.967   6.812   6.305 -1.5635  1.1155  0.7100
15389SOL    HW252514   8.077   6.721   6.355 -1.6255 -0.8526 -2.4619
15390SOL     OW52515   4.615   8.581   8.521  0.5939 -0.0047 -0.6393
15390SOL    HW152516   4.570   8.628   8.591 -1.5092 -1.0627 -1.1993
15390SOL    HW252517   4.553   8.580   8.448  1.7436 -1.0523 -1.6614
15391SOL     OW52518   0.544   2.016   7.748 -0.1025 -0.5221 -0.1333
15391SOL    HW152519   0.542   1.962   7.827 -0.7259  1.2499  1.1353
15391SOL    HW252520   0.598   1.967   7.686  0.9008 -1.6951  1.6001
15392SOL     OW52521   5.872   1.188   0.646 -0.4866 -0.4241 -0.1484
15392SOL    HW152522   5.861   1.279   0.620  0.2138 -0.1822  0.3688
15392SOL    HW252523   5.896   1.191   0.738 -1.0365 -1.1696  0.0308
15393SOL     OW52524   8.498   7.710   2.443 -0.4899  0.0845 -0.1820
15393SOL    HW152525   8.519   7.803   2.447 -0.0131  0.0553 -1.6248
15393SOL    HW252526   8.574   7.666   2.481  1.2797  0.0992 -3.3834
15394SOL     OW52527   4.562   3.097   6.895 -0.0085  0.4555 -0.7303
15394SOL    HW152528   4.518   3.023   6.937  0.1727  0.8619  0.2050
15394SOL    HW252529   4.503   3.123   6.825 -0.9368  0.5379  0.0527
15395SOL     OW52530   3.055   1.834   4.910 -0.3188 -0.0090 -0.0424
15395SOL    HW152531   3.139   1.879   4.910  0.5777 -1.5994  0.4918
15395SOL    HW252532   3.063   1.769   4.980 -1.8057 -0.5448 -0.3377
15396SOL     OW52533   4.301   3.905   1.238  0.5428  0.5593  0.5187
15396SOL    HW152534   4.243   3.872   1.169 -0.2828 -0.3663  1.6128
15396SOL    HW252535   4.311   3.998   1.218 -0.6475  0.5560 -0.1812
15397SOL     OW52536   0.059   3.992   8.018 -0.4124 -0.2520 -0.2744
15397SOL    HW152537   0.045   3.931   8.090  0.6407  1.9960  1.9808
15397SOL    HW252538  -0.029   4.022   7.995 -0.8753 -2.0302 -0.9408
15398SOL     OW52539   8.918   1.196   4.572  0.3520  0.4021  0.1592
15398SOL    HW152540   8.825   1.202   4.593  0.3280  2.5842 -0.3447
15398SOL    HW252541   8.922   1.217   4.479  1.3439  0.1819  0.1468
15399SOL     OW52542   2.863   3.100   3.545 -0.8435  0.2554 -0.1674
15399SOL    HW152543   2.815   3.018   3.556 -1.0573  0.1045 -2.0156
15399SOL    HW252544   2.934   3.079   3.484  1.5038  0.5446  2.2317
15400SOL     OW52545   9.193   8.684   9.143  0.4050 -0.2604 -0.6408
15400SOL    HW152546   9.286   8.662   9.131  0.6462  0.0526  0.5182
15400SOL    HW252547   9.193   8.752   9.211 -0.6261  0.2678 -1.1435
15401SOL     OW52548   5.568   7.546   8.687 -0.3466  0.3835 -0.1627
15401SOL    HW152549   5.575   7.464   8.638  1.7627  0.9240 -0.8599
15401SOL    HW252550   5.487   7.586   8.656 -0.8879 -0.9578 -0.5462
15402SOL     OW52551   3.140   8.288   3.570  0.5220  0.0647 -0.0998
15402SOL    HW152552   3.181   8.204   3.553  0.0179 -0.1409 -0.3463
15402SOL    HW252553   3.208   8.341   3.611  0.9499 -0.3421 -0.2791
15403SOL     OW52554   1.861   6.810   9.160  0.2460 -0.8787  0.4604
15403SOL    HW152555   1.861   6.742   9.227  1.2181 -1.7363 -0.3905
15403SOL    HW252556   1.949   6.809   9.123  0.0634  0.3441 -0.0858
15404SOL     OW52557   5.614   2.434   8.619  0.3132  0.5204 -0.9667
15404SOL    HW152558   5.525   2.400   8.626  1.1623 -1.5164  1.6566
15404SOL    HW252559   5.628   2.446   8.525 -2.3498 -0.1134 -1.5184
15405SOL     OW52560   2.075   4.187   2.760 -0.2895 -0.0366 -0.4985
15405SOL    HW152561   1.984   4.176   2.786 -0.2609  2.4915  0.9598
15405SOL    HW252562   2.082   4.279   2.735  1.7878 -0.2698 -0.9689
15406SOL     OW52563   2.934   8.404   5.691 -0.5341 -0.0992  0.1229
15406SOL    HW152564   3.000   8.347   5.730  0.5771  1.0978  0.0196
15406SOL    HW252565   2.952   8.491   5.727 -0.7123  0.6541 -1.5315
15407SOL     OW52566   2.341   8.326   1.105  0.1290 -0.3958  0.0175
15407SOL    HW152567   2.369   8.328   1.014  0.8690 -0.3598  0.2420
15407SOL    HW252568   2.411   8.370   1.153 -1.5332  2.1855  0.2993
15408SOL     OW52569   3.560   6.249   6.320  0.1906  0.2242  0.4236
15408SOL    HW152570   3.622   6.313   6.355 -0.4091 -0.1810  2.3818
15408SOL    HW252571   3.583   6.167   6.363  0.1303 -0.6035 -1.0668
15409SOL     OW52572   1.209   5.804   8.998 -0.0356 -0.8583 -0.4493
15409SOL    HW152573   1.220   5.832   8.907  1.1484 -0.5876 -0.2326
15409SOL    HW252574   1.281   5.743   9.013  0.5658  0.0920  0.6913
15410SOL     OW52575   6.261   6.279   4.348  0.1325 -0.3000  0.1004
15410SOL    HW152576   6.295   6.312   4.265 -2.0009  0.8347 -0.3851
15410SOL    HW252577   6.336   6.236   4.389  2.0887  1.9117 -0.9332
15411SOL     OW52578   4.087   8.767   0.274  0.2649  0.1345 -0.1070
15411SOL    HW152579   4.178   8.779   0.301  0.4354 -1.0755 -0.0891
15411SOL    HW252580   4.091   8.702   0.204 -0.5581  0.2832 -0.2988
15412SOL     OW52581   5.935   3.235   0.789  0.0238  0.6151  0.6320
15412SOL    HW152582   6.020   3.265   0.822  0.4142  0.9326 -0.6298
15412SOL    HW252583   5.942   3.139   0.790  0.4362  0.6420  0.4225
15413SOL     OW52584   6.554   2.554   3.037 -0.1270 -0.4257  0.1659
15413SOL    HW152585   6.568   2.505   3.119 -1.6331 -0.7659  0.2391
15413SOL    HW252586   6.563   2.488   2.968  2.2962  0.0595 -0.0966
15414SOL     OW52587   1.309   0.245   2.226  0.2751  0.0757 -0.6518
15414SOL    HW152588   1.299   0.180   2.156 -0.9179 -0.9474  0.4248
15414SOL    HW252589   1.373   0.206   2.285 -0.0459  0.1035 -0.2802
15415SOL     OW52590   7.934   4.517   2.400 -0.0209  0.5395 -0.1625
15415SOL    HW152591   7.942   4.595   2.456 -1.2473  0.3748  0.2854
15415SOL    HW252592   7.981   4.540   2.320 -0.9116  2.0261 -0.3060
15416SOL     OW52593   2.216   6.330   8.375  0.3660 -0.1044 -0.2827
15416SOL    HW152594   2.286   6.377   8.331  0.0686 -1.4152 -2.2716
15416SOL    HW252595   2.257   6.247   8.403  0.2218  0.1775  0.8344
15417SOL     OW52596   3.436   3.841   1.856  0.3976  0.0068 -0.2393
15417SOL    HW152597   3.345   3.871   1.857 -0.1028 -1.3559  2.5056
15417SOL    HW252598   3.488   3.921   1.846 -1.0542  0.8836 -1.0390
15418SOL     OW52599   7.827   5.738   3.377  0.2823 -0.0780  0.3633
15418SOL    HW152600   7.902   5.717   3.432  1.3466  2.3986 -0.0060
15418SOL    HW252601   7.864   5.787   3.304 -1.6029  0.4478 -0.3045
15419SOL     OW52602   7.598   0.550   5.189 -0.5996 -0.3445  0.6944
15419SOL    HW152603   7.609   0.624   5.249  1.5316 -0.9339  1.1201
15419SOL    HW252604   7.596   0.591   5.102  1.2697  0.2527  0.8702
15420SOL     OW52605   1.574   2.840   7.363 -0.4334  0.4062  0.3075
15420SOL    HW152606   1.500   2.780   7.373  0.0409 -0.1378  0.5019
15420SOL    HW252607   1.649   2.794   7.399  0.2037  0.5698 -0.7542
15421SOL     OW52608   2.500   2.830   2.549  1.0431  0.4695 -0.1129
15421SOL    HW152609   2.451   2.834   2.466  1.6629  1.9580 -0.4371
15421SOL    HW252610   2.513   2.737   2.564 -0.8771  0.0707 -0.6136
15422SOL     OW52611   1.743   4.490   2.627  0.3366 -0.0801  0.1514
15422SOL    HW152612   1.682   4.428   2.587  0.1471  0.3627 -0.2474
15422SOL    HW252613   1.691   4.533   2.696 -0.0259  0.8134 -0.6630
15423SOL     OW52614   8.885   6.393   3.715  0.0459  0.3640  0.0800
15423SOL    HW152615   8.968   6.439   3.728  0.4456 -0.6978  1.5663
15423SOL    HW252616   8.819   6.451   3.753  0.2463  0.7124 -0.0989
15424SOL     OW52617   0.293   1.146   3.088  0.1690 -0.1184  0.0545
15424SOL    HW152618   0.247   1.229   3.081 -1.7548 -1.2522 -1.9113
15424SOL    HW252619   0.371   1.166   3.140 -0.3520  2.8239 -0.1407
15425SOL     OW52620   4.088   1.702   4.459 -0.4275  0.0375 -0.8345
15425SOL    HW152621   4.177   1.719   4.488 -0.7329  0.2128  0.0056
15425SOL    HW252622   4.086   1.608   4.440 -1.0472 -0.7904  2.7356
15426SOL     OW52623   2.519   1.476   3.289 -0.4963  0.3701  0.0489
15426SOL    HW152624   2.523   1.387   3.256 -0.6487  0.2573  0.3277
15426SOL    HW252625   2.545   1.531   3.215 -0.3600  0.0921 -0.1092
15427SOL     OW52626   2.379   7.154   5.872 -0.3030 -0.3698  0.6182
15427SOL    HW152627   2.425   7.071   5.865  1.3976  0.6711 -2.2404
15427SOL    HW252628   2.319   7.154   5.797  0.2564  1.2418  0.1342
15428SOL     OW52629   3.932   1.211   2.508 -0.3322  0.8101  0.4062
15428SOL    HW152630   3.922   1.176   2.596 -0.9365  0.8929  0.3769
15428SOL    HW252631   3.845   1.244   2.485  0.0248  1.5807  0.1153
15429SOL     OW52632   4.470   8.754   7.926 -0.0741 -0.4499  0.0922
15429SOL    HW152633   4.396   8.815   7.924 -2.0370 -2.6958 -0.6308
15429SOL    HW252634   4.457   8.703   8.006  1.0225 -0.5324  0.2369
15430SOL     OW52635   1.729   4.259   6.018  0.1198 -0.4450  0.2624
15430SOL    HW152636   1.677   4.330   5.982  2.4313  1.2285  0.0014
15430SOL    HW252637   1.754   4.206   5.942 -1.2290 -1.3587  0.4079
15431SOL     OW52638   8.861   6.769   0.299 -0.0370  0.3445  0.1389
15431SOL    HW152639   8.784   6.800   0.252  0.2377 -2.8672 -2.8355
15431SOL    HW252640   8.840   6.678   0.321  1.9929  0.1444  1.4939
15432SOL     OW52641   2.664   3.038   7.108  0.0218 -0.4331 -1.0171
15432SOL    HW152642   2.583   3.085   7.088 -1.0911 -1.5414  0.6029
15432SOL    HW252643   2.647   2.997   7.193  3.1247  1.1173  0.4891
15433SOL     OW52644   3.521   8.904   6.416  0.1303  0.4444 -0.3864
15433SOL    HW152645   3.445   8.924   6.361 -0.8397  0.5481  0.9561
15433SOL    HW252646   3.568   8.987   6.423  0.2301  0.4454 -0.9852
15434SOL     OW52647   6.939   1.845   8.022 -0.5703 -0.5011  0.0048
15434SOL    HW152648   6.874   1.788   7.980 -0.0913 -0.9792 -0.0919
15434SOL    HW252649   6.987   1.787   8.081 -0.3145 -0.1185  0.1703
15435SOL     OW52650   5.350   8.212   4.970  1.1000 -0.0001  0.1178
15435SOL    HW152651   5.277   8.255   5.016  0.0480 -1.2243 -0.3453
15435SOL    HW252652   5.415   8.281   4.959 -0.2331  1.2986  0.0507
15436SOL     OW52653   4.171   7.349   3.607  0.1072 -0.5277  0.3943
15436SOL    HW152654   4.079   7.366   3.590 -0.4170 -3.0151  0.5025
15436SOL    HW252655   4.216   7.377   3.527 -0.8496 -0.3441 -0.0894
15437SOL     OW52656   0.357   5.938   8.775  0.2803  0.4148  0.1255
15437SOL    HW152657   0.384   5.984   8.696 -0.6896  0.3596 -0.2485
15437SOL    HW252658   0.434   5.888   8.802  0.6987  0.6526 -0.6170
15438SOL     OW52659   4.638   9.214   7.558  0.4982  0.1623  0.4075
15438SOL    HW152660   4.553   9.215   7.513 -0.2500  1.6821  1.7542
15438SOL    HW252661   4.619   9.180   7.645  1.7108 -1.5778  0.0516
15439SOL     OW52662   3.103   2.950   2.689 -0.1138  0.3769  0.2497
15439SOL    HW152663   3.183   2.998   2.708  0.0013  0.5847 -0.7078
15439SOL    HW252664   3.056   2.947   2.773  1.2648 -0.4711  1.0392
15440SOL     OW52665   6.407   2.354   1.746  0.5634  0.4038 -0.1347
15440SOL    HW152666   6.424   2.278   1.802 -1.6534  0.2971  0.5220
15440SOL    HW252667   6.334   2.326   1.690 -0.2570  1.9936  0.0783
15441SOL     OW52668   7.839   7.468   6.432  0.1919  0.2357  0.4486
15441SOL    HW152669   7.898   7.541   6.452  0.8848  0.2641 -1.4732
15441SOL    HW252670   7.897   7.393   6.419 -0.3974 -0.3028  0.8411
15442SOL     OW52671   8.063   2.263   6.367  0.0888  0.7703 -0.1783
15442SOL    HW152672   8.042   2.272   6.460 -0.7213 -2.0942  0.0044
15442SOL    HW252673   8.156   2.242   6.365 -0.1432 -0.3704  0.1303
15443SOL     OW52674   8.673   1.327   5.230  0.4219 -0.4557  0.5143
15443SOL    HW152675   8.701   1.414   5.259 -1.2943 -0.0252  1.0031
15443SOL    HW252676   8.679   1.273   5.309 -1.0957 -0.0865  0.9183
15444SOL     OW52677   4.796   4.679   6.374  0.5894 -0.3751  0.7992
15444SOL    HW152678   4.776   4.728   6.453  3.2094 -0.4229  1.5947
15444SOL    HW252679   4.858   4.612   6.403 -0.0038 -1.7394 -0.9360
15445SOL     OW52680   5.564   8.851   5.217  0.4791 -0.0576  0.2628
15445SOL    HW152681   5.553   8.806   5.133 -1.0717  1.3947 -0.3663
15445SOL    HW252682   5.511   8.800   5.278 -0.9333  0.6191 -0.3563
15446SOL     OW52683   4.855   8.291   3.414  0.1980 -0.3162 -0.2242
15446SOL    HW152684   4.800   8.367   3.394 -1.5350 -1.2094  0.8972
15446SOL    HW252685   4.904   8.316   3.492  0.7052  0.1404 -0.6792
15447SOL     OW52686   2.690   3.845   9.224 -0.3390 -0.3123 -0.4689
15447SOL    HW152687   2.773   3.887   9.249 -0.4186  0.2360 -1.0799
15447SOL    HW252688   2.625   3.888   9.279 -0.3336 -0.0772 -0.6414
15448SOL     OW52689   2.605   0.078   2.530  0.3266  0.4519  0.2440
15448SOL    HW152690   2.559  -0.005   2.540  1.1337 -0.1408 -0.7923
15448SOL    HW252691   2.557   0.123   2.460  1.2697 -0.1638 -0.8330
15449SOL     OW52692   0.670   4.660   6.258  0.2953  0.4794  0.2115
15449SOL    HW152693   0.646   4.568   6.263  0.5158  0.3376 -1.1073
15449SOL    HW252694   0.758   4.661   6.220 -0.0899  1.2666 -0.7012
15450SOL     OW52695   7.880   2.168   7.124  0.4525 -0.0374  0.3705
15450SOL    HW152696   7.806   2.171   7.064  1.1151  1.4744 -0.4361
15450SOL    HW252697   7.892   2.075   7.144 -2.3626 -0.2459  1.4739
15451SOL     OW52698   9.223   7.049   5.081  0.1635 -0.2777  0.3488
15451SOL    HW152699   9.308   7.027   5.119  1.3046  0.8974 -1.3591
15451SOL    HW252700   9.221   7.001   4.998 -0.3577  0.5265 -0.1187
15452SOL     OW52701   4.936   6.826   4.840  0.3786  0.0537  0.0618
15452SOL    HW152702   4.964   6.740   4.871 -1.5397  0.0827  2.1375
15452SOL    HW252703   4.843   6.815   4.820 -0.0905  1.7876  1.0895
15453SOL     OW52704   0.825   3.804   4.669 -0.5561  0.3243  0.2716
15453SOL    HW152705   0.895   3.786   4.732 -1.0184  1.0513  1.0079
15453SOL    HW252706   0.861   3.776   4.585  0.8967  1.3563  0.5142
15454SOL     OW52707   1.245   0.004   1.828  0.1080 -0.1034  0.2938
15454SOL    HW152708   1.328   0.042   1.798  0.7952 -0.5301  1.5777
15454SOL    HW252709   1.260  -0.090   1.827 -0.7203 -0.2302 -0.4379
15455SOL     OW52710   1.089   7.139   8.345 -0.5150 -0.3961  0.4570
15455SOL    HW152711   1.131   7.223   8.329 -0.2801 -0.5470  0.2713
15455SOL    HW252712   1.014   7.137   8.285 -0.2446 -0.5199  0.1235
15456SOL     OW52713   0.078   4.391   4.465  0.1654 -0.1237  0.3137
15456SOL    HW152714   0.123   4.308   4.479  1.2412 -0.0710 -2.2805
15456SOL    HW252715  -0.014   4.372   4.484  0.1075 -2.4546 -1.7937
15457SOL     OW52716   7.780   6.064   8.057 -0.9109  0.0704  0.1163
15457SOL    HW152717   7.791   6.018   7.974  1.3425 -0.0033  0.3775
15457SOL    HW252718   7.802   6.155   8.037  0.7584 -0.1365  0.7766
15458SOL     OW52719   6.700   4.748   7.630 -0.1852  0.0357 -0.6381
15458SOL    HW152720   6.787   4.760   7.593  0.7181 -0.8696  1.0559
15458SOL    HW252721   6.712   4.761   7.724 -1.1809 -3.0949  0.0480
15459SOL     OW52722   0.150   7.841   2.991 -0.8795 -0.0887  0.2056
15459SOL    HW152723   0.126   7.896   2.916 -0.4053  1.1573  0.9491
15459SOL    HW252724   0.241   7.816   2.974 -0.5354  0.7865  0.6949
15460SOL     OW52725   0.723   9.127   5.154  0.0847 -0.0348 -0.1968
15460SOL    HW152726   0.708   9.063   5.225  1.1721  0.5643  0.6159
15460SOL    HW252727   0.645   9.182   5.155 -1.0739 -1.5655 -1.1934
15461SOL     OW52728   8.755   7.688   7.577  0.5101 -0.1168  0.3144
15461SOL    HW152729   8.773   7.594   7.576 -0.2195 -0.2603  0.0412
15461SOL    HW252730   8.678   7.698   7.521  1.1037  0.7582 -0.3678
15462SOL     OW52731   4.600   5.108   1.754  0.1605  0.1883  0.7132
15462SOL    HW152732   4.509   5.136   1.741  0.2653 -0.6078 -2.6868
15462SOL    HW252733   4.595   5.045   1.827 -1.9250  0.4474  0.8725
15463SOL     OW52734   4.765   8.250   2.532  0.2010 -0.1544 -0.4454
15463SOL    HW152735   4.730   8.177   2.480 -0.0671 -0.0215 -0.4562
15463SOL    HW252736   4.844   8.277   2.486 -0.7873  0.8903 -1.6127
15464SOL     OW52737   8.155   1.006   0.113 -0.5181  0.5813 -0.0022
15464SOL    HW152738   8.169   1.069   0.042  0.0139  1.1873  0.6212
15464SOL    HW252739   8.125   0.927   0.069  0.2087  0.8075 -0.9562
15465SOL     OW52740   2.887   8.398   4.127  0.0780  0.1705  0.5023
15465SOL    HW152741   2.905   8.322   4.073 -2.9342 -0.4876  0.2522
15465SOL    HW252742   2.912   8.371   4.216  1.6153 -0.0485  0.0345
15466SOL     OW52743   5.770   0.001   1.601 -0.0008 -0.0695  0.1938
15466SOL    HW152744   5.802  -0.040   1.521  0.6657  1.1157 -0.1718
15466SOL    HW252745   5.765   0.094   1.580 -2.4692 -0.0144  0.6591
15467SOL     OW52746   8.883   1.311   8.956 -0.0428 -0.2320 -0.1152
15467SOL    HW152747   8.948   1.289   8.889  0.1088 -0.9352  0.2504
15467SOL    HW252748   8.913   1.263   9.034 -0.6638 -0.0662  0.2262
15468SOL     OW52749   3.643   0.555   6.672 -0.0180  0.0857 -0.7344
15468SOL    HW152750   3.578   0.490   6.696  0.3263 -0.2014 -0.5715
15468SOL    HW252751   3.612   0.636   6.713 -0.9428  0.2530 -1.7158
15469SOL     OW52752   8.888   1.083   6.920 -0.7068 -0.1458 -0.0909
15469SOL    HW152753   8.856   1.001   6.882 -1.5437  0.4623 -0.7397
15469SOL    HW252754   8.860   1.150   6.858  0.6555  0.5601  0.0250
15470SOL     OW52755   5.097   2.638   3.685  1.0374  0.4456 -0.4142
15470SOL    HW152756   5.007   2.652   3.715  0.9240  2.2592 -1.4699
15470SOL    HW252757   5.124   2.556   3.727 -1.1853 -0.2769 -0.2753
15471SOL     OW52758   4.792   6.149   8.316 -0.0846 -0.3881  0.3446
15471SOL    HW152759   4.816   6.155   8.409  1.3439  0.8486 -0.0597
15471SOL    HW252760   4.874   6.129   8.271 -0.9425 -1.9859 -0.5870
15472SOL     OW52761   9.091   3.472   6.165  1.0310 -0.5253 -0.1079
15472SOL    HW152762   9.169   3.441   6.211  2.2641  1.5847 -0.6496
15472SOL    HW252763   9.104   3.447   6.074  1.1455 -0.0666 -0.2204
15473SOL     OW52764   6.941   8.326   6.861  0.2085  0.0175  0.5378
15473SOL    HW152765   6.848   8.309   6.845  0.6402 -1.8234 -0.2919
15473SOL    HW252766   6.986   8.249   6.827  1.8733 -0.4132  3.3403
15474SOL     OW52767   6.702   0.702   1.408  0.1228 -0.0529 -0.0890
15474SOL    HW152768   6.621   0.728   1.365  0.4706 -0.1846 -0.8346
15474SOL    HW252769   6.757   0.781   1.406  0.8100 -0.5264 -1.4898
15475SOL     OW52770   0.004   1.312   5.070  0.5092 -0.1392 -0.1016
15475SOL    HW152771   0.091   1.273   5.070  0.5732 -0.0530 -1.6325
15475SOL    HW252772  -0.046   1.261   5.007  0.2265  1.3762 -1.1838
15476SOL     OW52773   4.104   3.696   3.561 -1.1193  0.1472 -0.0455
15476SOL    HW152774   4.075   3.742   3.482  0.7782 -1.1455 -1.5819
15476SOL    HW252775   4.096   3.603   3.539 -0.2492 -0.2337  1.1579
15477SOL     OW52776   8.922   0.297   6.998  0.4443  0.4094 -0.5139
15477SOL    HW152777   8.957   0.318   7.084 -1.7127  0.2233  0.4653
15477SOL    HW252778   8.891   0.380   6.963  0.1109  0.2790 -0.5317
15478SOL     OW52779   0.031   7.977   8.258  0.0757  0.5298 -0.6142
15478SOL    HW152780   0.053   8.059   8.214  0.2863  0.4340 -0.6828
15478SOL    HW252781  -0.064   7.982   8.269 -0.3991 -0.6330 -3.4642
15479SOL     OW52782   6.888   3.915   7.551 -0.2069 -0.0465  0.0270
15479SOL    HW152783   6.928   3.907   7.638 -1.0802  0.2602  0.4693
15479SOL    HW252784   6.843   3.999   7.552  0.1415  0.1663 -0.8903
15480SOL     OW52785   4.227   0.896   2.505  0.2158  0.1903 -0.5161
15480SOL    HW152786   4.241   0.899   2.600 -0.3411  2.0676 -0.4674
15480SOL    HW252787   4.308   0.859   2.470  0.7677  0.2896  0.6197
15481SOL     OW52788   7.851   5.221   0.566 -0.1933  0.3106 -0.0587
15481SOL    HW152789   7.765   5.222   0.523 -0.3453  0.4668  0.2488
15481SOL    HW252790   7.914   5.217   0.494 -0.4673 -0.2675 -0.2759
15482SOL     OW52791   4.202   9.092   6.789  0.1657  0.8569 -0.3816
15482SOL    HW152792   4.111   9.089   6.818 -0.0009 -1.5130 -0.9131
15482SOL    HW252793   4.230   9.182   6.804 -1.0438  0.7712  3.4663
15483SOL     OW52794   2.962   3.957   8.438 -0.0348 -0.2071  0.7892
15483SOL    HW152795   2.981   3.966   8.532  2.3038  0.4456  0.3182
15483SOL    HW252796   2.917   4.038   8.415  1.1100  0.5108  0.9958
15484SOL     OW52797   2.442   9.006   8.489 -0.0727 -0.5186 -0.3110
15484SOL    HW152798   2.407   8.946   8.423 -0.8308 -0.0352 -0.3581
15484SOL    HW252799   2.387   9.085   8.481 -1.3127 -1.0589  2.0362
15485SOL     OW52800   1.916   5.485   8.406  0.1816  0.1287  0.2039
15485SOL    HW152801   1.826   5.479   8.438  0.2876  0.8513  0.6586
15485SOL    HW252802   1.911   5.539   8.327 -0.0185 -1.3042 -0.8246
15486SOL     OW52803   5.160   6.502   5.239  0.1656 -0.4427  0.0590
15486SOL    HW152804   5.107   6.513   5.160  0.3546  1.0521  0.1104
15486SOL    HW252805   5.146   6.411   5.265 -3.0297  0.0637  0.5316
15487SOL     OW52806   1.024   3.614   8.421 -0.6775  0.1513  0.3887
15487SOL    HW152807   1.107   3.612   8.469 -0.6266 -0.6992  0.2808
15487SOL    HW252808   1.046   3.587   8.333 -0.9238  0.8424  0.1032
15488SOL     OW52809   1.874   6.217   5.351 -0.5346  0.0644  0.7392
15488SOL    HW152810   1.859   6.143   5.410 -1.6036 -0.4197 -0.0978
15488SOL    HW252811   1.961   6.201   5.314 -0.0530  0.1254  1.7970
15489SOL     OW52812   3.225   8.057   5.573 -0.0139  0.6280  0.3407
15489SOL    HW152813   3.189   7.985   5.521 -0.5087 -0.1045  1.6567
15489SOL    HW252814   3.316   8.032   5.589  0.2672  1.0629 -0.5012
15490SOL     OW52815   1.115   0.396   8.857 -0.4561  0.7353 -0.2503
15490SOL    HW152816   1.092   0.315   8.903  0.0901  0.6001 -0.2079
15490SOL    HW252817   1.066   0.464   8.903  0.1278  0.6082  0.5735
15491SOL     OW52818   5.586   1.639   8.150 -0.2241  0.1969  0.4885
15491SOL    HW152819   5.526   1.587   8.203  0.5167 -0.1392  1.0004
15491SOL    HW252820   5.538   1.653   8.068 -1.4729  0.9197  1.3080
15492SOL     OW52821   2.887   3.056   0.192  0.2519 -0.1262  0.5332
15492SOL    HW152822   2.950   2.986   0.177  0.7676  0.7167 -1.6054
15492SOL    HW252823   2.940   3.136   0.197 -0.5791  0.6340 -1.5973
15493SOL     OW52824   2.313   0.764   2.322  0.3670  0.0428  0.3584
15493SOL    HW152825   2.222   0.773   2.293  0.6020 -0.1964 -0.4849
15493SOL    HW252826   2.356   0.719   2.250  1.1989  0.3218  0.6732
15494SOL     OW52827   7.522   1.766   8.767 -0.1064  0.0872  0.1024
15494SOL    HW152828   7.491   1.697   8.708 -0.4570  1.3862 -1.3253
15494SOL    HW252829   7.603   1.733   8.804  0.7356 -0.3590 -2.0243
15495SOL     OW52830   1.436   7.101   8.130  0.5789 -0.1146 -0.2477
15495SOL    HW152831   1.423   7.068   8.219 -2.1698  1.2113 -0.0478
15495SOL    HW252832   1.422   7.025   8.074 -0.4378 -0.4304  0.3970
15496SOL     OW52833   5.586   3.327   1.105 -0.2387  0.3822 -0.4648
15496SOL    HW152834   5.575   3.384   1.029 -0.0713  1.6639  0.4368
15496SOL    HW252835   5.529   3.364   1.172 -0.9447 -1.1551 -0.1655
15497SOL     OW52836   0.678   5.766   0.867  0.4253 -0.0669  0.8759
15497SOL    HW152837   0.696   5.838   0.928  1.2414  0.2897  0.2324
15497SOL    HW252838   0.737   5.781   0.793  0.7888 -1.5483  0.8368
15498SOL     OW52839   1.871   4.203   3.301  0.3098 -0.2439 -0.0450
15498SOL    HW152840   1.946   4.244   3.258 -0.9913  3.2313  0.6802
15498SOL    HW252841   1.899   4.190   3.391  0.3076  0.3844  0.0533
15499SOL     OW52842   3.328   1.124   0.951  0.4578  0.1682  0.1202
15499SOL    HW152843   3.414   1.081   0.963  1.0704  1.7981  2.2246
15499SOL    HW252844   3.349   1.215   0.931 -0.7993  0.4553  0.0435
15500SOL     OW52845   4.167   1.816   3.853  0.2594  0.4986  0.1166
15500SOL    HW152846   4.132   1.905   3.858 -2.9421 -0.6648  1.0613
15500SOL    HW252847   4.178   1.789   3.945 -1.1988 -0.8435 -0.0518
15501SOL     OW52848   0.305   1.788   7.707 -0.2025  0.0157  0.3820
15501SOL    HW152849   0.392   1.751   7.723 -0.3371 -0.3957  0.1737
15501SOL    HW252850   0.247   1.738   7.764 -0.3507  0.0694  0.2789
15502SOL     OW52851   8.481   0.543   4.988  0.1393  0.3077  0.3907
15502SOL    HW152852   8.467   0.455   4.954  0.2957  0.9731 -1.5418
15502SOL    HW252853   8.398   0.567   5.028 -0.4345 -0.1285 -0.5130
15503SOL     OW52854   9.052   3.011   2.981  0.0635  0.3565 -0.4125
15503SOL    HW152855   8.976   2.969   3.020 -1.0604  3.7850  1.4907
15503SOL    HW252856   9.127   2.962   3.016 -1.0970 -2.5482 -1.6553
15504SOL     OW52857   0.537   8.935   0.946  0.3733  0.3739 -0.0523
15504SOL    HW152858   0.467   8.993   0.977 -0.3819  0.3023 -1.5456
15504SOL    HW252859   0.505   8.847   0.963  0.4186  0.3515 -0.0848
15505SOL     OW52860   7.314   0.112   3.046 -0.4329  0.0162 -0.4306
15505SOL    HW152861   7.376   0.148   2.982 -1.5536  0.9447 -1.0319
15505SOL    HW252862   7.305   0.020   3.021  1.0074 -0.2508 -0.0667
15506SOL     OW52863   6.259   9.055   2.106 -0.1463 -0.1116  0.7110
15506SOL    HW152864   6.319   9.121   2.141 -0.1114 -1.3589  3.2957
15506SOL    HW252865   6.220   9.095   2.029  1.7217  1.9163  0.7448
15507SOL     OW52866   3.480   3.937   6.134 -0.1787  0.4688  0.1051
15507SOL    HW152867   3.488   3.907   6.043 -2.6664  0.1635 -0.0932
15507SOL    HW252868   3.560   3.907   6.176  1.1594  0.8297 -2.0253
15508SOL     OW52869   8.938   2.242   4.386  0.0944 -0.1116 -0.0088
15508SOL    HW152870   8.964   2.153   4.410  2.4979  0.5482  0.0822
15508SOL    HW252871   8.862   2.230   4.329  1.9862 -2.4493 -2.3012
15509SOL     OW52872   7.398   2.128   2.559 -0.4095 -0.0625  1.4199
15509SOL    HW152873   7.304   2.150   2.563 -0.1720  1.0979  0.9844
15509SOL    HW252874   7.437   2.201   2.512  0.6743 -0.7184  1.2892
15510SOL     OW52875   5.526   4.755   1.847  0.3309 -0.2990 -0.3709
15510SOL    HW152876   5.596   4.809   1.885 -0.6939  1.4662 -0.9099
15510SOL    HW252877   5.510   4.793   1.761 -0.6331 -1.3024 -0.6582
15511SOL     OW52878   2.320   1.207   1.478  0.0694 -0.6986  0.1612
15511SOL    HW152879   2.278   1.239   1.398  2.9685  1.0866 -0.8137
15511SOL    HW252880   2.329   1.113   1.465 -0.6293 -0.6265 -1.0316
15512SOL     OW52881   3.211   1.835   0.731  0.6442 -0.5290  0.2109
15512SOL    HW152882   3.267   1.857   0.805 -0.5673 -0.4515  1.1324
15512SOL    HW252883   3.152   1.767   0.765 -0.0641 -0.3401 -0.6149
15513SOL     OW52884   7.297   0.904   3.259 -0.8423  0.1513  0.8455
15513SOL    HW152885   7.208   0.915   3.226 -1.1903  0.0099  1.7034
15513SOL    HW252886   7.316   0.985   3.307 -0.5940  0.0859  0.8638
15514SOL     OW52887   0.380   5.262   5.823  0.2850  0.1903  0.2271
15514SOL    HW152888   0.434   5.183   5.819 -0.5687 -0.3993  0.1613
15514SOL    HW252889   0.351   5.266   5.914  0.6945  0.6829  0.3382
15515SOL     OW52890   5.692   8.144   1.019 -0.3442 -0.2693 -0.1283
15515SOL    HW152891   5.732   8.058   1.006  0.3952  0.1512 -0.7009
15515SOL    HW252892   5.643   8.161   0.938 -0.0707  0.0678 -0.2259
15516SOL     OW52893   5.421   9.091   2.837  0.4478 -0.0337  0.6020
15516SOL    HW152894   5.383   9.093   2.925  0.9621  1.2637  0.8235
15516SOL    HW252895   5.346   9.099   2.778  0.0833 -1.1152  0.9038
15517SOL     OW52896   7.360   2.684   8.806  0.0367  0.7043 -0.0048
15517SOL    HW152897   7.439   2.723   8.769 -0.2172  1.1080 -0.1335
15517SOL    HW252898   7.302   2.672   8.731  0.8310 -1.7877 -0.3296
15518SOL     OW52899   3.684   5.902   5.886 -0.3367 -0.2450 -0.3645
15518SOL    HW152900   3.591   5.889   5.865 -0.9157  1.0150  1.1752
15518SOL    HW252901   3.704   5.990   5.856  0.6560 -0.8257 -1.5010
15519SOL     OW52902   1.449   7.125   6.154  0.8896 -0.7327 -0.2646
15519SOL    HW152903   1.373   7.122   6.213  1.1841  3.3877  0.6354
15519SOL    HW252904   1.522   7.095   6.207  0.7147  0.5049  0.7340
15520SOL     OW52905   9.056   4.589   2.985 -0.0957 -0.0748  0.2011
15520SOL    HW152906   8.985   4.647   3.013 -0.8769 -1.7493  1.8552
15520SOL    HW252907   9.033   4.566   2.895 -1.3084 -0.0645  0.4889
15521SOL     OW52908   2.108   0.464   6.700 -0.0644 -0.5317 -0.3331
15521SOL    HW152909   2.017   0.437   6.685 -0.1933 -0.4008  0.1865
15521SOL    HW252910   2.116   0.469   6.795  0.3788 -0.1600 -0.3873
15522SOL     OW52911   1.601   6.207   6.197 -0.4206  0.2403 -0.4914
15522SOL    HW152912   1.600   6.299   6.225  1.8408  0.2049 -0.1149
15522SOL    HW252913   1.582   6.211   6.103 -0.9592  1.0245 -0.3639
15523SOL     OW52914   7.551   0.974   1.106  0.2672  0.0902 -0.0486
15523SOL    HW152915   7.603   0.949   1.030 -0.0320  2.6099 -1.1954
15523SOL    HW252916   7.604   1.039   1.152  0.0203 -0.6729  1.3689
15524SOL     OW52917   2.796   3.070   0.453  0.1107  0.0872 -0.0456
15524SOL    HW152918   2.705   3.099   0.453  0.0170 -0.1772 -1.1116
15524SOL    HW252919   2.820   3.066   0.360  0.4270 -2.2874  0.0912
15525SOL     OW52920   5.874   6.710   0.267 -0.4349 -0.5036 -0.1607
15525SOL    HW152921   5.799   6.691   0.323 -0.9838  3.0942  0.5728
15525SOL    HW252922   5.950   6.690   0.322 -0.8788 -1.6249  0.0654
15526SOL     OW52923   8.134   5.300   2.545 -0.0247  0.1276  0.6902
15526SOL    HW152924   8.049   5.342   2.533 -1.7838 -3.3315 -0.2207
15526SOL    HW252925   8.158   5.269   2.457  0.2120 -2.2470  1.5194
15527SOL     OW52926   2.113   1.193   1.956 -0.1139  0.4048 -0.2662
15527SOL    HW152927   2.187   1.247   1.928  0.5159  1.3846  2.9505
15527SOL    HW252928   2.040   1.254   1.962 -0.2653  0.1923  0.0620
15528SOL     OW52929   0.223   0.596   3.227  0.5022  0.4002 -0.3500
15528SOL    HW152930   0.226   0.634   3.139  0.0178 -0.5599 -0.7911
15528SOL    HW252931   0.246   0.669   3.285 -3.3404  2.2864 -0.9069
15529SOL     OW52932   3.967   3.291   7.137 -0.2127 -0.4757  0.9927
15529SOL    HW152933   3.897   3.289   7.202 -0.1696 -1.2236  1.0233
15529SOL    HW252934   3.936   3.232   7.067  0.4954 -1.0227  1.1293
15530SOL     OW52935   0.846   6.244   5.178 -0.3420 -0.1890  0.0710
15530SOL    HW152936   0.770   6.243   5.120 -0.2709 -2.1131 -0.0750
15530SOL    HW252937   0.820   6.300   5.251 -1.4851  0.0485 -0.5037
15531SOL     OW52938   1.909   5.957   6.883  0.1391  0.8634 -0.1925
15531SOL    HW152939   1.829   5.918   6.849  0.2219 -1.1021  1.6405
15531SOL    HW252940   1.889   5.977   6.974  1.8080 -0.0300  0.4163
15532SOL     OW52941   0.921   2.945   4.746  0.0144  0.4249 -0.2189
15532SOL    HW152942   0.921   2.968   4.653  0.4252 -0.5860 -0.4782
15532SOL    HW252943   1.013   2.933   4.768 -0.1562 -0.6121 -0.0172
15533SOL     OW52944   6.660   8.406   7.251  0.1217 -0.3314 -0.1417
15533SOL    HW152945   6.617   8.359   7.179  0.0918 -2.5129  1.2453
15533SOL    HW252946   6.610   8.382   7.329  2.1767 -0.7446  1.1161
15534SOL     OW52947   6.838   6.828   3.578  0.1666 -0.2426  0.4036
15534SOL    HW152948   6.813   6.792   3.662 -0.5024 -1.8605 -0.4438
15534SOL    HW252949   6.789   6.910   3.571 -0.2746 -0.4211  1.3050
15535SOL     OW52950   5.978   1.161   6.330  0.8349 -0.0693  0.1571
15535SOL    HW152951   5.990   1.146   6.424  0.4080  0.7012  0.3467
15535SOL    HW252952   6.020   1.086   6.288  0.6253 -0.6616  0.9793
15536SOL     OW52953   8.639   1.190   4.734  0.1405  0.2323  0.0334
15536SOL    HW152954   8.645   1.260   4.799  0.2478  0.8884 -0.6650
15536SOL    HW252955   8.584   1.226   4.665  1.7389  0.3799 -1.2272
15537SOL     OW52956   8.550   9.210   6.180 -0.2660 -0.2349 -0.3465
15537SOL    HW152957   8.579   9.297   6.209  0.6130 -1.1543  1.7228
15537SOL    HW252958   8.611   9.187   6.110 -0.8253  0.9787 -1.2872
15538SOL     OW52959   8.669   8.618   0.949  0.2882 -0.1304  0.5013
15538SOL    HW152960   8.630   8.697   0.914  1.2571  0.5575  0.9155
15538SOL    HW252961   8.706   8.573   0.873 -0.0612 -0.0703  0.2952
15539SOL     OW52962   3.097   4.383   6.815  0.3313  0.8278  0.1952
15539SOL    HW152963   3.184   4.420   6.829  0.0111  1.7509 -0.1578
15539SOL    HW252964   3.049   4.402   6.896 -0.0880  1.9678 -0.3001
15540SOL     OW52965   0.357   4.065   6.125  0.3395  0.1140 -0.2344
15540SOL    HW152966   0.321   4.097   6.042  1.8036  0.1291 -0.9038
15540SOL    HW252967   0.322   4.125   6.191  0.4068  1.0874 -1.0498
15541SOL     OW52968   8.652   5.733   8.543 -0.3617  0.1584  0.7422
15541SOL    HW152969   8.732   5.785   8.538  0.0473 -0.5341 -0.1529
15541SOL    HW252970   8.582   5.798   8.548  0.1901  0.7931  0.4386
15542SOL     OW52971   1.245   2.390   3.577 -0.8882  0.0118  0.4872
15542SOL    HW152972   1.211   2.310   3.536  0.7243 -0.6452  0.3376
15542SOL    HW252973   1.318   2.360   3.631 -0.5152  1.3417  0.7634
15543SOL     OW52974   2.340   0.119   8.629 -0.0892  0.5168 -0.3368
15543SOL    HW152975   2.426   0.115   8.587 -0.3024  0.5768 -0.7811
15543SOL    HW252976   2.337   0.205   8.670  0.1665  0.4126 -0.0969
15544SOL     OW52977   3.205   9.078   4.345  0.1403 -0.2041 -0.1522
15544SOL    HW152978   3.142   9.123   4.400  0.1153 -1.6406  1.0635
15544SOL    HW252979   3.153   9.014   4.296  0.2596  0.6114 -1.4024
15545SOL     OW52980   6.032   1.913   7.961 -0.0112 -0.4151 -0.3349
15545SOL    HW152981   6.062   1.932   8.050  0.4851 -1.8891 -0.1587
15545SOL    HW252982   6.113   1.909   7.909 -0.0613 -2.1386 -0.3181
15546SOL     OW52983   8.130   6.677   1.039 -0.1965 -0.7046  0.1187
15546SOL    HW152984   8.062   6.613   1.019  1.2424 -2.3483  0.2587
15546SOL    HW252985   8.212   6.633   1.018  0.8549  1.2974 -0.2696
15547SOL     OW52986   6.320   6.489   8.727  0.0056  0.1149  0.1347
15547SOL    HW152987   6.310   6.533   8.811  1.2734  0.8760 -0.0951
15547SOL    HW252988   6.323   6.396   8.748 -0.9214  0.2174  0.7923
15548SOL     OW52989   9.050   1.600   6.666  0.3038 -0.1325 -0.3186
15548SOL    HW152990   9.124   1.659   6.680 -0.7715  0.8817  1.6464
15548SOL    HW252991   8.975   1.647   6.703 -0.6826 -2.5679  1.0356
15549SOL     OW52992   1.602   3.845   7.781 -0.4158  0.3675  0.3035
15549SOL    HW152993   1.654   3.827   7.859  0.1152  0.5792 -0.0011
15549SOL    HW252994   1.514   3.812   7.802 -0.2958  0.5049  1.0193
15550SOL     OW52995   3.872   7.589   5.702 -0.7405 -0.1786 -0.7916
15550SOL    HW152996   3.779   7.584   5.726 -0.3396 -1.7123  0.6359
15550SOL    HW252997   3.894   7.500   5.674  0.8841 -0.5644  1.3974
15551SOL     OW52998   8.065   0.392   3.246 -0.0023 -0.9660 -0.1001
15551SOL    HW152999   7.982   0.356   3.278 -0.1530 -0.1676  0.4597
15551SOL    HW253000   8.049   0.487   3.242 -0.2134 -1.0512 -3.2068
15552SOL     OW53001   6.451   2.187   4.269 -0.3124 -0.6165 -0.7389
15552SOL    HW153002   6.360   2.213   4.264 -0.5124 -1.3711 -1.1777
15552SOL    HW253003   6.470   2.182   4.363 -0.6263 -0.1561 -0.6491
15553SOL     OW53004   5.908   5.929   4.745  0.0442 -0.3671  0.0726
15553SOL    HW153005   5.953   5.933   4.661 -1.4823  0.4769 -0.7608
15553SOL    HW253006   5.930   6.010   4.789 -0.4643 -0.0469 -0.2483
15554SOL     OW53007   8.315   7.974   3.201  0.3048 -0.2559 -0.1629
15554SOL    HW153008   8.331   7.925   3.121 -0.0834 -0.1434 -0.3122
15554SOL    HW253009   8.397   7.966   3.251  0.2111 -1.1327 -0.1353
15555SOL     OW53010   3.078   8.155   6.025 -0.4860  0.3156 -0.1531
15555SOL    HW153011   3.101   8.244   6.052  0.6316  0.2246 -0.7614
15555SOL    HW253012   3.109   8.099   6.097 -1.6279  0.4325  0.4595
15556SOL     OW53013   4.485   8.509   1.047  0.3773 -0.4303 -0.5403
15556SOL    HW153014   4.456   8.484   0.960 -1.1841 -1.8918  0.3173
15556SOL    HW253015   4.457   8.600   1.057 -0.7675 -0.7132 -1.0521
15557SOL     OW53016   4.596   1.830   5.310  0.2459 -0.0865 -0.1979
15557SOL    HW153017   4.548   1.913   5.314  1.1295  0.3972  1.4636
15557SOL    HW253018   4.675   1.850   5.261  1.3119  0.5835  1.6761
15558SOL     OW53019   3.124   8.566   5.148  0.4523 -0.5439  0.2036
15558SOL    HW153020   3.119   8.624   5.223 -0.2066 -0.6033  0.2129
15558SOL    HW253021   3.122   8.478   5.185 -0.1342 -0.5746  0.1096
15559SOL     OW53022   3.960   3.884   4.275 -0.0754  0.0207  0.3651
15559SOL    HW153023   3.920   3.807   4.315  0.0968  0.4422  1.3786
15559SOL    HW253024   4.052   3.879   4.302  0.2447 -0.1402 -0.7017
15560SOL     OW53025   1.774   0.482   2.456  0.3158  0.2904  0.2054
15560SOL    HW153026   1.749   0.474   2.548  0.4149 -1.7619  0.1014
15560SOL    HW253027   1.847   0.421   2.445  1.2004  1.4869 -0.9591
15561SOL     OW53028   7.369   1.933   7.060  0.3251 -0.2677  0.1616
15561SOL    HW153029   7.386   2.027   7.067  0.5785 -0.3856  1.4219
15561SOL    HW253030   7.313   1.924   6.983 -1.7612  1.2190  1.3893
15562SOL     OW53031   5.868   2.368   2.111  0.0060  0.2832 -0.3018
15562SOL    HW153032   5.782   2.406   2.130 -0.6538 -1.0189 -0.5569
15562SOL    HW253033   5.931   2.429   2.150 -1.0682  0.7323  0.7707
15563SOL     OW53034   1.072   9.213   2.927  0.9833 -0.3230 -0.0830
15563SOL    HW153035   1.156   9.175   2.903  0.6658 -0.3664 -1.1771
15563SOL    HW253036   1.036   9.247   2.845  0.2264  0.2861  0.4754
15564SOL     OW53037   3.826   5.300   6.303 -0.7075 -0.6214 -0.0430
15564SOL    HW153038   3.888   5.360   6.345 -1.0104  0.8050 -1.5736
15564SOL    HW253039   3.875   5.218   6.295  0.4253  0.0123  0.2000
15565SOL     OW53040   2.617   3.391   2.988 -0.4491  0.1095 -0.7146
15565SOL    HW153041   2.593   3.331   3.059  0.2267  0.8127  0.1245
15565SOL    HW253042   2.533   3.419   2.951 -0.8383  0.3527  0.3317
15566SOL     OW53043   6.554   4.432   1.873  0.2270  0.1020  0.3788
15566SOL    HW153044   6.476   4.484   1.857  0.3775  0.1043 -0.4385
15566SOL    HW253045   6.582   4.455   1.961 -0.3124  0.6066  0.4194
15567SOL     OW53046   3.621   8.795   6.084  0.1588 -0.1059 -0.5201
15567SOL    HW153047   3.631   8.876   6.135 -0.8322 -0.2146 -0.1334
15567SOL    HW253048   3.707   8.754   6.088  0.3331  0.3097  0.3578
15568SOL     OW53049   0.168   5.239   0.751 -0.2219  0.0443 -0.1520
15568SOL    HW153050   0.246   5.211   0.800 -0.5268 -1.2566 -0.3662
15568SOL    HW253051   0.158   5.173   0.682 -1.5659  0.1461 -0.0756
15569SOL     OW53052   7.086   2.181   8.935  0.6583 -0.8594  0.0331
15569SOL    HW153053   7.124   2.257   8.980 -0.5059  0.7994 -1.6068
15569SOL    HW253054   7.050   2.218   8.854  1.6812 -3.4892 -1.7528
15570SOL     OW53055   1.955   1.694   2.918 -0.0487  0.1902  0.6675
15570SOL    HW153056   2.044   1.666   2.942 -0.0412  0.6816  1.2255
15570SOL    HW253057   1.938   1.770   2.974 -1.0651 -0.2907  1.0369
15571SOL     OW53058   5.496   6.467   0.577 -0.0599  0.3063  0.0933
15571SOL    HW153059   5.487   6.380   0.616 -0.3507  1.3474  2.5291
15571SOL    HW253060   5.465   6.527   0.644  1.7057  2.4312 -0.8522
15572SOL     OW53061   0.938   8.979   3.113  0.2421 -0.5162  0.2599
15572SOL    HW153062   0.985   8.975   3.030  0.5824 -1.6163  0.4874
15572SOL    HW253063   0.994   9.031   3.170  1.3613 -2.0436  0.6154
15573SOL     OW53064   7.061   4.919   4.078  0.1966 -0.0685 -0.0406
15573SOL    HW153065   7.039   4.843   4.025 -1.3934  0.1162  0.2863
15573SOL    HW253066   7.151   4.940   4.055  1.1542 -2.8156  0.8183
15574SOL     OW53067   3.066   8.694   7.211 -0.2248  0.6755 -0.7251
15574SOL    HW153068   3.088   8.655   7.127 -0.6571 -1.2968  0.0124
15574SOL    HW253069   3.149   8.693   7.260 -0.1063  1.2601 -0.9072
15575SOL     OW53070   8.225   0.196   5.136  0.5169 -0.1469  0.1078
15575SOL    HW153071   8.307   0.214   5.089  1.1789 -1.8588  0.5210
15575SOL    HW253072   8.216   0.269   5.197  1.1178  0.6607 -0.7287
15576SOL     OW53073   1.189   0.098   7.510 -0.1423 -0.3948  0.7340
15576SOL    HW153074   1.238   0.154   7.570 -0.8912 -0.4145  1.3764
15576SOL    HW253075   1.126   0.158   7.468 -0.3415 -0.5830  0.7636
15577SOL     OW53076   0.017   8.713   4.748  0.5253 -0.3174  0.3548
15577SOL    HW153077  -0.047   8.763   4.799 -0.5543 -1.9565  0.6845
15577SOL    HW253078   0.084   8.689   4.812 -0.5369 -1.8833  0.9325
15578SOL     OW53079   5.943   1.995   3.333  0.3126  0.2353 -0.4266
15578SOL    HW153080   5.926   1.972   3.242 -1.4708 -0.9152  0.1445
15578SOL    HW253081   5.866   1.964   3.381  2.0490 -1.0194  1.7609
15579SOL     OW53082   7.067   6.436   2.306 -0.6404  0.3730 -0.4846
15579SOL    HW153083   7.110   6.351   2.299 -1.4153 -0.4728  2.9402
15579SOL    HW253084   6.986   6.426   2.255 -1.0502 -1.2503  0.4134
15580SOL     OW53085   2.917   5.850   1.810 -0.8288 -0.2744 -0.5732
15580SOL    HW153086   2.888   5.759   1.800  0.1535 -0.9659  2.0507
15580SOL    HW253087   2.844   5.893   1.855 -0.3215 -0.4247  0.4154
15581SOL     OW53088   5.065   1.648   7.752 -0.4562  0.1270 -0.3807
15581SOL    HW153089   4.977   1.632   7.787 -0.6106  0.1093 -0.7686
15581SOL    HW253090   5.102   1.560   7.740 -1.3264 -0.0247 -2.5698
15582SOL     OW53091   5.560   8.359   4.849 -0.0639  0.6156 -0.0567
15582SOL    HW153092   5.511   8.441   4.853 -1.9261 -0.3907 -1.2277
15582SOL    HW253093   5.591   8.353   4.759 -1.3099 -0.7084 -0.4206
15583SOL     OW53094   2.043   4.551   6.911 -0.3754 -0.0521 -0.2352
15583SOL    HW153095   1.991   4.547   6.990  0.0597  0.8015  0.1160
15583SOL    HW253096   2.108   4.620   6.929 -0.6280  0.5614 -1.5302
15584SOL     OW53097   8.052   8.930   6.434  0.1053  0.5282  0.1009
15584SOL    HW153098   8.019   8.994   6.371  1.8039  0.5006 -0.8459
15584SOL    HW253099   7.976   8.913   6.491 -0.4066  3.4774  0.5107
15585SOL     OW53100   8.823   7.320   0.038 -0.2208 -0.0243 -0.8229
15585SOL    HW153101   8.782   7.370  -0.032 -1.2640 -1.6090 -1.3858
15585SOL    HW253102   8.917   7.323   0.018 -0.4443  0.1124 -1.8981
15586SOL     OW53103   5.175   1.509   6.996 -0.3215 -0.6035  0.0236
15586SOL    HW153104   5.126   1.427   7.004 -1.1556 -0.2086 -0.9166
15586SOL    HW253105   5.264   1.486   7.025 -0.4615 -1.9069 -0.5137
15587SOL     OW53106   4.074   4.006   7.045 -0.3036  0.3184 -0.2110
15587SOL    HW153107   4.015   3.980   7.116 -1.1410  0.0413 -0.9986
15587SOL    HW253108   4.088   3.926   6.995 -0.3744  0.6930 -0.8331
15588SOL     OW53109   2.000   9.133   7.780  0.0594 -0.3667 -0.2075
15588SOL    HW153110   1.973   9.090   7.861  1.6525 -2.3989 -0.6847
15588SOL    HW253111   2.014   9.225   7.805  0.5074 -0.9506  1.8400
15589SOL     OW53112   0.871   5.591   1.030  0.2909 -0.2535  0.0331
15589SOL    HW153113   0.936   5.658   1.009  0.0282  0.3001  0.8785
15589SOL    HW253114   0.794   5.642   1.059  0.0277 -0.9155  0.5168
15590SOL     OW53115   5.770   8.918   1.213  0.0194 -0.2174  0.6791
15590SOL    HW153116   5.682   8.895   1.243 -1.1048  1.3953 -1.1596
15590SOL    HW253117   5.796   8.992   1.268 -0.1336 -0.1455  0.6537
15591SOL     OW53118   4.127   7.619   0.702 -0.0342 -0.3668  0.0115
15591SOL    HW153119   4.062   7.555   0.729  1.1267 -1.5723  0.0485
15591SOL    HW253120   4.163   7.654   0.784 -0.2214 -0.1202 -0.0087
15592SOL     OW53121   7.435   5.807   0.426  0.6615  0.5452 -0.0560
15592SOL    HW153122   7.400   5.719   0.444  0.2409  1.0738  1.9752
15592SOL    HW253123   7.417   5.857   0.506  1.9010  2.1745 -0.7301
15593SOL     OW53124   4.009   7.715   1.589 -0.4551 -0.3418  0.1989
15593SOL    HW153125   3.938   7.753   1.642 -0.1356  1.1458 -0.3863
15593SOL    HW253126   3.997   7.753   1.502  0.0821 -1.3779 -0.3467
15594SOL     OW53127   0.628   7.342   7.557  0.7118  0.3196 -0.4639
15594SOL    HW153128   0.681   7.307   7.629  2.2576  0.4093 -1.4989
15594SOL    HW253129   0.627   7.436   7.571  1.3813  0.3783 -0.7855
15595SOL     OW53130   7.597   7.690   8.901  0.0472  0.0793  0.1554
15595SOL    HW153131   7.593   7.597   8.922  0.8283  0.2382  1.0830
15595SOL    HW253132   7.637   7.730   8.978  0.7566  1.0312 -0.6841
15596SOL     OW53133   1.283   2.892   8.279 -0.1902  0.4784 -0.3138
15596SOL    HW153134   1.373   2.899   8.310 -0.9527  0.5055  2.1119
15596SOL    HW253135   1.259   2.801   8.295 -1.4391  1.1150  1.7678
15597SOL     OW53136   8.910   6.760   3.561  0.0460  0.1031  0.0244
15597SOL    HW153137   8.964   6.805   3.627 -0.3522 -0.5675  0.8341
15597SOL    HW253138   8.820   6.773   3.591 -0.0709 -1.2392  0.3049
15598SOL     OW53139   8.099   5.638   4.128 -0.0545 -0.5184 -0.2966
15598SOL    HW153140   8.079   5.716   4.180  0.6313 -0.2548 -0.4144
15598SOL    HW253141   8.033   5.574   4.155  0.2065 -0.3478  0.8222
15599SOL     OW53142   5.923   5.860   5.506 -0.0883 -0.3805 -0.3776
15599SOL    HW153143   5.939   5.876   5.413  1.4644 -0.5228 -0.1591
15599SOL    HW253144   5.960   5.936   5.550  2.5406 -1.9411  0.3277
15600SOL     OW53145   1.951   6.356   8.775 -0.1664  0.0525  0.4653
15600SOL    HW153146   1.939   6.264   8.752 -1.7225 -0.6159  3.3573
15600SOL    HW253147   1.868   6.380   8.817  1.0643  2.0525  1.8889
15601SOL     OW53148   3.655   5.977   8.169 -0.2809 -0.2079  0.1220
15601SOL    HW153149   3.645   6.064   8.208  0.2322  0.5337 -1.3378
15601SOL    HW253150   3.573   5.963   8.121  0.0031 -0.1144 -0.4022
15602SOL     OW53151   9.056   2.483   4.150 -0.1857 -0.3765  0.4131
15602SOL    HW153152   9.116   2.417   4.183 -0.0834 -1.0069 -0.9375
15602SOL    HW253153   9.065   2.557   4.210 -0.7913 -1.7997  2.3511
15603SOL     OW53154   1.022   8.114   3.636 -0.5692  0.6791  0.1475
15603SOL    HW153155   0.951   8.158   3.683 -1.7954  0.8257 -1.7396
15603SOL    HW253156   1.048   8.176   3.568  0.1989 -0.0604 -0.2548
15604SOL     OW53157   8.944   2.112   3.095  0.1055  0.4933 -0.3626
15604SOL    HW153158   8.909   2.119   3.006  2.1883 -0.2680 -1.2988
15604SOL    HW253159   8.916   2.193   3.138 -0.0547  1.3731 -2.0328
15605SOL     OW53160   0.807   1.311   4.200 -0.4262  0.0754 -0.3703
15605SOL    HW153161   0.717   1.319   4.230 -0.7173 -0.7361 -0.9842
15605SOL    HW253162   0.800   1.297   4.105  0.3567  0.2439 -0.4632
15606SOL     OW53163   5.086   5.145   1.981  0.2844  0.3751  0.0476
15606SOL    HW153164   5.159   5.094   1.946  0.5086 -0.4905  1.6888
15606SOL    HW253165   5.018   5.139   1.915  1.2961  0.2670 -1.0077
15607SOL     OW53166   7.127   1.050   0.119 -0.0108  0.0557 -0.0798
15607SOL    HW153167   7.113   1.116   0.187  0.1218 -1.0517  1.0725
15607SOL    HW253168   7.190   0.989   0.158  1.0676  0.0793 -1.6999
15608SOL     OW53169   0.825   3.540   2.551 -0.0808 -0.1290  0.3498
15608SOL    HW153170   0.825   3.480   2.626 -0.4722 -1.1629 -0.4419
15608SOL    HW253171   0.883   3.497   2.488 -0.2597  0.4019 -0.1795
15609SOL     OW53172   0.081   6.269   4.903  0.2208  0.0257 -0.0412
15609SOL    HW153173   0.024   6.339   4.935 -0.5656  0.1069 -1.5371
15609SOL    HW253174   0.153   6.266   4.966 -0.5221  1.1315  0.9013
15610SOL     OW53175   6.990   3.799   7.792 -0.5861  0.4252 -0.2401
15610SOL    HW153176   6.918   3.773   7.850 -0.2587  0.1297  0.0341
15610SOL    HW253177   7.016   3.719   7.747  0.9754  0.0585  1.2142
15611SOL     OW53178   3.185   2.905   0.632  0.5375 -0.2273  0.5442
15611SOL    HW153179   3.182   2.819   0.675  1.5442 -1.1219 -1.0731
15611SOL    HW253180   3.114   2.903   0.568 -0.2741  0.6799  1.3886
15612SOL     OW53181   0.077   3.222   3.698 -0.3044  0.0885 -0.0293
15612SOL    HW153182   0.163   3.192   3.670  0.3641  1.4548  0.4892
15612SOL    HW253183   0.044   3.275   3.626 -0.6398 -0.2631 -0.1424
15613SOL     OW53184   2.072   4.163   0.407  0.1975 -0.1646  0.1577
15613SOL    HW153185   2.097   4.183   0.497 -0.7606 -0.3769  0.4870
15613SOL    HW253186   1.982   4.194   0.399  0.2271 -0.2525 -0.6960
15614SOL     OW53187   2.277   8.595   5.210 -0.2762  0.1723  0.1139
15614SOL    HW153188   2.209   8.628   5.152  0.0806  0.1349 -0.3310
15614SOL    HW253189   2.245   8.614   5.298  0.7451  3.4907 -0.0968
15615SOL     OW53190   7.032   9.104   2.192 -0.7087 -0.5278 -0.1539
15615SOL    HW153191   7.084   9.130   2.268 -0.7439  0.7731 -0.5355
15615SOL    HW253192   7.083   9.135   2.117 -0.9946 -1.1978 -0.6348
15616SOL     OW53193   5.556   4.515   1.019  0.0272  0.4017  0.0556
15616SOL    HW153194   5.567   4.608   1.039  1.4708 -0.1427  2.2198
15616SOL    HW253195   5.530   4.475   1.102 -0.8532 -1.1042 -0.8959
15617SOL     OW53196   4.465   2.744   6.266  0.5874 -0.3902 -0.6776
15617SOL    HW153197   4.403   2.747   6.193  0.9357  1.6835 -0.9386
15617SOL    HW253198   4.459   2.830   6.307 -0.0893 -1.6938  2.2261
15618SOL     OW53199   2.185   6.652   6.382 -0.5920 -0.3365 -0.0387
15618SOL    HW153200   2.259   6.608   6.342  0.7761  1.4852  0.3685
15618SOL    HW253201   2.140   6.695   6.310  1.1522  1.9067  0.0994
15619SOL     OW53202   1.923   0.075   7.456  0.3904  0.1504  0.1580
15619SOL    HW153203   1.891  -0.012   7.433  0.4504 -0.3069  1.6916
15619SOL    HW253204   1.962   0.065   7.543  0.8909  1.5966  0.1436
15620SOL     OW53205   6.708   8.683   6.628  0.0009 -0.0648  0.2222
15620SOL    HW153206   6.645   8.643   6.689 -0.6125 -3.2865 -2.2007
15620SOL    HW253207   6.654   8.736   6.570 -0.1274 -0.6344 -0.1936
15621SOL     OW53208   4.841   8.126   8.652 -0.4571  0.0403 -0.2831
15621SOL    HW153209   4.830   8.073   8.732  0.4289  0.7164  0.3028
15621SOL    HW253210   4.829   8.064   8.581 -0.6725 -0.7022  0.3807
15622SOL     OW53211   7.231   9.114   1.191 -0.9152 -0.6061 -0.1098
15622SOL    HW153212   7.311   9.134   1.239 -1.0035  0.3506 -0.3222
15622SOL    HW253213   7.169   9.085   1.258 -0.8318  0.0656  0.2674
15623SOL     OW53214   7.993   8.635   1.753 -0.3522  0.2311 -0.3962
15623SOL    HW153215   7.940   8.665   1.679  1.3425  1.3095 -1.2301
15623SOL    HW253216   7.935   8.577   1.801 -0.9753 -2.0917 -3.6033
15624SOL     OW53217   5.513   6.675   2.252 -0.2240  0.1868 -0.1280
15624SOL    HW153218   5.535   6.768   2.253  0.6072 -0.0007  0.5445
15624SOL    HW253219   5.598   6.630   2.256 -0.4882 -0.6458 -2.5518
15625SOL     OW53220   3.064   3.001   7.233 -0.4230 -0.9144  0.5684
15625SOL    HW153221   3.102   2.914   7.223  0.9304 -0.2516 -0.4148
15625SOL    HW253222   2.999   2.992   7.303 -0.4674 -2.7480  0.3179
15626SOL     OW53223   4.678   7.345   9.040 -0.0688  0.5045  0.3911
15626SOL    HW153224   4.631   7.386   9.112  0.5260 -1.5671  2.0667
15626SOL    HW253225   4.628   7.369   8.962 -0.5260  3.1278  1.3812
15627SOL     OW53226   0.328   2.588   5.826 -0.6237 -0.3379  0.3739
15627SOL    HW153227   0.394   2.523   5.802 -0.5613 -0.5587  1.1041
15627SOL    HW253228   0.300   2.626   5.743 -0.0350 -0.6877  0.0050
15628SOL     OW53229   1.804   6.054   4.174 -0.1767 -0.3500  0.3533
15628SOL    HW153230   1.735   6.068   4.110  1.3270 -1.5855 -1.6573
15628SOL    HW253231   1.758   6.023   4.252 -1.9991  0.3526 -0.3920
15629SOL     OW53232   7.822   3.492   4.890 -0.1384 -0.5034  0.1150
15629SOL    HW153233   7.843   3.583   4.868 -0.9903 -0.4179 -0.4355
15629SOL    HW253234   7.775   3.498   4.973  2.5582 -0.7698  1.7779
15630SOL     OW53235   5.072   7.675   2.627  0.0489  0.6405 -0.2587
15630SOL    HW153236   5.161   7.652   2.653 -0.5430 -0.1235  1.2753
15630SOL    HW253237   5.017   7.613   2.676 -1.3528  1.6466 -0.5071
15631SOL     OW53238   8.255   8.292   2.096 -0.0852 -0.0894  0.0453
15631SOL    HW153239   8.313   8.267   2.024 -0.2699 -0.1252 -0.0907
15631SOL    HW253240   8.171   8.310   2.054 -0.6449 -1.6512  0.4253
15632SOL     OW53241   2.477   8.477   7.473  0.0536 -0.3951  0.0978
15632SOL    HW153242   2.503   8.387   7.494 -3.5075 -1.4457  0.6724
15632SOL    HW253243   2.462   8.477   7.379 -2.1919 -1.1777  0.3965
15633SOL     OW53244   8.798   0.764   2.339  0.2900 -0.2428  0.4080
15633SOL    HW153245   8.837   0.802   2.260 -2.5295 -1.8037 -1.9160
15633SOL    HW253246   8.869   0.714   2.379  2.5670  2.7990  0.5427
15634SOL     OW53247   7.142   5.366   7.663  0.1050  0.1406 -0.3417
15634SOL    HW153248   7.163   5.275   7.685  3.3548  0.3919 -1.8584
15634SOL    HW253249   7.072   5.360   7.598  0.1371 -1.2637 -0.2658
15635SOL     OW53250   3.354   0.067   1.685 -0.2363 -0.6429  0.4042
15635SOL    HW153251   3.419  -0.004   1.686 -3.0606 -3.4417  1.1817
15635SOL    HW253252   3.334   0.082   1.778 -1.3548 -0.4743  0.1401
15636SOL     OW53253   7.183   0.354   8.096 -0.5350  0.0426  0.0953
15636SOL    HW153254   7.150   0.264   8.098  0.5840 -0.3807  0.5545
15636SOL    HW253255   7.130   0.398   8.029 -0.6631 -1.1363 -0.6096
15637SOL     OW53256   2.475   7.787   0.904  0.1878  0.0696  0.2069
15637SOL    HW153257   2.406   7.841   0.864 -0.1837 -0.6238 -0.1053
15637SOL    HW253258   2.438   7.761   0.989  0.3485  0.2568  0.3367
15638SOL     OW53259   5.840   5.825   6.601 -0.3251 -0.3835 -0.6679
15638SOL    HW153260   5.750   5.793   6.599 -0.1780 -0.8035 -2.1914
15638SOL    HW253261   5.864   5.826   6.693 -2.3345  1.0704 -0.0966
15639SOL     OW53262   6.559   6.858   4.445 -0.7108  0.0032  0.2599
15639SOL    HW153263   6.540   6.765   4.430 -0.3535 -0.1222  0.5600
15639SOL    HW253264   6.635   6.858   4.503  1.1009  0.4818 -1.9673
15640SOL     OW53265   7.744   6.799   7.206  0.2042 -0.1760  0.0262
15640SOL    HW153266   7.700   6.814   7.122 -0.2642  1.0628  0.4696
15640SOL    HW253267   7.721   6.875   7.259  1.1851 -0.5266  0.9952
15641SOL     OW53268   3.074   6.467   9.168  0.5434  0.3617 -0.1961
15641SOL    HW153269   3.030   6.552   9.174  0.9370  0.5984 -0.5675
15641SOL    HW253270   3.095   6.458   9.075  0.5559 -0.1171 -0.1492
15642SOL     OW53271   5.185   1.614   0.099  0.1095 -0.3733  0.5319
15642SOL    HW153272   5.227   1.699   0.084  1.3038 -1.0760 -0.2251
15642SOL    HW253273   5.094   1.636   0.121  0.4193  1.0988  0.4438
15643SOL     OW53274   5.525   3.355   6.446  0.3682 -0.2346 -0.1601
15643SOL    HW153275   5.499   3.447   6.447  0.8170 -0.0784  1.7678
15643SOL    HW253276   5.617   3.356   6.422  0.6175 -0.0782  0.7668
15644SOL     OW53277   7.901   6.070   2.479  0.0850 -0.5218 -0.2033
15644SOL    HW153278   7.823   6.121   2.460 -0.8227 -1.6787  0.2908
15644SOL    HW253279   7.948   6.121   2.546  0.5451  0.8955 -1.5351
15645SOL     OW53280   7.344   5.393   8.563 -0.5902  0.1116 -0.1592
15645SOL    HW153281   7.369   5.450   8.490  0.6168  0.5185  0.5595
15645SOL    HW253282   7.415   5.329   8.569 -0.3745  0.4435  1.0296
15646SOL     OW53283   4.880   8.698   2.725 -0.2665  0.8289 -0.1549
15646SOL    HW153284   4.971   8.727   2.714 -0.4041  1.1621 -0.4072
15646SOL    HW253285   4.853   8.671   2.637  0.2112 -1.1205  0.2348
15647SOL     OW53286   0.396   7.546   8.113  0.3530 -0.3788 -0.0385
15647SOL    HW153287   0.441   7.539   8.197 -0.8667  1.3249  0.7890
15647SOL    HW253288   0.335   7.618   8.124 -0.8286 -1.0312 -1.9479
15648SOL     OW53289   0.237   0.089   2.289  0.1104  0.0041  0.5019
15648SOL    HW153290   0.253   0.051   2.202  0.0994 -1.2775  1.0410
15648SOL    HW253291   0.217   0.181   2.271 -1.1796 -0.5121 -0.9863
15649SOL     OW53292   2.631   2.839   3.359 -0.0419  0.1982 -0.1396
15649SOL    HW153293   2.667   2.860   3.445 -0.7421  0.5232  0.0870
15649SOL    HW253294   2.691   2.880   3.297 -1.1167  2.5782  0.2847
15650SOL     OW53295   3.519   3.418   0.709 -0.0938  0.0309  0.6447
15650SOL    HW153296   3.523   3.359   0.784  1.1432 -0.7602 -0.0038
15650SOL    HW253297   3.609   3.420   0.675 -0.5087  0.7926 -0.4866
15651SOL     OW53298   6.807   0.212   6.556 -0.2776  0.1121  0.5171
15651SOL    HW153299   6.863   0.288   6.535 -0.7728  0.1989 -0.5834
15651SOL    HW253300   6.865   0.137   6.547  1.3575  0.4137  5.4504
15652SOL     OW53301   8.050   7.354   4.742  0.5208 -0.0732  0.3854
15652SOL    HW153302   8.018   7.366   4.831 -0.1106 -0.7448  0.2626
15652SOL    HW253303   7.976   7.377   4.686  0.5510 -0.7001  0.0717
15653SOL     OW53304   6.043   8.007   1.935  0.6134 -0.7459  0.3621
15653SOL    HW153305   5.957   8.015   1.977  0.7109 -1.4728  0.7174
15653SOL    HW253306   6.056   8.092   1.892 -1.1155 -1.2453 -1.3136
15654SOL     OW53307   3.512   8.497   0.691  0.3434 -0.1441 -0.2292
15654SOL    HW153308   3.453   8.422   0.699  0.8019 -0.5100 -0.2291
15654SOL    HW253309   3.557   8.502   0.775 -0.6868  1.0080  0.2918
15655SOL     OW53310   5.370   3.105   9.016 -0.4602  0.2479 -0.3079
15655SOL    HW153311   5.307   3.177   9.025  0.1240  0.8368 -0.8354
15655SOL    HW253312   5.445   3.144   8.972  1.3139  0.1976  2.4267
15656SOL     OW53313   9.125   8.866   4.969 -0.4962 -0.3241  0.3335
15656SOL    HW153314   9.045   8.905   5.004 -0.9006 -1.5642  0.8280
15656SOL    HW253315   9.193   8.931   4.987 -1.2094  0.3157  0.7950
15657SOL     OW53316   3.017   0.953   5.726 -1.0473 -1.0588 -0.0493
15657SOL    HW153317   3.073   0.878   5.745 -1.5447 -2.0903 -2.3192
15657SOL    HW253318   2.980   0.934   5.640 -0.8578  1.9726 -0.9284
15658SOL     OW53319   6.021   9.037   8.912  0.0096 -0.2680  0.2326
15658SOL    HW153320   6.111   9.065   8.895  0.0488 -0.6050 -0.1305
15658SOL    HW253321   5.992   9.091   8.985  0.4994 -0.1390  0.3321
15659SOL     OW53322   4.590   3.615   0.923  0.2514 -0.5348 -0.2586
15659SOL    HW153323   4.631   3.578   0.845  2.8356  1.2462  0.1325
15659SOL    HW253324   4.602   3.547   0.990  1.0960 -0.7194 -0.5802
15660SOL     OW53325   4.259   6.652   0.634 -0.2009  0.2799  0.2568
15660SOL    HW153326   4.181   6.607   0.667 -1.0865  1.8675  0.4029
15660SOL    HW253327   4.251   6.647   0.539  1.6132 -3.0272  0.1386
15661SOL     OW53328   3.057   6.403   5.193  0.4644  0.3345  0.0002
15661SOL    HW153329   2.980   6.448   5.227  0.9306  0.0772  1.4307
15661SOL    HW253330   3.022   6.322   5.155 -0.0809  0.7160 -0.3311
15662SOL     OW53331   1.174   5.116   3.327  0.0256 -0.5879  0.1144
15662SOL    HW153332   1.245   5.086   3.383 -0.1610  0.2950  0.8419
15662SOL    HW253333   1.094   5.103   3.379  0.0756  3.1866  1.4775
15663SOL     OW53334   2.238   8.099   4.788 -0.2957 -0.5694 -0.8387
15663SOL    HW153335   2.293   8.155   4.732 -0.9582  1.8462  0.7662
15663SOL    HW253336   2.291   8.021   4.804  1.3572  0.2800 -1.8873
15664SOL     OW53337   6.728   2.688   8.707  0.1229 -0.1405  0.2660
15664SOL    HW153338   6.638   2.656   8.705  0.0797 -0.0448  0.5664
15664SOL    HW253339   6.782   2.610   8.699  0.0095 -0.1460 -0.4275
15665SOL     OW53340   3.677   8.749   0.341 -0.4110  0.2259 -0.0683
15665SOL    HW153341   3.685   8.692   0.264 -2.2554 -1.4939  0.9146
15665SOL    HW253342   3.741   8.714   0.403 -0.6122  0.0482  0.0430
15666SOL     OW53343   3.798   3.565   6.822 -0.0232 -0.2690  0.6352
15666SOL    HW153344   3.737   3.615   6.768 -0.4883 -0.2584  1.1566
15666SOL    HW253345   3.747   3.489   6.851  0.9741 -1.6329 -0.9952
15667SOL     OW53346   8.210   8.975   1.491  0.2936 -0.5548  0.4480
15667SOL    HW153347   8.203   8.899   1.550  0.4364 -0.3838  0.6854
15667SOL    HW253348   8.141   8.961   1.426  0.0267 -0.6601  0.7526
15668SOL     OW53349   3.823   0.843   5.027  0.2807  0.2439  0.2690
15668SOL    HW153350   3.820   0.936   5.047 -0.9052 -0.2215  2.6185
15668SOL    HW253351   3.741   0.825   4.982  0.1931  0.2203  0.4369
15669SOL     OW53352   8.811   7.890   0.144  0.7507  0.3016  0.1904
15669SOL    HW153353   8.779   7.825   0.206  0.2480  0.8229  0.4895
15669SOL    HW253354   8.907   7.888   0.154  0.7815 -0.8719 -0.3060
15670SOL     OW53355   0.548   7.909   0.502  0.6992 -0.0696 -0.1930
15670SOL    HW153356   0.594   7.983   0.540 -1.1498  0.2616  1.5513
15670SOL    HW253357   0.487   7.947   0.439 -0.4384 -0.0268  0.8928
15671SOL     OW53358   0.689   3.057   4.884  0.0427  0.2065  0.4232
15671SOL    HW153359   0.730   3.042   4.970  0.7019 -0.1539  0.0594
15671SOL    HW253360   0.754   3.024   4.821 -0.7092 -0.1342 -0.1878
15672SOL     OW53361   4.336   0.366   1.777  0.0292  0.1899  0.1577
15672SOL    HW153362   4.274   0.401   1.712  1.5564  1.6503 -0.5726
15672SOL    HW253363   4.405   0.327   1.724  1.6747  2.0615  0.8159
15673SOL     OW53364   5.141   6.823   0.831  0.0199  0.1905 -0.5478
15673SOL    HW153365   5.095   6.845   0.912  2.2367  0.8478  0.6451
15673SOL    HW253366   5.120   6.731   0.815  1.9196 -0.9604  2.6001
15674SOL     OW53367   6.455   1.504   1.765 -0.0665  0.2227 -0.0441
15674SOL    HW153368   6.399   1.562   1.713 -0.2339 -0.2223 -0.3699
15674SOL    HW253369   6.483   1.558   1.839 -1.1466  0.3810  0.2713
15675SOL     OW53370   8.686   8.284   0.233  0.0038  0.4545  0.5172
15675SOL    HW153371   8.715   8.276   0.142 -2.8939  2.3141 -0.7202
15675SOL    HW253372   8.699   8.376   0.254  0.5936  0.0547  2.0129
15676SOL     OW53373   6.543   3.389   6.569  0.4146 -0.8909 -0.1529
15676SOL    HW153374   6.571   3.352   6.652  0.5271  2.8867  1.6914
15676SOL    HW253375   6.487   3.462   6.592 -0.2175 -0.1382 -3.4630
15677SOL     OW53376   6.479   4.266   3.825  0.2695 -0.3701  0.2070
15677SOL    HW153377   6.424   4.190   3.808 -0.5480  0.5963 -1.7698
15677SOL    HW253378   6.539   4.238   3.894 -1.0157 -2.2828  0.5962
15678SOL     OW53379   7.796   8.450   2.153  0.1092  0.2106 -0.3705
15678SOL    HW153380   7.811   8.540   2.124  0.3206 -0.0524 -1.1248
15678SOL    HW253381   7.734   8.457   2.225 -1.4802  0.8285 -1.7299
15679SOL     OW53382   0.583   1.870   1.841  0.8358  0.3153  0.2868
15679SOL    HW153383   0.654   1.831   1.892 -1.0621 -2.7229  0.8813
15679SOL    HW253384   0.505   1.860   1.897 -0.4590  1.4426 -1.2232
15680SOL     OW53385   3.023   2.102   9.079  0.1534  0.0268 -0.1574
15680SOL    HW153386   3.094   2.111   9.142 -0.1650 -0.4355  0.2698
15680SOL    HW253387   3.043   2.021   9.031 -0.5617 -0.5994  0.5821
15681SOL     OW53388   8.302   5.328   1.256 -0.1352  0.5477 -0.2492
15681SOL    HW153389   8.257   5.391   1.311  0.5667  0.1663  0.8016
15681SOL    HW253390   8.327   5.257   1.316  1.2724  0.4474 -0.9039
15682SOL     OW53391   4.679   4.443   6.145 -0.0879  0.1954  0.7969
15682SOL    HW153392   4.617   4.389   6.194 -0.8538  0.8864  0.6144
15682SOL    HW253393   4.696   4.518   6.201  0.2204  0.2440  0.6437
15683SOL     OW53394   8.329   4.727   1.028  0.2378 -0.5283 -0.4655
15683SOL    HW153395   8.305   4.739   1.120 -0.0575  3.1712 -0.8846
15683SOL    HW253396   8.256   4.676   0.992 -2.2215  2.0478  0.4249
15684SOL     OW53397   8.512   8.881   4.392  0.1414  0.1485  0.3541
15684SOL    HW153398   8.592   8.867   4.442 -1.1226 -0.1540  2.4461
15684SOL    HW253399   8.480   8.793   4.373 -0.5583  0.2222  1.0927
15685SOL     OW53400   0.496   0.367   3.402  0.5642 -0.7079 -0.0856
15685SOL    HW153401   0.447   0.421   3.339 -0.7958  0.1171  1.5828
15685SOL    HW253402   0.513   0.285   3.355 -1.2269 -0.4913 -1.2184
15686SOL     OW53403   7.367   0.919   6.838  0.1183  0.5753  0.1382
15686SOL    HW153404   7.391   0.858   6.769  1.8920  0.2841  0.9476
15686SOL    HW253405   7.335   0.996   6.792 -2.3577 -0.9562 -0.9095
15687SOL     OW53406   0.032   0.845   0.917 -0.1979  0.3160 -0.0117
15687SOL    HW153407   0.048   0.755   0.944 -0.3739  0.1170 -0.5523
15687SOL    HW253408  -0.040   0.875   0.972  1.8552  1.1930  2.3973
15688SOL     OW53409   4.486   4.069   4.589 -0.3597 -0.2396  0.5028
15688SOL    HW153410   4.470   4.031   4.503  0.5104 -0.1766  0.3012
15688SOL    HW253411   4.529   3.999   4.638 -2.4046 -0.8803  1.4841
15689SOL     OW53412   5.528   2.659   3.216 -0.1745  0.1413  0.2510
15689SOL    HW153413   5.609   2.633   3.258  0.8100  0.4303 -1.3699
15689SOL    HW253414   5.556   2.707   3.137 -1.7841 -3.1276 -2.5906
15690SOL     OW53415   6.061   8.946   3.397 -0.7296  0.4374  0.4459
15690SOL    HW153416   5.996   8.976   3.333 -0.5266  2.1303  0.9729
15690SOL    HW253417   6.056   8.851   3.394 -2.4519  0.5175 -0.3285
15691SOL     OW53418   7.533   8.870   5.853  0.3331  0.1057  0.4097
15691SOL    HW153419   7.529   8.846   5.760  1.5843  0.6526  0.1980
15691SOL    HW253420   7.611   8.924   5.860 -0.0223  0.4718  1.7031
15692SOL     OW53421   5.900   1.446   4.411 -0.4783  0.5224  0.8091
15692SOL    HW153422   5.926   1.460   4.320  2.9147 -2.2917  1.1458
15692SOL    HW253423   5.953   1.508   4.461 -2.3836  2.1121  0.9903
15693SOL     OW53424   1.541   0.496   8.441  0.0654  0.1715  0.2269
15693SOL    HW153425   1.531   0.430   8.511  1.4169 -1.1182 -0.7520
15693SOL    HW253426   1.468   0.478   8.382 -0.7113  0.8554  0.9480
15694SOL     OW53427   3.238   7.769   5.555 -0.4306  0.1316  0.1223
15694SOL    HW153428   3.311   7.728   5.602 -0.7024 -0.0763  0.3673
15694SOL    HW253429   3.270   7.778   5.465  0.0195  0.3519  0.3026
15695SOL     OW53430   1.139   2.139   3.133  0.1809 -0.0632  0.1295
15695SOL    HW153431   1.131   2.069   3.198  1.4724  2.2404  3.0378
15695SOL    HW253432   1.230   2.136   3.104  0.1535  0.1779  0.0106
15696SOL     OW53433   1.055   0.119   5.237  0.1607 -0.3417 -0.0840
15696SOL    HW153434   0.979   0.109   5.294  0.8382  0.2730  0.9584
15696SOL    HW253435   1.073   0.213   5.238 -0.6478 -0.1108 -2.4414
15697SOL     OW53436   5.959   2.397   4.323 -0.0302  0.6575  0.0487
15697SOL    HW153437   5.893   2.365   4.262  0.0488 -0.8612  0.7229
15697SOL    HW253438   6.039   2.404   4.271 -0.0319 -0.3567 -0.1079
15698SOL     OW53439   8.423   8.291   0.075 -0.5326 -0.3089  0.2418
15698SOL    HW153440   8.505   8.245   0.096 -0.0588  0.2198 -0.3913
15698SOL    HW253441   8.372   8.288   0.156  0.3905 -0.0670  0.8516
15699SOL     OW53442   3.191   3.939   9.093  0.2739  0.2778  0.0975
15699SOL    HW153443   3.247   4.013   9.072  0.6809 -0.4470 -1.4875
15699SOL    HW253444   3.236   3.863   9.056 -2.6393 -0.1056 -3.0475
15700SOL     OW53445   6.516   0.097   6.492  0.5301  0.1641 -0.5755
15700SOL    HW153446   6.575   0.104   6.417  0.8987  0.4955 -0.2601
15700SOL    HW253447   6.550   0.024   6.543 -1.3519 -1.9652 -2.1349
15701SOL     OW53448   5.349   1.852   0.084 -0.1098 -0.3173  0.3972
15701SOL    HW153449   5.428   1.904   0.065 -2.1013  2.8702  0.0696
15701SOL    HW253450   5.298   1.857   0.003 -2.2108  0.8382  1.7096
15702SOL     OW53451   3.622   2.092   0.950 -0.4499 -0.5540  0.4467
15702SOL    HW153452   3.684   2.044   1.005  0.1166  0.1750  0.4500
15702SOL    HW253453   3.577   2.152   1.009  1.2659  1.3689 -0.0787
15703SOL     OW53454   3.970   1.976   8.616 -0.6448  0.5288  0.0577
15703SOL    HW153455   4.037   1.915   8.648  0.9997  2.1634 -0.1125
15703SOL    HW253456   3.961   2.040   8.687 -1.0756  1.0657 -0.4798
15704SOL     OW53457   8.503   1.768   8.176  0.1288 -0.1475  0.1541
15704SOL    HW153458   8.477   1.692   8.228  0.0025  0.7033  1.3825
15704SOL    HW253459   8.546   1.826   8.239  0.1792  0.8187 -0.7518
15705SOL     OW53460   2.298   7.248   7.391 -0.0093 -0.5397 -0.2684
15705SOL    HW153461   2.248   7.224   7.313 -0.8131 -0.9822  0.3676
15705SOL    HW253462   2.309   7.166   7.439  0.7417 -0.3257 -0.0571
15706SOL     OW53463   7.438   2.737   4.159  0.1403  0.3296 -0.5270
15706SOL    HW153464   7.481   2.815   4.195  1.4728 -1.0322  0.9760
15706SOL    HW253465   7.509   2.674   4.146 -0.9888 -0.8838 -1.0712
15707SOL     OW53466   4.584   1.767   4.011 -0.6647  0.2573  0.2330
15707SOL    HW153467   4.572   1.860   3.995 -0.6793  0.4861  1.4924
15707SOL    HW253468   4.673   1.759   4.045 -0.7644 -0.1446  0.4096
15708SOL     OW53469   5.005   6.428   3.676  0.7794 -0.0515  0.3028
15708SOL    HW153470   5.087   6.476   3.673  1.9897 -1.9513  1.1597
15708SOL    HW253471   5.028   6.344   3.714 -1.7181 -0.3700  1.2816
15709SOL     OW53472   3.849   8.598   7.668 -0.8471 -0.1720  0.4311
15709SOL    HW153473   3.930   8.558   7.636 -1.0901 -0.0699 -0.3377
15709SOL    HW253474   3.836   8.559   7.754 -1.0162 -1.6852 -0.2469
15710SOL     OW53475   1.231   5.109   1.510  0.1881 -0.0501 -0.0298
15710SOL    HW153476   1.213   5.070   1.425 -0.4544  0.9878 -0.3868
15710SOL    HW253477   1.312   5.067   1.540  1.4729  0.9047 -1.9905
15711SOL     OW53478   2.475   0.116   2.053  0.3767 -0.1831  0.3580
15711SOL    HW153479   2.439   0.027   2.049  1.6145 -0.7257  0.7713
15711SOL    HW253480   2.531   0.116   2.130  0.9136  0.7533 -0.0118
15712SOL     OW53481   5.866   8.927   2.052  0.2426 -0.3033 -0.2631
15712SOL    HW153482   5.900   8.968   1.973  0.7268  1.4109  0.7906
15712SOL    HW253483   5.848   8.999   2.112  0.2561 -1.5588  1.3498
15713SOL     OW53484   1.206   3.707   6.350 -0.0423  0.2122 -0.0702
15713SOL    HW153485   1.123   3.667   6.375 -0.4577  0.4378 -1.0693
15713SOL    HW253486   1.200   3.797   6.382 -0.7421  0.6210 -1.2855
15714SOL     OW53487   0.370   3.368   3.315  0.1962 -0.0653  0.0556
15714SOL    HW153488   0.349   3.312   3.390 -2.2299  0.6529  0.0073
15714SOL    HW253489   0.346   3.315   3.239 -1.4597  0.7311 -0.0134
15715SOL     OW53490   1.155   8.385   3.840 -0.6314 -0.3888 -0.1458
15715SOL    HW153491   1.161   8.290   3.830  0.4058 -0.4263  0.7261
15715SOL    HW253492   1.206   8.419   3.766 -0.7601 -0.5096 -0.2922
15716SOL     OW53493   3.588   3.720   3.950 -0.4516  0.0595  0.0271
15716SOL    HW153494   3.571   3.644   3.895  0.9443 -0.2099 -0.0824
15716SOL    HW253495   3.551   3.697   4.035  1.4294 -1.5102  0.4929
15717SOL     OW53496   1.212   2.610   8.255 -0.4914 -0.9675 -0.0483
15717SOL    HW153497   1.254   2.599   8.170 -0.3993  0.9041 -0.2719
15717SOL    HW253498   1.261   2.551   8.313  1.8402  0.4014 -0.5086
15718SOL     OW53499   0.312   4.861   1.105  0.6856  0.7454  0.2969
15718SOL    HW153500   0.403   4.838   1.124  1.1994  2.0823 -0.4002
15718SOL    HW253501   0.265   4.839   1.186  0.8642 -3.5005 -0.5617
15719SOL     OW53502   5.913   1.237   3.894  0.1332 -0.0476  0.3191
15719SOL    HW153503   5.986   1.176   3.885  0.0813  0.0664 -1.0463
15719SOL    HW253504   5.953   1.323   3.884  0.2750  0.2273  2.6502
15720SOL     OW53505   7.259   5.872   0.039  0.7166  0.3454  0.1684
15720SOL    HW153506   7.341   5.910   0.071  0.3482 -0.7090  2.6094
15720SOL    HW253507   7.260   5.783   0.073 -1.2129  0.1557 -0.1811
15721SOL     OW53508   7.737   6.643   8.469  0.0658 -0.3320  0.1612
15721SOL    HW153509   7.750   6.666   8.561  1.9653 -1.9729  0.3790
15721SOL    HW253510   7.646   6.612   8.465  0.1642 -0.9267  1.6708
15722SOL     OW53511   5.562   1.827   5.941  0.1807  0.2079 -0.1210
15722SOL    HW153512   5.537   1.859   5.854 -0.4740 -1.0947 -0.4383
15722SOL    HW253513   5.515   1.744   5.951  2.8821 -1.4348  0.0386
15723SOL     OW53514   8.630   2.966   5.608  0.2671  0.1929  0.1671
15723SOL    HW153515   8.718   2.945   5.640  0.5284 -0.5719 -0.9774
15723SOL    HW253516   8.573   2.905   5.655  0.6637 -1.0040 -0.8223
15724SOL     OW53517   1.396   6.202   9.124  0.4435 -0.0356 -0.2511
15724SOL    HW153518   1.315   6.236   9.162 -0.4520 -0.6518 -1.5370
15724SOL    HW253519   1.446   6.169   9.198 -0.3702  0.5762  0.5901
15725SOL     OW53520   0.501   5.677   8.246  0.5287 -0.1161  0.7653
15725SOL    HW153521   0.554   5.653   8.170  0.0551 -1.5263  0.8563
15725SOL    HW253522   0.565   5.690   8.316  0.8221 -1.0892  0.6899
15726SOL     OW53523   1.757   4.513   5.759 -0.6636  0.4972  0.2720
15726SOL    HW153524   1.761   4.575   5.832 -0.0964 -0.0063  0.6822
15726SOL    HW253525   1.811   4.552   5.691  1.8340 -0.6846  1.4461
15727SOL     OW53526   5.750   4.116   7.597  0.0354 -0.3649  0.5362
15727SOL    HW153527   5.665   4.112   7.640  0.0342 -1.0044  0.4793
15727SOL    HW253528   5.744   4.192   7.539 -0.7681 -0.8480 -0.0330
15728SOL     OW53529   0.377   2.843   8.125 -0.0634  0.2708 -0.2992
15728SOL    HW153530   0.456   2.794   8.104  0.3643  0.8239 -0.0131
15728SOL    HW253531   0.328   2.846   8.042  0.4449  0.3499 -0.6011
15729SOL     OW53532   6.212   2.084   5.163  0.6677  0.0637  0.0928
15729SOL    HW153533   6.170   2.161   5.202  2.6043  1.5937 -0.6605
15729SOL    HW253534   6.192   2.012   5.222 -0.7912  1.2451  1.0957
15730SOL     OW53535   1.565   5.478   7.685 -0.0041 -0.1146  0.4696
15730SOL    HW153536   1.517   5.394   7.690  0.0428 -0.3059 -1.4464
15730SOL    HW253537   1.521   5.534   7.749 -0.6635 -1.2956  1.1013
15731SOL     OW53538   0.062   2.318   5.233  0.0496 -0.3859 -0.0716
15731SOL    HW153539   0.018   2.252   5.286 -2.1019 -0.1478 -1.4857
15731SOL    HW253540   0.155   2.304   5.251 -0.4537 -2.2631  1.4154
15732SOL     OW53541   3.756   3.597   7.977  0.4136  0.8866 -0.4844
15732SOL    HW153542   3.749   3.505   8.002 -1.6292  1.4442  1.3192
15732SOL    HW253543   3.843   3.605   7.940  0.8953 -1.6335 -0.0945
15733SOL     OW53544   2.414   6.065   3.419 -0.2397 -0.4419  0.0042
15733SOL    HW153545   2.320   6.074   3.401 -0.6260 -1.6181  1.2886
15733SOL    HW253546   2.423   6.080   3.513  0.7889 -0.8626 -0.0102
15734SOL     OW53547   1.150   2.845   6.619  0.3868  0.4532  0.1242
15734SOL    HW153548   1.067   2.872   6.579 -2.0966 -1.5432  3.3745
15734SOL    HW253549   1.148   2.750   6.617  1.8191  0.3400  1.6996
15735SOL     OW53550   2.019   7.369   5.193  0.1582 -0.0563 -0.0063
15735SOL    HW153551   2.053   7.432   5.257 -0.4733  0.2570  0.0319
15735SOL    HW253552   2.089   7.305   5.183  0.5214  0.2482  0.5139
15736SOL     OW53553   6.111   4.164   4.523 -0.0351 -0.2125  0.0933
15736SOL    HW153554   6.124   4.069   4.532 -0.2020 -0.2245  0.2122
15736SOL    HW253555   6.165   4.202   4.592  0.7771 -0.1703 -0.5420
15737SOL     OW53556   1.478   2.903   3.180 -0.2001 -0.3258  0.2678
15737SOL    HW153557   1.553   2.911   3.120 -0.0048 -0.6688  0.4639
15737SOL    HW253558   1.418   2.843   3.135 -0.5780  0.3248 -0.1080
15738SOL     OW53559   1.695   2.662   4.093  0.3683  0.7485  0.0191
15738SOL    HW153560   1.688   2.755   4.073  1.1158  0.4857 -1.5791
15738SOL    HW253561   1.778   2.635   4.055 -0.5554 -0.9129 -0.9300
15739SOL     OW53562   6.607   4.271   3.514 -0.2423  0.0342  0.1157
15739SOL    HW153563   6.528   4.258   3.566 -0.6530 -0.3667 -0.5978
15739SOL    HW253564   6.625   4.365   3.522 -0.3203 -0.0074  0.9333
15740SOL     OW53565   0.394   0.938   8.413  0.2213 -0.0742 -0.1426
15740SOL    HW153566   0.430   0.923   8.326  1.2793 -0.4194  0.3373
15740SOL    HW253567   0.302   0.912   8.407  0.6545 -1.5127 -0.7736
15741SOL     OW53568   8.361   8.549   0.978  0.1887 -0.3797  0.3454
15741SOL    HW153569   8.310   8.603   1.038 -0.6658 -1.2427  0.4286
15741SOL    HW253570   8.448   8.589   0.977  0.1532 -0.1761  1.9418
15742SOL     OW53571   6.510   7.797   7.583 -0.2290  0.4049 -0.2987
15742SOL    HW153572   6.459   7.872   7.551 -1.8695  0.3585  1.9988
15742SOL    HW253573   6.600   7.830   7.585 -0.4704  1.3405 -2.0043
15743SOL     OW53574   5.379   0.671   1.820  0.2108 -0.0087 -0.7487
15743SOL    HW153575   5.361   0.736   1.752 -0.4878 -0.4947 -1.0418
15743SOL    HW253576   5.432   0.604   1.775  1.7253  0.7761 -0.2193
15744SOL     OW53577   7.330   8.871   8.632  0.2975 -0.1482 -0.3105
15744SOL    HW153578   7.306   8.899   8.544 -2.0105 -0.2557  0.2243
15744SOL    HW253579   7.257   8.899   8.687  0.4024 -2.4694  1.1286
15745SOL     OW53580   8.265   2.615   1.729  0.0379 -0.2300 -0.7265
15745SOL    HW153581   8.281   2.654   1.815  2.4231 -0.6835 -0.8947
15745SOL    HW253582   8.189   2.662   1.695  1.1793  2.4600  0.1670
15746SOL     OW53583   2.076   4.687   6.181  0.5386  0.7484 -0.5974
15746SOL    HW153584   2.053   4.595   6.191  2.5209  0.2462 -0.1867
15746SOL    HW253585   2.061   4.706   6.088  0.0823  0.0331 -0.6770
15747SOL     OW53586   1.114   1.770   6.010  0.6133  0.4954 -0.3066
15747SOL    HW153587   1.090   1.766   5.917  1.9862 -0.1156 -0.6609
15747SOL    HW253588   1.208   1.788   6.009  0.5858  0.7717  0.9843
15748SOL     OW53589   4.429   4.932   5.631 -0.2929 -0.0115 -0.5783
15748SOL    HW153590   4.458   4.960   5.718  0.7759  0.5423 -1.0916
15748SOL    HW253591   4.335   4.951   5.629  0.0890  2.1369 -0.3530
15749SOL     OW53592   6.677   6.400   2.649  0.5256 -0.3686  0.4831
15749SOL    HW153593   6.597   6.355   2.620  0.2574  0.8604 -0.7591
15749SOL    HW253594   6.662   6.417   2.742 -0.3589 -0.7689  0.4241
15750SOL     OW53595   0.605   2.247   4.394  0.1685  0.3792  0.2818
15750SOL    HW153596   0.521   2.294   4.391  0.4608  1.1298  2.3275
15750SOL    HW253597   0.618   2.227   4.487  0.5845 -2.8890 -0.3421
15751SOL     OW53598   2.489   7.046   0.758 -0.6057  0.0884  0.7918
15751SOL    HW153599   2.560   6.987   0.785 -0.3048  0.8844  1.8381
15751SOL    HW253600   2.409   6.994   0.768 -0.1546 -1.0765 -1.1556
15752SOL     OW53601   2.874   6.299   7.555 -0.5675  0.3722 -0.1415
15752SOL    HW153602   2.820   6.330   7.628 -0.4073 -0.8659  0.5316
15752SOL    HW253603   2.843   6.210   7.539  1.4064 -0.4481  0.3967
15753SOL     OW53604   9.128   7.496   0.325  0.5328 -0.1242  0.3508
15753SOL    HW153605   9.120   7.544   0.407 -2.1370  0.6749 -0.2829
15753SOL    HW253606   9.080   7.414   0.340 -0.0510  0.0621 -0.4077
15754SOL     OW53607   1.609   8.383   0.637 -0.4257  0.2027 -0.7723
15754SOL    HW153608   1.662   8.456   0.604 -0.7006  0.5829 -0.3763
15754SOL    HW253609   1.545   8.423   0.695 -0.1442 -0.4259 -0.0037
15755SOL     OW53610   5.331   8.519   4.858 -0.4889 -0.9475  0.0462
15755SOL    HW153611   5.254   8.463   4.852 -1.3916  0.3237 -0.8619
15755SOL    HW253612   5.336   8.562   4.772  2.0212 -1.9700 -0.4249
15756SOL     OW53613   0.546   6.065   3.671  0.3079  0.3541 -0.2499
15756SOL    HW153614   0.511   6.092   3.586  0.2910  0.4868 -0.2017
15756SOL    HW253615   0.582   5.978   3.656 -0.5840 -0.0392 -0.1569
15757SOL     OW53616   2.532   8.558   1.528 -0.1445  0.1687 -0.1982
15757SOL    HW153617   2.558   8.641   1.567  0.5721  0.3363 -0.9871
15757SOL    HW253618   2.608   8.500   1.541 -0.3287 -0.1081 -0.3420
15758SOL     OW53619   1.004   7.662   8.972  0.2914 -0.0772 -0.1680
15758SOL    HW153620   1.074   7.680   8.909  1.1906  1.0242  1.0907
15758SOL    HW253621   0.923   7.686   8.926  0.9677  1.1768 -0.7428
15759SOL     OW53622   7.646   3.624   0.170 -0.0587  0.1526 -0.1436
15759SOL    HW153623   7.641   3.586   0.258  2.1444 -0.2821 -0.1434
15759SOL    HW253624   7.686   3.555   0.117  2.5536  1.8202 -0.5116
15760SOL     OW53625   8.684   8.544   0.283  0.4170  0.3394  0.1857
15760SOL    HW153626   8.691   8.589   0.199  0.0209 -0.8453 -0.5059
15760SOL    HW253627   8.590   8.546   0.303  0.7292  2.6917  1.8111
15761SOL     OW53628   3.404   5.770   2.219  0.2549  0.3193 -0.7835
15761SOL    HW153629   3.458   5.849   2.211  0.9087  0.4531  2.9311
15761SOL    HW253630   3.468   5.699   2.224 -0.0381  0.1064  0.2757
15762SOL     OW53631   0.009   0.248   6.402 -0.1540 -0.3700 -0.5892
15762SOL    HW153632  -0.058   0.208   6.346 -1.7560 -0.0214  0.9879
15762SOL    HW253633  -0.015   0.341   6.404 -0.2080 -0.4037  0.7793
15763SOL     OW53634   2.057   2.509   4.175 -0.0272  0.4569 -0.6419
15763SOL    HW153635   2.110   2.430   4.170 -0.9551 -0.4002  1.7400
15763SOL    HW253636   2.101   2.564   4.239 -0.2257  1.1893 -1.1275
15764SOL     OW53637   1.598   4.441   3.020 -0.3370  0.4163 -0.5102
15764SOL    HW153638   1.676   4.407   2.976 -2.2797 -1.2146 -2.8961
15764SOL    HW253639   1.600   4.401   3.107  1.0796 -0.1673 -0.7935
15765SOL     OW53640   7.252   1.170   5.049  0.1501  0.0252 -0.0179
15765SOL    HW153641   7.277   1.261   5.061 -1.2145  0.4149  0.0945
15765SOL    HW253642   7.201   1.149   5.128 -0.5479 -0.4529 -0.5797
15766SOL     OW53643   1.250   6.124   2.326  0.4702 -0.0318  0.1292
15766SOL    HW153644   1.325   6.065   2.316 -0.1925 -0.8287 -0.2882
15766SOL    HW253645   1.287   6.212   2.326  1.3042 -0.3754 -1.0744
15767SOL     OW53646   5.163   6.133   8.637  0.0214  0.0779 -0.0900
15767SOL    HW153647   5.252   6.132   8.600  1.2454 -1.0067  2.6666
15767SOL    HW253648   5.128   6.047   8.617  0.9064 -0.7264  1.6434
15768SOL     OW53649   2.630   0.999   3.635  0.3985  0.0424 -0.5417
15768SOL    HW153650   2.652   0.907   3.619  0.0568  0.0340 -0.9861
15768SOL    HW253651   2.709   1.047   3.611  0.5571 -0.1320 -0.3677
15769SOL     OW53652   3.957   5.827   1.995  0.0784  0.2320  0.1495
15769SOL    HW153653   3.982   5.745   1.953  0.1050  0.3472 -0.0592
15769SOL    HW253654   3.922   5.801   2.080 -1.0783 -0.1007 -0.4160
15770SOL     OW53655   2.307   6.015   8.899 -0.0298 -0.6917  0.5491
15770SOL    HW153656   2.330   6.103   8.929  0.4444 -1.1109  1.4555
15770SOL    HW253657   2.284   5.968   8.979 -1.1190 -1.1578 -0.0221
15771SOL     OW53658   6.522   6.850   1.913  0.3631  0.1237 -0.3346
15771SOL    HW153659   6.540   6.941   1.887  0.6837 -0.3233 -1.7149
15771SOL    HW253660   6.428   6.839   1.900  0.4565  0.0227 -0.9481
15772SOL     OW53661   6.373   7.914   4.695  0.5475  0.0649 -0.5450
15772SOL    HW153662   6.462   7.933   4.667  0.3542 -0.7724 -1.7750
15772SOL    HW253663   6.350   7.832   4.651 -0.6235 -0.0359  0.2074
15773SOL     OW53664   5.927   3.459   8.855  0.5078 -0.0030  0.3343
15773SOL    HW153665   5.917   3.365   8.870 -2.7166  0.3398  1.0215
15773SOL    HW253666   5.938   3.497   8.943 -2.1110  0.5232  0.5232
15774SOL     OW53667   1.253   9.022   7.168 -0.5691  0.0116  0.0331
15774SOL    HW153668   1.327   9.079   7.187  0.0330 -0.7577  0.0504
15774SOL    HW253669   1.177   9.068   7.203 -0.0352  0.5867  0.4509
15775SOL     OW53670   2.186   2.331   9.127  0.5765  0.0339 -0.4010
15775SOL    HW153671   2.139   2.267   9.073  0.7329 -1.8439  1.5549
15775SOL    HW253672   2.135   2.336   9.207  1.9682  0.4053  0.4861
15776SOL     OW53673   5.017   3.561   1.145 -0.4917  0.2158  0.2155
15776SOL    HW153674   4.965   3.531   1.219 -1.2623  1.0835  0.0546
15776SOL    HW253675   5.044   3.650   1.169  1.7290 -0.5362  0.6912
15777SOL     OW53676   8.668   4.071   0.061  0.1933 -0.0120 -0.4661
15777SOL    HW153677   8.658   3.993   0.006 -0.5743 -0.8020  0.7499
15777SOL    HW253678   8.753   4.107   0.036 -1.1899  1.2370 -4.1022
15778SOL     OW53679   4.626   7.933   2.747 -0.5103 -0.3987 -0.9586
15778SOL    HW153680   4.706   7.936   2.694  1.9633  0.3145  2.4884
15778SOL    HW253681   4.636   8.007   2.808 -3.3560 -0.9121  0.2534
15779SOL     OW53682   3.881   6.246   5.424  0.1124 -0.1632  0.2088
15779SOL    HW153683   3.864   6.164   5.470 -0.4906  0.1621  0.5726
15779SOL    HW253684   3.844   6.314   5.480  0.1764  0.3192 -0.3185
15780SOL     OW53685   1.860   8.785   6.220 -0.0319 -0.0884 -0.0010
15780SOL    HW153686   1.952   8.796   6.242 -0.1825  2.6993 -0.3266
15780SOL    HW253687   1.860   8.717   6.153  1.5368 -1.4633  1.3052
15781SOL     OW53688   3.821   9.061   6.792  0.4786  0.2574  0.0281
15781SOL    HW153689   3.740   9.030   6.751  0.0156  2.2111 -0.5993
15781SOL    HW253690   3.859   8.982   6.830 -0.2076 -1.2650 -2.2188
15782SOL     OW53691   4.187   5.935   4.789  0.3085  0.0369  0.8053
15782SOL    HW153692   4.163   5.857   4.739  2.8142  1.1980 -2.6474
15782SOL    HW253693   4.256   5.906   4.848  0.5479 -0.5784  0.2371
15783SOL     OW53694   7.245   2.445   3.651 -0.7967  0.2800 -0.0356
15783SOL    HW153695   7.162   2.491   3.665 -0.7617 -0.0098  1.1807
15783SOL    HW253696   7.238   2.366   3.705  0.9566  1.0771  1.4171
15784SOL     OW53697   4.140   5.937   6.554 -0.4294  0.0167 -0.3071
15784SOL    HW153698   4.194   5.927   6.476 -0.4292 -2.0517 -0.0978
15784SOL    HW253699   4.203   5.946   6.626 -0.3752 -0.5457 -0.2786
15785SOL     OW53700   2.637   7.654   5.878 -0.0638 -0.2411  0.2362
15785SOL    HW153701   2.712   7.604   5.911  0.0181 -0.3672 -0.1425
15785SOL    HW253702   2.673   7.711   5.811 -0.3275 -0.3842 -0.0272
15786SOL     OW53703   9.090   6.865   8.274  0.5147 -0.1309 -0.6470
15786SOL    HW153704   9.007   6.902   8.245 -0.8897 -0.4741  2.5401
15786SOL    HW253705   9.137   6.938   8.313  0.2680 -0.5387  0.4466
15787SOL     OW53706   6.681   2.457   0.528  0.4056  0.2122 -0.2055
15787SOL    HW153707   6.646   2.383   0.478 -0.2359  1.1531 -1.2084
15787SOL    HW253708   6.738   2.503   0.466 -0.4498  1.4328 -0.1267
15788SOL     OW53709   0.718   4.450   4.186 -0.1212 -0.0076  0.0006
15788SOL    HW153710   0.660   4.404   4.247 -1.5857  0.6216 -0.8877
15788SOL    HW253711   0.750   4.381   4.128 -1.5803 -0.1002 -0.7450
15789SOL     OW53712   2.198   4.575   8.138 -0.0453  0.2440 -0.2914
15789SOL    HW153713   2.207   4.480   8.135  1.5841  0.3956 -1.5456
15789SOL    HW253714   2.120   4.594   8.085 -1.0208 -0.4153  0.8504
15790SOL     OW53715   3.863   7.003   5.705  0.1086 -0.7619  0.2640
15790SOL    HW153716   3.836   7.094   5.697 -2.0615 -1.4731 -1.7362
15790SOL    HW253717   3.939   7.005   5.763  1.5393  2.5419 -1.4701
15791SOL     OW53718   5.269   0.190   6.595  0.7343  0.2317 -0.1394
15791SOL    HW153719   5.197   0.252   6.587  0.7067  0.2060 -0.0877
15791SOL    HW253720   5.230   0.105   6.576  0.3330 -0.0384  1.6960
15792SOL     OW53721   7.384   3.305   1.486 -0.0731  0.1139 -1.0618
15792SOL    HW153722   7.402   3.345   1.401  0.0081  2.5766  0.0247
15792SOL    HW253723   7.471   3.282   1.521 -0.1979 -3.4432 -2.6402
15793SOL     OW53724   7.483   6.009   2.273 -0.1189  0.2707 -0.0015
15793SOL    HW153725   7.540   6.085   2.286  0.4924  0.0254 -1.1503
15793SOL    HW253726   7.394   6.045   2.282  0.1669  1.0716 -0.2124
15794SOL     OW53727   4.095   2.805   3.249 -0.2113 -0.3126 -0.1355
15794SOL    HW153728   4.010   2.847   3.238  0.1445  0.3898 -0.2701
15794SOL    HW253729   4.078   2.712   3.234 -0.4790  0.0930 -2.9691
15795SOL     OW53730   8.473   8.835   7.918 -0.5861  0.1674 -0.2907
15795SOL    HW153731   8.506   8.901   7.857  0.4625 -2.3268 -2.5654
15795SOL    HW253732   8.546   8.774   7.930 -1.1713 -0.1298  2.5620
15796SOL     OW53733   0.816   8.521   9.135 -0.5580  0.2320  0.1157
15796SOL    HW153734   0.793   8.472   9.214  0.8960  1.1446  1.1607
15796SOL    HW253735   0.911   8.531   9.140 -0.6585  2.0476 -0.6997
15797SOL     OW53736   6.313   1.531   0.243  0.2023  0.4767  0.2566
15797SOL    HW153737   6.290   1.559   0.154 -1.4204 -2.4383 -0.3493
15797SOL    HW253738   6.234   1.545   0.294 -0.1812 -1.4840  0.2623
15798SOL     OW53739   3.753   3.044   7.697 -0.0680 -0.1686  0.3080
15798SOL    HW153740   3.842   3.010   7.706  0.1084  0.1790 -0.0640
15798SOL    HW253741   3.718   2.999   7.620  0.0264  0.1961  0.0512
15799SOL     OW53742   1.720   1.183   4.061  0.3289 -0.5277  0.1598
15799SOL    HW153743   1.696   1.209   3.972  1.0607 -0.5875 -0.0606
15799SOL    HW253744   1.698   1.090   4.066  1.0511 -0.7314 -0.2422
15800SOL     OW53745   3.779   2.892   1.155 -0.0246 -0.1720  0.0059
15800SOL    HW153746   3.854   2.909   1.098  1.2156 -2.1941  0.8721
15800SOL    HW253747   3.791   2.800   1.182 -3.1530 -0.7512 -0.2712
15801SOL     OW53748   7.347   1.870   6.061  0.6218 -0.1683  0.1786
15801SOL    HW153749   7.261   1.831   6.047  1.0694 -0.8120 -0.8872
15801SOL    HW253750   7.374   1.836   6.147 -0.5191  0.7106  0.9161
15802SOL     OW53751   7.574   4.477   9.123  0.4961  0.0992 -0.0476
15802SOL    HW153752   7.594   4.513   9.036 -1.0087 -3.1201 -1.9118
15802SOL    HW253753   7.480   4.459   9.120  0.6127 -1.0390  1.8479
15803SOL     OW53754   0.162   5.006   1.934 -0.4468  0.9865  0.1345
15803SOL    HW153755   0.147   4.933   1.993  0.6020  0.3751 -0.3237
15803SOL    HW253756   0.141   4.972   1.847 -0.4459  1.3862 -0.0261
15804SOL     OW53757   6.723   8.572   7.026 -0.1409 -0.4382  0.6434
15804SOL    HW153758   6.806   8.569   6.978  0.1341 -2.2496  1.1633
15804SOL    HW253759   6.745   8.540   7.113 -0.4802  3.4150  2.3816
15805SOL     OW53760   1.950   0.418   4.817 -0.3378  0.2243 -0.3212
15805SOL    HW153761   1.988   0.495   4.776 -0.0914 -0.4816 -1.4599
15805SOL    HW253762   1.882   0.389   4.756 -1.5412  0.4656  0.8704
15806SOL     OW53763   6.438   3.171   0.191  0.0420  0.1298  0.1148
15806SOL    HW153764   6.372   3.238   0.203  0.1944  0.3844 -0.4084
15806SOL    HW253765   6.414   3.129   0.108  0.9403  0.7102 -0.4599
15807SOL     OW53766   5.106   0.960   5.953  0.0645 -0.2693  0.1308
15807SOL    HW153767   5.035   1.002   6.001 -0.5565 -0.7194 -0.3830
15807SOL    HW253768   5.109   0.871   5.986 -0.8606 -0.8100 -1.1576
15808SOL     OW53769   9.238   6.569   4.651 -0.1417 -0.8824  0.5789
15808SOL    HW153770   9.248   6.604   4.739 -1.0972 -0.3956  0.5047
15808SOL    HW253771   9.168   6.503   4.658 -2.0191  0.9178 -0.2532
15809SOL     OW53772   1.832   4.554   5.362 -0.8724 -0.4688  0.6721
15809SOL    HW153773   1.752   4.549   5.415 -1.0032  0.4919  0.5866
15809SOL    HW253774   1.870   4.466   5.367 -2.7192 -1.4187 -0.5251
15810SOL     OW53775   4.766   7.044   6.929  0.2164  0.2539  0.2677
15810SOL    HW153776   4.822   7.060   6.853 -2.1138 -0.2965 -1.6896
15810SOL    HW253777   4.813   6.977   6.980  0.9166 -0.8979 -1.7833
15811SOL     OW53778   3.271   5.073   2.442 -0.6022  0.0919 -0.7294
15811SOL    HW153779   3.312   4.997   2.399 -1.1660 -0.3101 -0.5724
15811SOL    HW253780   3.177   5.052   2.441 -0.7585  0.7874 -0.6734
15812SOL     OW53781   6.455   0.008   4.424  0.4931  0.2719 -0.5025
15812SOL    HW153782   6.533  -0.018   4.375  0.0733 -1.3740 -0.3641
15812SOL    HW253783   6.414   0.075   4.370  2.5339  2.0129 -0.0581
15813SOL     OW53784   0.198   7.242   3.010  0.3966  0.5062  0.1154
15813SOL    HW153785   0.173   7.247   3.102 -0.2090 -0.0894 -0.0156
15813SOL    HW253786   0.244   7.158   3.002 -0.8594 -0.1488 -0.4315
15814SOL     OW53787   0.964   2.735   0.233 -1.3373 -0.1010  0.3018
15814SOL    HW153788   0.990   2.809   0.287  0.0854 -0.0252 -0.4208
15814SOL    HW253789   0.956   2.771   0.145 -2.3318 -0.4770  0.2218
15815SOL     OW53790   6.818   5.113   7.764 -0.3394 -0.1311 -0.0190
15815SOL    HW153791   6.777   5.085   7.846 -1.1949  0.3060 -0.2853
15815SOL    HW253792   6.912   5.109   7.782 -0.4239 -2.3849  0.1983
15816SOL     OW53793   4.686   1.543   5.249 -0.4783 -0.2209 -0.0330
15816SOL    HW153794   4.683   1.632   5.286  3.0595 -0.2469  0.5717
15816SOL    HW253795   4.642   1.552   5.164 -0.1202  2.1417 -0.0394
15817SOL     OW53796   4.499   1.290   2.372  0.1419 -0.0592  0.4636
15817SOL    HW153797   4.568   1.354   2.392 -0.5224  0.7265  0.2917
15817SOL    HW253798   4.474   1.256   2.458 -0.3027  0.7755  0.6784
15818SOL     OW53799   7.075   7.389   1.609 -0.5408  0.4012 -0.1087
15818SOL    HW153800   7.050   7.296   1.608 -0.5833  0.3395  2.2271
15818SOL    HW253801   6.998   7.434   1.643 -0.6355  1.3764 -1.5313
15819SOL     OW53802   9.227   0.735   4.909  0.3147 -0.3064  0.1413
15819SOL    HW153803   9.208   0.794   4.982 -1.1255  0.0092 -0.4579
15819SOL    HW253804   9.184   0.653   4.932 -1.2956  0.1931 -0.9017
15820SOL     OW53805   0.849   8.786   5.095 -0.1966  0.7001 -0.2613
15820SOL    HW153806   0.884   8.863   5.139 -1.0428  0.4611  0.8700
15820SOL    HW253807   0.872   8.713   5.152 -1.6915  0.4350  0.0456
15821SOL     OW53808   6.517   0.228   3.583 -0.1302  0.2134 -0.0918
15821SOL    HW153809   6.506   0.288   3.657 -0.0085  0.2092 -0.0704
15821SOL    HW253810   6.525   0.285   3.506 -0.9481  0.2035 -0.1944
15822SOL     OW53811   9.232   4.224   8.249  0.2125  0.1127  0.2235
15822SOL    HW153812   9.243   4.202   8.157 -0.0137 -1.2023  0.4951
15822SOL    HW253813   9.166   4.163   8.281 -0.5944  1.3397  0.9869
15823SOL     OW53814   4.568   2.155   8.979  0.3981 -0.5959  0.1165
15823SOL    HW153815   4.622   2.194   8.911  0.4159 -1.1218 -0.1807
15823SOL    HW253816   4.621   2.083   9.013  0.2397 -0.5658  0.4295
15824SOL     OW53817   6.713   2.880   8.145  0.2032  0.1850 -0.0301
15824SOL    HW153818   6.734   2.848   8.057  0.8029  0.3446  0.0503
15824SOL    HW253819   6.784   2.846   8.200 -0.3540 -0.2058  0.4562
15825SOL     OW53820   3.659   5.861   1.783 -0.4544  0.2933 -0.7063
15825SOL    HW153821   3.569   5.829   1.777 -0.8166  1.1070  0.1104
15825SOL    HW253822   3.651   5.949   1.820  0.6673  0.4555 -0.8064
15826SOL     OW53823   7.664   7.134   7.924  0.1272  0.4700  0.0974
15826SOL    HW153824   7.687   7.226   7.913  0.4729  0.2201 -1.4739
15826SOL    HW253825   7.717   7.105   7.998  0.0082  1.5152  0.6158
15827SOL     OW53826   8.152   4.643   7.670  0.2339  0.5848  0.2736
15827SOL    HW153827   8.145   4.729   7.628 -1.6849  0.1617 -0.4059
15827SOL    HW253828   8.061   4.616   7.683  0.7937 -1.4838  0.1862
15828SOL     OW53829   9.146   1.903   1.437  0.0581  0.1063 -0.1692
15828SOL    HW153830   9.182   1.990   1.416  1.3061 -0.0156  1.3329
15828SOL    HW253831   9.178   1.847   1.367 -0.8814  0.8478 -1.2417
15829SOL     OW53832   0.902   6.780   7.388  0.1123 -0.4170 -0.0355
15829SOL    HW153833   0.887   6.785   7.294 -2.0033  1.5378  0.3003
15829SOL    HW253834   0.901   6.871   7.417  1.1205 -0.9530  1.8402
15830SOL     OW53835   1.196   8.533   2.525  0.0376 -0.4671 -0.5450
15830SOL    HW153836   1.174   8.575   2.442 -0.9690  0.1279  0.0053
15830SOL    HW253837   1.114   8.533   2.575  0.6871 -0.5602  0.5618
15831SOL     OW53838   8.162   5.130   0.072 -0.1678  0.2554  0.0972
15831SOL    HW153839   8.160   5.208   0.016  0.7842 -0.1026 -0.4522
15831SOL    HW253840   8.226   5.149   0.140  0.3146 -0.1646 -0.2296
15832SOL     OW53841   5.083   1.618   2.936 -0.2410  0.6453 -0.3472
15832SOL    HW153842   5.001   1.612   2.986  0.1440 -3.1550  0.0930
15832SOL    HW253843   5.075   1.552   2.867  1.7103  1.5624 -1.5616
15833SOL     OW53844   2.624   6.412   2.299 -0.0267 -0.0404 -0.7057
15833SOL    HW153845   2.548   6.390   2.245 -0.7144 -0.9495  0.5879
15833SOL    HW253846   2.609   6.504   2.323 -0.9523 -0.3192 -0.1402
15834SOL     OW53847   8.783   1.201   8.175 -0.2961 -0.1191 -0.0300
15834SOL    HW153848   8.719   1.267   8.201 -0.5392 -1.1050  2.0978
15834SOL    HW253849   8.839   1.189   8.252 -0.5069 -2.6586 -0.1748
15835SOL     OW53850   5.871   1.480   5.893  0.6906  0.2660  0.0876
15835SOL    HW153851   5.787   1.521   5.918 -0.2077  0.2419 -2.5999
15835SOL    HW253852   5.846   1.396   5.855  1.6433  1.2058 -2.8551
15836SOL     OW53853   3.686   5.876   9.210 -0.0798  0.4782 -0.4535
15836SOL    HW153854   3.678   5.832   9.125 -0.6395  0.3032 -0.3136
15836SOL    HW253855   3.651   5.964   9.195 -0.5709  0.3101 -0.2993
15837SOL     OW53856   8.579   1.699   3.270  0.8872 -0.1910 -0.4215
15837SOL    HW153857   8.565   1.731   3.181  1.6436 -1.0647 -0.8659
15837SOL    HW253858   8.502   1.646   3.289 -0.2075  1.5314  0.1885
15838SOL     OW53859   2.445   4.762   3.616 -0.6509  0.4309  0.7785
15838SOL    HW153860   2.455   4.825   3.688 -1.4766  0.1997  1.1118
15838SOL    HW253861   2.506   4.692   3.638  1.2420  1.6635 -0.2642
15839SOL     OW53862   6.734   1.481   4.492 -0.8618  0.4728 -0.0872
15839SOL    HW153863   6.695   1.533   4.421 -0.2948 -1.4408 -1.8905
15839SOL    HW253864   6.811   1.440   4.451  0.4166  0.5559  2.1084
15840SOL     OW53865   7.602   7.247   7.543 -0.1328  0.4350 -0.4758
15840SOL    HW153866   7.688   7.236   7.583  0.2965 -0.8215 -1.6600
15840SOL    HW253867   7.551   7.173   7.576  0.0377 -0.2611 -1.7304
15841SOL     OW53868   2.100   3.137   2.965 -0.0783 -0.6386  0.3019
15841SOL    HW153869   2.163   3.192   3.011  0.7441 -1.3360  0.0399
15841SOL    HW253870   2.053   3.197   2.907  0.8437 -0.2216 -0.0341
15842SOL     OW53871   3.937   5.411   7.745  0.5852  0.2206  0.0586
15842SOL    HW153872   3.906   5.477   7.807  1.6975 -0.7076  1.6974
15842SOL    HW253873   3.884   5.334   7.764  0.6416  0.0532 -0.4467
15843SOL     OW53874   8.555   3.597   7.694  0.0952 -0.1016  0.4873
15843SOL    HW153875   8.631   3.552   7.657 -0.4249 -0.5598 -0.0373
15843SOL    HW253876   8.592   3.653   7.763  0.7472 -1.3531  1.1815
15844SOL     OW53877   7.018   1.680   9.124  0.2487  0.0828  0.5336
15844SOL    HW153878   6.978   1.765   9.106 -1.8648 -1.3331 -2.3185
15844SOL    HW253879   6.946   1.626   9.157  1.0505 -1.1438  0.3356
15845SOL     OW53880   4.482   1.732   1.883  0.1243 -0.1765 -0.1419
15845SOL    HW153881   4.436   1.706   1.962 -0.0018  0.5919  0.0422
15845SOL    HW253882   4.525   1.652   1.853 -0.2418 -0.5885  0.4175
15846SOL     OW53883   5.868   5.858   6.327  0.4637 -0.7965 -0.1955
15846SOL    HW153884   5.785   5.820   6.300  0.4548  0.4041 -2.0682
15846SOL    HW253885   5.860   5.869   6.421 -2.1992  0.7853 -0.5045
15847SOL     OW53886   2.318   7.575   2.345 -0.2060 -0.1201  0.5703
15847SOL    HW153887   2.236   7.527   2.330 -0.5957  1.1348 -1.8925
15847SOL    HW253888   2.297   7.637   2.415 -0.7294 -1.1724  1.3695
15848SOL     OW53889   5.145   5.074   3.330 -0.2872 -0.4250  0.1544
15848SOL    HW153890   5.165   5.140   3.264  0.7738 -0.4845  0.3928
15848SOL    HW253891   5.098   5.006   3.282 -1.4070  0.4890 -0.0850
15849SOL     OW53892   0.374   0.886   0.375  0.0660  0.3651 -0.1899
15849SOL    HW153893   0.442   0.934   0.329 -1.1257  2.7144  0.3235
15849SOL    HW253894   0.294   0.935   0.357 -0.9931 -0.5634  1.6307
15850SOL     OW53895   6.971   3.159   4.791 -0.0218  0.4444  0.0609
15850SOL    HW153896   6.952   3.065   4.798  3.8400 -0.4107  2.6248
15850SOL    HW253897   6.977   3.175   4.697 -1.3155 -1.7390 -0.4664
15851SOL     OW53898   3.775   3.391   1.741  0.4020  0.4695 -0.2938
15851SOL    HW153899   3.803   3.333   1.670  1.2104 -1.3075  1.4103
15851SOL    HW253900   3.680   3.397   1.731  0.4795  0.1631 -1.4177
15852SOL     OW53901   2.122   9.197   0.647  0.0358 -0.4515  0.0948
15852SOL    HW153902   2.161   9.173   0.563 -0.8095 -1.7454  0.0488
15852SOL    HW253903   2.107   9.291   0.640  1.4448 -0.2507 -0.5754
15853SOL     OW53904   8.875   4.901   5.222 -0.0953 -0.2166 -0.1151
15853SOL    HW153905   8.932   4.968   5.261 -1.0267 -0.0809  1.0854
15853SOL    HW253906   8.896   4.821   5.269 -1.6847  0.0818  1.2161
15854SOL     OW53907   1.657   8.123   0.479  0.0459 -0.3464 -0.1673
15854SOL    HW153908   1.633   8.131   0.571 -1.7888 -0.5639 -0.5809
15854SOL    HW253909   1.667   8.213   0.449  0.1083 -0.2555  0.1259
15855SOL     OW53910   6.408   1.615   0.951 -0.1374  0.5937 -0.4680
15855SOL    HW153911   6.440   1.560   0.879 -1.6361 -0.8798 -0.0692
15855SOL    HW253912   6.361   1.686   0.908  0.7668  0.9045 -0.9698
15856SOL     OW53913   8.820   2.252   2.885 -0.1244 -0.2328  0.0407
15856SOL    HW153914   8.731   2.274   2.911 -0.0103 -0.8295  0.9996
15856SOL    HW253915   8.875   2.313   2.934  0.1918 -2.4631  2.6865
15857SOL     OW53916   5.256   2.604   3.235 -0.5390 -0.3359  0.2640
15857SOL    HW153917   5.350   2.618   3.224 -0.4408 -2.2377 -2.2240
15857SOL    HW253918   5.217   2.648   3.160 -1.5667 -0.2231  0.8574
15858SOL     OW53919   5.247   7.328   5.123  0.3133 -0.3975 -0.2059
15858SOL    HW153920   5.247   7.417   5.088  1.5990 -0.4016 -0.2899
15858SOL    HW253921   5.340   7.302   5.120  0.0028 -1.5939  0.1686
15859SOL     OW53922   3.729   7.770   3.319 -0.1306  0.2025  0.2459
15859SOL    HW153923   3.690   7.702   3.264 -0.8575 -0.1126  1.1351
15859SOL    HW253924   3.812   7.733   3.347 -0.7950 -0.6054  1.2292
15860SOL     OW53925   2.719   0.766   2.842 -0.0692 -0.2694 -0.3206
15860SOL    HW153926   2.773   0.840   2.870  0.9410 -1.0391 -0.1774
15860SOL    HW253927   2.760   0.735   2.762 -1.1011 -0.0403 -0.9532
15861SOL     OW53928   6.597   0.961   5.136 -0.2156  0.3291 -0.0155
15861SOL    HW153929   6.528   1.028   5.137  0.7968  1.4019  0.9291
15861SOL    HW253930   6.643   0.973   5.219 -0.5551 -2.1725  0.6224
15862SOL     OW53931   4.031   0.552   3.945 -0.0798 -0.3714  0.2050
15862SOL    HW153932   3.942   0.521   3.957 -0.2839 -0.2189 -0.7827
15862SOL    HW253933   4.056   0.520   3.859  0.3766  0.5967 -0.0430
15863SOL     OW53934   3.282   5.396   0.683 -0.1188 -0.0003  0.6508
15863SOL    HW153935   3.357   5.411   0.626  0.5290  0.1101  1.5160
15863SOL    HW253936   3.208   5.385   0.623  0.8405 -1.7199 -0.2646
15864SOL     OW53937   3.202   8.099   8.481 -0.2667 -0.3419  0.0939
15864SOL    HW153938   3.256   8.166   8.441  2.2371 -1.2477  1.7273
15864SOL    HW253939   3.218   8.107   8.575 -1.2766 -2.0705  0.4702
15865SOL     OW53940   2.461   5.414   6.966  0.6607  0.3324 -0.2647
15865SOL    HW153941   2.556   5.426   6.973  0.5027  0.6560  1.9947
15865SOL    HW253942   2.429   5.426   7.055 -1.3872 -0.9739 -0.7753
15866SOL     OW53943   2.252   0.469   4.986 -0.6154  0.9285 -0.4309
15866SOL    HW153944   2.184   0.483   5.052 -1.0359  0.5495 -0.7764
15866SOL    HW253945   2.312   0.543   4.997 -0.4527  0.6447  0.6556
15867SOL     OW53946   9.079   2.660   1.316 -0.4972  0.3904  0.0642
15867SOL    HW153947   8.987   2.681   1.300 -0.6070 -0.5630 -0.6691
15867SOL    HW253948   9.103   2.601   1.245  0.8087  0.9468  0.0055
15868SOL     OW53949   7.509   1.339   5.775  0.6173  0.5231 -0.4676
15868SOL    HW153950   7.533   1.403   5.708  1.9698 -0.0934 -0.6058
15868SOL    HW253951   7.500   1.256   5.728 -0.0817  0.3891 -0.1260
15869SOL     OW53952   1.338   0.257   0.576  0.0427  0.0385 -0.6789
15869SOL    HW153953   1.405   0.321   0.600  1.5559 -2.0666  1.1002
15869SOL    HW253954   1.372   0.216   0.497 -0.0268  0.1643 -0.7751
15870SOL     OW53955   7.969   9.114   6.758 -0.3482  0.2143 -0.1113
15870SOL    HW153956   8.063   9.128   6.750 -0.0803 -1.5878 -0.3222
15870SOL    HW253957   7.932   9.203   6.754  1.4353  1.1335  1.8126
15871SOL     OW53958   4.807   2.251   3.109 -0.2141 -0.2951  0.3468
15871SOL    HW153959   4.807   2.323   3.046  1.7797 -0.4207  0.1499
15871SOL    HW253960   4.866   2.281   3.179 -2.2021 -0.2418  2.1031
15872SOL     OW53961   5.054   2.772   5.847  0.3725 -0.0839  0.1684
15872SOL    HW153962   5.146   2.743   5.849  0.9503  1.5666  2.5481
15872SOL    HW253963   5.041   2.814   5.932 -1.8478  2.0480 -1.1193
15873SOL     OW53964   4.374   6.241   2.454 -0.1925  0.0483 -0.1000
15873SOL    HW153965   4.289   6.230   2.496 -0.2746  1.6382  0.2271
15873SOL    HW253966   4.368   6.191   2.373 -1.5099  0.2927 -0.1688
15874SOL     OW53967   2.887   1.209   5.372 -0.3607 -0.2070  0.2974
15874SOL    HW153968   2.965   1.262   5.357  1.1889 -2.6125 -0.7549
15874SOL    HW253969   2.867   1.222   5.465  2.6582 -1.1293  1.2173
15875SOL     OW53970   0.481   2.621   3.986 -0.6390 -0.1648 -0.4357
15875SOL    HW153971   0.484   2.714   4.005 -0.9127 -0.5804  1.9164
15875SOL    HW253972   0.549   2.582   4.041 -1.4034 -1.4789 -0.3605
15876SOL     OW53973   0.982   7.581   7.548  0.4161 -0.3512 -0.0684
15876SOL    HW153974   0.920   7.651   7.526  0.1166 -0.8190 -0.7609
15876SOL    HW253975   0.946   7.541   7.627  1.2766  1.0843  1.1090
15877SOL     OW53976   6.699   1.045   6.139  0.0438 -0.8072  0.2551
15877SOL    HW153977   6.649   1.112   6.184 -1.7690 -0.0932 -2.5568
15877SOL    HW253978   6.735   0.990   6.209  0.0475  1.9437  2.5875
15878SOL     OW53979   0.964   0.991   7.854  0.1643 -0.3069 -0.1837
15878SOL    HW153980   0.926   1.079   7.841  0.4199 -0.3423 -1.3072
15878SOL    HW253981   1.041   1.006   7.908 -0.2697  0.0484  0.3485
15879SOL     OW53982   5.212   2.459   3.839 -0.2860  0.2104  0.6978
15879SOL    HW153983   5.193   2.368   3.813 -0.1757  0.0902  1.0363
15879SOL    HW253984   5.225   2.454   3.934 -0.6487  0.6401  0.7728
15880SOL     OW53985   1.123   6.785   0.342  0.0536 -0.3094 -0.0431
15880SOL    HW153986   1.159   6.791   0.430 -3.3497  0.5606  1.4576
15880SOL    HW253987   1.090   6.695   0.335 -1.1885  0.1066  0.2688
15881SOL     OW53988   1.525   1.344   8.843  0.3655  0.9250 -0.1761
15881SOL    HW153989   1.525   1.276   8.775  0.7625 -2.1226  2.5863
15881SOL    HW253990   1.433   1.356   8.865  0.2754  1.5297 -0.8425
15882SOL     OW53991   1.405   5.622   7.855  0.3635  0.0299  0.4832
15882SOL    HW153992   1.420   5.711   7.887 -0.5258  0.6069 -0.6326
15882SOL    HW253993   1.310   5.614   7.849  0.4333 -0.9864  0.5203
15883SOL     OW53994   5.565   5.468   5.681  0.3340  0.8650  0.0929
15883SOL    HW153995   5.583   5.462   5.774  1.1084  0.2367 -0.0885
15883SOL    HW253996   5.644   5.434   5.639  0.4797  2.2421 -0.8184
15884SOL     OW53997   0.870   5.031   1.217 -0.1006 -0.2645  0.3061
15884SOL    HW153998   0.849   5.051   1.309  0.1746 -0.7299  0.4752
15884SOL    HW253999   0.965   5.024   1.215 -0.0367  0.6034 -0.2024
15885SOL     OW54000   2.254   1.556   5.405 -0.4545 -0.2506 -0.3494
15885SOL    HW154001   2.181   1.617   5.391  0.0436 -0.0564 -2.4350
15885SOL    HW254002   2.318   1.607   5.454 -0.6642  0.4310 -0.7644
15886SOL     OW54003   3.382   4.408   2.716 -0.1052 -0.2957 -0.6960
15886SOL    HW154004   3.315   4.388   2.650 -0.8290 -2.0527  0.4914
15886SOL    HW254005   3.332   4.448   2.788 -0.0273 -2.0649  0.4023
15887SOL     OW54006   0.361   1.520   6.429 -0.2717  0.8075  0.0284
15887SOL    HW154007   0.412   1.556   6.357  0.2738  1.0710  0.5327
15887SOL    HW254008   0.284   1.482   6.388  0.5436 -0.0023 -0.7958
15888SOL     OW54009   5.479   0.613   7.372 -0.2174 -0.0264 -0.0352
15888SOL    HW154010   5.482   0.707   7.357 -0.9301 -0.2011 -1.4651
15888SOL    HW254011   5.550   0.596   7.435  2.5577  0.9605 -2.6446
15889SOL     OW54012   1.010   9.176   4.713  0.2146  0.1390 -0.2188
15889SOL    HW154013   1.062   9.243   4.759 -0.4107  1.2636 -1.0960
15889SOL    HW254014   0.956   9.137   4.781 -0.6154  1.7009  0.0773
15890SOL     OW54015   6.984   5.054   3.797  0.0671 -0.4770 -0.1877
15890SOL    HW154016   6.999   4.970   3.752  0.3729 -2.2941  3.0156
15890SOL    HW254017   7.072   5.085   3.820 -0.1343 -0.3558  0.4390
15891SOL     OW54018   5.354   5.380   6.912  0.1331  0.5166 -0.0715
15891SOL    HW154019   5.266   5.411   6.934 -0.5395 -1.5295  0.3483
15891SOL    HW254020   5.374   5.316   6.980  1.4683  0.1052 -0.8211
15892SOL     OW54021   2.162   6.346   2.918 -0.1659  0.4286  0.2064
15892SOL    HW154022   2.119   6.270   2.956  0.1244  0.9344  1.5986
15892SOL    HW254023   2.140   6.342   2.825 -0.6208 -1.0307  0.3568
15893SOL     OW54024   6.876   1.822   0.165  0.2932  0.3752 -0.0964
15893SOL    HW154025   6.835   1.735   0.154  0.5006  0.1220  1.0214
15893SOL    HW254026   6.915   1.840   0.080  0.1925 -0.6038 -0.3706
15894SOL     OW54027   1.655   8.606   8.390 -0.6712 -0.8907 -0.0353
15894SOL    HW154028   1.707   8.539   8.433  0.5402  0.6935  1.1085
15894SOL    HW254029   1.593   8.635   8.458  0.4676  0.8169  0.3377
15895SOL     OW54030   1.872   7.285   0.196 -0.3564 -0.6718 -0.2030
15895SOL    HW154031   1.821   7.363   0.216  0.4954 -0.1399 -0.0316
15895SOL    HW254032   1.958   7.319   0.168  0.2635 -1.5556  0.5629
15896SOL     OW54033   7.136   4.861   5.904 -0.3815 -0.1344 -0.5052
15896SOL    HW154034   7.186   4.926   5.856 -2.0279  0.7509 -1.1238
15896SOL    HW254035   7.199   4.792   5.925  0.9658  0.7175 -1.5884
15897SOL     OW54036   5.911   6.167   4.874  0.0445  0.1970 -0.1380
15897SOL    HW154037   5.880   6.230   4.809  1.7904 -0.0640 -1.2729
15897SOL    HW254038   5.838   6.159   4.936 -1.0698  1.6152 -1.2014
15898SOL     OW54039   6.581   4.372   6.071 -0.3493 -0.0716 -0.2726
15898SOL    HW154040   6.580   4.282   6.104  0.2500  0.1780  0.4759
15898SOL    HW254041   6.662   4.378   6.021  0.7152  0.6156  1.4292
15899SOL     OW54042   1.271   9.195   9.071  1.0287 -0.4893 -0.5438
15899SOL    HW154043   1.214   9.122   9.046 -2.3423  0.9805  2.0036
15899SOL    HW254044   1.248   9.266   9.011  0.7959 -0.1570 -0.0713
15900SOL     OW54045   2.809   7.681   1.552  0.8806 -0.0130  0.3285
15900SOL    HW154046   2.766   7.677   1.466  0.7193  0.9105  0.3576
15900SOL    HW254047   2.897   7.645   1.536  1.0206  0.5976 -0.3323
15901SOL     OW54048   8.558   4.275   8.145  0.1618  0.8900 -0.1266
15901SOL    HW154049   8.545   4.369   8.154  1.0225  1.0901 -0.8567
15901SOL    HW254050   8.524   4.254   8.058  0.6439  0.6572 -0.2611
15902SOL     OW54051   5.805   3.037   2.938 -0.7176 -0.4439 -0.1286
15902SOL    HW154052   5.757   3.110   2.901 -0.6176 -0.7747 -0.9421
15902SOL    HW254053   5.870   3.015   2.871  0.6582  0.0729  0.9862
15903SOL     OW54054   3.717   2.167   3.938  0.1044 -0.0193 -0.0142
15903SOL    HW154055   3.803   2.182   3.977  0.4466 -1.3096 -0.2344
15903SOL    HW254056   3.729   2.189   3.845  0.2662 -0.4457 -0.0947
15904SOL     OW54057   7.442   3.408   4.464  0.2309 -0.0940 -0.3421
15904SOL    HW154058   7.452   3.504   4.461  0.0073 -0.0920 -2.4922
15904SOL    HW254059   7.393   3.392   4.545 -0.5017  1.7051 -0.3708
15905SOL     OW54060   4.533   8.616   8.168 -0.2981  0.0711 -0.4691
15905SOL    HW154061   4.500   8.690   8.219  0.7495 -1.0940  2.0637
15905SOL    HW254062   4.615   8.647   8.130  0.9479 -0.1522  1.8535
15906SOL     OW54063   5.730   8.823   4.032 -0.0371 -0.9061 -0.4953
15906SOL    HW154064   5.743   8.771   4.112 -0.3958 -0.4138 -0.1021
15906SOL    HW254065   5.774   8.774   3.963  0.4826 -1.2245  0.0523
15907SOL     OW54066   6.009   0.503   1.314  0.5633  0.0219 -0.8955
15907SOL    HW154067   6.048   0.588   1.295 -2.5966  1.5671 -1.2258
15907SOL    HW254068   5.915   0.520   1.313 -0.1850 -2.6797  2.7413
15908SOL     OW54069   8.078   2.500   1.017  0.3365 -0.1705 -0.4178
15908SOL    HW154070   8.013   2.570   1.018  1.1296  0.5870 -0.9473
15908SOL    HW254071   8.098   2.487   0.924  0.4094 -0.9184 -0.3093
15909SOL     OW54072   3.767   6.735   7.079 -0.2488 -0.3071  0.2451
15909SOL    HW154073   3.783   6.720   7.172 -1.0441  0.4790  0.5092
15909SOL    HW254074   3.731   6.823   7.074  1.0670  0.2165 -0.9488
15910SOL     OW54075   1.929   2.207   0.509 -0.2075 -0.0557 -0.0116
15910SOL    HW154076   1.973   2.216   0.425  0.2211 -0.9265  0.1169
15910SOL    HW254077   1.871   2.283   0.513  0.6792  0.6799 -0.5391
15911SOL     OW54078   7.864   7.818   3.643  0.2216 -0.0850  0.5706
15911SOL    HW154079   7.870   7.889   3.580 -2.9687  0.1235  0.3451
15911SOL    HW254080   7.915   7.747   3.605  1.5157  1.2893 -0.3340
15912SOL     OW54081   6.947   3.509   4.520 -0.3425  0.8480 -0.2178
15912SOL    HW154082   6.878   3.501   4.454 -1.1858  1.0900  0.6206
15912SOL    HW254083   6.989   3.423   4.522 -0.5704  0.7172 -0.7757
15913SOL     OW54084   2.008   4.461   6.593 -0.0275 -0.4336  0.1242
15913SOL    HW154085   2.025   4.537   6.648  1.3605 -0.0787 -0.7529
15913SOL    HW254086   1.956   4.496   6.520 -0.9544 -0.6943  0.6526
15914SOL     OW54087   0.955   0.194   8.667  0.0507 -0.1299 -0.3318
15914SOL    HW154088   1.013   0.263   8.635 -0.0273 -0.6824 -1.7566
15914SOL    HW254089   0.946   0.134   8.593 -0.9555 -0.9689  0.4315
15915SOL     OW54090   1.923   7.747   7.825 -0.3585 -0.0065 -0.1955
15915SOL    HW154091   1.890   7.835   7.811 -0.7352 -0.2413 -0.8188
15915SOL    HW254092   1.847   7.691   7.816  0.1160 -0.5190 -1.2101
15916SOL     OW54093   4.026   0.016   4.862  0.4886  0.2784 -0.1088
15916SOL    HW154094   4.109   0.011   4.816  0.7190  0.5439  0.2669
15916SOL    HW254095   4.028   0.101   4.906  0.7048 -0.3694  1.1869
15917SOL     OW54096   7.449   1.381   5.436 -1.0366 -0.6957 -0.2234
15917SOL    HW154097   7.516   1.386   5.367 -2.7303 -0.3703 -1.9395
15917SOL    HW254098   7.485   1.430   5.509 -0.4391  1.7327 -2.0291
15918SOL     OW54099   5.152   1.882   8.379 -0.0901  0.0757 -0.0474
15918SOL    HW154100   5.185   1.839   8.300 -0.4400  0.0555 -0.1866
15918SOL    HW254101   5.218   1.864   8.446 -0.4162 -1.0395  0.0046
15919SOL     OW54102   8.728   8.827   1.237  0.3994 -0.3595  0.0303
15919SOL    HW154103   8.795   8.866   1.294  0.4980  0.1619 -0.4234
15919SOL    HW254104   8.729   8.734   1.259 -1.2936  0.1303  2.6309
15920SOL     OW54105   2.631   4.516   2.746  0.4161 -0.4610  0.1708
15920SOL    HW154106   2.671   4.429   2.751  0.1752 -0.5592  0.4184
15920SOL    HW254107   2.539   4.501   2.767  0.4531 -0.0825  0.6183
15921SOL     OW54108   6.695   5.808   3.546 -0.6157  0.0751 -0.9231
15921SOL    HW154109   6.702   5.880   3.609  0.8121  0.0982 -1.0692
15921SOL    HW254110   6.642   5.742   3.591 -0.1039  0.3249  0.0962
15922SOL     OW54111   5.724   0.508   4.410  0.1704  0.1134  0.3172
15922SOL    HW154112   5.629   0.500   4.424  0.1429 -1.1658 -0.4090
15922SOL    HW254113   5.758   0.420   4.428  1.0353  0.2171 -0.6765
15923SOL     OW54114   3.173   8.752   1.710 -0.3656  0.3087 -0.0291
15923SOL    HW154115   3.128   8.821   1.662  0.9406  1.2298  0.0169
15923SOL    HW254116   3.265   8.778   1.710  0.2359 -1.6335 -0.3292
15924SOL     OW54117   6.325   1.209   8.508 -0.4562  0.6319 -0.4383
15924SOL    HW154118   6.412   1.250   8.510  0.2286 -0.7949  0.6701
15924SOL    HW254119   6.335   1.133   8.451 -0.9729  0.4350 -0.2758
15925SOL     OW54120   4.772   0.065   3.732 -0.0353 -0.6057  0.5250
15925SOL    HW154121   4.778   0.156   3.761  2.0119 -0.7832  0.8002
15925SOL    HW254122   4.688   0.034   3.767 -0.6147  1.0639  0.6957
15926SOL     OW54123   6.340   2.451   4.800 -0.1639 -0.6849  0.3190
15926SOL    HW154124   6.245   2.448   4.786 -0.1868 -0.3306  0.3793
15926SOL    HW254125   6.353   2.530   4.853  0.3134  0.1774 -1.0219
15927SOL     OW54126   5.023   1.881   7.918  0.3198  0.3507 -0.2374
15927SOL    HW154127   4.963   1.944   7.878 -0.1180  0.8394  1.1469
15927SOL    HW254128   5.044   1.820   7.847 -0.8299  0.8859 -1.0707
15928SOL     OW54129   8.827   6.501   0.325  0.2770  0.7623 -0.4304
15928SOL    HW154130   8.848   6.473   0.415  0.3119  1.6444 -0.1583
15928SOL    HW254131   8.890   6.454   0.271 -0.5479 -0.7541 -0.1242
15929SOL     OW54132   7.555   1.231   8.157  0.2798 -0.8494 -0.4290
15929SOL    HW154133   7.467   1.245   8.192  0.2634 -2.0864  0.0590
15929SOL    HW254134   7.602   1.187   8.228  1.9897  1.7629  0.1906
15930SOL     OW54135   5.578   4.450   3.049 -0.0982 -0.2422 -0.3879
15930SOL    HW154136   5.535   4.395   3.115 -0.4924 -0.3036 -0.6937
15930SOL    HW254137   5.656   4.484   3.093  0.6330 -1.7270 -0.4509
15931SOL     OW54138   4.445   2.861   1.541  0.2400 -0.0459 -0.0782
15931SOL    HW154139   4.431   2.931   1.478 -0.4855  0.2250  0.3781
15931SOL    HW254140   4.535   2.876   1.573  0.3473  0.2421 -0.5057
15932SOL     OW54141   8.151   1.331   1.322 -0.4481  0.4870 -0.0768
15932SOL    HW154142   8.065   1.291   1.329 -1.5742  2.2931 -2.2034
15932SOL    HW254143   8.134   1.425   1.326  1.5733  0.8736  0.5103
15933SOL     OW54144   5.739   0.530   2.682  0.5697  0.4612  0.2949
15933SOL    HW154145   5.646   0.553   2.688  0.1494 -0.9009 -0.5101
15933SOL    HW254146   5.774   0.590   2.617  0.4483  1.4833  1.1395
15934SOL     OW54147   0.598   2.750   0.839 -0.0324  0.2401  0.2053
15934SOL    HW154148   0.641   2.795   0.912 -0.5077  0.6600  0.2284
15934SOL    HW254149   0.545   2.683   0.882  1.9383 -1.5080  0.1117
15935SOL     OW54150   0.718   7.376   2.806 -0.2764 -0.4662 -0.0647
15935SOL    HW154151   0.640   7.376   2.862  0.3304 -1.2352  0.8275
15935SOL    HW254152   0.686   7.352   2.719 -1.5912  2.9109 -0.6459
15936SOL     OW54153   4.631   5.881   1.259 -0.0886  0.1424  0.1383
15936SOL    HW154154   4.594   5.828   1.188  0.2575 -0.7389  0.6018
15936SOL    HW254155   4.594   5.843   1.339  1.1261 -0.1983  0.5524
15937SOL     OW54156   5.774   5.734   0.891  0.0984  0.0218 -0.0254
15937SOL    HW154157   5.843   5.709   0.952 -1.0048 -0.7457  0.9553
15937SOL    HW254158   5.772   5.830   0.895  1.8420  0.1279 -0.9505
15938SOL     OW54159   3.273   0.429   1.660  0.0195  0.7010 -0.5365
15938SOL    HW154160   3.193   0.377   1.658  0.5668 -0.2292  0.4525
15938SOL    HW254161   3.338   0.376   1.612  0.6483  0.3165  0.6967
15939SOL     OW54162   0.645   7.441   7.959  0.3056 -0.0725  0.3426
15939SOL    HW154163   0.554   7.440   7.929  0.3772  0.2226  0.1157
15939SOL    HW254164   0.683   7.361   7.923  0.7960  0.9858 -1.6399
15940SOL     OW54165   7.632   2.426   5.780  0.5154 -0.5155 -0.3980
15940SOL    HW154166   7.571   2.401   5.850  1.0411  0.8558  0.5989
15940SOL    HW254167   7.708   2.370   5.793  0.5423 -0.3820  0.0247
15941SOL     OW54168   6.230   5.504   8.320  0.6592 -0.1860 -0.1652
15941SOL    HW154169   6.315   5.539   8.348 -0.8835  1.4066  3.0455
15941SOL    HW254170   6.203   5.445   8.390 -1.1306 -0.2572 -0.8496
15942SOL     OW54171   1.229   7.545   1.152  0.1582  0.2237  0.1081
15942SOL    HW154172   1.301   7.515   1.207 -0.0011  1.8250  1.2336
15942SOL    HW254173   1.185   7.612   1.203 -1.7901 -0.2833 -0.7982
15943SOL     OW54174   6.773   3.683   0.467 -0.3258  0.2332 -0.0379
15943SOL    HW154175   6.700   3.741   0.443  1.6847  2.2694 -1.6477
15943SOL    HW254176   6.747   3.645   0.550 -3.3256  0.6700 -0.6641
15944SOL     OW54177   7.680   0.404   1.015  0.5991 -0.3634  0.5375
15944SOL    HW154178   7.752   0.363   0.967  0.3425 -0.0855 -0.0865
15944SOL    HW254179   7.671   0.491   0.976  0.7495  0.0795  1.4527
15945SOL     OW54180   0.363   3.401   0.704 -0.3769  0.4956 -0.3923
15945SOL    HW154181   0.274   3.367   0.714 -1.1247  1.9984 -1.5937
15945SOL    HW254182   0.392   3.419   0.793 -0.2165 -2.4321  0.2620
15946SOL     OW54183   6.421   4.684   7.715  0.2431 -0.0488 -0.3126
15946SOL    HW154184   6.508   4.667   7.679  0.6109 -0.7726  0.8631
15946SOL    HW254185   6.365   4.691   7.638  1.3941  0.8135 -1.1091
15947SOL     OW54186   1.227   4.946   6.457  0.4752 -0.3095 -0.2323
15947SOL    HW154187   1.170   5.010   6.412 -0.2633 -0.6107  0.2542
15947SOL    HW254188   1.173   4.867   6.463  1.0084 -0.6464  0.1103
15948SOL     OW54189   0.410   1.748   0.950 -0.4692  0.2938  0.1962
15948SOL    HW154190   0.502   1.741   0.973 -0.3187 -0.4855 -0.6088
15948SOL    HW254191   0.409   1.782   0.860 -1.0364  2.4007  0.9243
15949SOL     OW54192   1.939   5.619   2.137  0.0918 -0.6273 -0.1534
15949SOL    HW154193   2.018   5.667   2.161 -1.4751  2.7962 -1.1794
15949SOL    HW254194   1.941   5.616   2.041 -1.7521  1.1499 -0.3272
15950SOL     OW54195   3.353   7.054   5.106 -0.2952 -0.5740 -0.1481
15950SOL    HW154196   3.271   7.096   5.080 -0.4190 -1.4873 -1.2986
15950SOL    HW254197   3.354   7.062   5.202 -1.0413  0.6777 -0.2179
15951SOL     OW54198   5.676   7.446   9.208 -0.2782 -0.0275  0.2420
15951SOL    HW154199   5.739   7.405   9.148  0.4243  1.3190  0.0119
15951SOL    HW254200   5.591   7.431   9.167  0.0887 -0.1391 -0.5002
15952SOL     OW54201   3.183   4.855   6.357 -0.0221 -0.1434  0.0132
15952SOL    HW154202   3.128   4.846   6.435  0.8692  0.7084  0.7562
15952SOL    HW254203   3.199   4.949   6.350 -1.2244 -0.0424 -2.0195
15953SOL     OW54204   5.539   2.318   0.662  0.2006  0.9230  0.3699
15953SOL    HW154205   5.446   2.297   0.660  0.0389  1.4310  1.7582
15953SOL    HW254206   5.580   2.248   0.611 -0.7494 -0.3693  1.3306
15954SOL     OW54207   8.619   4.025   3.941 -0.2383 -0.2834 -0.0459
15954SOL    HW154208   8.578   4.008   3.856  0.0758  0.6050 -0.3877
15954SOL    HW254209   8.554   3.996   4.005 -0.9935  0.2009 -0.5837
15955SOL     OW54210   1.592   4.208   5.023 -0.0146 -0.2439  0.5446
15955SOL    HW154211   1.638   4.289   5.000  1.7989 -0.9565  1.5158
15955SOL    HW254212   1.562   4.173   4.939 -1.1195  1.5795  0.1396
15956SOL     OW54213   0.138   7.681   7.094  0.2066  0.3197  0.3629
15956SOL    HW154214   0.187   7.738   7.035 -0.4092  1.0836  0.5835
15956SOL    HW254215   0.153   7.593   7.060 -1.7673  0.8772 -2.1412
15957SOL     OW54216   5.740   4.730   2.947  0.1132  0.3480  0.2701
15957SOL    HW154217   5.827   4.748   2.912  0.1325  0.2222  0.2518
15957SOL    HW254218   5.697   4.678   2.879 -0.1507  0.8251  0.0686
15958SOL     OW54219   7.170   7.117   3.189 -0.3991 -0.5975  0.5310
15958SOL    HW154220   7.122   7.100   3.271  0.0356 -0.9513  0.7133
15958SOL    HW254221   7.113   7.083   3.121  0.3660 -2.7287  0.8619
15959SOL     OW54222   8.568   6.042   2.210  0.4581  0.4079 -0.5131
15959SOL    HW154223   8.525   6.073   2.289 -0.1577 -2.6147  0.4823
15959SOL    HW254224   8.661   6.060   2.224  0.6576 -1.9715  2.0021
15960SOL     OW54225   6.347   7.697   2.783  0.2493  0.0863 -0.1189
15960SOL    HW154226   6.263   7.730   2.815  0.8152  0.6145  0.8778
15960SOL    HW254227   6.329   7.669   2.694 -1.6924 -2.5855  0.9882
15961SOL     OW54228   6.425   1.816   7.353 -0.1241  0.2012 -0.4207
15961SOL    HW154229   6.440   1.833   7.260  2.2918 -2.3316 -0.6139
15961SOL    HW254230   6.447   1.900   7.395  1.4003  0.6626 -1.9572
15962SOL     OW54231   0.789   3.648   0.581 -0.6041  0.0168 -0.3994
15962SOL    HW154232   0.850   3.575   0.573  1.4458  1.6535 -0.7477
15962SOL    HW254233   0.738   3.646   0.500  0.4014 -0.2297 -1.0463
15963SOL     OW54234   1.658   3.289   1.435 -0.0497 -0.0307  0.2087
15963SOL    HW154235   1.749   3.261   1.448  0.1295  0.0359 -0.8569
15963SOL    HW254236   1.640   3.272   1.343 -0.3911  2.0402 -0.1604
15964SOL     OW54237   2.197   2.669   5.735  0.7189  0.0471  0.6099
15964SOL    HW154238   2.123   2.706   5.784 -0.4427  0.3221 -1.2475
15964SOL    HW254239   2.188   2.575   5.747  0.5712  0.1150  1.0745
15965SOL     OW54240   4.267   1.173   0.314  0.4602 -0.1884 -0.8435
15965SOL    HW154241   4.346   1.197   0.363 -0.1194 -1.4699  0.8135
15965SOL    HW254242   4.299   1.117   0.243  1.0694 -0.3825 -0.4213
15966SOL     OW54243   2.051   7.379   8.292  0.0375  0.1971 -0.1050
15966SOL    HW154244   2.121   7.414   8.348  1.9295 -0.5067 -1.8726
15966SOL    HW254245   2.076   7.287   8.278 -0.8405  0.1266 -1.3507
15967SOL     OW54246   0.652   1.348   2.834  0.1122 -0.2256 -0.3958
15967SOL    HW154247   0.559   1.329   2.848  0.4460 -1.0653  0.7824
15967SOL    HW254248   0.654   1.396   2.751 -1.6322  1.9994  0.7464
15968SOL     OW54249   6.477   2.289   2.216 -0.5497  0.6247 -0.4023
15968SOL    HW154250   6.524   2.207   2.231  0.6356  1.2377 -0.6817
15968SOL    HW254251   6.386   2.269   2.238 -0.3907 -0.9323 -1.0700
15969SOL     OW54252   7.186   5.002   3.302  0.8046 -0.4222 -0.7782
15969SOL    HW154253   7.258   4.983   3.362  1.5754 -0.6864 -1.7529
15969SOL    HW254254   7.116   4.942   3.329  1.2221 -0.6996 -0.2859
15970SOL     OW54255   2.158   2.127   2.475 -0.1976 -0.4225 -0.2093
15970SOL    HW154256   2.247   2.141   2.443 -1.2176  0.4199 -2.9742
15970SOL    HW254257   2.134   2.040   2.444 -0.0157 -1.1205  1.4979
15971SOL     OW54258   5.251   8.119   5.521  0.0579  0.5241  0.4482
15971SOL    HW154259   5.308   8.097   5.447  1.7473  1.0866  1.5355
15971SOL    HW254260   5.304   8.176   5.577 -1.7308  1.4721  1.2989
15972SOL     OW54261   9.177   6.347   3.499  0.0080  0.3157 -0.2995
15972SOL    HW154262   9.271   6.325   3.499  0.2491  1.3004 -0.2137
15972SOL    HW254263   9.165   6.399   3.578 -0.6607  0.0265 -0.2041
15973SOL     OW54264   1.771   0.908   2.595 -0.2695  0.0645  0.9750
15973SOL    HW154265   1.703   0.929   2.660 -0.6968  3.5102 -0.3924
15973SOL    HW254266   1.848   0.955   2.625  0.2424 -0.2951  0.2460
15974SOL     OW54267   2.708   2.431   8.635 -0.6793 -0.0920  0.7986
15974SOL    HW154268   2.753   2.510   8.606 -1.4035 -0.6874 -2.3001
15974SOL    HW254269   2.615   2.450   8.618 -0.9239 -1.3237  0.7088
15975SOL     OW54270   0.403   0.066   8.974  0.3550 -0.5714  0.2086
15975SOL    HW154271   0.346   0.117   8.916 -1.0245 -0.5687  1.5102
15975SOL    HW254272   0.370   0.083   9.062  2.8343 -0.0395  1.1029
15976SOL     OW54273   2.283   7.426   1.968 -0.5563 -0.0994 -0.1819
15976SOL    HW154274   2.233   7.393   2.042 -0.6867  1.2150  0.3544
15976SOL    HW254275   2.217   7.463   1.909 -0.5075 -1.6452 -1.2626
15977SOL     OW54276   0.171   3.738   8.502  0.3420 -0.4883  0.2857
15977SOL    HW154277   0.103   3.672   8.510 -1.4509  1.3056  0.8014
15977SOL    HW254278   0.123   3.821   8.500  2.5661  0.9202  1.4581
15978SOL     OW54279   0.550   8.095   1.253  0.0065  0.4489  0.2448
15978SOL    HW154280   0.607   8.167   1.228  0.9014  0.4354  2.1405
15978SOL    HW254281   0.596   8.016   1.224 -0.8621  0.5604 -1.6110
15979SOL     OW54282   4.463   5.761   8.224 -0.3394  0.7156 -0.1786
15979SOL    HW154283   4.475   5.853   8.245  1.8220  0.5151 -0.2960
15979SOL    HW254284   4.514   5.714   8.290 -1.8018 -0.4413  0.1714
15980SOL     OW54285   2.517   5.537   8.743  0.0965  0.0501 -0.3097
15980SOL    HW154286   2.459   5.610   8.764 -2.0301 -1.3675 -0.9396
15980SOL    HW254287   2.564   5.519   8.824 -0.1346  1.4137  0.1486
15981SOL     OW54288   0.058   7.598   3.033 -0.1670 -0.2557 -0.1505
15981SOL    HW154289   0.056   7.557   2.946 -1.7549  0.7244 -0.6084
15981SOL    HW254290   0.101   7.683   3.018  1.3998 -0.9077  0.4391
15982SOL     OW54291   7.380   1.939   4.556 -0.1172 -0.1203 -0.3006
15982SOL    HW154292   7.468   1.977   4.556 -0.1661  0.1837 -2.7587
15982SOL    HW254293   7.342   1.966   4.639  1.9804  0.0003  0.7001
15983SOL     OW54294   5.178   4.654   6.563 -0.5748 -0.4523 -0.6082
15983SOL    HW154295   5.111   4.605   6.515 -0.2460 -0.4743 -1.0513
15983SOL    HW254296   5.142   4.663   6.652 -1.9879  1.0658 -1.2708
15984SOL     OW54297   5.778   7.961   6.907  0.3375 -0.0475 -0.2437
15984SOL    HW154298   5.827   7.884   6.937 -0.4353  0.2841  2.1024
15984SOL    HW254299   5.841   8.010   6.854  0.2907 -3.1550 -3.5827
15985SOL     OW54300   5.155   7.347   1.611  0.1826 -0.1136  0.1282
15985SOL    HW154301   5.137   7.375   1.701 -0.6123 -0.5016  0.0928
15985SOL    HW254302   5.081   7.377   1.560  0.0438 -0.9467 -0.1789
15986SOL     OW54303   6.552   7.202   2.738 -0.2697  0.2377 -0.0455
15986SOL    HW154304   6.498   7.141   2.788 -0.2134  1.4600  1.6119
15986SOL    HW254305   6.498   7.281   2.731  0.9910  1.2390  1.0265
15987SOL     OW54306   8.826   7.284   1.252 -0.0368 -0.4426 -0.0871
15987SOL    HW154307   8.901   7.342   1.267  0.4381 -1.1733  0.4060
15987SOL    HW254308   8.844   7.207   1.305 -1.2879 -0.5136  0.2725
15988SOL     OW54309   2.895   1.491   6.223  0.0808 -0.4412  0.3525
15988SOL    HW154310   2.842   1.420   6.187  0.4427 -0.3344 -0.4103
15988SOL    HW254311   2.985   1.458   6.219  0.2734  0.1325 -0.1961
15989SOL     OW54312   4.381   5.794   4.917 -0.2913 -0.2402 -0.7430
15989SOL    HW154313   4.435   5.715   4.919 -0.7359 -0.5599 -1.1070
15989SOL    HW254314   4.346   5.802   5.006  1.1512  0.5400 -0.2221
15990SOL     OW54315   5.471   0.742   4.098  0.1409 -0.2532 -0.5239
15990SOL    HW154316   5.510   0.789   4.024  1.0120 -1.6678 -1.0069
15990SOL    HW254317   5.406   0.803   4.133  0.1416  0.6963 -2.0677
15991SOL     OW54318   2.941   8.595   6.621 -0.0175 -0.0373 -0.4409
15991SOL    HW154319   2.899   8.651   6.556 -0.1000 -1.8911 -2.0687
15991SOL    HW254320   3.012   8.552   6.574 -0.5549 -2.0191  0.4691
15992SOL     OW54321   3.235   3.367   2.744  0.5773 -0.3497  0.1102
15992SOL    HW154322   3.242   3.462   2.746 -1.0873 -0.2064  0.9131
15992SOL    HW254323   3.245   3.344   2.652 -2.3256  0.9716 -0.6814
15993SOL     OW54324   1.974   4.696   5.199 -0.3368 -0.2733 -0.2861
15993SOL    HW154325   2.045   4.633   5.208 -1.5351 -1.8109 -1.0900
15993SOL    HW254326   1.902   4.659   5.249 -0.6526  1.1792  0.3956
15994SOL     OW54327   0.999   1.461   8.191 -0.7620 -0.2480  0.3987
15994SOL    HW154328   0.989   1.435   8.283 -3.8867 -2.7890 -0.4657
15994SOL    HW254329   0.929   1.524   8.177 -0.5715 -0.1952 -0.3439
15995SOL     OW54330   4.174   3.385   6.275  0.0495  0.0399  0.2850
15995SOL    HW154331   4.090   3.350   6.305 -0.4976  1.3957  0.4242
15995SOL    HW254332   4.213   3.425   6.353 -0.2662  1.4456 -0.2350
15996SOL     OW54333   3.658   0.223   1.420  0.0393  0.0487  0.3601
15996SOL    HW154334   3.702   0.167   1.356 -0.3907  1.0573 -0.8739
15996SOL    HW254335   3.700   0.308   1.410  0.8981 -0.0870  2.4186
15997SOL     OW54336   5.781   4.013   1.389 -0.2251 -0.1411 -0.1248
15997SOL    HW154337   5.695   4.049   1.365 -0.6249 -0.4315  0.8412
15997SOL    HW254338   5.839   4.089   1.391 -1.2154  0.6486  2.6072
15998SOL     OW54339   3.115   1.257   4.349 -0.3619 -0.2022 -0.2282
15998SOL    HW154340   3.158   1.333   4.388 -0.0124  0.2036 -1.3422
15998SOL    HW254341   3.090   1.202   4.423  2.1952 -0.5316  0.5041
15999SOL     OW54342   0.756   8.705   6.457  0.6402 -0.5087  0.1708
15999SOL    HW154343   0.733   8.735   6.545 -2.9194 -0.5403 -0.5901
15999SOL    HW254344   0.722   8.616   6.452  3.6447 -1.7546 -0.3196
16000SOL     OW54345   4.819   1.248   7.002 -0.0656  0.0355 -0.2367
16000SOL    HW154346   4.744   1.200   7.038  0.0971  0.5097  0.7823
16000SOL    HW254347   4.791   1.339   7.001  0.5742  0.2506  0.4034
16001SOL     OW54348   1.106   1.964   8.707 -0.1507  0.3095  0.1625
16001SOL    HW154349   1.089   2.037   8.647 -0.2704 -0.3729 -0.6582
16001SOL    HW254350   1.057   1.891   8.669  0.2215 -0.2745  0.8007
16002SOL     OW54351   7.965   6.112   4.258  0.3660 -0.4297  0.5116
16002SOL    HW154352   8.001   6.031   4.295  1.3893 -0.5142 -0.6168
16002SOL    HW254353   8.035   6.177   4.271 -0.0047 -0.0042  0.4027
16003SOL     OW54354   3.343   5.992   2.606 -0.0274 -0.4334 -0.3073
16003SOL    HW154355   3.279   5.944   2.660  0.4276 -0.3886  0.2823
16003SOL    HW254356   3.423   5.939   2.612 -0.0663 -0.6045 -1.2196
16004SOL     OW54357   2.394   0.614   2.085 -0.6996  0.2582  0.1350
16004SOL    HW154358   2.368   0.526   2.059  2.3854 -0.5411 -0.7024
16004SOL    HW254359   2.366   0.670   2.013  1.2105 -0.8227 -1.5752
16005SOL     OW54360   6.644   5.973   4.503  0.6400  0.1334  0.9733
16005SOL    HW154361   6.566   5.918   4.500  1.7688 -1.5468  1.1091
16005SOL    HW254362   6.656   5.992   4.596  0.7373 -0.1404  1.0183
16006SOL     OW54363   7.622   4.973   2.530 -0.1953  0.0493 -0.1805
16006SOL    HW154364   7.705   4.956   2.484  0.1108  1.6068 -0.2647
16006SOL    HW254365   7.621   4.909   2.602  2.2811  1.4826  1.2952
16007SOL     OW54366   0.909   1.578   7.201 -0.2176  0.2704 -0.5296
16007SOL    HW154367   0.899   1.660   7.152 -2.4838 -0.0087 -0.6505
16007SOL    HW254368   0.889   1.602   7.291 -0.1304 -0.0216 -0.4333
16008SOL     OW54369   7.597   6.239   1.025  0.2699 -0.2305  0.2447
16008SOL    HW154370   7.686   6.242   0.991  0.6550  0.1583  1.2419
16008SOL    HW254371   7.542   6.223   0.948  1.3611 -2.9515 -0.0840
16009SOL     OW54372   1.826   2.934   8.570 -0.4949 -0.2533  0.3603
16009SOL    HW154373   1.895   2.960   8.508 -0.4916 -0.5560  0.2339
16009SOL    HW254374   1.862   2.857   8.614 -0.1411  0.4575  1.3591
16010SOL     OW54375   5.979   8.970   5.524 -0.1716  0.0830 -0.3221
16010SOL    HW154376   5.966   9.065   5.530 -1.4244 -0.0012 -1.2380
16010SOL    HW254377   5.912   8.933   5.582  0.8147 -0.2464  0.6374
16011SOL     OW54378   5.602   9.128   0.630 -0.1396  0.4508 -0.4379
16011SOL    HW154379   5.614   9.037   0.659  2.1797  0.4800 -1.0599
16011SOL    HW254380   5.677   9.175   0.668  0.1521  1.5374 -2.2329
16012SOL     OW54381   2.487   7.233   3.340  0.1997  0.1433  0.6135
16012SOL    HW154382   2.468   7.325   3.355 -1.2316  0.4774 -2.3378
16012SOL    HW254383   2.577   7.221   3.370  0.4149  2.4822  1.0694
16013SOL     OW54384   9.142   2.080   3.913 -0.0503 -0.0736 -0.4383
16013SOL    HW154385   9.121   2.166   3.877  0.2340 -0.0530 -0.5571
16013SOL    HW254386   9.066   2.058   3.967  0.5653  1.0059  0.9542
16014SOL     OW54387   2.566   6.085   7.744 -0.9912  0.0887  0.0975
16014SOL    HW154388   2.561   6.075   7.839  0.1242  2.4179  0.4735
16014SOL    HW254389   2.476   6.107   7.718 -1.7752 -2.5880  0.2384
16015SOL     OW54390   3.442   8.873   1.360 -0.2887 -0.0957 -0.1991
16015SOL    HW154391   3.468   8.962   1.384  1.9770 -0.6966 -0.2044
16015SOL    HW254392   3.457   8.868   1.266 -2.6902  0.1782 -0.6708
16016SOL     OW54393   2.274   6.952   7.796 -0.1972 -0.0748 -0.6560
16016SOL    HW154394   2.182   6.929   7.782 -0.3440 -0.6527  0.9858
16016SOL    HW254395   2.277   6.981   7.887  1.1920  0.2722 -0.8009
16017SOL     OW54396   1.243   6.879   2.041 -0.0794 -0.1255 -0.3541
16017SOL    HW154397   1.164   6.839   2.003 -0.2850  0.8035 -0.9279
16017SOL    HW254398   1.232   6.972   2.025  1.4895 -0.0429 -1.1024
16018SOL     OW54399   8.578   2.374   9.096  0.5770 -0.5125 -0.3277
16018SOL    HW154400   8.595   2.282   9.076  1.9975 -0.6837  1.4269
16018SOL    HW254401   8.656   2.404   9.142  0.5044  1.8406 -1.5785
16019SOL     OW54402   7.642   9.021   8.612  0.2048  0.2014  0.5474
16019SOL    HW154403   7.582   9.000   8.684 -1.1956  2.3743  0.1468
16019SOL    HW254404   7.719   8.968   8.628 -0.3849 -0.0147  3.1918
16020SOL     OW54405   0.654   1.939   6.865  0.0861  0.2860 -0.1780
16020SOL    HW154406   0.568   1.898   6.876  0.6914 -0.9419  0.1080
16020SOL    HW254407   0.639   2.031   6.886 -1.0775  0.0223  0.2444
16021SOL     OW54408   8.579   7.883   3.317 -0.1218 -0.0719 -0.1916
16021SOL    HW154409   8.608   7.850   3.403 -0.1112 -1.0564 -0.5651
16021SOL    HW254410   8.650   7.860   3.257  0.1301  1.1201 -0.3801
16022SOL     OW54411   7.269   2.601   3.413  1.0657 -0.0494 -0.0659
16022SOL    HW154412   7.269   2.568   3.503  1.9657 -1.0036 -0.3870
16022SOL    HW254413   7.235   2.527   3.361 -1.1879  1.0970 -0.3463
16023SOL     OW54414   3.928   5.411   1.635  0.4935  0.1366 -0.6745
16023SOL    HW154415   4.005   5.368   1.672 -0.0753 -0.3368 -0.0202
16023SOL    HW254416   3.964   5.473   1.571  1.3815 -0.4804 -0.7906
16024SOL     OW54417   8.513   9.216   1.179  0.0860  0.0388 -0.0307
16024SOL    HW154418   8.590   9.240   1.127 -0.7862  1.5198 -0.7188
16024SOL    HW254419   8.492   9.128   1.150  1.3033 -0.2580 -0.0921
16025SOL     OW54420   3.575   5.681   6.576 -0.1864 -0.2141 -0.6751
16025SOL    HW154421   3.640   5.668   6.645  0.8606  0.5520 -1.4867
16025SOL    HW254422   3.544   5.770   6.588  0.4256  0.1271 -1.5221
16026SOL     OW54423   6.799   1.231   6.359 -0.3090 -0.3755  0.5907
16026SOL    HW154424   6.811   1.225   6.454  0.3325 -0.0495  0.5399
16026SOL    HW254425   6.834   1.317   6.336 -2.8360  0.6908  0.3912
16027SOL     OW54426   1.725   9.149   8.781  0.6128  0.1784  0.4347
16027SOL    HW154427   1.715   9.226   8.837 -0.2421  1.4166 -1.3558
16027SOL    HW254428   1.642   9.102   8.790  0.5281  0.3039  0.3078
16028SOL     OW54429   6.405   0.489   4.094 -0.2779 -0.0882 -0.7015
16028SOL    HW154430   6.456   0.447   4.163  0.5236  0.2761 -1.0608
16028SOL    HW254431   6.431   0.581   4.098 -1.5412  0.2798 -0.3362
16029SOL     OW54432   4.300   6.128   0.920  0.0224  0.6834 -0.3561
16029SOL    HW154433   4.345   6.205   0.954  0.1661  0.2581  0.4241
16029SOL    HW254434   4.369   6.064   0.904 -0.0266  0.9135 -1.5798
16030SOL     OW54435   6.828   2.914   4.798 -0.1708  0.2262 -0.1875
16030SOL    HW154436   6.921   2.897   4.788 -0.3251 -0.5841 -0.3078
16030SOL    HW254437   6.787   2.828   4.799 -0.8268  0.5231  0.8607
16031SOL     OW54438   2.354   4.978   5.262 -0.0466 -0.5543 -0.6239
16031SOL    HW154439   2.362   5.040   5.334  0.9384 -0.5079 -0.7580
16031SOL    HW254440   2.260   4.970   5.248 -0.2069  1.2337 -0.8824
16032SOL     OW54441   0.852   6.090   8.507 -0.0429  0.2955 -0.5880
16032SOL    HW154442   0.807   6.130   8.582  0.6112  0.0661 -0.0602
16032SOL    HW254443   0.942   6.122   8.513  0.6053 -1.4673  0.0711
16033SOL     OW54444   8.766   3.658   4.997 -0.0487  0.0926 -0.5495
16033SOL    HW154445   8.747   3.566   4.979 -0.9549  0.4986 -1.9129
16033SOL    HW254446   8.718   3.705   4.928 -0.6741  1.6427  0.8827
16034SOL     OW54447   2.074   1.799   3.747  0.2724 -0.4329  0.3518
16034SOL    HW154448   2.141   1.777   3.812 -3.1770  0.5510  4.7550
16034SOL    HW254449   2.084   1.893   3.733 -0.0758 -0.3155  0.8813
16035SOL     OW54450   6.125   5.343   6.887 -0.4425  0.7547 -0.3203
16035SOL    HW154451   6.165   5.430   6.883 -0.6737  0.9688  1.3904
16035SOL    HW254452   6.059   5.350   6.956  1.9218 -1.6465  2.5106
16036SOL     OW54453   8.494   1.234   0.427  0.4801 -0.0544  0.0640
16036SOL    HW154454   8.445   1.309   0.394 -0.8096 -0.2546  1.3835
16036SOL    HW254455   8.452   1.158   0.386  0.6334 -0.1429  0.0738
16037SOL     OW54456   0.001   1.195   4.727 -0.2603  0.3221 -0.0064
16037SOL    HW154457  -0.071   1.143   4.764 -0.4751  0.3336 -0.4040
16037SOL    HW254458  -0.032   1.285   4.726  0.5876  0.7001  1.8944
16038SOL     OW54459   2.104   4.562   0.350 -0.0775  0.6626 -0.3620
16038SOL    HW154460   2.024   4.580   0.400  0.6611 -0.2172  1.2148
16038SOL    HW254461   2.159   4.512   0.410  0.7983 -0.6265 -2.1284
16039SOL     OW54462   4.806   8.002   3.334 -0.3340  0.3815  0.1519
16039SOL    HW154463   4.857   8.074   3.373 -0.8316  1.3569 -0.9594
16039SOL    HW254464   4.868   7.928   3.332  1.3564  1.7345 -1.8724
16040SOL     OW54465   4.365   6.751   0.857  0.0587  0.4447 -0.4861
16040SOL    HW154466   4.285   6.760   0.907 -0.9362  0.9872 -2.1116
16040SOL    HW254467   4.339   6.704   0.777  1.4077  0.3683 -0.9160
16041SOL     OW54468   1.529   7.301   4.034  0.7331 -0.4321 -0.2258
16041SOL    HW154469   1.568   7.214   4.046  0.9581 -0.3329 -0.2251
16041SOL    HW254470   1.441   7.294   4.072  1.2327 -0.2845  1.0018
16042SOL     OW54471   2.079   3.226   1.246  0.5817 -0.1344  0.5900
16042SOL    HW154472   2.031   3.181   1.177  1.0287 -1.2549  0.9949
16042SOL    HW254473   2.100   3.312   1.209  1.3669 -0.9487 -0.8986
16043SOL     OW54474   0.887   5.715   6.319  0.6872 -0.3675 -0.1964
16043SOL    HW154475   0.955   5.771   6.356  1.2779 -0.8290 -0.5735
16043SOL    HW254476   0.872   5.749   6.232  2.0953 -1.6570 -0.9896
16044SOL     OW54477   7.639   2.412   3.906 -0.0215  0.0192  0.2595
16044SOL    HW154478   7.654   2.408   3.811  1.2845  0.5904  0.4056
16044SOL    HW254479   7.562   2.358   3.921  1.5446 -2.7262 -0.7592
16045SOL     OW54480   8.189   3.130   2.602 -0.0849  0.4231  0.3249
16045SOL    HW154481   8.271   3.090   2.629  0.0814  0.0659 -0.6453
16045SOL    HW254482   8.122   3.088   2.656  0.2060 -0.4275  0.0362
16046SOL     OW54483   7.516   1.197   0.703 -0.5776 -0.6582  0.0056
16046SOL    HW154484   7.502   1.286   0.670  0.2630 -0.8082 -0.7906
16046SOL    HW254485   7.611   1.185   0.698 -0.6656 -1.5085  0.3506
16047SOL     OW54486   2.773   8.269   3.164  0.3033  0.3175 -0.1940
16047SOL    HW154487   2.792   8.206   3.095 -2.9774  0.3467 -1.2865
16047SOL    HW254488   2.733   8.344   3.119 -0.8080  0.8596  1.5588
16048SOL     OW54489   8.142   3.441   7.484 -0.2491 -0.2370  0.2166
16048SOL    HW154490   8.202   3.487   7.542 -1.0252 -0.6444  1.3870
16048SOL    HW254491   8.119   3.361   7.532 -2.2201  0.2134  0.1243
16049SOL     OW54492   3.882   5.264   7.345 -0.0233  0.6811 -0.4421
16049SOL    HW154493   3.811   5.221   7.296  0.6352 -1.0401  0.0854
16049SOL    HW254494   3.962   5.228   7.309  0.5101  0.2386  1.1193
16050SOL     OW54495   0.516   2.016   0.956 -0.1310 -0.0794 -0.4771
16050SOL    HW154496   0.494   2.063   1.036 -0.6828 -0.5938 -0.3175
16050SOL    HW254497   0.610   2.000   0.962 -0.2452 -0.4693  0.2599
16051SOL     OW54498   7.118   8.388   9.088 -0.2330 -0.4321  0.2699
16051SOL    HW154499   7.040   8.438   9.064 -0.8597 -1.8819 -0.8779
16051SOL    HW254500   7.139   8.338   9.009  2.8815  1.1463 -0.0490
16052SOL     OW54501   7.576   8.674   6.814 -0.3269 -0.0428  0.3025
16052SOL    HW154502   7.510   8.642   6.875 -1.6064  0.2912 -0.8628
16052SOL    HW254503   7.635   8.727   6.868 -0.4475 -1.1126  1.5270
16053SOL     OW54504   3.521   0.016   6.733  0.4916  0.2940 -0.2022
16053SOL    HW154505   3.538  -0.045   6.805  1.1117  1.1049  0.3594
16053SOL    HW254506   3.555  -0.029   6.655  0.1482 -0.4347  0.0589
16054SOL     OW54507   0.021   4.676   8.257  0.6709  0.1683 -0.3606
16054SOL    HW154508   0.008   4.645   8.347  0.7710 -3.4001 -1.4061
16054SOL    HW254509  -0.067   4.672   8.218  0.3662  3.0191 -0.1704
16055SOL     OW54510   6.838   3.494   2.001 -0.0018 -0.0684 -0.4971
16055SOL    HW154511   6.845   3.565   1.937  0.6654 -0.3973 -0.8012
16055SOL    HW254512   6.804   3.420   1.950 -0.0490 -0.1600 -0.3338
16056SOL     OW54513   4.031   0.948   4.816  0.2559 -0.1773 -0.6695
16056SOL    HW154514   3.994   0.860   4.808  0.3944 -0.3698  0.5578
16056SOL    HW254515   4.124   0.933   4.833  0.1908  0.1772  0.0534
16057SOL     OW54516   0.384   4.741   4.158  0.2783  0.2839  0.2943
16057SOL    HW154517   0.395   4.650   4.183 -0.3380  0.4181  1.0731
16057SOL    HW254518   0.300   4.767   4.195  0.8648  1.4312  0.8629
16058SOL     OW54519   1.684   8.356   4.423 -0.2530 -0.4498  0.1553
16058SOL    HW154520   1.625   8.282   4.408  0.4908 -0.8622 -0.8479
16058SOL    HW254521   1.741   8.356   4.346 -0.3285  1.2594  0.0701
16059SOL     OW54522   4.125   8.538   0.807 -0.3497 -0.0006  0.0145
16059SOL    HW154523   4.082   8.537   0.893 -1.0004 -0.2205 -0.3093
16059SOL    HW254524   4.070   8.482   0.752  1.0987 -1.4203 -0.0637
16060SOL     OW54525   2.266   4.671   3.824  0.5368  0.4716 -0.1536
16060SOL    HW154526   2.303   4.697   3.739  0.3469  2.7535  0.3991
16060SOL    HW254527   2.310   4.728   3.887 -1.1376  0.5518  0.9870
16061SOL     OW54528   0.108   9.129   8.800 -0.4358 -0.0331  0.2817
16061SOL    HW154529   0.138   9.202   8.855 -0.3015  0.1821 -0.0712
16061SOL    HW254530   0.149   9.052   8.838 -0.2080  0.1354  0.3828
16062SOL     OW54531   8.656   4.302   7.228  0.0352 -0.4501 -0.2323
16062SOL    HW154532   8.685   4.216   7.258 -0.3815  0.1343  2.0077
16062SOL    HW254533   8.723   4.330   7.165  0.1030 -2.4328 -1.1022
16063SOL     OW54534   6.505   0.030   9.074  0.0667 -0.6265 -0.2317
16063SOL    HW154535   6.555  -0.042   9.115  0.0166 -0.8228 -0.5123
16063SOL    HW254536   6.559   0.057   9.000  0.6528  0.4236  0.5604
16064SOL     OW54537   6.766   5.975   5.190  0.5658 -0.0182  0.0801
16064SOL    HW154538   6.721   5.909   5.241 -0.4559 -0.1908 -0.9996
16064SOL    HW254539   6.808   6.031   5.255 -0.8600 -0.0964  1.1239
16065SOL     OW54540   9.199   7.460   0.054  0.5401  0.1881 -0.3307
16065SOL    HW154541   9.159   7.454   0.140  1.0632  0.2752 -0.0775
16065SOL    HW254542   9.290   7.485   0.071  0.6666  0.1395 -0.9007
16066SOL     OW54543   3.319   1.130   6.006 -0.0401 -0.3331 -0.0531
16066SOL    HW154544   3.387   1.189   6.039 -0.7288  0.3784  0.1438
16066SOL    HW254545   3.349   1.104   5.919 -0.6028  1.8650 -0.9793
16067SOL     OW54546   6.206   8.622   5.591 -0.1571  0.3533 -0.0633
16067SOL    HW154547   6.127   8.585   5.630  0.7523 -0.0740  1.5021
16067SOL    HW254548   6.205   8.714   5.618 -0.6866  0.6376 -1.0258
16068SOL     OW54549   1.766   2.743   3.249 -0.1569  0.8007 -0.0235
16068SOL    HW154550   1.816   2.664   3.268 -0.2869  1.0313  1.4181
16068SOL    HW254551   1.742   2.736   3.156 -0.9206 -1.2828  0.2898
16069SOL     OW54552   6.039   8.012   5.871 -0.2118  0.1217 -0.6263
16069SOL    HW154553   5.986   8.053   5.803 -1.7648  0.9867  1.0433
16069SOL    HW254554   6.125   8.053   5.861 -0.9357  1.6468 -0.8619
16070SOL     OW54555   2.892   2.343   1.405  0.0018 -0.0021  0.4194
16070SOL    HW154556   2.899   2.259   1.360  0.5273  0.1141  0.2830
16070SOL    HW254557   2.799   2.363   1.403  0.1151  0.5527 -1.6298
16071SOL     OW54558   1.281   2.798   2.987 -0.4287  0.7552  0.8566
16071SOL    HW154559   1.284   2.709   3.022  2.2955  0.4842  0.0970
16071SOL    HW254560   1.252   2.786   2.896  0.8008  0.5100  0.4804
16072SOL     OW54561   4.985   5.043   7.752 -0.3186  0.4092 -0.0050
16072SOL    HW154562   4.918   5.015   7.690  1.5501 -0.6212 -1.6850
16072SOL    HW254563   4.971   4.988   7.829 -0.7587 -0.5446 -0.7500
16073SOL     OW54564   3.630   8.782   0.799 -0.3046  0.5022 -0.2987
16073SOL    HW154565   3.702   8.837   0.767 -0.5794  1.6986  1.0106
16073SOL    HW254566   3.561   8.792   0.734  0.3072  0.2108 -1.0100
16074SOL     OW54567   3.254   7.842   5.943 -0.5096  0.0292  0.3441
16074SOL    HW154568   3.274   7.844   6.037  0.9343 -3.8608  0.3216
16074SOL    HW254569   3.312   7.908   5.905 -0.1190  0.7226  2.0280
16075SOL     OW54570   2.826   1.298   7.074  0.1163  0.2588  0.1786
16075SOL    HW154571   2.754   1.357   7.054  0.4926  0.1738 -1.5977
16075SOL    HW254572   2.787   1.210   7.070 -0.0855  0.2855  1.2000
16076SOL     OW54573   1.184   7.668   6.376 -0.2099 -0.1891  0.4563
16076SOL    HW154574   1.258   7.650   6.433  0.8681 -1.2467 -1.1975
16076SOL    HW254575   1.219   7.724   6.307 -1.1903  0.1127  0.1803
16077SOL     OW54576   0.689   6.621   3.759 -0.0769  0.2799  0.0344
16077SOL    HW154577   0.765   6.678   3.767 -0.2966  0.4529  0.9947
16077SOL    HW254578   0.684   6.600   3.665  1.9395 -0.8075  0.1028
16078SOL     OW54579   4.161   5.962   0.375 -0.2351  0.0584 -0.5345
16078SOL    HW154580   4.148   6.052   0.405  2.7752 -0.4314  2.9281
16078SOL    HW254581   4.221   5.971   0.301 -0.5051  0.9378 -0.6655
16079SOL     OW54582   5.991   4.326   0.022 -0.0580  0.2302  0.3903
16079SOL    HW154583   6.068   4.362  -0.022 -0.7388  2.3420  0.7955
16079SOL    HW254584   5.954   4.264  -0.041  2.6534 -1.9109  0.7053
16080SOL     OW54585   0.491   4.940   7.588 -0.6144 -0.8516 -0.1081
16080SOL    HW154586   0.541   4.972   7.513  0.6512  0.8064  1.3552
16080SOL    HW254587   0.424   5.006   7.603  1.2211  0.6826  2.1608
16081SOL     OW54588   3.559   2.130   7.486  0.1446 -0.5034  0.2656
16081SOL    HW154589   3.649   2.125   7.455  0.6199 -0.3514  1.5477
16081SOL    HW254590   3.562   2.091   7.573 -1.0503 -0.5691  0.2892
16082SOL     OW54591   4.601   6.069   2.467  0.6313  0.8817  0.0420
16082SOL    HW154592   4.543   6.113   2.406 -1.1058 -0.3099  0.7737
16082SOL    HW254593   4.612   5.981   2.432 -0.8054  0.0126  1.6522
16083SOL     OW54594   5.927   5.002   3.625  0.0625  0.2381 -0.6899
16083SOL    HW154595   5.897   4.959   3.544  0.8238  0.5041 -1.1195
16083SOL    HW254596   5.891   4.948   3.695  0.9894 -1.1245 -1.2203
16084SOL     OW54597   5.005   0.578   2.811 -0.1657  0.6348  0.3289
16084SOL    HW154598   5.091   0.612   2.786  0.1124  0.9724  1.6702
16084SOL    HW254599   4.944   0.648   2.787 -0.0240  0.5467 -0.2940
16085SOL     OW54600   3.615   4.265   2.699  1.0015 -0.3033 -0.2403
16085SOL    HW154601   3.635   4.278   2.606  0.7919 -3.0461 -0.7674
16085SOL    HW254602   3.524   4.293   2.708  1.0525  0.0760 -0.8351
16086SOL     OW54603   3.952   4.779   2.531  0.2451  0.4527 -0.1605
16086SOL    HW154604   3.949   4.687   2.557  0.9061  0.6216  0.5577
16086SOL    HW254605   3.901   4.825   2.598 -1.3566  0.4565 -1.3310
16087SOL     OW54606   3.917   4.620   6.993  0.0246  0.3264 -0.0491
16087SOL    HW154607   4.012   4.610   6.995 -0.0765 -0.5255  1.0605
16087SOL    HW254608   3.883   4.531   6.989 -0.7374  0.6297 -0.6972
16088SOL     OW54609   7.496   3.529   3.327  0.3669  0.3958  0.0641
16088SOL    HW154610   7.554   3.551   3.399 -0.5442  0.1069  0.9067
16088SOL    HW254611   7.414   3.574   3.347  0.6403  1.8645 -1.7598
16089SOL     OW54612   1.966   4.334   8.887  0.2736  0.3881 -0.8069
16089SOL    HW154613   1.900   4.397   8.856 -3.4868 -1.6602  2.1365
16089SOL    HW254614   1.918   4.251   8.893  3.2826 -1.3799  1.2060
16090SOL     OW54615   3.042   2.163   7.446  0.1581 -0.4056 -0.2141
16090SOL    HW154616   3.011   2.252   7.462 -0.0685 -0.2438 -1.4765
16090SOL    HW254617   3.002   2.138   7.363  1.4022 -1.1472 -0.6117
16091SOL     OW54618   0.104   6.477   3.722 -0.0484  0.1096  0.2354
16091SOL    HW154619   0.126   6.431   3.803  0.3955 -0.8938 -0.4435
16091SOL    HW254620   0.177   6.537   3.709 -0.2563  0.4788  0.7128
16092SOL     OW54621   5.035   8.784   4.554  0.2522  0.0375  0.3078
16092SOL    HW154622   5.039   8.873   4.520  0.6079 -0.8389 -2.1247
16092SOL    HW254623   5.007   8.794   4.645  1.6464  2.7036  0.5228
16093SOL     OW54624   6.778   7.445   4.356  0.9574  0.2309  0.1217
16093SOL    HW154625   6.804   7.459   4.265  1.4637  0.2434  0.2661
16093SOL    HW254626   6.801   7.353   4.373  1.1233  0.3089  0.3197
16094SOL     OW54627   7.967   3.698   1.282 -0.0511 -0.2276 -0.3376
16094SOL    HW154628   7.957   3.696   1.187  1.4257  1.0463 -0.5601
16094SOL    HW254629   7.878   3.712   1.315 -0.4141  0.6575 -1.6103
16095SOL     OW54630   6.654   6.305   8.751  0.0456 -0.4346  0.1212
16095SOL    HW154631   6.679   6.213   8.755 -0.4496 -0.5261  2.6853
16095SOL    HW254632   6.714   6.349   8.810  0.2743  0.9220 -1.0776
16096SOL     OW54633   3.987   6.491   4.473  0.0712 -0.7600  0.2379
16096SOL    HW154634   4.026   6.538   4.547  0.6574  0.7520 -0.9821
16096SOL    HW254635   4.057   6.432   4.443  0.6671  0.2997 -0.5206
16097SOL     OW54636   1.999   6.171   3.022  0.5437 -0.2847  0.3070
16097SOL    HW154637   1.971   6.086   2.990  1.0077 -0.3141 -0.0251
16097SOL    HW254638   1.994   6.164   3.118 -3.2262  0.5890  0.3208
16098SOL     OW54639   5.583   4.516   0.674 -0.4800 -1.1248 -0.3119
16098SOL    HW154640   5.655   4.474   0.721  0.0307 -1.7180 -1.5739
16098SOL    HW254641   5.624   4.588   0.627 -0.9387 -0.6882 -0.0520
16099SOL     OW54642   8.047   2.782   4.495 -0.6192 -0.1171  0.3833
16099SOL    HW154643   8.005   2.703   4.460  1.8267 -1.0636 -0.5630
16099SOL    HW254644   7.999   2.800   4.576 -2.5674 -1.3282 -0.4304
16100SOL     OW54645   5.021   8.132   6.272  0.1413  0.1774 -0.8655
16100SOL    HW154646   5.071   8.213   6.261  1.5603 -0.6056 -0.3934
16100SOL    HW254647   4.972   8.123   6.191 -0.6005  1.8597 -0.6573
16101SOL     OW54648   3.059   6.809   3.226 -0.3899  0.3353  0.2040
16101SOL    HW154649   2.990   6.745   3.209  0.2679 -0.1345 -0.8190
16101SOL    HW254650   3.103   6.777   3.305  0.3635 -0.8806 -0.6710
16102SOL     OW54651   1.661   7.626   3.605 -0.2988 -0.0567 -0.1392
16102SOL    HW154652   1.677   7.555   3.667 -1.1241  0.5137  0.7518
16102SOL    HW254653   1.748   7.660   3.584  0.0258 -0.5983  0.3002
16103SOL     OW54654   7.455   2.304   6.299  0.5787  0.5437  0.3060
16103SOL    HW154655   7.523   2.287   6.365 -0.2612 -0.6400  0.9119
16103SOL    HW254656   7.419   2.217   6.281 -1.7425  1.2851  1.0632
16104SOL     OW54657   3.185   7.228   8.292 -0.5017  0.0976  0.1524
16104SOL    HW154658   3.122   7.300   8.298  1.3877  2.0030 -1.1875
16104SOL    HW254659   3.145   7.157   8.343 -3.2841  1.4532  0.0766
16105SOL     OW54660   0.220   6.483   2.387 -0.3654 -0.0868 -0.1759
16105SOL    HW154661   0.145   6.482   2.446 -0.0370 -1.1386  0.2559
16105SOL    HW254662   0.185   6.512   2.303 -0.9493  0.8952  0.3906
16106SOL     OW54663   4.306   8.759   1.147  0.4522 -0.0897 -0.2094
16106SOL    HW154664   4.254   8.821   1.198 -0.1331 -1.0702  0.4212
16106SOL    HW254665   4.242   8.701   1.106  1.0079 -1.9383  1.3779
16107SOL     OW54666   2.953   8.918   5.744 -0.2271 -0.0269 -0.2519
16107SOL    HW154667   2.905   8.933   5.825 -0.1092  0.3767 -0.2577
16107SOL    HW254668   2.892   8.868   5.689  0.1223 -1.3744  0.5286
16108SOL     OW54669   1.834   1.922   2.158 -0.2470 -0.8357 -0.1317
16108SOL    HW154670   1.791   2.002   2.189  0.7699 -1.1310  2.2720
16108SOL    HW254671   1.928   1.942   2.162  0.1707 -2.7616  2.7517
16109SOL     OW54672   5.264   6.942   9.107 -0.6979 -0.4433  0.5739
16109SOL    HW154673   5.234   7.018   9.057  1.8425  0.7256  0.6597
16109SOL    HW254674   5.223   6.952   9.193  1.6997  2.5146  1.5433
16110SOL     OW54675   4.228   0.918   6.175  0.4106 -0.4919 -1.0060
16110SOL    HW154676   4.244   0.981   6.104  1.3999 -1.6561 -1.8612
16110SOL    HW254677   4.133   0.907   6.177  0.1624  1.3757 -0.4971
16111SOL     OW54678   9.156   5.237   1.513  0.5714 -0.1942 -0.1714
16111SOL    HW154679   9.152   5.231   1.608 -0.3768 -0.7717 -0.2260
16111SOL    HW254680   9.181   5.148   1.485  0.4377 -0.1367 -0.4760
16112SOL     OW54681   8.640   5.899   3.268  0.1463  0.0255  0.1219
16112SOL    HW154682   8.708   5.893   3.200 -0.0927  1.4075 -0.2593
16112SOL    HW254683   8.677   5.958   3.333 -1.0418  1.5873 -0.5586
16113SOL     OW54684   5.562   7.847   8.383 -0.0952  0.2900  0.0765
16113SOL    HW154685   5.560   7.936   8.419 -1.2832 -0.3270  1.7026
16113SOL    HW254686   5.469   7.825   8.371  0.2196 -0.3501 -1.3661
16114SOL     OW54687   5.990   0.126   2.881 -0.2128  0.1691  0.0271
16114SOL    HW154688   6.011   0.118   2.788  1.8395 -0.6026  0.5080
16114SOL    HW254689   5.958   0.216   2.890  1.2428  0.8531 -1.1536
16115SOL     OW54690   2.951   5.077   8.274 -0.3109  0.3395 -0.2570
16115SOL    HW154691   2.892   5.141   8.313 -0.2679  0.1803  0.0795
16115SOL    HW254692   3.021   5.129   8.234 -0.7863  0.5366 -0.8447
16116SOL     OW54693   3.430   1.739   8.020 -0.2526  0.0701  0.4320
16116SOL    HW154694   3.505   1.791   7.991  0.3503 -0.3989  1.0985
16116SOL    HW254695   3.355   1.775   7.973  0.3486  0.7358 -0.0280
16117SOL     OW54696   8.194   8.780   7.883 -0.6123 -0.3245 -0.0028
16117SOL    HW154697   8.290   8.782   7.875 -0.6575 -0.1644 -0.5731
16117SOL    HW254698   8.176   8.700   7.933 -0.2146 -0.7858 -0.5754
16118SOL     OW54699   6.781   1.562   8.143  1.0231  0.2749 -0.4653
16118SOL    HW154700   6.831   1.493   8.100  0.3324 -0.6002  0.0781
16118SOL    HW254701   6.691   1.548   8.113  0.8234  0.7192 -0.0828
16119SOL     OW54702   5.162   6.707   5.424  0.3796 -0.2008 -0.0196
16119SOL    HW154703   5.153   6.643   5.354 -1.9541 -0.3071  0.2949
16119SOL    HW254704   5.155   6.656   5.504  2.5930 -0.0233  0.3686
16120SOL     OW54705   2.825   8.930   3.389 -0.2022 -0.4007  0.0383
16120SOL    HW154706   2.774   8.901   3.465  0.2895 -0.3575  0.3914
16120SOL    HW254707   2.796   8.873   3.318 -1.4864  0.2922 -0.0239
16121SOL     OW54708   1.423   1.222   8.104  0.5068  0.0063 -0.0604
16121SOL    HW154709   1.396   1.313   8.093  1.6416  0.2097 -1.4725
16121SOL    HW254710   1.441   1.213   8.198  0.1764  1.1755  0.1225
16122SOL     OW54711   9.093   7.518   6.688  0.0246 -0.2710 -0.0370
16122SOL    HW154712   9.173   7.478   6.653  0.5704  1.0460 -0.3376
16122SOL    HW254713   9.038   7.443   6.712  0.7043 -1.2116 -1.2626
16123SOL     OW54714   3.031   4.564   8.752  0.0151  0.1307 -0.1097
16123SOL    HW154715   3.017   4.511   8.674 -0.1967  0.0350 -0.0074
16123SOL    HW254716   3.120   4.539   8.781 -0.0809 -0.1697 -0.0629
16124SOL     OW54717   2.282   6.881   1.343  0.3802 -0.1254 -0.0005
16124SOL    HW154718   2.214   6.819   1.367 -0.9471  1.2654 -0.0477
16124SOL    HW254719   2.364   6.835   1.363 -0.5488 -1.7110  0.3453
16125SOL     OW54720   1.660   0.706   8.547 -0.4312  0.0389 -0.0398
16125SOL    HW154721   1.732   0.700   8.485  0.1736 -1.0145  0.7333
16125SOL    HW254722   1.603   0.632   8.525 -1.4556  1.0151 -0.8208
16126SOL     OW54723   5.761   4.908   2.432  0.1175 -0.2909  0.2156
16126SOL    HW154724   5.668   4.903   2.455 -0.1554 -2.2069 -1.1574
16126SOL    HW254725   5.805   4.861   2.503 -0.4447 -3.4353 -1.3513
16127SOL     OW54726   8.787   5.564   2.632  0.4480  0.0754 -0.2931
16127SOL    HW154727   8.769   5.530   2.544  0.5300  0.4365 -0.4490
16127SOL    HW254728   8.877   5.538   2.649 -0.8387 -3.9963  1.5078
16128SOL     OW54729   0.383   3.918   6.359  0.0714  0.2107 -0.1369
16128SOL    HW154730   0.312   3.979   6.381  0.5263  1.1707 -1.2331
16128SOL    HW254731   0.393   3.864   6.438 -1.8587  0.0508  0.0401
16129SOL     OW54732   7.778   7.260   1.489 -0.2078 -0.2609  0.0964
16129SOL    HW154733   7.773   7.284   1.397  0.6466  0.2034  0.1549
16129SOL    HW254734   7.814   7.171   1.490  1.1884  0.2809  0.0114
16130SOL     OW54735   8.261   6.494   3.530 -0.0149 -0.1223 -0.0085
16130SOL    HW154736   8.260   6.489   3.626 -1.5045 -2.9380 -0.0848
16130SOL    HW254737   8.177   6.534   3.507  0.7647  1.5139 -0.1857
16131SOL     OW54738   5.202   7.215   6.057 -0.4003 -0.7651 -0.4113
16131SOL    HW154739   5.116   7.256   6.072 -0.3417 -1.0010  0.6415
16131SOL    HW254740   5.264   7.272   6.102 -0.2615 -1.6984  0.6544
16132SOL     OW54741   0.780   5.995   7.810 -0.1413  0.1760 -0.1829
16132SOL    HW154742   0.742   6.054   7.745 -1.0913 -0.0341  0.1573
16132SOL    HW254743   0.747   5.908   7.785  0.2777 -0.0405  0.0109
16133SOL     OW54744   1.063   1.549   2.310 -0.5154 -0.5685 -0.1269
16133SOL    HW154745   1.098   1.636   2.330  0.7166 -0.3479 -2.7772
16133SOL    HW254746   1.134   1.489   2.334  1.0585 -0.2869 -3.4927
16134SOL     OW54747   2.045   4.727   1.636  0.7284 -0.2787  0.2508
16134SOL    HW154748   2.136   4.723   1.664  0.4357 -2.3979  1.0507
16134SOL    HW254749   2.028   4.821   1.624  2.8380  0.1954  0.5883
16135SOL     OW54750   5.894   4.521   7.897 -0.1293 -0.0249  0.2237
16135SOL    HW154751   5.814   4.506   7.847 -0.5038 -0.2707  0.8969
16135SOL    HW254752   5.911   4.438   7.942 -1.7044  1.1353  3.2338
16136SOL     OW54753   6.324   6.161   3.878  0.6346  0.1764  0.3209
16136SOL    HW154754   6.313   6.152   3.783 -0.0954 -1.0009  0.5014
16136SOL    HW254755   6.411   6.125   3.895  0.0439 -1.3335  0.2997
16137SOL     OW54756   3.433   3.621   4.855 -0.3658 -0.3236 -0.7131
16137SOL    HW154757   3.512   3.571   4.875 -1.3917 -1.5325  0.5826
16137SOL    HW254758   3.432   3.626   4.760  0.7898 -1.1121 -0.7930
16138SOL     OW54759   1.183   7.472   5.695 -0.0973  0.6361 -0.1311
16138SOL    HW154760   1.249   7.459   5.762  0.4201 -1.0616 -0.9162
16138SOL    HW254761   1.102   7.489   5.743 -0.1884 -2.5640  1.0893
16139SOL     OW54762   6.105   4.389   3.885  0.1354 -0.4793  0.0447
16139SOL    HW154763   6.023   4.433   3.909  1.3429  1.4607  0.8975
16139SOL    HW254764   6.138   4.440   3.811  0.5129 -1.3357 -0.3857
16140SOL     OW54765   0.919   5.370   7.037  0.2730  0.4787  0.2270
16140SOL    HW154766   0.932   5.321   7.118  2.4372 -2.0392 -1.4444
16140SOL    HW254767   0.973   5.448   7.046  0.9326 -0.0547  0.9892
16141SOL     OW54768   3.434   7.725   2.729 -0.0981 -0.3257 -0.0253
16141SOL    HW154769   3.514   7.776   2.718 -0.6262  0.5609  0.0729
16141SOL    HW254770   3.453   7.641   2.688  0.3419  0.4322 -1.4602
16142SOL     OW54771   5.118   1.144   3.430 -0.3329  0.6536 -0.0280
16142SOL    HW154772   5.181   1.109   3.493  0.1513  2.4341  0.5329
16142SOL    HW254773   5.042   1.086   3.438  0.3993 -0.2226  0.8810
16143SOL     OW54774   7.254   1.313   2.081 -0.2838  0.1354  0.1511
16143SOL    HW154775   7.245   1.371   2.156 -0.5363 -1.3801  1.3404
16143SOL    HW254776   7.343   1.280   2.087  0.1923  1.1072 -1.0910
16144SOL     OW54777   5.119   7.841   0.841 -0.5443 -0.2245 -0.0822
16144SOL    HW154778   5.168   7.903   0.896 -1.2537  0.0612  0.2467
16144SOL    HW254779   5.128   7.877   0.752 -1.0666  0.4501  0.1227
16145SOL     OW54780   4.502   0.110   4.526 -0.5420  0.5065  0.2373
16145SOL    HW154781   4.495   0.136   4.434 -0.3025 -0.2318  0.0014
16145SOL    HW254782   4.434   0.161   4.570 -1.0270  0.4697 -0.4417
16146SOL     OW54783   7.825   1.603   1.878 -0.2503 -0.3919  0.0426
16146SOL    HW154784   7.918   1.617   1.860  0.2569  2.2115  3.5217
16146SOL    HW254785   7.817   1.508   1.890  1.9700 -0.6833 -0.3111
16147SOL     OW54786   5.798   5.489   4.399  0.0910 -0.2749 -0.3306
16147SOL    HW154787   5.728   5.513   4.338 -0.7342 -3.2289 -0.6587
16147SOL    HW254788   5.756   5.491   4.485 -0.5068 -2.2258 -0.5451
16148SOL     OW54789   7.709   6.139   8.413  0.3889  0.2714  0.3478
16148SOL    HW154790   7.783   6.192   8.442 -0.1841  0.8531  0.7787
16148SOL    HW254791   7.653   6.201   8.365 -0.3244  0.0836  0.9262
16149SOL     OW54792   1.548   2.025   5.802 -0.2237 -0.2790 -0.2234
16149SOL    HW154793   1.462   2.040   5.843 -0.2876 -1.5345  0.1445
16149SOL    HW254794   1.527   1.987   5.717 -0.0345  0.0114 -0.4011
16150SOL     OW54795   0.801   3.245   8.970 -0.4419  0.5139  0.1549
16150SOL    HW154796   0.748   3.257   9.049 -1.6072  0.4818 -0.5799
16150SOL    HW254797   0.750   3.288   8.901 -0.9889 -2.0145 -1.1446
16151SOL     OW54798   4.908   8.414   6.783  0.0670  0.1664 -0.0433
16151SOL    HW154799   4.900   8.322   6.809 -0.5447 -1.0333 -3.8557
16151SOL    HW254800   4.824   8.434   6.741 -0.3411  2.9904  1.8571
16152SOL     OW54801   0.860   8.135   7.357 -0.1382  0.3332 -0.0779
16152SOL    HW154802   0.882   8.148   7.450  0.6381  0.4827 -0.2738
16152SOL    HW254803   0.769   8.165   7.349 -0.4543 -0.3519  0.7787
16153SOL     OW54804   4.179   7.899   6.852 -0.4101 -0.2666 -0.3147
16153SOL    HW154805   4.192   7.804   6.855 -0.1638 -0.2945 -1.6321
16153SOL    HW254806   4.262   7.934   6.822  0.1749  0.5945  2.0431
16154SOL     OW54807   4.524   0.674   5.865  0.3789 -0.0088 -0.2777
16154SOL    HW154808   4.567   0.757   5.844  0.5337 -0.0725 -0.2208
16154SOL    HW254809   4.467   0.694   5.939 -0.0899  0.1935 -0.6878
16155SOL     OW54810   5.495   8.196   5.644 -0.5319  0.3183  0.0691
16155SOL    HW154811   5.541   8.202   5.727 -2.4720  2.2080  1.1125
16155SOL    HW254812   5.522   8.111   5.608 -1.9905 -2.1998  4.1356
16156SOL     OW54813   1.819   8.830   8.455 -0.2374 -0.4838 -0.2740
16156SOL    HW154814   1.773   8.764   8.403  0.6657  0.0841 -1.8603
16156SOL    HW254815   1.872   8.780   8.516 -2.1675 -1.1618  0.9373
16157SOL     OW54816   3.631   8.838   7.291 -0.0830  0.0881 -0.0432
16157SOL    HW154817   3.692   8.886   7.235 -1.2781  1.0458 -0.5711
16157SOL    HW254818   3.569   8.905   7.321  0.7787 -0.2942  2.8403
16158SOL     OW54819   7.750   7.760   8.513  0.3655 -0.1001  0.6926
16158SOL    HW154820   7.748   7.789   8.604  0.7716  0.5419  0.4968
16158SOL    HW254821   7.663   7.783   8.479  0.8819  1.4830  0.3634
16159SOL     OW54822   3.571   1.032   6.213  0.5859 -0.5283  0.0032
16159SOL    HW154823   3.490   1.029   6.265 -0.5498 -0.6640 -1.6931
16159SOL    HW254824   3.624   1.099   6.256 -1.2848  1.0499 -0.0115
16160SOL     OW54825   0.503   1.305   8.884 -0.3069 -0.3307 -0.3070
16160SOL    HW154826   0.422   1.350   8.908  0.5656  0.8553  0.5764
16160SOL    HW254827   0.571   1.350   8.935  0.8035 -1.8049 -0.4268
16161SOL     OW54828   1.901   5.593   5.411 -0.3307 -0.1844  0.5363
16161SOL    HW154829   1.951   5.600   5.330 -1.6953  0.5331 -0.2765
16161SOL    HW254830   1.809   5.593   5.383 -0.8287 -0.2016  2.0628
16162SOL     OW54831   6.187   2.964   7.668  0.4339  0.0589 -0.1006
16162SOL    HW154832   6.216   3.041   7.618 -0.8001  0.8686  0.3885
16162SOL    HW254833   6.256   2.953   7.734  0.7654  0.5817 -0.3437
16163SOL     OW54834   2.451   2.984   6.639 -0.5412 -0.0781 -0.5171
16163SOL    HW154835   2.397   2.914   6.602 -1.5850  0.1077  0.6086
16163SOL    HW254836   2.487   3.030   6.562 -1.4806 -0.5907 -1.2781
16164SOL     OW54837   1.250   7.507   1.542  0.4463  0.2505 -0.1954
16164SOL    HW154838   1.320   7.523   1.479  0.8744 -2.3091 -0.4738
16164SOL    HW254839   1.243   7.412   1.547 -1.1062  0.3957  1.9677
16165SOL     OW54840   2.191   3.888   5.794  0.1542 -0.9092  0.4692
16165SOL    HW154841   2.162   3.834   5.721  1.0859 -1.1532  0.2694
16165SOL    HW254842   2.204   3.975   5.755  1.0751 -1.1409  0.2321
16166SOL     OW54843   5.712   4.702   3.470 -0.6293  0.1101 -0.0353
16166SOL    HW154844   5.790   4.733   3.424 -0.6471 -1.0188 -0.8737
16166SOL    HW254845   5.742   4.685   3.559 -0.6107  2.4112  0.4505
16167SOL     OW54846   9.211   8.254   4.306  0.0725 -0.4198  0.4226
16167SOL    HW154847   9.204   8.196   4.382  0.3616 -1.4398 -0.3072
16167SOL    HW254848   9.266   8.327   4.336 -0.0295 -0.6815  1.2597
16168SOL     OW54849   2.670   2.688   8.789 -0.1964 -0.1709 -0.3871
16168SOL    HW154850   2.720   2.676   8.709 -2.9566  1.2094 -2.5009
16168SOL    HW254851   2.638   2.779   8.784 -2.0206 -0.6476  1.2742
16169SOL     OW54852   4.892   7.249   3.177  0.2620  0.4869 -0.7267
16169SOL    HW154853   4.902   7.229   3.084  0.8521  0.3598 -0.6390
16169SOL    HW254854   4.935   7.334   3.189  0.5130  0.3302 -0.4999
16170SOL     OW54855   8.529   2.642   0.884  0.1781 -0.4626 -0.6399
16170SOL    HW154856   8.458   2.703   0.864  1.0119  0.2053 -1.7278
16170SOL    HW254857   8.489   2.555   0.880 -1.4117 -0.0301  2.5161
16171SOL     OW54858   5.871   3.157   5.991  0.0847  0.1126 -0.4293
16171SOL    HW154859   5.790   3.122   5.954 -3.1322  2.3024  3.6527
16171SOL    HW254860   5.907   3.085   6.044  0.7618 -0.7782 -2.0364
16172SOL     OW54861   1.698   3.704   3.128  0.3532 -0.2677  0.1615
16172SOL    HW154862   1.693   3.799   3.136 -0.0018 -0.3329  0.7513
16172SOL    HW254863   1.612   3.673   3.156 -0.1369 -0.6747 -1.6404
16173SOL     OW54864   8.211   4.360   9.134 -0.3561 -0.1078 -0.8641
16173SOL    HW154865   8.262   4.281   9.150 -1.1846 -0.7343 -1.2341
16173SOL    HW254866   8.268   4.432   9.163 -0.1072 -0.9140  0.7725
16174SOL     OW54867   4.020   2.491   8.605 -0.3899 -0.1235 -0.5614
16174SOL    HW154868   4.079   2.422   8.638 -0.9132 -0.6635 -0.7323
16174SOL    HW254869   3.942   2.443   8.576 -1.1458  0.6282  0.1719
16175SOL     OW54870   1.381   8.533   5.834  0.0971  0.2936 -0.5975
16175SOL    HW154871   1.329   8.453   5.830 -0.0658  0.3962 -0.5227
16175SOL    HW254872   1.440   8.520   5.908 -1.0165  0.8954  0.4311
16176SOL     OW54873   2.915   2.155   3.905 -0.1341  0.0063  0.0546
16176SOL    HW154874   2.898   2.154   3.999 -0.2858  0.0392  0.0275
16176SOL    HW254875   2.911   2.064   3.878  1.5818 -0.2059  0.3767
16177SOL     OW54876   9.202   1.214   1.037 -0.1913  0.0129 -0.3642
16177SOL    HW154877   9.164   1.179   1.118 -1.0286  0.1488 -0.6898
16177SOL    HW254878   9.296   1.218   1.055 -0.3169 -0.3653  0.4475
16178SOL     OW54879   1.097   6.726   5.826  0.4320 -0.2984 -0.3496
16178SOL    HW154880   1.139   6.683   5.901 -2.0532 -3.9789 -0.7817
16178SOL    HW254881   1.169   6.742   5.764  1.9720 -0.8609  1.2215
16179SOL     OW54882   6.801   5.579   0.196 -0.6321  0.6606  0.5215
16179SOL    HW154883   6.752   5.527   0.260 -0.3382  0.8606  0.9138
16179SOL    HW254884   6.744   5.654   0.178 -1.5051 -0.2864 -0.8109
16180SOL     OW54885   5.077   4.371   2.229 -0.1563  0.2274  1.1111
16180SOL    HW154886   5.118   4.449   2.193 -1.8870  0.1139 -1.4231
16180SOL    HW254887   5.107   4.300   2.172 -2.2474 -0.1426  0.3774
16181SOL     OW54888   2.989   7.300   4.472  0.5238 -0.0173  0.0649
16181SOL    HW154889   3.065   7.251   4.441 -0.5572 -0.2363 -2.4470
16181SOL    HW254890   2.931   7.234   4.510  0.2481 -0.3191 -0.8594
16182SOL     OW54891   6.166   0.349   0.886 -0.5689  0.3212  0.3342
16182SOL    HW154892   6.217   0.342   0.968  0.5910  0.0914 -0.3789
16182SOL    HW254893   6.076   0.358   0.915 -0.3975 -1.4987  1.6474
16183SOL     OW54894   6.929   2.871   4.483 -0.3034 -0.3325 -0.4873
16183SOL    HW154895   6.963   2.850   4.570  1.5324 -0.4769 -1.1924
16183SOL    HW254896   6.834   2.862   4.491 -0.0336 -2.9608  0.8328
16184SOL     OW54897   1.376   5.713   4.875 -0.0610  0.2007 -0.2253
16184SOL    HW154898   1.434   5.705   4.799  1.9440  2.1161  0.9841
16184SOL    HW254899   1.347   5.623   4.892  2.6662 -0.9304 -0.8873
16185SOL     OW54900   6.217   4.088   8.591  0.0491  0.5764 -0.1578
16185SOL    HW154901   6.243   4.149   8.660 -0.5904 -0.2183  0.8049
16185SOL    HW254902   6.289   4.093   8.527  1.2230  0.4566  1.1136
16186SOL     OW54903   2.416   0.385   4.670  0.4926 -0.0952  1.1059
16186SOL    HW154904   2.426   0.315   4.606 -0.7073  0.2257  0.5290
16186SOL    HW254905   2.374   0.344   4.745  0.6809 -0.1889  1.1613
16187SOL     OW54906   0.427   0.901   0.634 -0.6572  0.1414  0.0374
16187SOL    HW154907   0.411   0.876   0.543 -0.5096  0.4075 -0.0623
16187SOL    HW254908   0.464   0.989   0.628  3.5591 -1.4282  0.0898
16188SOL     OW54909   4.719   1.098   1.647  0.4784  0.9160  0.0785
16188SOL    HW154910   4.805   1.065   1.621 -0.0073  0.4087 -0.9695
16188SOL    HW254911   4.671   1.108   1.564 -1.1436 -0.7360  0.7402
16189SOL     OW54912   7.923   8.740   2.386 -0.3266 -0.0675 -0.8108
16189SOL    HW154913   7.950   8.752   2.295 -0.2787 -0.7036 -0.8898
16189SOL    HW254914   7.876   8.820   2.409  1.7987  1.1785 -0.5954
16190SOL     OW54915   7.307   9.101   0.195 -0.2726 -0.2324 -0.1466
16190SOL    HW154916   7.382   9.144   0.236 -0.9244 -0.4047  1.2886
16190SOL    HW254917   7.299   9.143   0.110  0.2795  1.1237  0.4464
16191SOL     OW54918   7.510   2.254   4.671 -0.1786  0.2544 -0.5300
16191SOL    HW154919   7.565   2.178   4.653 -0.4663  0.8176 -4.6880
16191SOL    HW254920   7.421   2.224   4.652 -0.6494  0.9444  0.4892
16192SOL     OW54921   4.530   5.502   0.292  0.1003 -0.0453  0.2295
16192SOL    HW154922   4.479   5.476   0.368 -0.5276 -0.2417 -0.2574
16192SOL    HW254923   4.494   5.587   0.267 -0.0557 -0.2275 -0.1707
16193SOL     OW54924   6.241   7.512   3.506 -0.0596  0.0761 -0.3408
16193SOL    HW154925   6.294   7.588   3.530 -0.9429  0.7283 -0.4001
16193SOL    HW254926   6.152   7.547   3.496 -0.5873 -1.0594  0.1576
16194SOL     OW54927   0.983   7.685   0.822 -0.1428  0.3561  0.2887
16194SOL    HW154928   0.920   7.707   0.753 -0.4053  1.5259  0.8756
16194SOL    HW254929   1.016   7.770   0.852  0.0589 -0.1342  1.5061
16195SOL     OW54930   0.010   2.037   3.472  0.0986 -0.1351  0.0308
16195SOL    HW154931  -0.040   2.116   3.490  1.0794  0.4771  0.1940
16195SOL    HW254932  -0.031   1.998   3.395 -2.4691 -1.2933  1.8143
16196SOL     OW54933   5.973   6.087   8.237  0.1723 -0.5811 -0.0839
16196SOL    HW154934   5.948   6.178   8.249 -1.3197 -1.0447  0.5592
16196SOL    HW254935   6.067   6.090   8.215  0.2830  1.0460  0.5048
16197SOL     OW54936   7.935   3.578   8.418 -0.1076  0.2624 -0.3499
16197SOL    HW154937   7.890   3.642   8.362  0.0695 -0.4321 -1.3175
16197SOL    HW254938   7.867   3.545   8.476 -0.7007 -0.2386 -1.3019
16198SOL     OW54939   5.830   6.889   4.694  0.3077  0.6657  0.0603
16198SOL    HW154940   5.823   6.796   4.669  1.1146  0.8516 -0.9280
16198SOL    HW254941   5.787   6.894   4.779 -1.8796 -0.1614 -0.9209
16199SOL     OW54942   6.188   3.706   5.450 -0.0122  0.1642 -0.5627
16199SOL    HW154943   6.111   3.722   5.505 -1.1646 -0.3683 -1.9665
16199SOL    HW254944   6.197   3.611   5.448  0.0997  0.1827 -1.1556
16200SOL     OW54945   8.039   7.676   4.216  0.4241 -0.0045  0.0888
16200SOL    HW154946   8.045   7.691   4.310 -1.9876 -1.2375  0.5207
16200SOL    HW254947   8.015   7.761   4.180 -1.7110 -0.1540  1.0290
16201SOL     OW54948   4.745   7.450   0.548  0.3739 -0.1417 -1.0515
16201SOL    HW154949   4.669   7.403   0.516  0.8167  0.0951 -2.5397
16201SOL    HW254950   4.718   7.542   0.551 -0.1394 -0.3154  0.7805
16202SOL     OW54951   8.654   5.464   2.378  0.5200  0.3400 -0.0603
16202SOL    HW154952   8.571   5.446   2.334 -0.1577  0.3584  1.1754
16202SOL    HW254953   8.697   5.379   2.382  1.3738  0.6014 -2.2244
16203SOL     OW54954   4.963   6.440   0.274 -0.0439 -0.6086 -0.2699
16203SOL    HW154955   4.939   6.421   0.183 -0.0174 -1.5691 -0.0794
16203SOL    HW254956   4.891   6.493   0.307 -1.5970 -2.8007  0.0582
16204SOL     OW54957   3.623   5.355   4.735 -0.2152  0.3670 -0.3936
16204SOL    HW154958   3.703   5.347   4.684  0.0105 -0.2083  0.0391
16204SOL    HW254959   3.567   5.413   4.683  0.1018 -0.0046 -1.1661
16205SOL     OW54960   8.818   1.111   7.580  0.3847 -0.2538 -0.3074
16205SOL    HW154961   8.898   1.111   7.528  2.1991 -1.7930  2.2159
16205SOL    HW254962   8.843   1.154   7.662 -2.1528  1.5461 -0.3567
16206SOL     OW54963   0.658   6.506   7.851 -0.0484  0.0136 -0.1085
16206SOL    HW154964   0.573   6.525   7.813 -0.4564 -1.4258  0.0443
16206SOL    HW254965   0.642   6.505   7.946 -0.0165 -0.9345 -0.1094
16207SOL     OW54966   6.575   4.299   3.228 -0.5920 -0.2314 -0.3935
16207SOL    HW154967   6.588   4.273   3.319 -0.4448 -1.0662 -0.6504
16207SOL    HW254968   6.513   4.372   3.233 -1.2224 -0.7981  0.3065
16208SOL     OW54969   0.235   4.073   0.858  0.2077  0.2055  0.2757
16208SOL    HW154970   0.289   4.023   0.797 -0.0966 -0.5832  0.6380
16208SOL    HW254971   0.170   4.010   0.889 -2.0989  1.5032 -1.5046
16209SOL     OW54972   0.840   2.484   5.139 -0.2531  0.3936  0.1218
16209SOL    HW154973   0.902   2.505   5.209 -0.2067 -1.4135  0.6700
16209SOL    HW254974   0.891   2.433   5.077 -0.3639  1.7759 -1.1543
16210SOL     OW54975   5.260   6.295   3.574 -0.5085 -0.5565 -0.3191
16210SOL    HW154976   5.323   6.227   3.600  0.3014 -0.0701 -0.9434
16210SOL    HW254977   5.185   6.246   3.539 -0.7596 -1.1626  1.0020
16211SOL     OW54978   5.950   8.864   2.884  0.2578 -0.3508 -0.1115
16211SOL    HW154979   5.867   8.909   2.897  0.3975 -0.1345  0.0386
16211SOL    HW254980   5.964   8.867   2.790  1.4328  2.0444  0.0643
16212SOL     OW54981   6.308   6.850   6.389 -0.3729  0.4580 -0.0356
16212SOL    HW154982   6.241   6.825   6.326 -0.5496  0.6327  0.0817
16212SOL    HW254983   6.303   6.782   6.457 -1.6412  1.4145  0.8718
16213SOL     OW54984   0.977   5.917   2.961  0.1100 -0.2804  0.3746
16213SOL    HW154985   0.994   6.010   2.947 -0.7375 -0.3294 -1.1068
16213SOL    HW254986   0.882   5.909   2.965  0.1840 -0.7066  3.5442
16214SOL     OW54987   0.497   7.769   3.210  0.5748 -0.4504 -0.5952
16214SOL    HW154988   0.571   7.788   3.153 -1.0792  0.2819 -2.6717
16214SOL    HW254989   0.437   7.719   3.155 -0.6666 -0.6490  0.8650
16215SOL     OW54990   3.972   7.101   1.990  0.2336  0.0369  0.5918
16215SOL    HW154991   3.948   7.166   1.925 -0.3334 -0.1527  0.6132
16215SOL    HW254992   4.048   7.056   1.952 -1.2250 -1.3630 -0.8070
16216SOL     OW54993   1.704   6.810   6.581 -0.0762 -0.2161 -0.5699
16216SOL    HW154994   1.669   6.837   6.667 -1.0059 -3.4395  0.1834
16216SOL    HW254995   1.626   6.798   6.527  0.1949 -2.1360 -0.5814
16217SOL     OW54996   0.020   1.666   4.538  0.4629 -0.5232  0.4266
16217SOL    HW154997  -0.047   1.605   4.506  0.7852 -0.6909  0.0567
16217SOL    HW254998   0.031   1.729   4.467  0.8684 -0.6385  0.3837
16218SOL     OW54999   3.946   5.636   5.392 -0.2492 -0.3461  0.2443
16218SOL    HW155000   4.015   5.662   5.453 -1.1048  0.3805  0.9120
16218SOL    HW255001   3.910   5.718   5.359 -0.9738 -0.7110  0.1084
16219SOL     OW55002   8.345   9.106   9.104  0.6852  0.9230  0.1569
16219SOL    HW155003   8.434   9.131   9.131  0.8322  1.8258 -1.0503
16219SOL    HW255004   8.315   9.179   9.049  0.6552 -0.9455 -2.5493
16220SOL     OW55005   2.774   7.535   0.810 -0.5614 -0.3778 -0.6074
16220SOL    HW155006   2.782   7.511   0.717 -1.2425 -0.6640 -0.5970
16220SOL    HW255007   2.859   7.511   0.848 -0.4883 -0.8184 -1.0349
16221SOL     OW55008   4.159   6.173   2.624 -0.6338 -0.2039  0.3470
16221SOL    HW155009   4.189   6.226   2.698 -1.7644 -1.0295  1.4416
16221SOL    HW255010   4.075   6.137   2.652 -1.3913 -0.0745 -1.5916
16222SOL     OW55011   7.017   4.549   0.796 -0.2220 -0.5752 -0.5516
16222SOL    HW155012   7.003   4.460   0.764 -0.9590 -1.0702  1.0616
16222SOL    HW255013   6.937   4.596   0.773 -0.2813 -0.6173 -0.4281
16223SOL     OW55014   2.857   0.670   1.699  0.3367  0.5335 -0.1959
16223SOL    HW155015   2.928   0.666   1.635  0.2327  0.1838 -0.2973
16223SOL    HW255016   2.806   0.590   1.682  0.8335 -0.0412  0.9424
16224SOL     OW55017   2.124   7.254   2.139 -0.0485 -1.0423  0.3207
16224SOL    HW155018   2.086   7.218   2.219 -1.4560 -3.0163 -1.1422
16224SOL    HW255019   2.194   7.193   2.115 -1.0636 -1.7311 -1.0590
16225SOL     OW55020   2.443   7.264   6.759 -0.1632 -0.0202 -0.3393
16225SOL    HW155021   2.529   7.286   6.796  0.2911  0.0377 -1.4017
16225SOL    HW255022   2.452   7.174   6.728 -0.8851 -0.4520  0.6688
16226SOL     OW55023   7.212   7.884   7.609  0.2005  0.2023  0.4849
16226SOL    HW155024   7.125   7.909   7.640  0.3031  1.4573 -0.1722
16226SOL    HW255025   7.257   7.850   7.687 -0.7274 -0.0804  0.9126
16227SOL     OW55026   0.297   8.366   9.058 -0.0420  0.5926 -0.2977
16227SOL    HW155027   0.341   8.423   8.996  0.5470  0.1302 -0.3187
16227SOL    HW255028   0.252   8.301   9.004 -2.1825  2.0047 -0.3610
16228SOL     OW55029   0.177   3.731   4.899 -0.5886 -0.0241 -0.4908
16228SOL    HW155030   0.201   3.678   4.975  0.8432 -0.2117 -1.0441
16228SOL    HW255031   0.195   3.821   4.926  0.0990 -0.1067 -0.6712
16229SOL     OW55032   7.992   7.053   8.099  0.6887  0.4710 -0.2169
16229SOL    HW155033   8.066   7.034   8.042 -0.2461  0.7643 -1.5783
16229SOL    HW255034   7.985   7.148   8.099 -0.1540  0.4203 -0.7385
16230SOL     OW55035   3.962   6.120   3.136 -0.2515 -0.6287  0.0066
16230SOL    HW155036   3.937   6.029   3.118 -0.8904 -0.5269  0.3402
16230SOL    HW255037   3.921   6.139   3.220  0.3774 -0.2191  0.2250
16231SOL     OW55038   7.901   3.446   8.799  0.4033 -0.1789  0.5102
16231SOL    HW155039   7.977   3.465   8.744  0.5949 -1.4759  0.2887
16231SOL    HW255040   7.927   3.370   8.850  0.4724  1.3848  2.9371
16232SOL     OW55041   5.248   0.606   6.768 -0.6653  0.2783  0.5642
16232SOL    HW155042   5.217   0.591   6.679 -0.1228  0.0630  0.4114
16232SOL    HW255043   5.343   0.609   6.761 -0.5015 -1.5141  1.3957
16233SOL     OW55044   2.240   2.291   6.204  0.1520  0.2423 -0.1206
16233SOL    HW155045   2.224   2.314   6.295  0.7817 -0.1165  0.0913
16233SOL    HW255046   2.154   2.292   6.163 -0.2475 -0.3907  0.6693
16234SOL     OW55047   5.198   5.891   6.615 -0.3357 -0.7458  0.2269
16234SOL    HW155048   5.123   5.912   6.558  0.5012 -0.7222 -0.8932
16234SOL    HW255049   5.264   5.956   6.592  0.0402 -0.7739  1.2034
16235SOL     OW55050   6.415   8.952   5.797  0.5163  0.1328  0.2564
16235SOL    HW155051   6.383   8.970   5.709  1.1667  1.2455  0.2247
16235SOL    HW255052   6.342   8.910   5.841 -0.7295  1.8666 -0.0521
16236SOL     OW55053   7.913   1.356   3.501  0.1493 -0.0265 -0.0763
16236SOL    HW155054   7.915   1.439   3.454  2.1343  1.2533  2.0230
16236SOL    HW255055   7.940   1.291   3.436 -2.5329  0.6846 -2.0728
16237SOL     OW55056   5.425   4.606   2.851 -0.3760  0.2564 -0.3422
16237SOL    HW155057   5.456   4.562   2.930 -0.5939  1.3157  0.3475
16237SOL    HW255058   5.503   4.612   2.795 -0.2141 -0.4575 -0.2020
16238SOL     OW55059   1.773   8.825   7.888  0.4013 -0.0359 -0.2999
16238SOL    HW155060   1.743   8.772   7.961  1.7756  0.4603  0.6638
16238SOL    HW255061   1.855   8.864   7.918  1.2068 -0.1077 -2.2393
16239SOL     OW55062   5.651   4.202   3.833  0.0036 -0.8388  0.0591
16239SOL    HW155063   5.733   4.171   3.797  0.2387 -0.6313  0.4104
16239SOL    HW255064   5.583   4.154   3.785  0.2613  0.2601 -1.4582
16240SOL     OW55065   4.822   6.694   6.697 -0.3768  0.3285  0.4253
16240SOL    HW155066   4.886   6.623   6.686 -0.6476 -0.2108  2.0438
16240SOL    HW255067   4.756   6.657   6.755 -1.0717  1.5762  0.4457
16241SOL     OW55068   5.510   9.199   6.401 -0.6479  0.2261 -0.3875
16241SOL    HW155069   5.483   9.289   6.419 -0.2604 -0.0024  1.5958
16241SOL    HW255070   5.492   9.152   6.482  0.2081 -1.2352 -1.0027
16242SOL     OW55071   4.975   8.929   4.856  0.1893  0.0489 -0.2475
16242SOL    HW155072   4.937   9.012   4.828  1.1820  0.1357 -1.4116
16242SOL    HW255073   4.901   8.869   4.859 -0.4970  0.8951  0.3471
16243SOL     OW55074   2.226   5.863   9.185  0.3193 -0.7888 -0.4838
16243SOL    HW155075   2.187   5.902   9.263  0.4444  0.2107 -0.9096
16243SOL    HW255076   2.174   5.784   9.169 -0.3724 -0.4340 -0.0052
16244SOL     OW55077   0.073   3.989   8.414 -0.1884 -0.4449  0.1934
16244SOL    HW155078   0.162   4.006   8.384 -0.2828  0.8061  0.5522
16244SOL    HW255079   0.025   4.070   8.394 -1.8837 -1.9166 -2.2149
16245SOL     OW55080   1.112   5.896   2.519 -0.3226  0.1773 -0.3835
16245SOL    HW155081   1.025   5.889   2.479  0.0138  1.0503 -1.3285
16245SOL    HW255082   1.166   5.834   2.469  0.0901  1.2399 -1.2954
16246SOL     OW55083   1.446   0.969   1.474  0.7080 -0.0637 -0.2986
16246SOL    HW155084   1.367   0.917   1.457  0.0406  0.5893  0.6598
16246SOL    HW255085   1.424   1.021   1.552  2.0554  0.2032 -0.0669
16247SOL     OW55086   5.880   6.996   1.504 -0.2514 -0.3976  0.5664
16247SOL    HW155087   5.948   7.017   1.440 -1.0189  0.4817  0.0129
16247SOL    HW255088   5.899   6.906   1.531  0.8148 -0.3467  0.0428
16248SOL     OW55089   7.555   3.745   4.782  0.1283 -0.0902 -0.5152
16248SOL    HW155090   7.469   3.777   4.809  0.3920  0.9978 -0.9137
16248SOL    HW255091   7.612   3.823   4.785  1.0811 -0.7718 -0.3346
16249SOL     OW55092   8.062   5.370   8.383  0.3935  0.3509 -0.1530
16249SOL    HW155093   8.067   5.466   8.384  1.1798  0.3266  0.8111
16249SOL    HW255094   7.970   5.350   8.400  0.6173  0.9644  2.1881
16250SOL     OW55095   0.784   7.241   3.978  0.4711 -0.0007 -0.6420
16250SOL    HW155096   0.795   7.312   4.040  1.2272  0.4702 -1.2985
16250SOL    HW255097   0.723   7.276   3.912  1.0559  0.1515 -1.1127
16251SOL     OW55098   7.081   5.929   7.954 -0.1688  0.3433  0.1183
16251SOL    HW155099   7.096   5.839   7.926 -0.9557 -0.3800  1.8701
16251SOL    HW255100   7.168   5.969   7.958  0.5289 -1.2519  2.1554
16252SOL     OW55101   5.768   0.061   4.679 -0.2725  0.2280  0.4641
16252SOL    HW155102   5.739  -0.007   4.619  0.0881 -1.4383  2.0850
16252SOL    HW255103   5.694   0.073   4.740 -0.3130  1.2778  0.2380
16253SOL     OW55104   6.880   2.527   5.360  0.3133  0.4508  0.1513
16253SOL    HW155105   6.853   2.474   5.286  1.0013  0.6274 -0.2316
16253SOL    HW255106   6.887   2.465   5.433  1.3000 -0.0282 -0.3388
16254SOL     OW55107   1.208   2.090   7.445 -0.4162  0.1258 -0.0810
16254SOL    HW155108   1.129   2.116   7.396 -1.6547 -2.6893  0.2006
16254SOL    HW255109   1.277   2.146   7.411 -2.2756  1.8150 -1.3033
16255SOL     OW55110   7.992   6.863   7.068  0.2355  0.5499  0.1513
16255SOL    HW155111   7.904   6.899   7.080 -0.2784 -0.3790 -0.7593
16255SOL    HW255112   8.011   6.877   6.976  0.5107 -0.4260  0.0529
16256SOL     OW55113   3.534   1.169   8.781 -0.3914  0.3836  0.0571
16256SOL    HW155114   3.552   1.077   8.761  0.2695  1.1575 -3.6815
16256SOL    HW255115   3.614   1.200   8.824 -0.4076 -0.6228  0.8466
16257SOL     OW55116   2.126   0.705   3.357 -0.4956  0.2646  0.0875
16257SOL    HW155117   2.115   0.699   3.451 -0.4427  0.5018  0.1101
16257SOL    HW255118   2.049   0.661   3.320 -0.3818 -0.0594  0.2409
16258SOL     OW55119   0.571   6.513   1.306  0.0560  0.0362  0.5199
16258SOL    HW155120   0.646   6.529   1.363  0.6710 -2.7681  0.6569
16258SOL    HW255121   0.525   6.597   1.302  2.1907  1.3573  1.8855
16259SOL     OW55122   4.627   5.626   5.675 -0.2791  0.4071  0.1526
16259SOL    HW155123   4.718   5.637   5.648 -0.5225 -0.9036 -1.4288
16259SOL    HW255124   4.630   5.626   5.770  1.4530  0.0042  0.1424
16260SOL     OW55125   5.112   1.132   2.862 -0.2661 -0.6414 -0.8572
16260SOL    HW155126   5.047   1.062   2.866  1.1642 -1.9596  0.8827
16260SOL    HW255127   5.196   1.087   2.860  0.6709  1.0170 -2.7975
16261SOL     OW55128   0.847   5.128   0.948 -0.0545  0.0661 -0.2691
16261SOL    HW155129   0.898   5.209   0.955  0.9267 -0.5500 -0.1458
16261SOL    HW255130   0.844   5.094   1.037  0.5644 -0.6382 -0.5093
16262SOL     OW55131   4.319   0.152   6.546  0.1307 -0.1988 -0.0474
16262SOL    HW155132   4.234   0.192   6.528 -0.6748 -1.5274  0.6089
16262SOL    HW255133   4.302   0.058   6.544  1.9188 -0.5601 -1.4483
16263SOL     OW55134   3.399   1.043   0.491 -0.8408 -0.3479  1.0161
16263SOL    HW155135   3.469   1.090   0.535 -1.2264  0.6891  0.5727
16263SOL    HW255136   3.341   1.015   0.561 -0.7450  0.0953  1.2773
16264SOL     OW55137   3.175   2.807   5.648  0.1550  0.3455  0.3432
16264SOL    HW155138   3.195   2.725   5.603  1.6561  0.4013  0.8505
16264SOL    HW255139   3.241   2.813   5.718  0.6251  2.3906 -0.2088
16265SOL     OW55140   0.663   5.225   2.445 -0.2703  0.2776  0.0786
16265SOL    HW155141   0.667   5.231   2.350 -0.4686 -1.9287 -0.1376
16265SOL    HW255142   0.573   5.198   2.463 -0.1277  0.3033  0.8517
16266SOL     OW55143   2.448   0.724   6.241 -0.2003 -0.6644  0.0430
16266SOL    HW155144   2.466   0.759   6.328 -2.4675 -0.2239  0.3843
16266SOL    HW255145   2.526   0.745   6.190  0.3078  0.9599  1.4161
16267SOL     OW55146   2.390   5.145   1.473 -0.0235 -0.0849  0.9483
16267SOL    HW155147   2.408   5.168   1.565  1.4857  0.2539  0.5977
16267SOL    HW255148   2.473   5.160   1.428  0.0950 -2.8662  0.0249
16268SOL     OW55149   7.668   2.572   4.130 -0.0492  0.5752  0.1257
16268SOL    HW155150   7.678   2.525   4.047  0.0554  0.4657  0.1992
16268SOL    HW255151   7.627   2.508   4.188 -1.0663  0.9694 -0.1306
16269SOL     OW55152   0.014   7.716   7.823 -0.1485 -0.1929 -0.1236
16269SOL    HW155153  -0.036   7.635   7.816 -1.9300  0.8101  0.4189
16269SOL    HW255154  -0.047   7.779   7.860  1.3461  1.2834 -0.0490
16270SOL     OW55155   0.967   6.095   1.373  0.0060  0.3002  0.4868
16270SOL    HW155156   0.975   6.146   1.453  0.4026  0.7132  0.1886
16270SOL    HW255157   1.045   6.118   1.322  0.8116 -1.4561  0.8330
16271SOL     OW55158   4.465   7.542   5.763  0.3911  0.4532  0.0325
16271SOL    HW155159   4.406   7.470   5.786  1.9320 -1.5376 -1.8442
16271SOL    HW255160   4.540   7.532   5.821 -0.0643  1.5634  0.8428
16272SOL     OW55161   6.065   7.558   8.897 -0.0236 -0.0814  0.3791
16272SOL    HW155162   6.075   7.649   8.927  0.2259 -0.2775  0.9058
16272SOL    HW255163   6.050   7.508   8.977 -0.7115 -0.4336  0.0334
16273SOL     OW55164   5.523   7.504   3.842 -0.2363  0.4338  0.4039
16273SOL    HW155165   5.570   7.549   3.772  0.2463  1.0760  1.1247
16273SOL    HW255166   5.577   7.519   3.920  0.2080 -1.8017  0.5904
16274SOL     OW55167   1.210   6.502   7.315  0.3249 -0.0579 -0.0172
16274SOL    HW155168   1.251   6.588   7.313  0.9454 -0.3544 -0.0880
16274SOL    HW255169   1.279   6.443   7.344 -0.4596 -0.3457  1.3422
16275SOL     OW55170   6.097   8.939   0.036 -0.2254 -0.1048  0.5738
16275SOL    HW155171   6.127   9.021   0.076 -1.9578  1.7114 -1.6004
16275SOL    HW255172   6.018   8.963  -0.012 -0.7440 -3.0640 -0.2583
16276SOL     OW55173   6.346   8.067   7.717  0.9105  0.0932  0.2607
16276SOL    HW155174   6.398   8.146   7.706 -0.5429  0.8541 -1.7877
16276SOL    HW255175   6.322   8.041   7.628 -2.0325 -0.2887  1.0523
16277SOL     OW55176   2.506   0.240   0.765 -0.3274  0.1430 -0.1685
16277SOL    HW155177   2.479   0.233   0.673  2.3383 -0.9584 -0.9638
16277SOL    HW255178   2.564   0.316   0.767  0.4192 -0.4315  0.3870
16278SOL     OW55179   9.112   6.498   1.834 -0.3063  0.0001 -0.2201
16278SOL    HW155180   9.081   6.521   1.921 -0.9413  1.1253 -0.7276
16278SOL    HW255181   9.203   6.529   1.832 -1.1024  2.5428 -0.8494
16279SOL     OW55182   5.084   4.968   2.354  0.4900  0.3081  0.2020
16279SOL    HW155183   5.121   4.889   2.314  0.2038 -0.5513  1.5497
16279SOL    HW255184   5.100   4.956   2.448 -1.0701  1.0466  0.5912
16280SOL     OW55185   0.987   6.798   0.826 -0.2001  0.1534 -0.4416
16280SOL    HW155186   1.005   6.795   0.732  1.1157 -0.5991 -0.1845
16280SOL    HW255187   0.988   6.707   0.854  0.5448  0.4337  0.4911
16281SOL     OW55188   2.416   5.255   3.274 -0.3580  0.4332 -0.0558
16281SOL    HW155189   2.436   5.240   3.366 -0.3026 -1.5931 -0.3585
16281SOL    HW255190   2.369   5.177   3.247 -2.0196  1.7899 -1.3083
16282SOL     OW55191   2.744   6.002   8.277 -0.3200 -0.1689  0.2615
16282SOL    HW155192   2.710   5.994   8.188 -0.3918 -2.0660  0.4254
16282SOL    HW255193   2.667   6.000   8.333 -0.1497 -3.3214  0.5642
16283SOL     OW55194   1.703   0.666   5.323 -0.3570 -0.6027  0.0668
16283SOL    HW155195   1.746   0.670   5.237 -1.3594  0.4020 -0.4227
16283SOL    HW255196   1.766   0.705   5.383 -0.4903  0.7142 -0.6112
16284SOL     OW55197   1.441   8.431   8.734 -0.0562  0.7568  0.3485
16284SOL    HW155198   1.396   8.504   8.777  1.5532  2.4647 -0.7090
16284SOL    HW255199   1.374   8.391   8.678 -0.9805  1.3879  0.9862
16285SOL     OW55200   4.006   3.801   7.576 -0.2827 -0.8581 -1.0713
16285SOL    HW155201   4.101   3.787   7.580  0.0158  1.0357  1.1848
16285SOL    HW255202   3.986   3.846   7.659 -3.0574 -0.6742 -1.7689
16286SOL     OW55203   5.798   4.174   4.609 -0.6478  0.0911 -0.4217
16286SOL    HW155204   5.865   4.211   4.552  0.8190  0.5474  1.4871
16286SOL    HW255205   5.809   4.079   4.600  1.0859  0.1410  0.7088
16287SOL     OW55206   1.348   3.756   8.454  0.2234 -0.2618 -0.2965
16287SOL    HW155207   1.325   3.691   8.520  2.3660 -0.6120  0.1825
16287SOL    HW255208   1.274   3.816   8.452 -1.0906 -1.7783  0.4288
16288SOL     OW55209   1.164   4.532   5.154  0.3452  0.5166  1.2043
16288SOL    HW155210   1.136   4.620   5.130 -1.7623 -0.3885  0.0750
16288SOL    HW255211   1.151   4.528   5.249 -0.8266  1.0166  1.0782
16289SOL     OW55212   0.269   7.889   0.072  0.3775 -0.4627  0.0535
16289SOL    HW155213   0.267   7.793   0.076 -1.4423 -0.4112  1.2274
16289SOL    HW255214   0.279   7.908  -0.022 -0.6876 -1.8073 -0.3656
16290SOL     OW55215   2.990   4.378   4.257 -0.2830  0.3618 -0.2389
16290SOL    HW155216   2.947   4.347   4.177  0.2263 -0.3842 -0.2294
16290SOL    HW255217   2.929   4.354   4.327 -0.4365  0.4505 -0.3402
16291SOL     OW55218   7.808   4.857   3.503  0.1258 -0.2671 -0.4048
16291SOL    HW155219   7.847   4.939   3.533  0.4722  0.1560 -1.9191
16291SOL    HW255220   7.797   4.804   3.582  0.6430  0.9296  0.4789
16292SOL     OW55221   1.109   8.258   7.033  0.2808  0.0517  0.0227
16292SOL    HW155222   1.062   8.175   7.031  0.8203 -0.2724 -2.5849
16292SOL    HW255223   1.201   8.233   7.039  0.3360  0.6237  2.6815
16293SOL     OW55224   5.884   7.227   3.214  0.2331 -0.0642 -0.3857
16293SOL    HW155225   5.944   7.269   3.274 -1.3708  0.7894  0.7066
16293SOL    HW255226   5.887   7.282   3.135  0.4001  0.3425 -0.0992
16294SOL     OW55227   1.764   8.151   6.972  0.5683  0.4969 -0.5284
16294SOL    HW155228   1.835   8.088   6.960  0.3056  0.0392  0.2508
16294SOL    HW255229   1.717   8.119   7.049  0.9182  2.1122  0.3786
16295SOL     OW55230   3.208   4.469   5.717 -0.5772 -0.4043  0.5269
16295SOL    HW155231   3.183   4.548   5.669  1.7101  0.0181 -0.0477
16295SOL    HW255232   3.201   4.494   5.809  2.0096  1.2058  0.3872
16296SOL     OW55233   4.401   6.502   4.027  0.3424 -0.1443 -0.2100
16296SOL    HW155234   4.492   6.523   4.004  1.0265 -1.1234  1.4293
16296SOL    HW255235   4.365   6.586   4.056  0.8589  0.1791 -0.4733
16297SOL     OW55236   5.727   7.021   8.540 -0.1461  0.0426  0.1142
16297SOL    HW155237   5.687   6.940   8.571  1.0542 -0.6338 -0.0665
16297SOL    HW255238   5.794   7.042   8.605  0.0995  0.4422 -0.2615
16298SOL     OW55239   8.416   5.387   4.013 -0.8333  0.1681  0.4014
16298SOL    HW155240   8.457   5.333   3.945 -0.7957  1.4583 -0.6234
16298SOL    HW255241   8.346   5.332   4.048  0.2107 -1.1458  0.4987
16299SOL     OW55242   6.331   6.699   5.408  1.0857 -0.1095  0.3326
16299SOL    HW155243   6.265   6.678   5.342  1.0879 -1.1546  0.6570
16299SOL    HW255244   6.414   6.668   5.370  1.5395  1.7866 -0.3659
16300SOL     OW55245   2.729   6.543   6.966  0.6036 -0.1379  0.2495
16300SOL    HW155246   2.647   6.548   6.917  0.1572 -0.5754  0.9521
16300SOL    HW255247   2.794   6.520   6.900  0.7805  3.3343 -0.9872
16301SOL     OW55248   4.384   8.557   5.443  0.7709 -0.0609 -0.0408
16301SOL    HW155249   4.454   8.620   5.425  1.0860 -0.0315  1.1872
16301SOL    HW255250   4.429   8.477   5.468  0.3623 -0.4755 -0.6000
16302SOL     OW55251   1.544   6.644   2.066  0.6740 -0.0328  0.1934
16302SOL    HW155252   1.529   6.737   2.050  0.3041 -0.0187  0.6095
16302SOL    HW255253   1.536   6.634   2.161 -1.9796 -0.9494 -0.0601
16303SOL     OW55254   8.574   1.890   2.369 -0.0735 -0.3400 -0.3376
16303SOL    HW155255   8.569   1.803   2.409  0.0218 -0.3174 -0.2773
16303SOL    HW255256   8.495   1.895   2.314 -0.4882 -0.1548  0.2721
16304SOL     OW55257   3.216   3.681   2.080 -0.4144 -0.2913  0.1783
16304SOL    HW155258   3.150   3.709   2.143 -0.4050 -0.0328  0.0740
16304SOL    HW255259   3.169   3.674   1.997 -0.3938 -0.4809  0.1831
16305SOL     OW55260   5.867   0.587   0.345 -0.2381  0.1887 -0.2581
16305SOL    HW155261   5.794   0.585   0.406 -0.1913  0.3561 -0.1965
16305SOL    HW255262   5.871   0.678   0.315  0.1015  0.2353 -0.0699
16306SOL     OW55263   2.988   9.200   4.436 -0.7113  0.1582 -0.2712
16306SOL    HW155264   2.962   9.203   4.528 -0.2372 -2.6650  0.0613
16306SOL    HW255265   2.906   9.186   4.388 -0.8056  0.2724 -0.1427
16307SOL     OW55266   1.647   7.454   2.844 -0.0279  0.1990 -0.0042
16307SOL    HW155267   1.627   7.525   2.905 -0.3604 -1.3728  1.8098
16307SOL    HW255268   1.589   7.469   2.770 -1.3497  0.8613  1.1212
16308SOL     OW55269   7.132   2.820   6.970 -0.2919  0.0857 -0.2907
16308SOL    HW155270   7.175   2.888   6.919 -1.5471  0.0830 -1.4152
16308SOL    HW255271   7.112   2.862   7.054  1.2480  0.2785  0.0049
16309SOL     OW55272   3.492   7.679   3.554  0.1671 -0.0786 -0.1432
16309SOL    HW155273   3.581   7.710   3.539  0.2750  0.1630  0.9512
16309SOL    HW255274   3.456   7.667   3.466  1.0183  0.5566 -0.5932
16310SOL     OW55275   1.174   8.967   3.895 -0.4493 -0.0263  0.6919
16310SOL    HW155276   1.139   9.052   3.921 -2.0973 -0.0586 -1.2054
16310SOL    HW255277   1.260   8.986   3.859 -0.6745  0.7945  0.5771
16311SOL     OW55278   2.928   3.717   0.817 -0.5115  0.2448 -0.4923
16311SOL    HW155279   3.013   3.760   0.811  0.4723 -0.9193  2.9132
16311SOL    HW255280   2.917   3.674   0.732  3.0095 -0.7030 -0.6194
16312SOL     OW55281   1.973   1.242   0.084 -0.0652  1.0084 -0.0852
16312SOL    HW155282   1.926   1.280   0.010  0.2982 -0.6013 -1.2039
16312SOL    HW255283   2.065   1.263   0.068  0.3224 -1.3719 -1.4807
16313SOL     OW55284   5.022   2.310   1.311  0.3965  0.7013  0.4176
16313SOL    HW155285   4.985   2.379   1.367 -0.1374 -0.5345  1.6608
16313SOL    HW255286   4.977   2.230   1.340  0.4450 -0.0598 -1.4989
16314SOL     OW55287   6.347   5.423   8.885  0.2246 -0.1521  0.1720
16314SOL    HW155288   6.364   5.335   8.917 -0.2603 -0.2635  0.1346
16314SOL    HW255289   6.277   5.456   8.941  0.9199  0.5013  0.6808
16315SOL     OW55290   7.291   9.056   6.658  0.1355  0.4943  0.1333
16315SOL    HW155291   7.237   8.985   6.622  0.7679  0.5519 -0.9457
16315SOL    HW255292   7.261   9.135   6.613  0.7507  0.6120 -0.0721
16316SOL     OW55293   0.650   7.206   0.178  0.2206  0.4945 -0.1492
16316SOL    HW155294   0.725   7.226   0.121 -0.2534  0.6795 -0.7254
16316SOL    HW255295   0.687   7.204   0.266  0.9704  0.2123 -0.4616
16317SOL     OW55296   9.164   1.926   6.166  0.5371 -0.7120 -0.1505
16317SOL    HW155297   9.198   1.881   6.089 -1.1808  0.1118 -1.4599
16317SOL    HW255298   9.148   2.016   6.137 -0.1494 -0.3801  1.1546
16318SOL     OW55299   1.545   1.946   1.196 -0.1160 -0.3769 -0.3113
16318SOL    HW155300   1.584   1.992   1.121 -2.8840 -0.7165 -2.0930
16318SOL    HW255301   1.553   2.008   1.268  3.7885 -0.5191 -0.3942
16319SOL     OW55302   2.012   8.839   5.687  0.0654 -0.2549 -0.2470
16319SOL    HW155303   2.077   8.896   5.646 -0.3094 -0.2300 -0.8205
16319SOL    HW255304   2.060   8.792   5.754  0.3384  0.9183  0.4121
16320SOL     OW55305   5.856   0.322   1.769 -0.0227  0.0093 -0.1379
16320SOL    HW155306   5.883   0.407   1.804 -2.0493  1.2925 -1.4678
16320SOL    HW255307   5.772   0.304   1.813  0.6740 -1.6543  0.5949
16321SOL     OW55308   4.190   5.321   3.428  0.2791  0.8175 -0.0570
16321SOL    HW155309   4.214   5.303   3.337  0.1689  1.3150 -0.1873
16321SOL    HW255310   4.095   5.313   3.429  0.2838  0.7777  0.0199
16322SOL     OW55311   8.270   5.563   4.913 -0.0761  0.1029  0.6272
16322SOL    HW155312   8.330   5.588   4.982 -1.3381 -0.8621  2.1528
16322SOL    HW255313   8.285   5.469   4.901 -0.9095 -0.0466  0.6762
16323SOL     OW55314   3.213   8.283   4.449 -0.3786 -0.3762 -0.2092
16323SOL    HW155315   3.264   8.313   4.374  3.4231 -3.3591  0.8482
16323SOL    HW255316   3.270   8.297   4.524 -2.9735  0.0533  1.8428
16324SOL     OW55317   4.584   7.080   3.938 -0.4338  0.1438 -0.1512
16324SOL    HW155318   4.645   7.043   4.002 -0.1479 -0.1407 -0.5794
16324SOL    HW255319   4.543   7.003   3.898  0.6385  0.2287 -1.5135
16325SOL     OW55320   3.948   7.390   6.678  0.3123  0.4836 -0.3843
16325SOL    HW155321   3.860   7.361   6.653  0.4544  0.7854 -1.2758
16325SOL    HW255322   3.964   7.468   6.625  1.0167  0.5910 -0.0313
16326SOL     OW55323   5.204   4.050   4.951  0.0886 -0.2579  0.0860
16326SOL    HW155324   5.112   4.058   4.977 -0.7624  2.3745 -3.0704
16326SOL    HW255325   5.211   3.960   4.917 -1.7811 -0.0246 -1.0341
16327SOL     OW55326   4.017   6.062   6.196 -0.2241 -0.4160  1.2572
16327SOL    HW155327   3.997   6.096   6.283  1.5462  1.3675  1.0362
16327SOL    HW255328   4.039   6.139   6.144  1.6135 -1.6518  0.0434
16328SOL     OW55329   6.849   4.907   8.659  0.2768 -0.2063 -0.4725
16328SOL    HW155330   6.761   4.934   8.632  0.0701 -0.5002 -0.1024
16328SOL    HW255331   6.906   4.936   8.588  0.1711  1.8641  0.2103
16329SOL     OW55332   5.455   3.226   2.074 -0.8759  0.1470 -0.1886
16329SOL    HW155333   5.457   3.295   2.141 -0.0550  0.7948 -0.8444
16329SOL    HW255334   5.539   3.181   2.085 -1.4574 -0.8520  0.3104
16330SOL     OW55335   3.135   9.237   2.657 -0.5959  0.0637 -0.9104
16330SOL    HW155336   3.214   9.202   2.617  0.1449 -1.0634  1.3717
16330SOL    HW255337   3.141   9.212   2.750 -3.4211  0.3001 -0.5594
16331SOL     OW55338   6.623   8.331   3.749  0.1114 -0.0748  1.2140
16331SOL    HW155339   6.628   8.370   3.662  0.2440  0.9054  1.6427
16331SOL    HW255340   6.672   8.250   3.742 -0.6224 -0.4553  0.1480
16332SOL     OW55341   3.865   6.827   8.204  0.6376 -0.0031  0.8506
16332SOL    HW155342   3.934   6.892   8.192  0.3874  0.8684  3.4990
16332SOL    HW255343   3.800   6.849   8.138  1.4943  1.0994  0.3274
16333SOL     OW55344   6.510   2.438   0.202 -0.6539 -0.3722 -0.4556
16333SOL    HW155345   6.581   2.377   0.226 -0.3763 -0.5876 -1.7556
16333SOL    HW255346   6.551   2.524   0.206 -0.7655 -0.3468  0.3597
16334SOL     OW55347   3.304   0.694   0.410 -0.2234 -0.0534  0.0496
16334SOL    HW155348   3.235   0.737   0.461 -0.9365 -0.8782 -0.1916
16334SOL    HW255349   3.280   0.710   0.318 -0.3669 -0.7382 -0.0413
16335SOL     OW55350   8.657   2.434   4.296 -0.3977 -0.2333 -0.0316
16335SOL    HW155351   8.685   2.352   4.256 -0.8897 -0.7699  0.6823
16335SOL    HW255352   8.631   2.409   4.385 -2.1926  0.3830 -0.3475
16336SOL     OW55353   7.472   6.783   4.837 -0.0001  0.2780  0.8097
16336SOL    HW155354   7.407   6.839   4.879  0.0883  1.0583 -0.0493
16336SOL    HW255355   7.421   6.711   4.800 -0.3511  0.7305  0.3991
16337SOL     OW55356   1.010   5.325   5.962 -0.2469  0.1426 -0.3652
16337SOL    HW155357   0.996   5.293   6.051 -0.4302 -0.6880 -0.6753
16337SOL    HW255358   1.082   5.387   5.969 -0.0827 -0.1197  0.3169
16338SOL     OW55359   7.849   6.310   7.903 -0.3959  0.0337  0.1149
16338SOL    HW155360   7.840   6.354   7.988  0.2085 -0.9008  0.6795
16338SOL    HW255361   7.779   6.348   7.849  0.2713  1.9012  0.4727
16339SOL     OW55362   8.822   0.873   6.734  0.4887 -0.3763  0.2768
16339SOL    HW155363   8.770   0.918   6.667 -0.2018 -0.8796  0.4692
16339SOL    HW255364   8.832   0.784   6.702  0.4323 -0.5346  0.6909
16340SOL     OW55365   3.727   4.638   9.201  0.7671 -0.0143  0.5991
16340SOL    HW155366   3.765   4.628   9.113  2.4167  1.8082  1.0408
16340SOL    HW255367   3.777   4.578   9.256 -0.4996 -1.4196  0.2959
16341SOL     OW55368   2.976   8.434   8.208  0.5161 -0.3117  0.3058
16341SOL    HW155369   3.029   8.354   8.216  1.4467  0.0962 -1.4253
16341SOL    HW255370   2.952   8.438   8.116 -2.1866 -0.2082  0.9260
16342SOL     OW55371   3.407   2.414   4.679  0.5977 -0.1316 -0.0817
16342SOL    HW155372   3.321   2.372   4.672  0.3966  0.0715  1.0180
16342SOL    HW255373   3.450   2.369   4.752  1.1396  0.2688 -0.1465
16343SOL     OW55374   5.364   2.652   7.350  0.4036 -0.2685 -0.3969
16343SOL    HW155375   5.320   2.594   7.412  1.0682 -0.6152 -0.2450
16343SOL    HW255376   5.306   2.728   7.344  0.3486 -0.2047  0.6908
16344SOL     OW55377   2.012   8.919   2.657 -0.2982 -0.2303  0.9058
16344SOL    HW155378   2.079   8.868   2.611  0.4520  0.8181  0.8055
16344SOL    HW255379   2.034   8.908   2.750  0.6925  0.9579  0.8447
16345SOL     OW55380   3.124   1.965   3.404 -0.8865  0.1473  0.0524
16345SOL    HW155381   3.069   2.040   3.427  0.8855  2.0285 -1.5053
16345SOL    HW255382   3.117   1.959   3.309  2.7030  1.4569 -0.4237
16346SOL     OW55383   9.115   4.865   8.741 -0.1055 -0.0997 -0.2628
16346SOL    HW155384   9.139   4.953   8.712  0.5931  0.2572  1.2881
16346SOL    HW255385   9.197   4.817   8.742 -0.3316 -0.4897 -0.1879
16347SOL     OW55386   1.543   8.815   3.500  0.1230 -0.1244 -0.4176
16347SOL    HW155387   1.488   8.856   3.434 -0.6559  0.0470  0.3341
16347SOL    HW255388   1.520   8.722   3.496  1.2575 -0.3858 -1.5092
16348SOL     OW55389   3.964   1.636   6.613 -0.0911  0.4317 -0.5843
16348SOL    HW155390   4.026   1.564   6.603 -0.1656  0.5005 -1.6453
16348SOL    HW255391   3.903   1.605   6.680  0.0097 -0.4174 -0.8648
16349SOL     OW55392   1.420   6.322   2.538  0.3341  0.1775  0.5907
16349SOL    HW155393   1.352   6.379   2.575  0.7149  0.3544  1.0314
16349SOL    HW255394   1.500   6.373   2.546  0.7717 -0.6187  1.4786
16350SOL     OW55395   0.421   6.760   0.149  0.6303 -0.0226  0.0277
16350SOL    HW155396   0.483   6.706   0.200  0.8034  2.4730  2.6805
16350SOL    HW255397   0.477   6.817   0.097  0.4660 -0.5691 -0.7672
16351SOL     OW55398   2.724   3.809   4.370  0.7443  0.0434 -0.3920
16351SOL    HW155399   2.668   3.792   4.294 -0.4761 -0.2562  0.5578
16351SOL    HW255400   2.778   3.884   4.343  0.5053 -0.2041 -1.6313
16352SOL     OW55401   5.831   3.352   7.162  0.4927 -0.0137  0.3667
16352SOL    HW155402   5.914   3.309   7.181  1.9808  2.1856 -0.7758
16352SOL    HW255403   5.819   3.414   7.233  1.2135  1.4978 -0.7758
16353SOL     OW55404   9.031   9.143   1.634 -0.4335 -0.4500  0.1192
16353SOL    HW155405   8.935   9.142   1.637 -0.4250  0.4761  1.3811
16353SOL    HW255406   9.058   9.157   1.724  0.9224 -1.4405 -0.1073
16354SOL     OW55407   5.116   2.110   0.738  0.2879  0.0304  0.2711
16354SOL    HW155408   5.188   2.050   0.719 -0.7075 -1.4406  0.9455
16354SOL    HW255409   5.101   2.101   0.832  0.6255  1.9722  0.5378
16355SOL     OW55410   7.669   5.227   3.783  0.1229 -0.2587  0.4864
16355SOL    HW155411   7.604   5.199   3.847 -0.5465 -1.0133 -0.5071
16355SOL    HW255412   7.753   5.207   3.824 -0.2628 -4.1224 -0.2295
16356SOL     OW55413   5.473   1.364   6.194 -0.0824  0.7628  0.5182
16356SOL    HW155414   5.387   1.332   6.222 -0.7104  0.6693 -1.3836
16356SOL    HW255415   5.530   1.287   6.197 -0.2406  0.6699  1.1278
16357SOL     OW55416   6.143   0.854   4.431 -0.1860 -0.1881 -0.3159
16357SOL    HW155417   6.147   0.923   4.364  1.1122 -1.3578 -1.5273
16357SOL    HW255418   6.078   0.792   4.397  0.2801 -0.6571 -0.3528
16358SOL     OW55419   3.312   5.732   7.815 -0.0650 -1.0486 -0.0498
16358SOL    HW155420   3.385   5.709   7.758  1.0324 -1.7534  1.5428
16358SOL    HW255421   3.234   5.708   7.765  0.5725  2.0458 -2.8448
16359SOL     OW55422   7.737   3.460   7.040  0.0267 -0.1496  0.6988
16359SOL    HW155423   7.798   3.455   7.114  1.5395 -0.8130 -0.5335
16359SOL    HW255424   7.761   3.542   6.995  0.0842 -0.4594  0.1554
16360SOL     OW55425   1.251   2.403   6.227  0.0252  0.3663 -0.2351
16360SOL    HW155426   1.332   2.410   6.279  0.5984 -1.1845 -0.8627
16360SOL    HW255427   1.279   2.425   6.138 -0.6716  1.6939 -0.1462
16361SOL     OW55428   6.487   4.905   4.417 -0.0251  0.0945  0.3167
16361SOL    HW155429   6.443   4.963   4.354  0.3609 -0.1835 -0.2130
16361SOL    HW255430   6.434   4.825   4.417 -1.5732  1.0305  2.3337
16362SOL     OW55431   0.820   3.502   4.012 -0.1246 -0.1205 -0.2042
16362SOL    HW155432   0.812   3.568   3.943  1.4813  0.0644 -0.2489
16362SOL    HW255433   0.806   3.418   3.966 -2.6946  0.1553 -0.0495
16363SOL     OW55434   5.534   5.430   4.619 -0.0693 -0.1974  0.2493
16363SOL    HW155435   5.519   5.339   4.594 -1.7614 -0.3171  1.5487
16363SOL    HW255436   5.461   5.478   4.579  0.4415  0.4908  0.1233
16364SOL     OW55437   9.050   6.485   5.546  0.5058 -0.5253  0.8748
16364SOL    HW155438   8.980   6.519   5.601  0.7247  2.5453 -0.5200
16364SOL    HW255439   9.006   6.451   5.468  0.4062 -1.7047  1.4298
16365SOL     OW55440   9.053   8.017   5.781  0.0884  0.5041  0.2574
16365SOL    HW155441   8.996   8.024   5.857  0.6552 -0.2092  0.7713
16365SOL    HW255442   9.137   8.053   5.811 -0.2198  2.0752 -0.6632
16366SOL     OW55443   2.856   8.797   1.814 -0.2359 -0.1422 -0.8075
16366SOL    HW155444   2.938   8.806   1.767  0.3582  0.9985  0.3874
16366SOL    HW255445   2.842   8.882   1.855 -1.1080 -0.8460  0.4300
16367SOL     OW55446   0.914   5.550   2.950  0.4679  0.4732  0.3445
16367SOL    HW155447   0.939   5.458   2.940  0.7927  0.4970  0.9419
16367SOL    HW255448   0.975   5.586   3.014  0.5822  1.2053 -0.1549
16368SOL     OW55449   3.190   6.976   7.495  0.0918 -0.6353 -0.7638
16368SOL    HW155450   3.212   6.883   7.508 -1.5753 -0.9960 -0.1775
16368SOL    HW255451   3.183   7.011   7.583 -1.7114 -0.6057 -0.8842
16369SOL     OW55452   2.819   5.630   8.181  0.0084 -0.1035 -0.1157
16369SOL    HW155453   2.726   5.639   8.197  0.5862  2.6002  2.4867
16369SOL    HW255454   2.842   5.704   8.125  0.7153 -0.4023 -0.2397
16370SOL     OW55455   0.909   0.515   7.838  0.1541  0.0439  0.3664
16370SOL    HW155456   0.944   0.588   7.889 -0.7099  0.0946  0.9161
16370SOL    HW255457   0.860   0.557   7.767 -1.2214  0.0476  1.2790
16371SOL     OW55458   3.766   1.272   0.547 -0.2040  0.6928  0.1180
16371SOL    HW155459   3.765   1.364   0.573 -2.4654  1.1195 -1.1707
16371SOL    HW255460   3.710   1.228   0.612 -0.1749  0.4818  0.0024
16372SOL     OW55461   4.273   3.987   5.329  0.0718 -0.2020  0.1872
16372SOL    HW155462   4.338   4.055   5.308 -0.9256  0.9083  0.5681
16372SOL    HW255463   4.323   3.919   5.374  0.6052  1.8247  2.9585
16373SOL     OW55464   3.227   7.116   7.731 -0.2062  0.3552  0.2145
16373SOL    HW155465   3.290   7.105   7.803  0.6432  3.1778  0.0065
16373SOL    HW255466   3.277   7.158   7.661 -2.1395  2.1229 -0.1871
16374SOL     OW55467   8.857   5.708   1.039 -0.4505 -0.2453  0.0451
16374SOL    HW155468   8.941   5.679   1.002 -1.1136 -0.8452 -1.0358
16374SOL    HW255469   8.843   5.651   1.115 -0.4602 -0.9801 -0.4951
16375SOL     OW55470   4.078   0.404   5.730 -0.2072 -0.3874  0.0513
16375SOL    HW155471   4.013   0.397   5.800  0.8291 -3.8608  0.8850
16375SOL    HW255472   4.154   0.443   5.773 -0.5950  0.4557 -0.0126
16376SOL     OW55473   3.042   4.486   5.204 -0.0063 -0.0543  0.1441
16376SOL    HW155474   3.127   4.520   5.232  0.0094  0.9798 -1.0610
16376SOL    HW255475   3.059   4.444   5.120 -0.6132 -0.1659  0.0676
16377SOL     OW55476   0.068   3.737   6.229  0.0541 -0.1096 -0.3322
16377SOL    HW155477   0.085   3.832   6.229  0.2766 -0.1430 -1.6437
16377SOL    HW255478  -0.020   3.729   6.265 -0.1763  0.6354 -0.7066
16378SOL     OW55479   2.218   6.493   5.434  0.2549 -0.6998  0.1381
16378SOL    HW155480   2.225   6.413   5.487  2.8849 -2.1564 -2.1554
16378SOL    HW255481   2.174   6.465   5.354  4.9045 -1.2112 -2.6003
16379SOL     OW55482   0.241   5.782   8.501  0.1368 -0.1534 -0.5303
16379SOL    HW155483   0.262   5.790   8.595  1.0144 -0.5870 -0.6757
16379SOL    HW255484   0.297   5.847   8.459  0.1116 -0.3035 -0.7972
16380SOL     OW55485   3.831   0.733   7.335  0.5865  0.0641  0.1515
16380SOL    HW155486   3.896   0.803   7.329  1.1758 -0.4711  0.2664
16380SOL    HW255487   3.840   0.699   7.424 -0.4435  0.5548  0.4563
16381SOL     OW55488   6.171   3.354   2.336  0.2473  0.8187 -0.2039
16381SOL    HW155489   6.223   3.273   2.342  0.2620  0.8570  0.2023
16381SOL    HW255490   6.214   3.404   2.267 -0.0301  0.2845 -0.7676
16382SOL     OW55491   2.872   8.493   8.870  0.0857  0.2603  0.2385
16382SOL    HW155492   2.916   8.472   8.952  0.5353  2.0829  0.4902
16382SOL    HW255493   2.782   8.514   8.896 -0.6571 -2.0807 -0.1244
16383SOL     OW55494   6.808   8.211   9.085  0.9425  0.0126 -0.5434
16383SOL    HW155495   6.787   8.157   9.009  0.6813 -0.8587  0.1347
16383SOL    HW255496   6.742   8.280   9.084  0.5929 -0.3226 -0.7894
16384SOL     OW55497   1.651   4.836   0.535  0.1338 -0.3900  0.2217
16384SOL    HW155498   1.691   4.887   0.606  0.7677 -0.1787 -0.2712
16384SOL    HW255499   1.599   4.770   0.579  0.6762 -0.3864  0.8909
16385SOL     OW55500   4.074   8.310   1.190  0.2963 -0.0817  0.2551
16385SOL    HW155501   4.035   8.313   1.278 -1.4695 -0.6206 -0.4760
16385SOL    HW255502   4.073   8.400   1.160  1.5681  0.2230  1.0258
16386SOL     OW55503   5.257   8.805   1.721  0.3793 -0.3977 -0.1221
16386SOL    HW155504   5.202   8.764   1.788  1.3451 -0.9439  0.3556
16386SOL    HW255505   5.208   8.883   1.694 -1.6147 -1.9270 -1.2069
16387SOL     OW55506   5.223   6.556   8.116 -0.2510  0.4545  0.0566
16387SOL    HW155507   5.184   6.588   8.035 -0.1490  0.5217  0.0336
16387SOL    HW255508   5.165   6.587   8.185  0.0693  1.0335  0.0657
16388SOL     OW55509   6.009   5.540   3.943  1.2491  0.2751  0.0846
16388SOL    HW155510   6.081   5.576   3.995  0.0613  0.2488  1.8480
16388SOL    HW255511   6.026   5.446   3.940  2.9072  0.5649 -2.2150
16389SOL     OW55512   0.234   6.937   1.805 -0.0654 -0.0366 -0.5493
16389SOL    HW155513   0.289   6.901   1.875  1.7074 -0.6763 -2.1970
16389SOL    HW255514   0.184   6.862   1.774 -0.9137  0.2660  0.0419
16390SOL     OW55515   7.892   8.439   6.158 -0.4630 -0.5262 -0.5964
16390SOL    HW155516   7.852   8.522   6.184 -0.1687 -1.0849  1.8302
16390SOL    HW255517   7.956   8.464   6.091  0.9817  1.5621  1.3970
16391SOL     OW55518   6.373   0.445   2.600  0.3372 -0.5295  0.2447
16391SOL    HW155519   6.391   0.477   2.511 -1.6522 -0.4907 -0.2067
16391SOL    HW255520   6.277   0.440   2.604  0.4373 -2.9874  1.5318
16392SOL     OW55521   8.064   5.638   8.394 -0.4643 -0.2529 -0.3331
16392SOL    HW155522   8.116   5.711   8.426 -2.2250  1.5299 -1.2911
16392SOL    HW255523   8.111   5.607   8.317  1.1763 -1.2930  1.0355
16393SOL     OW55524   4.305   1.085   5.995 -0.4554 -0.0711 -0.0648
16393SOL    HW155525   4.275   1.147   5.928  4.1447  0.0029 -2.4612
16393SOL    HW255526   4.401   1.089   5.990  0.1999 -1.8555  5.0263
16394SOL     OW55527   0.671   8.627   2.966  0.1900 -0.0843 -0.1148
16394SOL    HW155528   0.723   8.592   3.039 -0.4200 -1.1066 -0.1562
16394SOL    HW255529   0.709   8.586   2.888  0.6818  0.8194 -0.3772
16395SOL     OW55530   5.246   3.593   4.386 -0.8190 -0.4554  0.4718
16395SOL    HW155531   5.155   3.566   4.375 -1.2264  0.4247  1.5442
16395SOL    HW255532   5.295   3.510   4.392 -1.1110 -1.0177 -2.8207
16396SOL     OW55533   1.334   5.997   8.420 -0.2738  0.4312  0.1888
16396SOL    HW155534   1.350   6.072   8.477 -2.2031  1.1687 -0.1544
16396SOL    HW255535   1.309   6.036   8.336  0.3027 -0.6304 -0.5023
16397SOL     OW55536   7.331   4.363   8.252 -0.5096  0.8252  0.3966
16397SOL    HW155537   7.331   4.419   8.175  1.9196  0.6818  0.2200
16397SOL    HW255538   7.386   4.409   8.316 -0.4449 -0.2200  1.1293
16398SOL     OW55539   3.646   4.475   5.475 -0.3876  0.1428 -0.0250
16398SOL    HW155540   3.670   4.391   5.513  2.2959  0.5483 -0.6492
16398SOL    HW255541   3.603   4.522   5.547 -1.7476 -1.6241  0.3937
16399SOL     OW55542   6.388   1.617   3.577  0.1672  0.2403  0.5210
16399SOL    HW155543   6.468   1.571   3.552  0.8107  1.0323  1.1015
16399SOL    HW255544   6.320   1.578   3.522  1.4480  1.6920 -2.3118
16400SOL     OW55545   5.986   3.820   2.802 -0.3522 -0.1304 -0.4014
16400SOL    HW155546   6.053   3.888   2.792  1.4733 -1.8759 -0.6947
16400SOL    HW255547   5.956   3.830   2.892  0.4478  0.5727 -0.1952
16401SOL     OW55548   4.262   3.814   4.373  0.3306  0.5025  0.9926
16401SOL    HW155549   4.283   3.746   4.309 -0.8902  1.4729 -0.5092
16401SOL    HW255550   4.267   3.770   4.458  1.5205 -0.9425  0.2228
16402SOL     OW55551   2.560   1.033   3.913  0.2761  0.0097 -0.1057
16402SOL    HW155552   2.490   1.089   3.947  0.8412  0.8677 -0.3282
16402SOL    HW255553   2.564   1.053   3.820  0.5091 -0.3730 -0.1800
16403SOL     OW55554   7.005   1.460   6.879  0.3656 -0.0454  0.2872
16403SOL    HW155555   6.961   1.496   6.956  1.1160 -1.9132  1.6582
16403SOL    HW255556   7.098   1.476   6.894  0.4401  1.0420 -1.0774
16404SOL     OW55557   1.700   3.772   1.623  0.0088 -0.2348  0.0991
16404SOL    HW155558   1.722   3.698   1.567 -1.2878  0.1068 -0.9155
16404SOL    HW255559   1.715   3.740   1.712 -0.7415 -1.8152 -0.3051
16405SOL     OW55560   1.944   1.873   0.349  0.6396  0.0956  0.2476
16405SOL    HW155561   2.036   1.848   0.340  0.4163 -0.2662 -1.2444
16405SOL    HW255562   1.926   1.926   0.272 -1.2737 -2.5690 -1.2846
16406SOL     OW55563   2.813   2.716   7.513 -0.7259 -0.0981  0.0247
16406SOL    HW155564   2.738   2.715   7.454 -2.0974 -0.8671  1.6941
16406SOL    HW255565   2.781   2.675   7.594  1.4910 -0.4379  0.8082
16407SOL     OW55566   4.148   0.875   7.304  0.3967 -0.1033 -0.7013
16407SOL    HW155567   4.074   0.883   7.364  0.2924 -0.4748 -0.7801
16407SOL    HW255568   4.219   0.922   7.348  0.4421 -0.7298 -0.0817
16408SOL     OW55569   0.096   8.746   1.781 -0.0620  0.1860  0.3614
16408SOL    HW155570   0.109   8.710   1.869  0.7232  1.5364  0.8172
16408SOL    HW255571   0.178   8.790   1.761 -0.1980 -0.2006 -1.1163
16409SOL     OW55572   4.706   6.555   0.006 -0.0452 -0.2281  0.0526
16409SOL    HW155573   4.706   6.585   0.097 -0.6533 -0.7809  0.2409
16409SOL    HW255574   4.699   6.635  -0.046 -0.5704  0.0341  0.5208
16410SOL     OW55575   0.345   6.049   6.372 -0.5358 -0.4186 -0.4051
16410SOL    HW155576   0.372   5.958   6.356  0.6037 -0.0772 -0.4401
16410SOL    HW255577   0.264   6.040   6.423  0.0246 -1.4511  0.3493
16411SOL     OW55578   4.527   0.790   4.622 -0.0160  0.2494  0.6847
16411SOL    HW155579   4.590   0.718   4.626 -0.2319  0.0074 -0.0828
16411SOL    HW255580   4.487   0.782   4.536 -0.5727  0.8488  0.8779
16412SOL     OW55581   8.118   5.798   5.405  0.5630  0.0503  0.0681
16412SOL    HW155582   8.076   5.874   5.365  0.3095  0.2247  0.6672
16412SOL    HW255583   8.074   5.723   5.365  1.2503  0.1842 -1.0117
16413SOL     OW55584   6.914   8.664   2.541 -0.2990 -0.5702  0.2973
16413SOL    HW155585   6.930   8.625   2.627 -0.8792  0.8049  1.0576
16413SOL    HW255586   6.990   8.722   2.527 -1.7411  1.7219  1.4125
16414SOL     OW55587   3.020   3.155   4.970 -0.2082  0.0153 -0.0911
16414SOL    HW155588   3.073   3.163   4.891 -1.3663 -0.0760 -0.9118
16414SOL    HW255589   2.942   3.208   4.951 -0.7392 -0.4405  0.7860
16415SOL     OW55590   7.301   6.683   7.587 -0.1324  0.1157 -0.2768
16415SOL    HW155591   7.221   6.707   7.635  0.1984  1.4792 -0.3609
16415SOL    HW255592   7.371   6.693   7.651 -0.0885 -2.1224  0.1118
16416SOL     OW55593   2.491   3.240   5.067 -0.0766  0.2431  0.0984
16416SOL    HW155594   2.413   3.286   5.100  0.6988  1.0822  0.8239
16416SOL    HW255595   2.497   3.161   5.121 -0.3796  0.2184  0.0965
16417SOL     OW55596   1.169   0.445   9.145  0.8801 -0.0044 -0.9669
16417SOL    HW155597   1.137   0.384   9.212  1.8534  0.8774  0.3654
16417SOL    HW255598   1.092   0.491   9.114  0.5485  0.4592  0.4890
16418SOL     OW55599   4.035   5.293   0.112  0.3642 -0.6402 -0.1417
16418SOL    HW155600   4.097   5.222   0.126  0.2736 -0.6536  0.1991
16418SOL    HW255601   3.951   5.249   0.098  0.2004 -0.5856  0.6418
16419SOL     OW55602   4.050   2.077   7.143  0.0265  0.1546  0.2455
16419SOL    HW155603   4.135   2.034   7.150  0.5620  0.3529 -3.2547
16419SOL    HW255604   3.989   2.008   7.117  0.0385  0.7310 -1.3979
16420SOL     OW55605   8.143   6.819   2.967 -0.0695 -0.2188 -0.2673
16420SOL    HW155606   8.135   6.739   2.916  0.8219 -1.0173  0.7938
16420SOL    HW255607   8.097   6.885   2.915 -1.1726 -1.4907 -0.9784
16421SOL     OW55608   2.724   9.182   4.320 -0.3616 -0.2269 -0.1319
16421SOL    HW155609   2.662   9.175   4.248 -1.2347 -1.4395  0.7035
16421SOL    HW255610   2.672   9.166   4.399  0.4485  1.6095  0.8531
16422SOL     OW55611   2.058   0.391   3.213  0.2117  0.1626  0.3106
16422SOL    HW155612   1.991   0.453   3.185  1.3985  1.5550  0.4503
16422SOL    HW255613   2.086   0.348   3.132  1.2267  1.7236 -0.2099
16423SOL     OW55614   0.233   3.769   7.066 -0.0926 -0.3535 -0.4432
16423SOL    HW155615   0.321   3.753   7.100 -0.1194  0.4103  0.0054
16423SOL    HW255616   0.230   3.863   7.049 -0.4538 -0.5452 -1.5403
16424SOL     OW55617   3.670   2.952   3.631 -0.8715 -0.1816  0.1440
16424SOL    HW155618   3.644   2.947   3.723  0.5911  1.5617  0.7153
16424SOL    HW255619   3.748   2.896   3.625  0.4027  1.4524  0.5722
16425SOL     OW55620   3.248   2.596   8.594  0.4553 -0.5875  0.5225
16425SOL    HW155621   3.258   2.596   8.499  2.3753  0.1743  0.6738
16425SOL    HW255622   3.241   2.503   8.617 -1.0219 -0.7385 -0.4075
16426SOL     OW55623   6.025   5.251   5.349  0.1784 -0.1275  0.8461
16426SOL    HW155624   6.116   5.279   5.357 -0.5467  2.4214  0.9134
16426SOL    HW255625   5.980   5.295   5.421 -1.5464  0.8101 -0.7258
16427SOL     OW55626   6.500   8.386   1.090 -0.5500  0.2022 -0.3083
16427SOL    HW155627   6.437   8.314   1.088 -0.6904  0.2366  1.3832
16427SOL    HW255628   6.463   8.448   1.152  0.4700  0.8726 -0.3459
16428SOL     OW55629   2.443   8.300   8.282 -0.0168  0.1601  0.0084
16428SOL    HW155630   2.410   8.351   8.207  0.6114  0.1551 -0.2730
16428SOL    HW255631   2.536   8.289   8.264  0.0134 -0.3788  0.4874
16429SOL     OW55632   1.486   3.945   0.791  0.2793  0.1178  0.1257
16429SOL    HW155633   1.423   3.880   0.824  0.6598 -0.7292 -0.7528
16429SOL    HW255634   1.564   3.931   0.844  0.6344 -0.7271 -0.5827
16430SOL     OW55635   7.714   4.843   2.744  0.7041  0.4512 -0.6645
16430SOL    HW155636   7.735   4.772   2.805  0.1568  0.2788 -0.6733
16430SOL    HW255637   7.789   4.903   2.751  0.9176  0.1467 -0.2538
16431SOL     OW55638   4.858   6.287   6.556  0.6223  0.5520  0.0095
16431SOL    HW155639   4.931   6.349   6.559  1.3950 -0.3224 -0.5369
16431SOL    HW255640   4.884   6.217   6.615  1.1131 -0.7070 -1.6374
16432SOL     OW55641   0.187   1.930   0.976 -0.4143 -0.4031  0.2545
16432SOL    HW155642   0.262   1.871   0.991  0.4700  0.6435  0.0816
16432SOL    HW255643   0.172   1.926   0.882 -0.0226  0.0237  0.1699
16433SOL     OW55644   1.804   2.701   5.076  0.4709  0.1554 -0.0419
16433SOL    HW155645   1.742   2.690   5.148  0.4348 -0.9124 -0.2194
16433SOL    HW255646   1.763   2.656   5.002  1.3955 -0.4834 -0.1867
16434SOL     OW55647   1.070   7.273   9.102  0.1424 -0.1562  0.1224
16434SOL    HW155648   1.106   7.362   9.103  0.1753 -0.1323 -1.2189
16434SOL    HW255649   1.081   7.244   9.011 -2.0018 -0.6489 -0.0482
16435SOL     OW55650   5.751   1.506   7.333  0.1591 -0.2924 -0.1749
16435SOL    HW155651   5.844   1.523   7.343 -0.0008  1.0876 -0.7642
16435SOL    HW255652   5.715   1.588   7.300 -0.8092 -1.6122 -2.7017
16436SOL     OW55653   3.667   8.791   5.246 -0.1466  0.0107 -0.1634
16436SOL    HW155654   3.736   8.725   5.254  1.1585  1.4350  0.8078
16436SOL    HW255655   3.692   8.843   5.170  0.5130  1.2335  0.8565
16437SOL     OW55656   6.713   7.113   7.972  0.5508 -0.5283 -0.0886
16437SOL    HW155657   6.747   7.046   7.912 -1.4064  0.1015 -2.0256
16437SOL    HW255658   6.638   7.150   7.926  1.4852  2.9958  0.8945
16438SOL     OW55659   5.388   6.095   3.435 -0.4403 -0.2284 -0.2995
16438SOL    HW155660   5.480   6.121   3.445 -0.0882 -0.9439 -1.5154
16438SOL    HW255661   5.367   6.051   3.517 -0.0953  1.0629  0.5058
16439SOL     OW55662   3.837   4.343   7.043 -0.5532 -0.3228  0.2132
16439SOL    HW155663   3.802   4.269   7.093 -0.3652 -0.4662  0.1385
16439SOL    HW255664   3.762   4.379   6.996 -0.7808 -0.0320  0.7900
16440SOL     OW55665   4.264   7.501   5.546  0.4224  0.3005  0.4653
16440SOL    HW155666   4.211   7.457   5.613 -1.4357  2.4029  0.5129
16440SOL    HW255667   4.349   7.514   5.587 -0.1918  0.1437  1.8693
16441SOL     OW55668   7.391   8.453   9.158 -0.3803  0.1250  0.1221
16441SOL    HW155669   7.388   8.549   9.149 -1.8290 -0.0474 -1.8360
16441SOL    HW255670   7.300   8.427   9.169  0.1069 -0.9854  1.9101
16442SOL     OW55671   1.040   1.288   1.363  0.2532 -0.1469 -0.3003
16442SOL    HW155672   1.113   1.244   1.320 -0.5718 -1.2369 -0.6386
16442SOL    HW255673   1.057   1.278   1.457  1.0786  0.5621 -0.3614
16443SOL     OW55674   4.550   7.792   1.081  0.4686 -0.2590 -0.0158
16443SOL    HW155675   4.616   7.760   1.142  1.8100  2.1175 -0.1338
16443SOL    HW255676   4.599   7.820   1.004 -0.9018 -0.3805 -0.9871
16444SOL     OW55677   7.274   5.364   5.509  0.3630 -0.2348  0.3313
16444SOL    HW155678   7.287   5.306   5.434  0.5045 -0.7230  0.7296
16444SOL    HW255679   7.181   5.385   5.508  0.0890 -1.3959  0.8576
16445SOL     OW55680   2.156   6.916   8.775  0.0356 -0.4648 -0.0313
16445SOL    HW155681   2.062   6.930   8.790  0.1547  0.0777  0.2397
16445SOL    HW255682   2.160   6.885   8.684 -0.2410  1.8607 -0.9276
16446SOL     OW55683   8.888   0.405   7.470 -0.2365 -0.2322 -0.6215
16446SOL    HW155684   8.955   0.448   7.522 -0.1520  1.8185 -2.2590
16446SOL    HW255685   8.808   0.412   7.523  0.3875 -0.7651  0.4168
16447SOL     OW55686   1.354   3.796   7.571 -0.4682 -0.0675  0.2527
16447SOL    HW155687   1.383   3.869   7.626 -0.1386  0.0394 -0.0597
16447SOL    HW255688   1.285   3.754   7.622  0.2554 -0.3410  1.0190
16448SOL     OW55689   4.431   2.868   2.185 -0.1528  0.5417  0.0933
16448SOL    HW155690   4.459   2.889   2.096  0.2795 -1.1584 -0.2090
16448SOL    HW255691   4.387   2.783   2.177 -0.7725  0.7157  1.3936
16449SOL     OW55692   4.178   7.188   2.706  0.4455  0.1350  0.9071
16449SOL    HW155693   4.166   7.108   2.655 -2.5851  0.4929  0.9161
16449SOL    HW255694   4.177   7.259   2.641 -0.0320  0.3579  1.1498
16450SOL     OW55695   0.176   4.131   8.870  0.3634 -0.4856  0.3541
16450SOL    HW155696   0.247   4.088   8.821  1.4313  0.7839  0.7115
16450SOL    HW255697   0.169   4.080   8.951  1.3177 -0.2608  0.5945
16451SOL     OW55698   1.091   3.319   8.032  0.1854 -0.2071  0.2722
16451SOL    HW155699   1.013   3.264   8.025  0.4792 -0.5419 -0.4416
16451SOL    HW255700   1.065   3.390   8.091 -0.1829 -1.1291  1.2375
16452SOL     OW55701   1.328   2.463   4.015  0.4363 -0.0910 -0.3481
16452SOL    HW155702   1.377   2.496   4.090  0.0148  0.1250 -0.1694
16452SOL    HW255703   1.337   2.368   4.020  1.8962 -0.0178 -1.0289
16453SOL     OW55704   8.146   1.706   0.443  0.0780  0.1822 -0.0107
16453SOL    HW155705   8.102   1.754   0.513 -0.4606 -0.6420  0.2342
16453SOL    HW255706   8.182   1.629   0.486 -1.9451 -1.3725 -0.9116
16454SOL     OW55707   1.683   3.253   4.914  0.1462  0.7894  0.2947
16454SOL    HW155708   1.656   3.161   4.914 -0.8344  1.0647  0.4857
16454SOL    HW255709   1.687   3.276   4.821  1.5660  0.2437  0.1918
16455SOL     OW55710   0.800   7.774   7.091  0.2982  0.4082  0.2482
16455SOL    HW155711   0.771   7.725   7.014  0.5520 -0.7491  0.8507
16455SOL    HW255712   0.758   7.729   7.165  0.8288  0.8821  0.8547
16456SOL     OW55713   6.506   4.250   7.150 -0.4593 -0.2546  0.5652
16456SOL    HW155714   6.459   4.328   7.182 -1.0594  1.6379 -4.0873
16456SOL    HW255715   6.437   4.188   7.128 -0.6007  0.5615 -1.6066
16457SOL     OW55716   2.550   2.808   0.879  0.4622  0.7064  0.0683
16457SOL    HW155717   2.531   2.820   0.786  0.7629  0.4285 -0.0298
16457SOL    HW255718   2.614   2.737   0.882  0.1155  0.4043  0.5173
16458SOL     OW55719   0.350   8.230   4.981 -0.5411  0.3044  0.4118
16458SOL    HW155720   0.358   8.212   5.075  0.4243  0.8576  0.4532
16458SOL    HW255721   0.362   8.146   4.938 -1.8799 -0.1152  0.8010
16459SOL     OW55722   7.251   1.387   8.710 -0.0420  0.3177 -0.8049
16459SOL    HW155723   7.228   1.296   8.691  0.2508 -0.1841  1.0021
16459SOL    HW255724   7.299   1.417   8.633 -0.0213 -1.0993 -1.3717
16460SOL     OW55725   7.258   0.411   6.177 -0.3296 -0.2953 -0.0097
16460SOL    HW155726   7.314   0.340   6.145  2.3993  2.3167 -1.4709
16460SOL    HW255727   7.278   0.416   6.271  0.7157 -0.4146 -0.2170
16461SOL     OW55728   1.645   9.036   6.875 -0.2923 -0.3947  0.6560
16461SOL    HW155729   1.611   9.121   6.849  1.0120  0.2969  1.1544
16461SOL    HW255730   1.643   8.984   6.795 -1.4121 -0.0174  0.4222
16462SOL     OW55731   4.770   5.656   0.206 -0.0318  0.1644 -0.0876
16462SOL    HW155732   4.687   5.641   0.253  1.9034 -1.0054  3.3186
16462SOL    HW255733   4.813   5.726   0.255  1.7426 -0.4848 -0.6319
16463SOL     OW55734   7.843   1.997   2.521 -0.7285  0.8355  0.3188
16463SOL    HW155735   7.751   1.972   2.511 -0.3219 -0.7557  0.2084
16463SOL    HW255736   7.842   2.093   2.522 -2.6789  0.9127  3.2284
16464SOL     OW55737   8.856   5.759   4.387 -0.6013  0.5010  0.8037
16464SOL    HW155738   8.811   5.768   4.471  1.1625  1.6669  1.6774
16464SOL    HW255739   8.884   5.848   4.365 -0.3135  0.0833 -0.6112
16465SOL     OW55740   2.236   4.389   7.629  0.2619 -0.0001 -0.3007
16465SOL    HW155741   2.299   4.418   7.563  1.2061  1.4776  1.1600
16465SOL    HW255742   2.275   4.417   7.712 -0.6198 -2.2595  0.9444
16466SOL     OW55743   0.761   3.652   5.840 -0.6559  0.5338  0.3928
16466SOL    HW155744   0.705   3.726   5.863 -1.8126  0.0242 -0.6808
16466SOL    HW255745   0.849   3.688   5.840 -1.2049  1.9686 -0.2451
16467SOL     OW55746   0.042   8.051   1.494  0.2809  0.2275  0.2314
16467SOL    HW155747   0.034   8.058   1.399 -1.1521 -0.3290  0.2879
16467SOL    HW255748   0.131   8.079   1.513  0.2353  1.4031 -1.1667
16468SOL     OW55749   3.160   8.053   4.085 -0.3051  0.1907 -0.2492
16468SOL    HW155750   3.252   8.032   4.104  0.0420  1.5913 -0.1936
16468SOL    HW255751   3.110   7.986   4.130  0.7083 -1.1343 -1.0234
16469SOL     OW55752   7.859   0.774   2.439  0.1293  0.3620  0.1234
16469SOL    HW155753   7.898   0.704   2.492  0.7303 -1.2510 -2.3087
16469SOL    HW255754   7.768   0.778   2.469 -0.0762 -1.9056 -0.0607
16470SOL     OW55755   6.737   1.302   3.718 -0.1576  0.8740 -0.0441
16470SOL    HW155756   6.828   1.327   3.731 -0.5547  2.5235 -0.1988
16470SOL    HW255757   6.718   1.329   3.628 -0.9727  1.1826  0.2112
16471SOL     OW55758   4.749   3.249   5.531 -0.0836 -1.0349  0.3310
16471SOL    HW155759   4.664   3.260   5.574 -0.1632 -1.7564  0.3682
16471SOL    HW255760   4.783   3.338   5.522 -0.7000 -0.7671  0.6060
16472SOL     OW55761   7.640   1.952   0.781 -0.2012  0.2276  0.5430
16472SOL    HW155762   7.662   1.866   0.816 -0.8533 -0.0333  0.3385
16472SOL    HW255763   7.544   1.952   0.779 -0.1957  0.8364  0.2396
16473SOL     OW55764   5.168   0.103   0.656 -0.1480 -0.3952  0.4952
16473SOL    HW155765   5.093   0.161   0.668  0.9678  2.7377 -4.4155
16473SOL    HW255766   5.239   0.145   0.705 -0.3214  0.0218  0.3934
16474SOL     OW55767   3.637   3.640   5.954  0.2338  0.1363 -0.0955
16474SOL    HW155768   3.645   3.656   6.049 -0.7015  1.8650 -0.2619
16474SOL    HW255769   3.673   3.719   5.914  0.8327 -0.6758 -1.2176
16475SOL     OW55770   6.130   4.421   0.407 -0.5736 -0.4793  0.7027
16475SOL    HW155771   6.135   4.468   0.323  0.8161  0.0237  1.0352
16475SOL    HW255772   6.116   4.330   0.382  0.6684 -0.4715 -0.1418
16476SOL     OW55773   5.394   3.566   3.225  0.1228 -0.0943 -0.2230
16476SOL    HW155774   5.455   3.549   3.153  1.2008 -1.2578  0.9165
16476SOL    HW255775   5.434   3.639   3.273 -1.0461  1.2856 -1.2486
16477SOL     OW55776   1.867   6.530   2.150  0.7665  0.0013  0.0425
16477SOL    HW155777   1.819   6.485   2.081  0.9608 -0.3559  0.1378
16477SOL    HW255778   1.937   6.577   2.104 -0.6779  1.9597 -0.3054
16478SOL     OW55779   1.883   5.951   2.875  0.4867  0.5464 -0.9507
16478SOL    HW155780   1.902   5.858   2.863  0.2864  0.1704  1.2271
16478SOL    HW255781   1.789   5.959   2.860  0.3758  0.2515 -0.4303
16479SOL     OW55782   8.896   1.723   6.868 -0.5233  0.0951 -1.1868
16479SOL    HW155783   8.809   1.761   6.872 -0.3770  0.3589 -0.2839
16479SOL    HW255784   8.885   1.633   6.900 -0.5672 -0.0695 -1.6576
16480SOL     OW55785   6.356   0.413   1.919  0.3332 -0.0730 -0.4864
16480SOL    HW155786   6.359   0.435   1.826  1.1122 -0.1855 -0.4924
16480SOL    HW255787   6.263   0.404   1.938  0.2084 -2.2634 -1.7946
16481SOL     OW55788   1.520   2.397   6.316 -0.3988 -0.1929  1.0599
16481SOL    HW155789   1.575   2.475   6.315  0.3463 -0.6710 -0.6652
16481SOL    HW255790   1.564   2.337   6.376 -0.3272  0.2859  1.4874
16482SOL     OW55791   3.981   5.085   7.624  0.6088 -0.5161  0.0601
16482SOL    HW155792   3.911   5.065   7.685  2.3177 -2.8136  1.4246
16482SOL    HW255793   3.948   5.160   7.573 -2.5274 -1.1254  0.9848
16483SOL     OW55794   4.047   5.957   7.198 -0.8125  0.7062 -0.1460
16483SOL    HW155795   4.049   6.021   7.126  1.1973  0.5250 -0.3069
16483SOL    HW255796   4.064   6.009   7.276 -0.0759  0.5019 -0.1675
16484SOL     OW55797   0.721   6.778   0.674 -0.5885 -0.0888 -0.2892
16484SOL    HW155798   0.776   6.853   0.652 -1.0449  1.0266  1.9496
16484SOL    HW255799   0.631   6.809   0.658 -0.6949 -0.9268 -1.3636
16485SOL     OW55800   6.042   6.717   7.508 -0.0065 -0.6854 -0.2013
16485SOL    HW155801   6.119   6.664   7.529  0.5029  0.5305  1.1270
16485SOL    HW255802   5.968   6.658   7.523  0.5979 -1.4556 -0.1592
16486SOL     OW55803   5.848   2.012   7.791  0.0764 -0.2186  0.1215
16486SOL    HW155804   5.916   1.995   7.856  0.1587  0.6957  0.2900
16486SOL    HW255805   5.769   2.028   7.843 -0.5953 -2.4540 -0.0934
16487SOL     OW55806   5.538   4.574   4.677 -0.3882  0.6250  0.9652
16487SOL    HW155807   5.545   4.669   4.668  0.5244  0.5083  0.3958
16487SOL    HW255808   5.606   4.539   4.620 -1.2063 -0.3945  0.5869
16488SOL     OW55809   2.528   6.632   0.554 -0.0998  0.7494  0.4027
16488SOL    HW155810   2.444   6.660   0.518  0.7125  0.9617 -1.4632
16488SOL    HW255811   2.543   6.547   0.513  0.1077  0.1912  1.5897
16489SOL     OW55812   4.211   2.763   7.482 -0.3075  0.0834 -0.8638
16489SOL    HW155813   4.189   2.688   7.427 -0.5034 -0.0355 -0.6230
16489SOL    HW255814   4.278   2.810   7.433  0.8983 -1.0409 -0.3376
16490SOL     OW55815   3.162   0.556   1.900  0.1114  0.2781  0.6603
16490SOL    HW155816   3.209   0.483   1.941 -1.8391 -0.6690  1.3421
16490SOL    HW255817   3.074   0.551   1.936 -0.5509  1.9605 -0.5869
16491SOL     OW55818   2.988   0.431   0.718 -0.2625  0.2584  0.2364
16491SOL    HW155819   2.930   0.506   0.718 -1.4489 -0.5239 -2.7328
16491SOL    HW255820   3.071   0.465   0.685  0.0595  0.7284  1.4517
16492SOL     OW55821   0.910   5.127   6.880  0.0414  0.1904  0.4649
16492SOL    HW155822   0.924   5.205   6.933  0.8127 -0.1521  0.7834
16492SOL    HW255823   0.982   5.069   6.903 -1.2835 -1.2032  1.3128
16493SOL     OW55824   0.191   8.816   5.247  0.5075  0.5813  0.1465
16493SOL    HW155825   0.283   8.798   5.225  0.2130 -1.8885  0.6419
16493SOL    HW255826   0.192   8.833   5.341  0.5521  1.5419 -0.0165
16494SOL     OW55827   0.274   5.297   2.592 -0.0868 -0.2127 -0.0794
16494SOL    HW155828   0.212   5.262   2.657 -2.2909  1.7401 -0.9874
16494SOL    HW255829   0.230   5.373   2.555  2.0996  0.1494 -2.2124
16495SOL     OW55830   1.277   4.179   0.597  0.0287  0.2115 -0.0494
16495SOL    HW155831   1.192   4.147   0.566  0.4214 -0.7909 -0.1500
16495SOL    HW255832   1.257   4.257   0.647 -0.7352  1.4051 -2.0772
16496SOL     OW55833   5.892   5.358   7.032  0.0978 -0.4791  0.1642
16496SOL    HW155834   5.856   5.322   7.113 -0.6507 -1.1226 -0.4345
16496SOL    HW255835   5.815   5.386   6.982  0.4846 -0.9230 -0.6999
16497SOL     OW55836   3.779   0.347   1.868 -0.3247 -0.3346  0.2082
16497SOL    HW155837   3.826   0.372   1.789 -1.5178  1.1422 -0.0855
16497SOL    HW255838   3.775   0.251   1.865  2.9906 -0.5904  0.5053
16498SOL     OW55839   2.031   8.611   3.108  0.0753  0.3153  0.3298
16498SOL    HW155840   1.989   8.603   3.022  0.9711  0.7784 -0.1610
16498SOL    HW255841   2.076   8.696   3.105 -0.1700  0.4997  1.3892
16499SOL     OW55842   2.396   3.097   5.731  0.1628 -0.0799  0.2638
16499SOL    HW155843   2.363   3.027   5.674 -0.4844 -0.4587  1.0851
16499SOL    HW255844   2.485   3.114   5.699 -0.8724  1.1551 -2.1894
16500SOL     OW55845   7.211   5.684   7.165  0.0413  0.3633 -0.4772
16500SOL    HW155846   7.234   5.756   7.224  0.4519  0.2922 -0.5470
16500SOL    HW255847   7.165   5.621   7.221 -0.6438  0.8356 -0.4912
16501SOL     OW55848   6.416   8.795   7.785  0.0660  0.2618 -0.3028
16501SOL    HW155849   6.384   8.802   7.874  0.7425 -0.4444  0.0127
16501SOL    HW255850   6.446   8.884   7.763 -0.2189  0.4654  0.1212
16502SOL     OW55851   4.156   8.095   0.747  0.1354 -0.1940  0.0248
16502SOL    HW155852   4.152   8.055   0.660  1.2607 -0.3604  0.0321
16502SOL    HW255853   4.094   8.044   0.799 -0.2103 -0.3911 -0.5651
16503SOL     OW55854   8.116   9.195   8.752 -0.4459  0.3728 -0.1938
16503SOL    HW155855   8.124   9.271   8.694  0.1603  0.2846 -0.2309
16503SOL    HW255856   8.173   9.215   8.826  1.6411 -1.0732 -1.3170
16504SOL     OW55857   7.501   8.788   1.869  0.2403 -0.1023  0.0603
16504SOL    HW155858   7.413   8.758   1.890 -2.1584  3.6611 -3.2236
16504SOL    HW255859   7.522   8.851   1.937  1.3016 -2.1273  1.7495
16505SOL     OW55860   0.212   7.304   7.494 -0.6381  0.1142 -0.0519
16505SOL    HW155861   0.223   7.266   7.581 -2.6907 -1.6019 -0.4377
16505SOL    HW255862   0.282   7.264   7.442  0.0219  0.4200  0.5867
16506SOL     OW55863   6.217   0.898   0.338  0.3100  0.0592  0.0278
16506SOL    HW155864   6.146   0.948   0.378 -0.0578 -0.4273 -0.0039
16506SOL    HW255865   6.266   0.862   0.412 -0.2914 -0.7306  0.0643
16507SOL     OW55866   7.890   5.444   7.425  0.0422  0.3741  0.3281
16507SOL    HW155867   7.820   5.382   7.441  0.5318 -0.4838 -0.7573
16507SOL    HW255868   7.889   5.459   7.330  0.4633  1.3925  0.4604
16508SOL     OW55869   5.417   6.250   4.499  0.2726  0.2056  0.1695
16508SOL    HW155870   5.366   6.265   4.579  1.5662  0.4134  0.9773
16508SOL    HW255871   5.357   6.202   4.442 -0.7815  0.3140  1.1414
16509SOL     OW55872   4.364   3.219   0.778  0.1535  0.0999  0.7392
16509SOL    HW155873   4.332   3.258   0.697  0.1433  0.2329  0.8066
16509SOL    HW255874   4.439   3.166   0.752  1.5630  1.8961  0.9281
16510SOL     OW55875   5.893   0.536   2.158  0.2088 -0.5552 -0.6275
16510SOL    HW155876   5.802   0.564   2.170  0.7908  0.6502  1.4086
16510SOL    HW255877   5.913   0.557   2.067 -0.4771  2.6089 -0.1491
16511SOL     OW55878   7.548   8.364   8.440 -0.0485 -0.3104  0.8677
16511SOL    HW155879   7.602   8.286   8.428 -0.4862 -0.5454  0.3622
16511SOL    HW255880   7.610   8.435   8.456  0.6140 -0.0762 -2.1536
16512SOL     OW55881   3.138   1.000   6.167 -0.0615 -0.9472 -0.6232
16512SOL    HW155882   3.126   0.909   6.139  0.2781 -0.9932 -0.6208
16512SOL    HW255883   3.195   1.038   6.100  1.5029 -1.2953  0.4527
16513SOL     OW55884   4.087   3.013   6.139 -0.2795 -0.0784  0.0736
16513SOL    HW155885   4.080   3.019   6.234  0.6225 -1.6397  0.2764
16513SOL    HW255886   4.001   3.039   6.107 -1.1787 -1.2155  1.4274
16514SOL     OW55887   2.348   0.477   6.310 -0.1930 -0.2014 -0.5965
16514SOL    HW155888   2.442   0.460   6.303  0.1895  1.1384  0.6098
16514SOL    HW255889   2.338   0.566   6.276 -0.8852 -0.0316  0.0242
16515SOL     OW55890   9.048   0.175   1.999 -0.4763  0.3848  0.0466
16515SOL    HW155891   8.973   0.205   1.948 -0.8114  0.2088  0.4305
16515SOL    HW255892   9.123   0.221   1.961 -0.3002 -1.5430 -2.2434
16516SOL     OW55893   6.779   1.100   2.127 -0.0145  0.0167  0.7054
16516SOL    HW155894   6.792   1.186   2.167  1.0687 -0.4815  1.4630
16516SOL    HW255895   6.795   1.037   2.197 -1.6403 -0.8226  0.3891
16517SOL     OW55896   5.290   8.879   4.344  0.3530 -0.8414  0.6647
16517SOL    HW155897   5.345   8.801   4.343 -0.0500 -1.1350 -0.4741
16517SOL    HW255898   5.207   8.850   4.303  0.2478  0.1960  0.1114
16518SOL     OW55899   1.198   8.331   5.786 -0.3199 -0.0676 -0.5424
16518SOL    HW155900   1.242   8.249   5.808 -2.4427 -1.2267 -0.3940
16518SOL    HW255901   1.131   8.342   5.852 -0.9273  1.1292 -1.3035
16519SOL     OW55902   8.054   8.599   8.877 -0.4668 -0.5866 -0.1034
16519SOL    HW155903   8.106   8.565   8.804 -1.3819  0.2819 -1.2017
16519SOL    HW255904   8.107   8.580   8.955  0.8575 -0.9302 -1.0458
16520SOL     OW55905   9.188   4.782   4.028 -0.1365 -0.8498  0.2833
16520SOL    HW155906   9.186   4.795   3.933 -0.3937 -0.9547  0.2734
16520SOL    HW255907   9.273   4.740   4.044  1.6485  2.5137  0.5461
16521SOL     OW55908   1.115   2.704   4.636  0.3401 -0.3915 -0.1923
16521SOL    HW155909   1.032   2.679   4.677 -0.9207 -0.6360 -2.6543
16521SOL    HW255910   1.125   2.797   4.656 -0.1798 -0.5175  0.6980
16522SOL     OW55911   5.070   1.772   0.773 -0.2020 -0.0439  0.3628
16522SOL    HW155912   5.099   1.840   0.834 -0.0710 -1.3858  1.8887
16522SOL    HW255913   5.135   1.771   0.704  0.9057  0.0587  1.3714
16523SOL     OW55914   2.903   7.942   5.002  0.3042  0.4312  0.0570
16523SOL    HW155915   2.815   7.977   4.993  0.0563 -0.1269  0.3037
16523SOL    HW255916   2.952   8.011   5.047 -0.4429  0.0749  1.4734
16524SOL     OW55917   0.948   4.010   1.891  0.5420  0.3506 -0.1004
16524SOL    HW155918   0.978   3.962   1.814  1.2301 -1.2367  1.0977
16524SOL    HW255919   0.880   4.069   1.858  1.5313  0.4579 -2.0650
16525SOL     OW55920   3.595   8.298   2.017 -0.3043 -0.1538  0.4411
16525SOL    HW155921   3.667   8.336   1.965 -0.9095  2.4403  1.3464
16525SOL    HW255922   3.529   8.274   1.952  0.4494 -0.4773 -0.2301
16526SOL     OW55923   3.633   7.753   9.107 -0.4475 -0.2988  0.2339
16526SOL    HW155924   3.669   7.794   9.029 -1.3492  0.6076  0.2704
16526SOL    HW255925   3.689   7.677   9.123  1.2226  0.8638  0.1182
16527SOL     OW55926   5.789   5.473   0.471  0.2208  0.4182 -0.3553
16527SOL    HW155927   5.764   5.495   0.561 -0.9309  0.1656 -0.5937
16527SOL    HW255928   5.841   5.547   0.441 -2.3530  2.2549 -0.6479
16528SOL     OW55929   4.686   1.797   6.055 -0.0097 -1.0263 -0.1140
16528SOL    HW155930   4.635   1.855   6.113  1.3147  0.5733 -0.4609
16528SOL    HW255931   4.769   1.786   6.101  1.4564  1.0801 -2.0402
16529SOL     OW55932   1.337   0.102   5.189 -0.1466  0.2553 -0.1435
16529SOL    HW155933   1.329   0.018   5.235  0.1469  0.2995 -0.0111
16529SOL    HW255934   1.254   0.147   5.208  1.1844  1.6792  3.1682
16530SOL     OW55935   5.451   4.567   8.958  0.1057 -0.5891  0.7330
16530SOL    HW155936   5.415   4.478   8.953  0.6113 -0.7776  0.3873
16530SOL    HW255937   5.406   4.606   9.032 -0.9593 -0.7521  0.1901
16531SOL     OW55938   3.908   1.038   0.612 -0.3034 -0.2062 -0.0171
16531SOL    HW155939   3.876   1.107   0.555 -0.4922  1.0805  1.5904
16531SOL    HW255940   4.003   1.050   0.613 -0.1855 -0.9338 -0.8982
16532SOL     OW55941   1.917   1.650   6.254 -0.1571  0.3782 -0.4269
16532SOL    HW155942   1.987   1.715   6.256  0.1520  0.0792  1.7666
16532SOL    HW255943   1.864   1.672   6.177  0.4204  2.6799 -0.2216
16533SOL     OW55944   5.381   0.387   8.223 -0.4037  0.1230 -0.0811
16533SOL    HW155945   5.382   0.434   8.306 -1.9808  0.9965 -0.5037
16533SOL    HW255946   5.473   0.368   8.204 -0.0064 -0.0209  1.8006
16534SOL     OW55947   7.398   2.012   5.021 -0.6569  0.1605 -0.4967
16534SOL    HW155948   7.440   1.926   5.033  1.1183  0.6774 -2.3459
16534SOL    HW255949   7.337   1.999   4.948  1.2307  0.8904 -2.3002
16535SOL     OW55950   1.041   5.420   1.556 -0.0110 -0.4939 -0.5174
16535SOL    HW155951   1.069   5.413   1.465 -0.2966  1.1658 -0.7734
16535SOL    HW255952   0.947   5.402   1.554  0.1599 -1.4457 -0.3809
16536SOL     OW55953   5.088   3.147   4.623 -0.1489 -0.0589 -0.8132
16536SOL    HW155954   5.035   3.175   4.548 -1.2763 -0.6115 -0.2600
16536SOL    HW255955   5.050   3.062   4.648  0.5960 -0.1590  0.0093
16537SOL     OW55956   1.402   2.654   4.647  0.7286 -0.1638  0.1682
16537SOL    HW155957   1.312   2.687   4.642  0.6619 -0.2840  0.5910
16537SOL    HW255958   1.452   2.714   4.592  0.7965  1.3026  1.7576
16538SOL     OW55959   6.077   2.945   6.467 -0.0599 -0.1742  0.3468
16538SOL    HW155960   6.164   2.908   6.453 -0.3337 -0.2590 -1.3161
16538SOL    HW255961   6.052   2.914   6.554  1.1519 -1.0001  0.4300
16539SOL     OW55962   6.380   5.830   7.095  0.5386 -0.5809 -0.0355
16539SOL    HW155963   6.404   5.742   7.123  0.7269 -0.5820 -0.1954
16539SOL    HW255964   6.406   5.886   7.168  1.0482 -0.5807 -0.2073
16540SOL     OW55965   6.592   8.943   6.107 -0.0589 -0.5055 -0.1828
16540SOL    HW155966   6.545   9.026   6.097 -0.2722 -0.5949  0.0514
16540SOL    HW255967   6.593   8.928   6.202  0.4932 -0.4782 -0.1835
16541SOL     OW55968   2.896   5.282   7.015  0.3296 -0.0602  0.0206
16541SOL    HW155969   2.981   5.264   7.055  0.2127  0.6272  0.6002
16541SOL    HW255970   2.872   5.201   6.970  0.3763 -0.9297  1.5190
16542SOL     OW55971   2.223   0.821   8.127 -0.1871  0.3553 -0.2849
16542SOL    HW155972   2.143   0.834   8.076  0.4998  0.3168 -1.4208
16542SOL    HW255973   2.193   0.792   8.213 -1.3832  0.3266 -0.6958
16543SOL     OW55974   6.969   6.684   6.758 -0.1967  0.7223  0.1365
16543SOL    HW155975   6.945   6.777   6.758  0.3000  0.9148 -2.2625
16543SOL    HW255976   6.895   6.640   6.800 -1.1256  2.0550 -0.0406
16544SOL     OW55977   5.668   7.320   8.868  0.4358 -0.4917 -0.1838
16544SOL    HW155978   5.745   7.319   8.925 -1.5253 -0.9645  2.6523
16544SOL    HW255979   5.671   7.406   8.826  2.1414 -0.2744  0.2883
16545SOL     OW55980   6.115   7.612   7.185 -0.2093  0.4136  0.0803
16545SOL    HW155981   6.104   7.603   7.280 -1.1506  1.2257  0.0588
16545SOL    HW255982   6.208   7.592   7.170 -0.5829 -2.3021  0.8342
16546SOL     OW55983   5.475   6.935   1.232 -0.1593  0.2266 -0.4999
16546SOL    HW155984   5.489   6.843   1.254 -0.1074  0.5074  0.7639
16546SOL    HW255985   5.562   6.969   1.214  0.3339  0.8017  2.4499
16547SOL     OW55986   2.814   8.285   6.492 -0.3853 -0.1722 -0.0937
16547SOL    HW155987   2.840   8.361   6.440  0.0373  0.1887  0.6300
16547SOL    HW255988   2.733   8.254   6.450 -0.0126  0.0483 -1.0114
16548SOL     OW55989   0.157   6.294   3.913  0.4331 -0.3990 -0.0620
16548SOL    HW155990   0.163   6.329   4.002  2.0660 -3.3721  1.1379
16548SOL    HW255991   0.227   6.230   3.907 -0.1751 -0.9526 -3.2495
16549SOL     OW55992   3.115   7.262   3.842  0.7682  0.1410  0.1052
16549SOL    HW155993   3.156   7.290   3.760  0.7637 -0.2146 -0.0226
16549SOL    HW255994   3.036   7.315   3.848  2.1296  2.1565  1.2777
16550SOL     OW55995   3.957   5.390   4.981  0.0943 -0.0816 -0.2286
16550SOL    HW155996   3.908   5.323   5.028  1.0928 -1.8757 -1.6327
16550SOL    HW255997   4.000   5.441   5.051 -1.4735 -0.2246  0.8939
16551SOL     OW55998   8.923   1.838   6.260 -0.4462 -0.0092  0.6096
16551SOL    HW155999   8.888   1.923   6.235  0.6267  1.1733  2.7831
16551SOL    HW256000   9.012   1.838   6.226 -1.1485 -1.3004 -1.3846
16552SOL     OW56001   9.188   1.922   6.457  0.0046 -0.1245  0.2233
16552SOL    HW156002   9.102   1.958   6.480 -0.3181 -1.4821  1.2461
16552SOL    HW256003   9.179   1.896   6.365 -0.5104  0.2190  0.1694
16553SOL     OW56004   9.098   4.023   6.184 -0.0659  0.5392 -0.5901
16553SOL    HW156005   9.112   4.068   6.101  0.3595  1.6599  0.0625
16553SOL    HW256006   9.062   4.090   6.242  1.5520  0.3492  0.7163
16554SOL     OW56007   0.834   7.009   2.914  0.5160  0.2621 -0.3119
16554SOL    HW156008   0.810   7.029   2.823  0.5378  1.3051 -0.0995
16554SOL    HW256009   0.905   7.070   2.934  0.6671 -0.1227  0.3351
16555SOL     OW56010   5.069   6.047   7.489  0.0913 -0.0496  0.6519
16555SOL    HW156011   5.135   5.981   7.512  0.3246  0.6823  2.2236
16555SOL    HW256012   5.043   6.085   7.573  1.0075  2.8648 -0.2849
16556SOL     OW56013   5.216   3.592   8.001 -0.1559 -0.2493 -0.0623
16556SOL    HW156014   5.297   3.576   7.953 -0.2107 -2.6576  0.5129
16556SOL    HW256015   5.244   3.632   8.083  0.2657  0.5900 -0.6092
16557SOL     OW56016   6.098   2.118   6.647 -0.4229  0.3168 -0.1974
16557SOL    HW156017   6.028   2.095   6.709  0.0281 -1.3492 -0.2498
16557SOL    HW256018   6.110   2.038   6.595  0.2391  1.2019 -1.4393
16558SOL     OW56019   1.757   5.962   1.335  0.0184 -0.2973 -0.8272
16558SOL    HW156020   1.708   6.032   1.290 -3.7741 -1.7000  0.7439
16558SOL    HW256021   1.731   5.882   1.290 -0.1889 -1.2466  0.9192
16559SOL     OW56022   3.945   0.440   8.715  0.2197  0.2460  0.1165
16559SOL    HW156023   3.878   0.406   8.656  0.8976 -1.0255  0.0442
16559SOL    HW256024   3.955   0.532   8.689 -0.0405 -0.0874 -1.2564
16560SOL     OW56025   8.581   6.803   7.017 -0.1026  0.2859  0.4750
16560SOL    HW156026   8.648   6.735   7.025  0.3956  0.7989  0.7664
16560SOL    HW256027   8.625   6.883   7.047  0.1649  1.2829 -2.2496
16561SOL     OW56028   8.726   0.179   4.139  0.0703  0.5843  0.4823
16561SOL    HW156029   8.777   0.195   4.218  0.0698  1.5195  0.2991
16561SOL    HW256030   8.651   0.127   4.169  0.1919  0.7346  1.0511
16562SOL     OW56031   1.763   8.643   3.725 -0.8712 -0.0888 -0.3319
16562SOL    HW156032   1.745   8.731   3.758  0.6431  0.3698 -0.6371
16562SOL    HW256033   1.734   8.585   3.795 -1.4238  0.6724  0.0884
16563SOL     OW56034   2.058   1.362   4.270  0.1135 -0.1253  0.1548
16563SOL    HW156035   1.977   1.312   4.264 -0.0010  0.0873 -0.0984
16563SOL    HW256036   2.059   1.396   4.360  0.3836 -0.8952  0.4532
16564SOL     OW56037   5.434   0.209   2.758 -0.2328 -0.4630  0.5227
16564SOL    HW156038   5.437   0.278   2.692 -1.1433  0.5418  1.4862
16564SOL    HW256039   5.348   0.168   2.747  0.6346 -2.0718 -0.6181
16565SOL     OW56040   1.470   2.762   0.179  0.9042 -0.0850 -0.1171
16565SOL    HW156041   1.385   2.801   0.159  0.6631 -0.5516 -0.0257
16565SOL    HW256042   1.449   2.674   0.210  1.4326 -0.2751 -0.2883
16566SOL     OW56043   0.683   1.551   5.649 -0.2518  0.3125  0.1372
16566SOL    HW156044   0.728   1.507   5.577 -2.0778  0.5449 -1.2239
16566SOL    HW256045   0.663   1.482   5.712  0.6851 -0.0295  0.0677
16567SOL     OW56046   5.519   5.334   7.151  0.2941 -0.2511  0.0691
16567SOL    HW156047   5.588   5.285   7.195  1.1499  0.0740 -0.8603
16567SOL    HW256048   5.559   5.363   7.068 -0.3706  1.4897  0.3073
16568SOL     OW56049   0.685   8.481   8.820 -0.5520 -0.2872 -0.4786
16568SOL    HW156050   0.734   8.559   8.849 -0.7312 -0.3408 -0.0242
16568SOL    HW256051   0.702   8.476   8.726  1.5732 -1.1870 -0.0939
16569SOL     OW56052   5.766   8.480   6.412  1.0097  0.5590  0.2405
16569SOL    HW156053   5.756   8.430   6.493 -1.3640  1.6962  0.7441
16569SOL    HW256054   5.848   8.449   6.374 -0.4431 -4.0777  0.2560
16570SOL     OW56055   3.346   7.887   2.486 -0.3248 -0.1664  0.3221
16570SOL    HW156056   3.296   7.809   2.461 -1.5011  0.3722  0.9035
16570SOL    HW256057   3.314   7.909   2.573  0.2185  0.7832  0.2924
16571SOL     OW56058   8.691   1.305   3.498  0.1873  0.4692 -0.1384
16571SOL    HW156059   8.718   1.363   3.568  0.5236  1.4423 -1.0415
16571SOL    HW256060   8.741   1.225   3.511  1.1900  1.1102 -0.0027
16572SOL     OW56061   9.245   4.217   0.808  0.1172 -0.0463 -0.4076
16572SOL    HW156062   9.333   4.180   0.813  0.0807 -0.1425 -0.4709
16572SOL    HW256063   9.194   4.152   0.759 -0.0982 -0.1899  0.0020
16573SOL     OW56064   3.061   1.019   7.234  0.7203  0.4025  0.0254
16573SOL    HW156065   3.065   0.924   7.242  1.4471  0.2840 -1.4135
16573SOL    HW256066   2.967   1.040   7.239  0.5528 -0.3789  0.3074
16574SOL     OW56067   6.220   3.338   0.213  0.5022 -0.2592  0.0093
16574SOL    HW156068   6.249   3.423   0.246 -2.5200  0.1982  1.8551
16574SOL    HW256069   6.164   3.359   0.138 -0.3985 -0.5522  0.5790
16575SOL     OW56070   2.053   7.216   7.872 -0.0509  0.1086  0.5840
16575SOL    HW156071   2.028   7.199   7.781  1.2441 -1.2358  0.4385
16575SOL    HW256072   1.970   7.229   7.918 -0.8232 -0.8902 -0.4724
16576SOL     OW56073   0.918   8.753   0.668 -0.3500 -0.0339  0.0581
16576SOL    HW156074   0.859   8.827   0.683 -0.4736 -0.1262  0.0193
16576SOL    HW256075   1.005   8.789   0.686 -0.2090  0.6771 -1.8610
16577SOL     OW56076   6.280   8.378   5.895 -0.2912 -0.0303  0.2871
16577SOL    HW156077   6.280   8.324   5.974 -3.2885 -0.6867 -0.0059
16577SOL    HW256078   6.241   8.461   5.922 -0.2211  0.1798 -0.2421
16578SOL     OW56079   8.195   1.951   8.533  0.1776  0.5354  0.3938
16578SOL    HW156080   8.138   1.877   8.553  0.2963 -0.2935 -1.9561
16578SOL    HW256081   8.135   2.019   8.501  0.3318  0.1136 -0.8700
16579SOL     OW56082   6.872   3.515   4.781 -0.1932  0.6643 -0.1695
16579SOL    HW156083   6.910   3.528   4.694 -0.9939  2.1178 -0.3340
16579SOL    HW256084   6.943   3.536   4.841  0.5374 -0.8974 -0.4388
16580SOL     OW56085   4.194   2.836   1.826 -0.2466 -0.8617 -0.3152
16580SOL    HW156086   4.143   2.882   1.892  0.3408  1.1738 -1.2114
16580SOL    HW256087   4.191   2.892   1.749  0.2965 -2.4694 -1.5679
16581SOL     OW56088   1.864   4.296   7.452  0.4683 -0.0186  0.0170
16581SOL    HW156089   1.780   4.322   7.489 -0.6811 -0.9790 -1.7779
16581SOL    HW256090   1.891   4.221   7.504 -0.2469 -0.2681  0.0374
16582SOL     OW56091   6.602   5.199   4.231  0.1063 -0.0789  0.7529
16582SOL    HW156092   6.688   5.157   4.233  0.0247 -0.2079  1.6319
16582SOL    HW256093   6.590   5.235   4.319 -0.1631  1.1057  0.2527
16583SOL     OW56094   8.217   6.006   0.250  0.6844  0.1642 -0.2380
16583SOL    HW156095   8.170   5.990   0.168  1.6023  1.1662 -0.9851
16583SOL    HW256096   8.168   6.078   0.291 -0.3080 -0.9372  0.5496
16584SOL     OW56097   8.858   1.596   2.672  0.0097 -0.2972  0.0390
16584SOL    HW156098   8.860   1.551   2.587  0.6813  0.4382 -0.3504
16584SOL    HW256099   8.834   1.528   2.735  1.4850 -1.3337 -0.4498
16585SOL     OW56100   7.136   6.783   7.792 -0.1924 -0.8110 -0.1215
16585SOL    HW156101   7.049   6.750   7.813  0.4497 -0.8443  3.0458
16585SOL    HW256102   7.127   6.878   7.791  0.0124 -0.7171  2.1609
16586SOL     OW56103   6.819   2.133   1.619  0.6333 -0.1413  0.5348
16586SOL    HW156104   6.794   2.154   1.709 -0.9254 -0.7070  0.2659
16586SOL    HW256105   6.913   2.115   1.623  0.9421  1.4932  1.7327
16587SOL     OW56106   8.194   7.773   7.498 -0.3149  0.5130 -0.5745
16587SOL    HW156107   8.218   7.865   7.489  0.6906  0.6017  2.1901
16587SOL    HW256108   8.127   7.771   7.566 -0.6055 -0.7650 -0.8570
16588SOL     OW56109   0.411   3.668   7.748  0.0974 -0.1735  0.2182
16588SOL    HW156110   0.376   3.581   7.729  0.3647 -0.2264 -0.0503
16588SOL    HW256111   0.486   3.652   7.805  0.5937 -0.1831 -0.4208
16589SOL     OW56112   3.020   3.234   2.805  0.0030 -0.9168 -0.0665
16589SOL    HW156113   2.998   3.285   2.884  1.9912 -1.2331  0.7410
16589SOL    HW256114   3.104   3.269   2.777 -0.3186 -1.3435 -1.6366
16590SOL     OW56115   6.842   6.025   7.409  0.5880  0.3582 -0.4054
16590SOL    HW156116   6.916   5.967   7.430 -0.1327 -0.7181 -0.7407
16590SOL    HW256117   6.862   6.106   7.456  1.3391 -0.3548  0.5793
16591SOL     OW56118   0.696   6.148   0.095 -0.4138 -0.1754 -0.7179
16591SOL    HW156119   0.708   6.177   0.005 -0.3005 -0.3742 -0.7677
16591SOL    HW256120   0.642   6.216   0.136 -1.1288 -0.4750 -1.1462
16592SOL     OW56121   4.398   1.855   3.177 -0.3242 -0.5169  0.4057
16592SOL    HW156122   4.444   1.860   3.260  0.2575  0.8607  0.0248
16592SOL    HW256123   4.350   1.937   3.171  1.9161  0.7601 -1.8905
16593SOL     OW56124   6.789   6.057   0.650 -0.3115 -0.2510 -0.4564
16593SOL    HW156125   6.723   6.008   0.700  0.5615 -0.2264  0.7553
16593SOL    HW256126   6.740   6.095   0.577 -1.7369  0.0786  0.6176
16594SOL     OW56127   5.716   0.220   2.138  0.5505 -0.5631  0.8676
16594SOL    HW156128   5.695   0.145   2.082 -1.8587 -0.7589  1.9123
16594SOL    HW256129   5.633   0.266   2.150  1.5132  0.9742  2.1272
16595SOL     OW56130   7.640   5.241   8.862 -0.2284  0.5379 -0.2286
16595SOL    HW156131   7.573   5.269   8.799  0.3130  0.3015 -0.9288
16595SOL    HW256132   7.614   5.281   8.945 -0.6958  1.2504 -0.7106
16596SOL     OW56133   2.829   6.800   1.939  0.3274  0.0229  0.4172
16596SOL    HW156134   2.918   6.773   1.916  0.1326  1.3578 -2.3522
16596SOL    HW256135   2.773   6.746   1.883 -0.4047  1.3836 -0.1994
16597SOL     OW56136   5.835   5.857   8.168  0.1615 -0.0487  0.0790
16597SOL    HW156137   5.909   5.832   8.112 -0.4734 -1.6035 -0.1060
16597SOL    HW256138   5.862   5.940   8.206  0.8734  0.7849 -2.0540
16598SOL     OW56139   7.886   8.049   0.473 -0.0050  0.3895 -0.3263
16598SOL    HW156140   7.951   8.017   0.411 -0.9708 -1.3514 -0.5139
16598SOL    HW256141   7.937   8.076   0.550  1.0535  0.8688 -1.1846
16599SOL     OW56142   4.542   6.018   5.264 -0.2029 -0.5048  0.4655
16599SOL    HW156143   4.594   6.057   5.194 -2.2361  0.4490 -0.6001
16599SOL    HW256144   4.601   5.956   5.307  1.4209 -0.3184 -1.3945
16600SOL     OW56145   4.669   2.305   1.057 -0.1729 -0.4354 -0.2772
16600SOL    HW156146   4.760   2.320   1.032 -0.4380 -1.2501 -1.8555
16600SOL    HW256147   4.627   2.271   0.977 -1.8069 -0.2887  0.4736
16601SOL     OW56148   2.825   1.274   0.677  0.2647  0.4117  0.5355
16601SOL    HW156149   2.777   1.198   0.711  2.5043 -0.4833  1.9623
16601SOL    HW256150   2.801   1.278   0.585 -1.2105 -0.9806  0.8072
16602SOL     OW56151   5.933   5.112   8.451 -0.0189 -0.6174  0.0412
16602SOL    HW156152   5.910   5.159   8.531  2.7667  1.0349  0.0176
16602SOL    HW256153   5.879   5.152   8.383 -1.7255 -1.3855  0.8994
16603SOL     OW56154   1.939   7.180   6.839 -0.4380 -0.0712 -0.4856
16603SOL    HW156155   2.011   7.152   6.896 -0.6016 -0.1170 -0.2992
16603SOL    HW256156   1.971   7.166   6.750  1.0087  2.8340 -0.5289
16604SOL     OW56157   2.791   5.052   6.913  0.7414  0.0957  0.1974
16604SOL    HW156158   2.826   4.976   6.959  0.9027  0.5891  0.9187
16604SOL    HW256159   2.717   5.080   6.967 -0.5467 -0.6930 -1.0966
16605SOL     OW56160   6.505   3.993   1.392 -0.4881  0.4881  0.1669
16605SOL    HW156161   6.569   3.963   1.456  0.1837  1.0995 -0.2047
16605SOL    HW256162   6.430   3.935   1.404 -0.7913  1.2105  2.2171
16606SOL     OW56163   2.968   8.876   4.735 -0.0796 -0.0115  0.4540
16606SOL    HW156164   2.898   8.936   4.761  2.3949  2.7490  1.2605
16606SOL    HW256165   2.945   8.850   4.646 -2.7466 -0.2522  1.1465
16607SOL     OW56166   7.458   5.340   6.231 -0.2309 -0.2959  0.1632
16607SOL    HW156167   7.449   5.248   6.258  0.1574 -0.8476 -1.4387
16607SOL    HW256168   7.539   5.341   6.179 -1.7396  0.2915 -2.3349
16608SOL     OW56169   5.841   6.933   7.084  0.4091  0.3760 -0.2825
16608SOL    HW156170   5.893   6.889   7.152  0.7280  1.3510  0.1268
16608SOL    HW256171   5.819   7.018   7.123 -1.0699  0.1847 -0.6538
16609SOL     OW56172   8.880   6.434   3.066  0.6909 -0.1445 -0.4250
16609SOL    HW156173   8.830   6.505   3.104 -2.2511 -0.9255 -2.4825
16609SOL    HW256174   8.930   6.474   2.995  2.1038  0.4321  0.8497
16610SOL     OW56175   5.575   8.686   2.416 -0.3630 -0.8742  0.3562
16610SOL    HW156176   5.568   8.637   2.334 -1.4482 -0.0941 -0.0396
16610SOL    HW256177   5.667   8.713   2.420  0.1774 -2.5935  0.4104
16611SOL     OW56178   5.762   8.034   1.975  0.2856  0.1220  0.1341
16611SOL    HW156179   5.799   8.031   2.064  1.3269  0.7005 -0.2518
16611SOL    HW256180   5.727   8.123   1.967 -0.2112 -0.0746  0.1159
16612SOL     OW56181   1.868   1.814   7.292 -0.3988 -0.1779  0.8880
16612SOL    HW156182   1.932   1.880   7.264  0.5814 -0.7325  1.7454
16612SOL    HW256183   1.794   1.825   7.232  0.6341  0.2627 -0.3415
16613SOL     OW56184   8.385   4.302   3.227 -0.4490  0.1997 -0.0558
16613SOL    HW156185   8.373   4.389   3.264 -1.2985  0.2433 -0.4147
16613SOL    HW256186   8.351   4.242   3.293 -0.4149  0.1792 -0.0569
16614SOL     OW56187   7.637   8.377   7.231  0.0310  0.3572 -0.3836
16614SOL    HW156188   7.693   8.403   7.303  0.9816 -1.8468 -0.2464
16614SOL    HW256189   7.684   8.405   7.152 -0.7038  2.1912 -0.2120
16615SOL     OW56190   3.120   5.257   2.630  0.2721 -0.1344  0.0226
16615SOL    HW156191   3.038   5.257   2.680 -0.5390  0.0134 -1.2767
16615SOL    HW256192   3.140   5.164   2.617  0.9480 -0.2010  1.2992
16616SOL     OW56193   8.746   8.106   8.208  0.1207  0.6071 -0.0231
16616SOL    HW156194   8.687   8.107   8.283  0.2999 -1.0112  0.1856
16616SOL    HW256195   8.768   8.013   8.196  1.3735  1.0003 -1.0652
16617SOL     OW56196   7.934   6.074   5.035  0.0767 -0.2196  0.3931
16617SOL    HW156197   7.993   6.140   5.001  1.1272 -1.1804  0.2840
16617SOL    HW256198   7.902   6.109   5.118  1.0943  0.1610  0.6328
16618SOL     OW56199   5.837   1.692   6.810  0.3332 -0.5324  1.4601
16618SOL    HW156200   5.931   1.699   6.825  0.1107  0.3029  2.5912
16618SOL    HW256201   5.824   1.734   6.725  1.0419 -1.1742  1.0196
16619SOL     OW56202   3.700   0.923   1.522 -0.1483  0.3938  0.5090
16619SOL    HW156203   3.789   0.920   1.487 -0.7119 -2.3898 -0.9792
16619SOL    HW256204   3.698   0.855   1.589 -1.6122 -0.9079 -0.8009
16620SOL     OW56205   5.780   7.883   0.880  0.4217  0.1057  0.3410
16620SOL    HW156206   5.695   7.841   0.888 -0.0879  1.2875  1.5005
16620SOL    HW256207   5.839   7.813   0.851 -0.4879 -1.2800  1.6729
16621SOL     OW56208   6.879   6.473   2.106  0.1857 -0.0995  0.4005
16621SOL    HW156209   6.911   6.535   2.039 -0.3474  0.8737  1.0262
16621SOL    HW256210   6.797   6.511   2.136 -1.1062 -2.0584 -0.4720
16622SOL     OW56211   6.253   1.312   7.881  0.3656 -0.0268 -0.2247
16622SOL    HW156212   6.198   1.370   7.828  1.3242  0.6999 -0.4613
16622SOL    HW256213   6.215   1.316   7.969 -0.2006  0.1380 -0.4772
16623SOL     OW56214   0.524   8.473   3.366 -0.0725 -0.1006  0.4981
16623SOL    HW156215   0.533   8.385   3.402  1.1953 -0.0977  0.2372
16623SOL    HW256216   0.574   8.529   3.426 -0.2079  0.3206  0.2264
16624SOL     OW56217   8.409   2.008   8.942 -0.1519  0.1503  0.0134
16624SOL    HW156218   8.332   2.041   8.989 -0.4407 -0.7478  0.2014
16624SOL    HW256219   8.442   1.937   8.997  0.7069  0.4065 -0.1590
16625SOL     OW56220   5.027   8.389   7.109  0.0908 -0.0565  0.1353
16625SOL    HW156221   4.971   8.463   7.085  0.4045 -0.1369 -0.8720
16625SOL    HW256222   4.994   8.362   7.195 -0.4553  0.8311  0.2224
16626SOL     OW56223   6.922   6.312   0.292 -0.2968 -0.5991 -0.3386
16626SOL    HW156224   7.002   6.260   0.283 -1.9577 -3.5385  0.6204
16626SOL    HW256225   6.914   6.358   0.209  0.5562 -3.0655 -1.9049
16627SOL     OW56226   5.902   1.622   7.656 -0.1299  0.3204  0.1074
16627SOL    HW156227   5.866   1.672   7.582 -2.5507  0.8079  1.4834
16627SOL    HW256228   5.880   1.531   7.636 -2.3790  0.6049  0.9115
16628SOL     OW56229   2.515   3.585   2.642 -0.0968 -0.2756 -1.1088
16628SOL    HW156230   2.554   3.587   2.554 -0.5145  0.9594 -1.2825
16628SOL    HW256231   2.425   3.613   2.629  0.1200  0.9667 -0.1618
16629SOL     OW56232   5.704   5.180   0.637  0.2272  0.1044 -0.1752
16629SOL    HW156233   5.732   5.269   0.613  0.4475  0.1686  0.3164
16629SOL    HW256234   5.672   5.143   0.555  2.4407 -0.2373 -0.9497
16630SOL     OW56235   6.028   7.775   6.014  0.0864 -0.1893 -0.1933
16630SOL    HW156236   6.025   7.864   5.978 -0.3502 -0.2571 -0.3222
16630SOL    HW256237   6.079   7.725   5.950  0.4185 -0.0150 -0.0721
16631SOL     OW56238   8.743   6.767   6.236 -0.5962 -0.3037  0.1171
16631SOL    HW156239   8.768   6.680   6.266  2.7813  0.2954 -0.5654
16631SOL    HW256240   8.730   6.757   6.142 -1.3049 -0.2538  0.2031
16632SOL     OW56241   7.343   5.068   5.084  0.3489  0.4178  0.1484
16632SOL    HW156242   7.438   5.079   5.073  0.2820  0.5247 -0.3562
16632SOL    HW256243   7.310   5.059   4.995 -0.0111 -0.5285  0.3706
16633SOL     OW56244   0.602   9.115   6.591  0.6088  0.1700  0.3270
16633SOL    HW156245   0.533   9.093   6.653  1.6244  0.5251  1.6222
16633SOL    HW256246   0.581   9.204   6.562  0.3826  0.1797  0.5177
16634SOL     OW56247   7.268   2.019   8.704  0.7649 -0.4835 -0.6371
16634SOL    HW156248   7.253   1.931   8.669 -0.7487 -0.6570  0.3592
16634SOL    HW256249   7.345   2.050   8.657  1.3085 -2.3138 -1.0630
16635SOL     OW56250   3.159   6.240   2.304 -0.3026 -0.5727  0.0585
16635SOL    HW156251   3.103   6.170   2.269  0.1287 -0.6164 -0.5699
16635SOL    HW256252   3.239   6.196   2.332  1.0458 -0.1215 -2.6518
16636SOL     OW56253   7.811   3.625   8.978 -0.0832 -0.3174  0.2054
16636SOL    HW156254   7.808   3.597   9.069  1.1594  0.1856  0.4208
16636SOL    HW256255   7.832   3.545   8.929 -0.3747 -0.5120  0.3961
16637SOL     OW56256   5.655   4.016   2.954  0.5551  0.2636  0.0423
16637SOL    HW156257   5.654   4.090   2.893 -0.7309  0.6279  0.4850
16637SOL    HW256258   5.741   4.022   2.997  1.1502  0.4683 -1.1476
16638SOL     OW56259   3.565   5.124   0.605 -0.2675  0.2479  0.0432
16638SOL    HW156260   3.522   5.189   0.549 -0.7334  0.3550  0.5204
16638SOL    HW256261   3.574   5.047   0.550 -1.5950  0.0308  0.0987
16639SOL     OW56262   7.010   1.490   3.567 -0.1797 -0.0883  0.2538
16639SOL    HW156263   7.099   1.520   3.550  0.0963 -0.0033  1.7552
16639SOL    HW256264   6.958   1.529   3.497  0.7864  0.7354 -0.0266
16640SOL     OW56265   5.693   2.694   2.094 -0.2227  0.5016  0.6115
16640SOL    HW156266   5.691   2.735   2.007 -0.2219  0.3335  0.5310
16640SOL    HW256267   5.673   2.602   2.077  1.4150  0.1256  0.5974
16641SOL     OW56268   2.743   3.081   6.504  0.1882  0.1244  0.5307
16641SOL    HW156269   2.721   3.012   6.441 -1.8699  0.4481  0.8065
16641SOL    HW256270   2.815   3.129   6.464 -0.0974 -0.5934 -0.8926
16642SOL     OW56271   4.557   4.433   1.919  0.1807  0.0759 -0.5006
16642SOL    HW156272   4.593   4.441   2.008 -1.0456  1.2226 -0.0766
16642SOL    HW256273   4.601   4.502   1.869  0.1179  0.1065 -0.5143
16643SOL     OW56274   4.437   7.895   7.002  0.1124 -0.2658 -0.3131
16643SOL    HW156275   4.405   7.870   7.088  0.6579 -2.3082 -0.6583
16643SOL    HW256276   4.510   7.835   6.985 -1.5954 -1.7163 -3.2771
16644SOL     OW56277   7.630   7.951   6.173  0.4082 -0.2871 -0.4065
16644SOL    HW156278   7.714   7.990   6.196  0.0815 -0.0472  0.4121
16644SOL    HW256279   7.598   8.005   6.100  1.1005 -0.5832 -0.9433
16645SOL     OW56280   5.712   3.100   1.029  0.4469 -0.3766  0.7137
16645SOL    HW156281   5.671   3.175   1.071 -1.2316 -1.9313  2.0177
16645SOL    HW256282   5.701   3.116   0.935  0.8788  1.3682  0.9259
16646SOL     OW56283   2.179   7.827   4.427  0.3042  0.2449  0.3453
16646SOL    HW156284   2.163   7.766   4.498  0.5529 -0.0704  0.1374
16646SOL    HW256285   2.266   7.803   4.394  0.3170  0.5766  0.1294
16647SOL     OW56286   6.246   6.038   8.576  0.2718  0.0139  0.0870
16647SOL    HW156287   6.162   6.073   8.549  0.1625  0.4418  0.9529
16647SOL    HW256288   6.236   5.943   8.569  0.1505  0.0960 -1.0308
16648SOL     OW56289   6.879   6.972   7.083 -0.4199 -0.0159 -0.0527
16648SOL    HW156290   6.897   7.051   7.033  0.2302  0.0623  0.3018
16648SOL    HW256291   6.959   6.920   7.076 -0.8338 -0.6400 -0.2727
16649SOL     OW56292   4.363   4.672   0.069  0.0594  0.1381  0.2645
16649SOL    HW156293   4.364   4.634   0.157  0.9493  0.4440  0.3937
16649SOL    HW256294   4.391   4.762   0.081 -2.0836  0.8807 -0.0435
16650SOL     OW56295   3.026   7.019   3.779  0.0140 -0.2489  0.2424
16650SOL    HW156296   3.034   7.045   3.687  0.0707 -1.6340 -0.1691
16650SOL    HW256297   3.056   7.096   3.828 -1.7622  1.2018 -0.8083
16651SOL     OW56298   6.372   2.186   6.699  0.3044 -0.5203 -0.8077
16651SOL    HW156299   6.289   2.148   6.673  0.5904 -1.0794 -0.9180
16651SOL    HW256300   6.394   2.247   6.628 -0.4296  0.2999 -0.3532
16652SOL     OW56301   3.516   5.445   7.983 -0.5247 -0.0577  0.1413
16652SOL    HW156302   3.584   5.382   8.008 -0.4647 -0.3395 -0.7073
16652SOL    HW256303   3.467   5.461   8.064 -0.2615 -0.8543  0.4693
16653SOL     OW56304   3.340   5.116   3.064  0.2621  0.0479 -0.1852
16653SOL    HW156305   3.401   5.078   3.001  1.3600  1.1877  0.1548
16653SOL    HW256306   3.362   5.209   3.066 -1.2597  0.4331  0.2159
16654SOL     OW56307   2.708   3.589   3.204 -0.0701  0.0054  0.6599
16654SOL    HW156308   2.698   3.567   3.112  0.1768 -1.8539  1.0186
16654SOL    HW256309   2.619   3.589   3.239 -0.2663  1.7935  0.2387
16655SOL     OW56310   3.930   7.475   8.165  0.0441 -0.0390  0.0755
16655SOL    HW156311   3.899   7.553   8.118  0.3367 -1.1136 -2.0453
16655SOL    HW256312   3.862   7.409   8.149  0.4231 -0.5951  0.7210
16656SOL     OW56313   0.572   2.851   9.009  0.1053 -0.3953 -0.2003
16656SOL    HW156314   0.574   2.823   8.918  1.7655 -1.8679  0.2420
16656SOL    HW256315   0.505   2.797   9.050  0.5259 -0.9261 -0.2052
16657SOL     OW56316   6.193   0.136   1.539 -0.0740  0.5820  0.1080
16657SOL    HW156317   6.180   0.231   1.543  0.4489  0.6157  1.1823
16657SOL    HW256318   6.125   0.100   1.596 -1.0542  0.2132 -1.2401
16658SOL     OW56319   5.224   2.487   8.664  0.2679 -0.2533  1.0684
16658SOL    HW156320   5.268   2.422   8.719  0.5527  0.5723  1.8433
16658SOL    HW256321   5.180   2.544   8.726 -1.1250 -0.5036  0.3343
16659SOL     OW56322   2.017   1.216   4.850 -0.0904  0.2285  0.8298
16659SOL    HW156323   2.111   1.208   4.837  0.2714  1.2959  2.4187
16659SOL    HW256324   1.996   1.306   4.823 -0.5211  0.2184  1.1143
16660SOL     OW56325   9.161   6.103   2.295  0.2566  0.3049 -0.2058
16660SOL    HW156326   9.248   6.114   2.334  1.0501  1.4171 -2.1173
16660SOL    HW256327   9.113   6.182   2.321  0.6657  0.8743 -1.1376
16661SOL     OW56328   1.263   6.659   4.942  0.2270  0.5515  0.1496
16661SOL    HW156329   1.224   6.724   4.883  1.4192  1.4108  0.2733
16661SOL    HW256330   1.196   6.642   5.007 -1.0010 -0.1566 -1.2358
16662SOL     OW56331   1.334   4.844   2.324 -0.3345  0.5315  0.6921
16662SOL    HW156332   1.303   4.935   2.324  0.0711  0.7285  2.7022
16662SOL    HW256333   1.361   4.829   2.414 -0.1060 -1.5135  0.3205
16663SOL     OW56334   6.088   2.959   4.718  0.2335 -0.5093 -0.1131
16663SOL    HW156335   6.050   3.042   4.689  1.8145 -0.1055 -1.1552
16663SOL    HW256336   6.123   2.978   4.805 -0.7196 -0.5184  0.2838
16664SOL     OW56337   3.359   8.189   6.697  0.4259 -0.4223 -0.0553
16664SOL    HW156338   3.445   8.228   6.710  0.7663 -1.3779  0.6434
16664SOL    HW256339   3.322   8.182   6.785 -0.8281  0.9275 -0.4164
16665SOL     OW56340   8.673   0.117   3.427 -0.1946 -0.3017  0.2448
16665SOL    HW156341   8.733   0.157   3.490  0.8325 -2.6322  0.8586
16665SOL    HW256342   8.600   0.086   3.481 -1.1849  0.9845 -0.2796
16666SOL     OW56343   2.223   0.399   8.067 -0.2976  0.3407 -0.6628
16666SOL    HW156344   2.173   0.318   8.073  1.0990 -0.5671 -0.9051
16666SOL    HW256345   2.307   0.379   8.109 -0.2334  1.9306  0.0601
16667SOL     OW56346   5.436   1.053   0.400 -0.2939 -0.1397 -0.3437
16667SOL    HW156347   5.473   0.965   0.406 -0.7080 -0.3626 -1.0333
16667SOL    HW256348   5.501   1.103   0.350  0.8380  0.4621  1.5794
16668SOL     OW56349   7.801   3.722   4.230 -0.4210  0.2594 -0.1865
16668SOL    HW156350   7.824   3.632   4.204 -1.2865 -0.3516  1.1033
16668SOL    HW256351   7.830   3.729   4.321  1.2141  1.8846 -0.7637
16669SOL     OW56352   5.245   8.211   3.984 -0.5697 -0.5714  0.0082
16669SOL    HW156353   5.316   8.271   3.966 -0.3572 -0.5245  0.9659
16669SOL    HW256354   5.166   8.258   3.956 -0.3841  0.0514  0.5101
16670SOL     OW56355   4.821   7.611   0.110 -0.1273 -0.0897 -0.5723
16670SOL    HW156356   4.738   7.649   0.137  0.0029  0.0780 -0.3985
16670SOL    HW256357   4.829   7.530   0.160  1.1700  1.3216  1.7011
16671SOL     OW56358   3.502   2.322   1.068  0.1525 -0.3220  0.2227
16671SOL    HW156359   3.470   2.365   1.147  1.5951 -3.1098  2.4882
16671SOL    HW256360   3.595   2.342   1.065  0.4037 -1.4146  0.0968
16672SOL     OW56361   8.447   7.012   1.589 -0.0917 -0.5220 -0.0838
16672SOL    HW156362   8.429   6.919   1.575 -1.8962  0.0448 -2.0508
16672SOL    HW256363   8.410   7.030   1.676  1.1924 -1.8145  0.7657
16673SOL     OW56364   8.772   3.052   4.493  0.7430  0.2842  0.0023
16673SOL    HW156365   8.798   3.122   4.552 -0.7795  0.8380  0.0640
16673SOL    HW256366   8.829   2.979   4.515 -0.5045  0.0769  2.9998
16674SOL     OW56367   9.154   6.265   4.506 -0.0137 -0.2041 -0.1357
16674SOL    HW156368   9.235   6.315   4.506  0.0444 -0.1482 -2.9104
16674SOL    HW256369   9.182   6.173   4.513  0.3100 -0.1782 -0.9853
16675SOL     OW56370   3.070   8.587   1.455  0.0758  0.1650  0.3306
16675SOL    HW156371   3.080   8.665   1.401  2.3458 -0.8899 -0.9573
16675SOL    HW256372   3.085   8.617   1.544 -0.9712  1.4935  0.0782
16676SOL     OW56373   5.942   5.835   8.703  0.0712  0.3018 -0.1590
16676SOL    HW156374   5.882   5.823   8.630 -0.4921 -0.4543  0.4221
16676SOL    HW256375   6.028   5.811   8.668 -0.0096  1.0050 -0.8745
16677SOL     OW56376   0.059   6.833   2.944 -0.4657  0.0599  0.6735
16677SOL    HW156377   0.134   6.893   2.953 -0.4431  0.2735 -0.7658
16677SOL    HW256378  -0.003   6.880   2.888  0.6147 -2.1631 -2.6987
16678SOL     OW56379   8.352   0.087   7.836  0.8198 -0.7786  0.3423
16678SOL    HW156380   8.359   0.065   7.929  1.0163 -1.2103  0.2266
16678SOL    HW256381   8.435   0.129   7.815  1.1645 -1.5340  0.1402
16679SOL     OW56382   0.655   6.963   5.190 -0.3721  0.3639  0.0633
16679SOL    HW156383   0.712   7.014   5.248  0.1979  1.6169 -1.5303
16679SOL    HW256384   0.574   7.014   5.186 -0.3901  0.3091 -0.2636
16680SOL     OW56385   1.809   3.991   2.361  0.0329 -0.2722 -0.2356
16680SOL    HW156386   1.859   4.073   2.360 -0.3881  0.0406 -2.6577
16680SOL    HW256387   1.731   4.011   2.413  0.1584  0.7330 -0.4126
16681SOL     OW56388   4.386   3.315   4.251  0.3898 -0.0427  0.2700
16681SOL    HW156389   4.437   3.341   4.175  1.4478 -2.7698 -0.0834
16681SOL    HW256390   4.436   3.349   4.326  0.8203  0.3294 -0.1808
16682SOL     OW56391   4.209   8.933   5.705 -1.1053  0.2649  0.1801
16682SOL    HW156392   4.227   8.854   5.756  0.0719  0.0977 -0.4453
16682SOL    HW256393   4.235   9.005   5.762 -1.1335  0.1452  0.3443
16683SOL     OW56394   4.834   3.968   0.830 -0.0651 -0.2393 -0.4912
16683SOL    HW156395   4.817   3.884   0.789 -2.3084 -1.0831  1.9227
16683SOL    HW256396   4.750   4.014   0.827  0.5972  1.0636  0.0622
16684SOL     OW56397   5.464   9.063   6.640 -0.3021  0.3912  0.5346
16684SOL    HW156398   5.481   8.974   6.672  0.3745  0.3804  0.1603
16684SOL    HW256399   5.438   9.112   6.719  0.7308  0.2062  1.0123
16685SOL     OW56400   9.000   0.166   5.519 -0.1435 -0.1653  0.2176
16685SOL    HW156401   9.086   0.183   5.557 -0.3948 -0.9044  1.1605
16685SOL    HW256402   8.953   0.249   5.529  0.5875  0.3765 -0.7017
16686SOL     OW56403   3.332   6.900   8.222  0.7184 -0.1360  0.1169
16686SOL    HW156404   3.276   6.963   8.177  1.5839 -0.1703 -1.0459
16686SOL    HW256405   3.334   6.824   8.164  0.3066 -0.9464  1.1395
16687SOL     OW56406   6.831   3.119   8.197 -0.4175  0.1468  0.1941
16687SOL    HW156407   6.769   3.047   8.190  3.2460 -3.5460  2.0176
16687SOL    HW256408   6.858   3.136   8.107 -0.7756 -1.3361 -0.2200
16688SOL     OW56409   3.713   8.309   2.615 -0.1395 -0.4174  0.2687
16688SOL    HW156410   3.648   8.239   2.615 -0.8831  0.2591  0.5729
16688SOL    HW256411   3.732   8.323   2.522 -0.5823 -0.4845  0.1645
16689SOL     OW56412   7.881   4.380   8.413  0.1071 -0.1992 -0.0518
16689SOL    HW156413   7.826   4.420   8.481  0.2394 -0.0471 -0.0322
16689SOL    HW256414   7.819   4.349   8.347 -0.0797 -1.0968  0.5280
16690SOL     OW56415   4.532   4.916   8.268  0.7758 -0.1063  0.0988
16690SOL    HW156416   4.590   4.955   8.333  0.0148  1.9475 -0.3922
16690SOL    HW256417   4.563   4.951   8.184 -1.6313  1.7781 -0.1076
16691SOL     OW56418   1.845   4.120   8.168  0.5424  0.0534  0.0020
16691SOL    HW156419   1.831   4.085   8.256  0.1967  0.4798  0.1228
16691SOL    HW256420   1.877   4.209   8.183 -0.3194  0.4281 -0.2968
16692SOL     OW56421   5.169   6.800   3.792 -0.2958  0.5343 -0.2303
16692SOL    HW156422   5.254   6.792   3.835 -1.5208  1.9754  2.7367
16692SOL    HW256423   5.152   6.713   3.755  1.4181 -0.4505  1.1616
16693SOL     OW56424   8.617   8.051   4.934  0.1847  0.2293 -0.0551
16693SOL    HW156425   8.683   8.003   4.984 -0.3138 -2.2569 -1.5944
16693SOL    HW256426   8.541   8.053   4.992  1.3280  2.5778  1.4887
16694SOL     OW56427   5.428   6.389   3.118 -0.2017  0.5126 -0.6928
16694SOL    HW156428   5.340   6.425   3.135 -0.5404  0.5406 -2.3650
16694SOL    HW256429   5.434   6.384   3.023  1.2415 -0.4615 -0.5793
16695SOL     OW56430   5.794   2.202   1.439 -0.2809  0.2534  0.0781
16695SOL    HW156431   5.715   2.193   1.386  0.4867  0.5847 -1.1770
16695SOL    HW256432   5.821   2.294   1.427  1.3210 -0.3271 -1.0604
16696SOL     OW56433   2.456   7.416   0.828  0.7098 -0.3395 -0.1496
16696SOL    HW156434   2.472   7.382   0.740 -1.6458  0.8409 -1.1240
16696SOL    HW256435   2.486   7.346   0.887  0.4462 -2.0185 -1.9261
16697SOL     OW56436   5.680   8.631   8.072  0.0233 -0.4495 -0.3719
16697SOL    HW156437   5.593   8.667   8.058 -0.5111 -0.8455  1.6175
16697SOL    HW256438   5.695   8.573   7.997 -0.4251  1.3901 -1.9378
16698SOL     OW56439   4.216   6.121   7.402  0.3843  0.1494  0.3848
16698SOL    HW156440   4.284   6.098   7.465  1.4349  0.4420 -0.6169
16698SOL    HW256441   4.141   6.145   7.456  0.2256 -2.4902  1.5330
16699SOL     OW56442   7.939   3.755   2.759 -0.1124  0.3135 -0.2262
16699SOL    HW156443   7.851   3.744   2.797  0.6236  0.1670  1.4936
16699SOL    HW256444   7.955   3.672   2.714 -0.8072  0.3040 -0.4781
16700SOL     OW56445   4.100   6.513   7.935  0.1678  0.0666  0.1454
16700SOL    HW156446   4.140   6.594   7.966  0.2728  0.1432 -0.1808
16700SOL    HW256447   4.024   6.500   7.992  0.6167 -0.0498  0.7234
16701SOL     OW56448   5.534   4.153   4.508  0.4974 -0.1410  0.4956
16701SOL    HW156449   5.533   4.057   4.517  1.9921 -0.2521 -0.1232
16701SOL    HW256450   5.618   4.179   4.547  0.6221  0.7879 -0.3517
16702SOL     OW56451   8.495   0.484   4.660 -0.1674 -0.5133 -0.2659
16702SOL    HW156452   8.576   0.495   4.609  0.2317  0.6300  0.5877
16702SOL    HW256453   8.492   0.560   4.718 -0.3885 -1.9521  1.7253
16703SOL     OW56454   6.205   8.158   1.554 -0.0247 -0.4371 -0.0349
16703SOL    HW156455   6.134   8.194   1.608  1.2632  1.3438  0.5587
16703SOL    HW256456   6.161   8.097   1.495 -2.1298  0.9249 -0.0020
16704SOL     OW56457   6.924   5.010   4.653  0.1077 -0.3964  0.1784
16704SOL    HW156458   6.939   5.094   4.610  0.1437 -0.1998  0.5734
16704SOL    HW256459   6.852   4.970   4.603 -0.0551 -0.0376  0.1264
16705SOL     OW56460   0.475   2.625   4.972 -0.3842  0.7992  0.2461
16705SOL    HW156461   0.520   2.654   5.052  0.5598 -1.1242  0.4691
16705SOL    HW256462   0.444   2.706   4.932 -1.5746  1.7986  2.9276
16706SOL     OW56463   1.587   4.090   6.271 -0.1131  0.2391  0.3843
16706SOL    HW156464   1.552   4.004   6.246  1.8778 -0.3895 -0.4548
16706SOL    HW256465   1.546   4.152   6.211 -0.6918 -0.2908  0.2236
16707SOL     OW56466   6.185   0.902   7.943  0.1345 -0.2562  0.4413
16707SOL    HW156467   6.234   0.946   8.012  1.5926  0.1359 -0.7848
16707SOL    HW256468   6.158   0.819   7.982  1.6048 -0.3919  1.2382
16708SOL     OW56469   7.685   8.743   5.380 -0.1436 -0.0439 -0.0680
16708SOL    HW156470   7.685   8.787   5.296 -0.9692  2.9833  1.3888
16708SOL    HW256471   7.770   8.764   5.419 -0.6342  0.5031  0.7402
16709SOL     OW56472   6.374   4.120   3.550  0.8575  0.0572 -0.3378
16709SOL    HW156473   6.369   4.081   3.638 -0.8814  0.4828 -0.1987
16709SOL    HW256474   6.345   4.051   3.491  1.3810 -0.0218 -0.5013
16710SOL     OW56475   7.730   1.025   5.702 -0.6037  0.2265 -0.1772
16710SOL    HW156476   7.794   1.020   5.631  0.0391  0.3412  0.3829
16710SOL    HW256477   7.654   1.067   5.663  0.3218  1.7606 -0.4094
16711SOL     OW56478   1.423   5.823   1.120 -0.8058 -0.4686  0.6079
16711SOL    HW156479   1.450   5.807   1.029  1.3564 -1.2355  1.3244
16711SOL    HW256480   1.437   5.917   1.133  2.6761 -0.9441  1.1972
16712SOL     OW56481   3.663   8.030   3.368  0.4329 -0.3120  0.3683
16712SOL    HW156482   3.710   8.071   3.294 -2.1108 -0.5796 -1.5254
16712SOL    HW256483   3.696   7.940   3.370  0.3463 -0.3815 -0.6566
16713SOL     OW56484   9.071   9.185   8.379  0.5807 -0.0279 -0.6666
16713SOL    HW156485   9.005   9.131   8.423  1.7933 -1.8327 -0.9353
16713SOL    HW256486   9.101   9.246   8.446 -0.0273 -0.4444 -0.0035
16714SOL     OW56487   3.421   0.048   7.806  0.1724 -0.6888  0.0296
16714SOL    HW156488   3.402  -0.028   7.860  0.9344 -0.8725  0.0451
16714SOL    HW256489   3.384   0.122   7.854 -0.9838 -1.0890 -0.2081
16715SOL     OW56490   0.670   8.932   2.918 -0.2350  0.1534 -0.5504
16715SOL    HW156491   0.711   8.875   2.982 -2.4566  0.8261  1.6136
16715SOL    HW256492   0.709   8.906   2.834  1.7063 -1.7542  0.8402
16716SOL     OW56493   6.874   4.756   1.056  0.0050  0.2358 -0.1656
16716SOL    HW156494   6.789   4.711   1.056  0.4646 -0.7287  1.4525
16716SOL    HW256495   6.938   4.686   1.072  0.9138  1.2031  0.5447
16717SOL     OW56496   2.018   4.371   8.601  0.1290 -0.1829  0.4396
16717SOL    HW156497   2.090   4.341   8.656  0.4430  0.4522  0.3779
16717SOL    HW256498   2.047   4.454   8.565 -0.4476 -0.1427  0.0397
16718SOL     OW56499   3.081   6.806   1.755 -0.2149  0.4927 -0.5297
16718SOL    HW156500   3.136   6.883   1.767 -0.6677  1.0430 -1.7906
16718SOL    HW256501   3.101   6.776   1.666  1.8463 -2.3999  0.7386
16719SOL     OW56502   9.163   2.325   7.104  0.3913  0.2837 -0.1215
16719SOL    HW156503   9.105   2.373   7.045 -1.3767  0.0985  1.3619
16719SOL    HW256504   9.157   2.234   7.076 -0.0554  0.2653  0.0269
16720SOL     OW56505   7.264   5.101   0.172 -0.2242  0.0692 -0.3342
16720SOL    HW156506   7.188   5.077   0.119  1.0779 -1.2297 -1.7213
16720SOL    HW256507   7.332   5.125   0.108  0.6267  0.9789  0.8494
16721SOL     OW56508   0.551   4.231   0.694 -0.3775  0.1606  0.4466
16721SOL    HW156509   0.579   4.141   0.682 -1.6026 -0.3799  1.4694
16721SOL    HW256510   0.612   4.282   0.640 -0.6600 -1.3965 -1.4711
16722SOL     OW56511   0.599   2.565   3.043 -0.3439 -0.2856  0.8195
16722SOL    HW156512   0.620   2.478   3.077 -0.2202  0.0713  1.6811
16722SOL    HW256513   0.540   2.603   3.108 -2.4502 -0.6452 -0.7358
16723SOL     OW56514   4.598   5.735   1.844 -0.2108  0.0570 -0.3209
16723SOL    HW156515   4.588   5.639   1.848 -0.4289  0.1180  1.3676
16723SOL    HW256516   4.687   5.751   1.875 -0.1731  0.4053 -0.6143
16724SOL     OW56517   1.065   0.824   2.530 -0.4544 -0.2969 -0.2674
16724SOL    HW156518   1.111   0.740   2.525 -1.0452 -0.6180 -0.3748
16724SOL    HW256519   1.117   0.883   2.476 -0.3443 -0.7355 -0.6485
16725SOL     OW56520   1.131   7.735   7.802 -0.4777  0.0594 -0.3796
16725SOL    HW156521   1.198   7.780   7.750 -0.3092 -0.5610 -0.7009
16725SOL    HW256522   1.076   7.690   7.738 -1.0070  0.2901 -0.0942
16726SOL     OW56523   7.683   3.254   2.120 -0.0615 -0.4927 -0.2553
16726SOL    HW156524   7.728   3.305   2.187  0.4103 -2.4543  1.0126
16726SOL    HW256525   7.742   3.179   2.104 -2.2139 -2.4545  0.4791
16727SOL     OW56526   4.692   3.168   0.852  0.0200  0.4851  0.8159
16727SOL    HW156527   4.654   3.231   0.791  0.0108  0.3822  0.7150
16727SOL    HW256528   4.740   3.222   0.915  0.6514  0.5432  0.2882
16728SOL     OW56529   2.202   0.719   0.808 -0.3072 -0.5879  0.9834
16728SOL    HW156530   2.275   0.658   0.817  0.0628 -0.0850  1.4291
16728SOL    HW256531   2.126   0.671   0.843 -0.2714 -1.2459  0.1695
16729SOL     OW56532   3.126   2.085   1.607 -0.6786 -0.5479 -0.3865
16729SOL    HW156533   3.160   2.004   1.570 -0.5385  0.3766 -2.4882
16729SOL    HW256534   3.191   2.111   1.673  0.0768 -1.3548 -0.7960
16730SOL     OW56535   3.270   2.247   5.987  0.2505 -0.4746 -0.1000
16730SOL    HW156536   3.201   2.183   5.976  0.9740 -1.1902 -0.5727
16730SOL    HW256537   3.274   2.293   5.903  0.0244 -0.0982  0.0917
16731SOL     OW56538   3.895   5.030   9.113 -0.2884 -0.1336 -0.1739
16731SOL    HW156539   3.856   4.981   9.185  0.6081 -1.7681 -0.7435
16731SOL    HW256540   3.911   4.964   9.045  0.9402  0.9476 -0.9810
16732SOL     OW56541   1.330   7.757   6.167 -0.2909  0.2746 -0.0314
16732SOL    HW156542   1.385   7.832   6.143 -0.1756  0.3323  0.4075
16732SOL    HW256543   1.391   7.684   6.171 -0.7575 -0.3818 -2.8701
16733SOL     OW56544   1.009   3.484   0.497 -0.8203 -0.0149 -0.7982
16733SOL    HW156545   1.091   3.447   0.528 -1.5047 -1.4867 -0.6682
16733SOL    HW256546   1.020   3.490   0.402  1.2485  4.4300 -0.5421
16734SOL     OW56547   2.162   8.582   6.192  0.0897 -0.0509 -0.1711
16734SOL    HW156548   2.105   8.541   6.257  0.6148 -0.2547  0.1712
16734SOL    HW256549   2.224   8.634   6.243 -1.1325  1.9485 -0.6479
16735SOL     OW56550   5.999   0.777   9.201 -0.1614 -0.6282  0.5014
16735SOL    HW156551   6.026   0.706   9.143 -2.2762 -1.0667 -0.0254
16735SOL    HW256552   6.060   0.773   9.274  1.1531 -1.5220 -0.5847
16736SOL     OW56553   2.635   2.449   6.856 -0.2430  0.4994 -0.1141
16736SOL    HW156554   2.595   2.533   6.876  1.0373  0.5225  2.8964
16736SOL    HW256555   2.675   2.461   6.770 -2.2392  2.0849 -0.8908
16737SOL     OW56556   6.786   5.988   5.899 -0.2210 -0.0610  0.7418
16737SOL    HW156557   6.806   5.957   5.810  0.0040 -0.7435  1.0199
16737SOL    HW256558   6.852   5.946   5.954  0.7370  1.7516  1.0287
16738SOL     OW56559   4.357   8.172   2.914 -0.0892  0.1303  0.1334
16738SOL    HW156560   4.288   8.107   2.905 -0.7697  1.0149 -1.2747
16738SOL    HW256561   4.437   8.126   2.889 -0.6340 -0.0544 -1.3428
16739SOL     OW56562   8.816   0.654   5.845  0.3280  0.5362 -0.5402
16739SOL    HW156563   8.866   0.665   5.926 -0.2280  0.1315 -0.1408
16739SOL    HW256564   8.792   0.562   5.844 -0.2259  0.6807 -0.8430
16740SOL     OW56565   6.425   8.741   1.022 -0.0316  0.4112 -0.1889
16740SOL    HW156566   6.515   8.739   1.055  0.2881  0.0593 -1.0544
16740SOL    HW256567   6.373   8.701   1.091  0.8558 -1.8560 -0.7624
16741SOL     OW56568   3.757   0.569   2.770  0.6251  0.2874 -0.0055
16741SOL    HW156569   3.768   0.602   2.681  2.3191 -0.3486 -0.0661
16741SOL    HW256570   3.731   0.645   2.821  1.2292  1.0132 -0.7515
16742SOL     OW56571   0.445   5.920   1.400  0.6502 -0.5407 -0.1515
16742SOL    HW156572   0.523   5.871   1.375  0.8735 -0.8716  1.1046
16742SOL    HW256573   0.420   5.883   1.485 -0.8202 -0.3710 -0.4852
16743SOL     OW56574   8.093   1.750   3.335 -0.1523 -0.3961  0.2495
16743SOL    HW156575   8.086   1.808   3.260 -0.2259 -0.8346 -0.0906
16743SOL    HW256576   8.013   1.697   3.332 -1.5075  1.4054  2.2106
16744SOL     OW56577   5.749   1.260   6.975  0.7650  0.0763 -0.0830
16744SOL    HW156578   5.749   1.355   6.976  1.3348  0.1271 -1.6561
16744SOL    HW256579   5.769   1.235   7.065 -0.7342  1.3910  0.6591
16745SOL     OW56580   7.239   1.931   7.435  0.2928  0.1935 -0.0426
16745SOL    HW156581   7.151   1.961   7.413  0.3642  0.0652 -0.5097
16745SOL    HW256582   7.240   1.838   7.412  0.8893  0.4438 -1.1213
16746SOL     OW56583   3.174   7.602   8.975 -0.2228 -0.7396 -0.1330
16746SOL    HW156584   3.180   7.606   9.071 -0.6116 -0.3610 -0.1247
16746SOL    HW256585   3.237   7.667   8.945  0.5377 -1.4636 -0.1579
16747SOL     OW56586   8.765   7.013   6.347  0.0284  0.5018  0.6613
16747SOL    HW156587   8.783   7.058   6.264 -3.9892  2.4174  0.6154
16747SOL    HW256588   8.739   6.925   6.321 -1.4292  1.1571 -0.2061
16748SOL     OW56589   1.472   2.576   4.231 -0.2645  1.0322  0.0122
16748SOL    HW156590   1.500   2.546   4.318 -1.3307  1.6218  0.5726
16748SOL    HW256591   1.554   2.587   4.182  0.2957 -0.2993  0.5985
16749SOL     OW56592   5.015   6.632   8.287 -0.5490 -0.0537 -0.3807
16749SOL    HW156593   5.043   6.671   8.370 -0.4312 -0.8381 -0.0423
16749SOL    HW256594   4.987   6.706   8.234 -0.9434  0.4351  0.4864
16750SOL     OW56595   2.800   6.885   9.204 -0.2069  0.0581  0.3398
16750SOL    HW156596   2.797   6.975   9.172 -0.0155 -0.1864 -0.3723
16750SOL    HW256597   2.881   6.850   9.168 -0.4229 -0.4893  0.3871
16751SOL     OW56598   4.775   1.823   3.585  0.4147 -0.0702 -0.3539
16751SOL    HW156599   4.853   1.870   3.554  0.5066 -0.2337 -0.3692
16751SOL    HW256600   4.720   1.892   3.622  1.3210 -0.1598  1.2268
16752SOL     OW56601   5.289   7.592   2.743  0.2812  0.6608 -0.1547
16752SOL    HW156602   5.352   7.649   2.788  1.5453 -0.9871  0.2366
16752SOL    HW256603   5.322   7.504   2.756 -0.7803 -0.0840 -2.0845
16753SOL     OW56604   8.903   2.227   6.765  0.0580  0.1088  0.4869
16753SOL    HW156605   8.879   2.154   6.822  1.1016  0.9469  2.0447
16753SOL    HW256606   8.933   2.296   6.824 -0.6444  1.7315 -0.9546
16754SOL     OW56607   1.212   3.679   4.784 -0.2683  0.0694 -0.4902
16754SOL    HW156608   1.302   3.648   4.769  0.1592  0.3337  1.3535
16754SOL    HW256609   1.157   3.612   4.743  0.7496 -0.8215 -0.4514
16755SOL     OW56610   8.321   3.456   0.963  0.2179  0.1565 -0.2306
16755SOL    HW156611   8.233   3.419   0.955 -0.6207  2.0472 -0.5091
16755SOL    HW256612   8.348   3.472   0.873  0.0727  1.2002 -0.1042
16756SOL     OW56613   5.845   4.064   8.546 -0.3391  0.2067 -0.1765
16756SOL    HW156614   5.921   4.095   8.597 -1.0520  0.0205  1.0169
16756SOL    HW256615   5.790   4.142   8.537 -0.5878  0.0477 -0.0009
16757SOL     OW56616   1.029   3.890   3.818  0.1614 -0.2762 -0.1417
16757SOL    HW156617   1.044   3.984   3.827 -1.9076  0.1255 -0.3598
16757SOL    HW256618   0.965   3.869   3.886  2.2449 -2.0311  1.4243
16758SOL     OW56619   8.275   2.647   4.769 -0.3955 -0.2629  0.3618
16758SOL    HW156620   8.364   2.613   4.765 -0.5305 -0.6938  0.7945
16758SOL    HW256621   8.220   2.571   4.751 -0.6755 -0.0009  0.1115
16759SOL     OW56622   7.179   7.450   7.298 -1.1021 -0.1674  0.1590
16759SOL    HW156623   7.106   7.423   7.353 -0.8075  0.5070  0.9124
16759SOL    HW256624   7.158   7.540   7.273 -0.3153  0.2079  0.7880
16760SOL     OW56625   1.636   7.466   1.687 -0.1714 -0.8353 -0.2950
16760SOL    HW156626   1.563   7.518   1.720 -0.4528 -1.2525 -0.2459
16760SOL    HW256627   1.594   7.394   1.639  0.2205 -0.2150 -1.6322
16761SOL     OW56628   5.753   6.042   8.805  0.4343 -0.2127 -0.1029
16761SOL    HW156629   5.809   6.089   8.867  1.4574 -0.0431 -1.1127
16761SOL    HW256630   5.812   5.978   8.763 -0.6470 -1.5864  0.3806
16762SOL     OW56631   0.564   5.147   9.187 -0.6884  0.3953 -0.1125
16762SOL    HW156632   0.509   5.146   9.108 -0.8604  2.1288 -0.0485
16762SOL    HW256633   0.504   5.121   9.258 -1.1181  0.9962 -0.2423
16763SOL     OW56634   5.622   1.122   4.342  0.3574 -0.3545 -0.0077
16763SOL    HW156635   5.561   1.180   4.296  1.1595 -0.4203 -1.2083
16763SOL    HW256636   5.691   1.105   4.278  0.6848 -1.7849  0.6953
16764SOL     OW56637   7.681   6.577   0.724 -0.6901 -0.7485  0.5959
16764SOL    HW156638   7.600   6.549   0.766  0.5018 -1.0902  2.8735
16764SOL    HW256639   7.700   6.663   0.763 -0.8771  0.2157 -1.3194
16765SOL     OW56640   8.997   4.044   5.840  0.6599  0.3921 -0.1688
16765SOL    HW156641   9.067   3.980   5.827  1.3553  1.0437  0.3256
16765SOL    HW256642   9.041   4.123   5.871 -0.5252  0.0836  2.5497
16766SOL     OW56643   8.394   5.682   7.047  0.2930 -0.2214 -0.7273
16766SOL    HW156644   8.488   5.692   7.029  0.4081 -0.1352 -0.1022
16766SOL    HW256645   8.357   5.768   7.029  0.6161  0.2337  0.6434
16767SOL     OW56646   8.633   1.909   1.094 -0.4538 -0.3984 -0.2519
16767SOL    HW156647   8.574   1.836   1.113 -1.1204  0.2179  0.1113
16767SOL    HW256648   8.583   1.987   1.120  0.4880  0.1424 -0.0285
16768SOL     OW56649   4.822   7.771   8.787 -0.5804  0.4724 -0.6955
16768SOL    HW156650   4.757   7.704   8.766  0.5316 -1.5915  1.7978
16768SOL    HW256651   4.893   7.756   8.725 -0.5874 -0.3200 -0.5262
16769SOL     OW56652   8.459   7.360   8.931  0.1976 -0.1989 -0.0954
16769SOL    HW156653   8.424   7.441   8.893 -1.4936 -0.3143  1.1202
16769SOL    HW256654   8.424   7.358   9.020  2.0310 -1.1890  0.6634
16770SOL     OW56655   6.679   1.456   3.244 -0.0520  0.7129 -0.4611
16770SOL    HW156656   6.756   1.419   3.201 -0.0376  0.0971  0.0919
16770SOL    HW256657   6.715   1.521   3.305  0.1918 -0.9269  1.2118
16771SOL     OW56658   8.899   0.213   6.558  0.7482 -0.2177  0.2321
16771SOL    HW156659   8.878   0.127   6.524  0.0957  0.1048 -0.1886
16771SOL    HW256660   8.965   0.196   6.625 -0.2898 -1.1701  1.0497
16772SOL     OW56661   9.094   6.363   2.841 -0.1936  0.3158  0.2659
16772SOL    HW156662   9.103   6.436   2.902 -0.4555 -1.0164  1.9795
16772SOL    HW256663   9.183   6.345   2.812  0.0476  0.4687  0.8901
16773SOL     OW56664   5.322   4.374   6.558  0.2515 -0.5193  0.2184
16773SOL    HW156665   5.322   4.420   6.642 -0.7357 -0.8661  0.4219
16773SOL    HW256666   5.251   4.310   6.565  0.0639 -0.4674 -0.9289
16774SOL     OW56667   5.408   7.571   8.095  0.4190  0.0702  0.2811
16774SOL    HW156668   5.474   7.638   8.112  0.3906 -0.0363  0.8237
16774SOL    HW256669   5.456   7.501   8.049  0.9912 -0.5907  1.8286
16775SOL     OW56670   6.013   2.528   7.095  0.1441 -0.3432  0.1355
16775SOL    HW156671   6.047   2.515   7.007 -0.8924  0.2088 -0.3703
16775SOL    HW256672   6.037   2.618   7.117 -1.3314  0.2227 -0.4218
16776SOL     OW56673   6.522   6.756   6.142  0.1808  0.2046 -0.2344
16776SOL    HW156674   6.598   6.814   6.134 -0.1644  0.8572  0.9828
16776SOL    HW256675   6.448   6.815   6.153 -0.4204 -0.4459 -0.6878
16777SOL     OW56676   8.362   8.604   3.173  0.3219 -0.2354 -0.3760
16777SOL    HW156677   8.351   8.515   3.140  1.3854 -1.1498  1.5866
16777SOL    HW256678   8.448   8.604   3.215 -0.9960  0.7361  2.5464
16778SOL     OW56679   2.017   3.060   8.353 -0.1658 -0.0483  0.1688
16778SOL    HW156680   1.973   3.144   8.361  0.8761  0.4608  0.8108
16778SOL    HW256681   2.010   3.038   8.260  1.3407  1.7913 -0.4444
16779SOL     OW56682   6.162   3.133   0.919 -0.4534 -0.0127  0.3847
16779SOL    HW156683   6.106   3.064   0.884 -1.4356  0.7630  0.3904
16779SOL    HW256684   6.139   3.140   1.011 -1.5607  1.4203  0.0321
16780SOL     OW56685   1.906   7.779   3.199 -0.8459  0.5446  0.4148
16780SOL    HW156686   1.833   7.811   3.251  0.6127  1.2151  2.1977
16780SOL    HW256687   1.917   7.842   3.129 -1.0530  1.2745  1.0310
16781SOL     OW56688   7.738   2.774   0.215  0.1207  0.0900 -0.0202
16781SOL    HW156689   7.791   2.697   0.196 -1.0851 -0.6235 -0.6622
16781SOL    HW256690   7.800   2.840   0.245  1.5374 -0.3225 -1.8600
16782SOL     OW56691   8.147   8.112   6.015  0.0115  0.5383  0.2030
16782SOL    HW156692   8.132   8.206   6.022 -1.1955  0.3673  0.1606
16782SOL    HW256693   8.214   8.103   5.948  0.7209  1.4043  0.7782
16783SOL     OW56694   0.802   5.803   6.709 -0.1368  0.4275  0.2981
16783SOL    HW156695   0.893   5.776   6.720  0.2530  1.3618 -0.4755
16783SOL    HW256696   0.752   5.721   6.708  0.7467 -0.1153  0.2859
16784SOL     OW56697   9.231   6.959   6.044  0.4403  0.3432 -0.5678
16784SOL    HW156698   9.168   7.009   6.096  0.1837 -0.8287  0.2848
16784SOL    HW256699   9.177   6.901   5.990  0.7632 -1.1425  0.6487
16785SOL     OW56700   3.698   8.829   3.132  1.0235  0.5820 -0.0564
16785SOL    HW156701   3.743   8.912   3.120 -0.9491  1.6957 -0.1521
16785SOL    HW256702   3.693   8.817   3.227  3.2382 -0.6020 -0.0153
16786SOL     OW56703   4.404   4.687   5.066 -0.2849 -0.4728 -0.3147
16786SOL    HW156704   4.420   4.613   5.008 -1.3329  0.2870 -1.6406
16786SOL    HW256705   4.430   4.763   5.015 -0.8768  0.1950  0.3517
16787SOL     OW56706   8.993   2.140   6.476 -0.4574 -0.4247 -0.0251
16787SOL    HW156707   9.055   2.206   6.445 -1.5625  0.6089 -0.0827
16787SOL    HW256708   8.991   2.150   6.571 -0.1142 -0.8526  0.0314
16788SOL     OW56709   2.800   0.984   7.830  0.3757 -0.5597  0.5307
16788SOL    HW156710   2.816   0.894   7.804  0.9741 -0.3076 -0.0193
16788SOL    HW256711   2.881   1.030   7.808 -0.1799  0.2555  0.1126
16789SOL     OW56712   7.503   1.152   4.520  0.3968  0.4773 -0.0051
16789SOL    HW156713   7.424   1.161   4.467  0.0118 -0.2411  0.4243
16789SOL    HW256714   7.480   1.191   4.604  0.8206  1.1188 -0.1797
16790SOL     OW56715   2.128   6.230   1.390  0.7427 -0.6770 -0.4503
16790SOL    HW156716   2.141   6.186   1.306  0.8957 -1.5022 -0.0045
16790SOL    HW256717   2.049   6.282   1.378  0.3561 -1.3506 -0.8824
16791SOL     OW56718   2.204   6.127   7.127  1.0205  0.5887 -0.4160
16791SOL    HW156719   2.235   6.216   7.110  2.0856 -0.0020 -1.8240
16791SOL    HW256720   2.115   6.124   7.091  1.2026  0.9302 -0.8982
16792SOL     OW56721   5.370   1.243   2.960  0.1645  0.0235 -0.0137
16792SOL    HW156722   5.351   1.211   3.048  0.3873  1.0275  0.4082
16792SOL    HW256723   5.284   1.253   2.920 -0.0541  1.1830  0.6881
16793SOL     OW56724   2.364   6.364   3.193  0.2581 -0.2368  0.0637
16793SOL    HW156725   2.299   6.415   3.144  0.7533  1.0476  0.6973
16793SOL    HW256726   2.322   6.345   3.276  0.3337 -0.2497  0.0990
16794SOL     OW56727   0.752   4.400   5.728 -0.4959  0.0527 -0.7074
16794SOL    HW156728   0.756   4.492   5.754  1.1925 -0.2372  0.2556
16794SOL    HW256729   0.753   4.401   5.633  1.1247  1.0285 -0.7148
16795SOL     OW56730   5.100   4.290   5.702  0.0775  0.5100 -0.2888
16795SOL    HW156731   5.151   4.218   5.667  0.6871  1.2077 -0.8614
16795SOL    HW256732   5.013   4.280   5.662 -0.0710 -0.3305  0.2263
16796SOL     OW56733   7.182   5.499   7.978 -0.4227  0.2262  0.3990
16796SOL    HW156734   7.127   5.542   8.044 -1.0838 -0.8627  0.5794
16796SOL    HW256735   7.122   5.441   7.931  0.2035  0.4097 -0.6525
16797SOL     OW56736   2.250   2.096   4.027  0.4479  0.3101  0.2576
16797SOL    HW156737   2.200   2.135   3.956  1.0213 -0.6935 -0.7404
16797SOL    HW256738   2.230   2.150   4.103 -0.5709  1.1197 -0.5491
16798SOL     OW56739   0.105   5.616   6.846 -0.2624  0.0854 -0.0868
16798SOL    HW156740   0.021   5.661   6.844  0.6817  1.9736  0.5946
16798SOL    HW256741   0.148   5.648   6.925  0.8176 -1.4003 -0.0304
16799SOL     OW56742   4.014   2.903   2.049 -0.5207 -0.1420  0.4406
16799SOL    HW156743   4.025   2.808   2.054  3.1429 -0.0331 -1.6929
16799SOL    HW256744   4.083   2.939   2.104 -0.5995  1.2387 -0.2900
16800SOL     OW56745   0.969   5.299   2.893  0.3018  0.2722 -0.2471
16800SOL    HW156746   1.015   5.242   2.833 -1.2972 -0.9247 -0.3996
16800SOL    HW256747   0.950   5.244   2.969  0.5404  1.1957  0.5012
16801SOL     OW56748   4.713   1.368   1.255 -0.4696  0.0506  0.0445
16801SOL    HW156749   4.637   1.401   1.208 -0.0785 -0.2413 -0.8410
16801SOL    HW256750   4.776   1.346   1.185  0.0281 -0.6704  0.6953
16802SOL     OW56751   3.492   8.109   9.234  0.0103 -0.1244 -0.1157
16802SOL    HW156752   3.502   8.016   9.251 -0.4213 -0.4515 -1.4932
16802SOL    HW256753   3.540   8.123   9.152  0.2300  0.9096  0.1751
16803SOL     OW56754   4.875   7.153   2.883 -0.2107  0.1090  0.2895
16803SOL    HW156755   4.874   7.065   2.919 -0.6114  0.1478  0.3838
16803SOL    HW256756   4.786   7.166   2.849  0.1159  0.1303 -0.5853
16804SOL     OW56757   0.043   3.962   6.929 -0.4770 -0.2292  0.3627
16804SOL    HW156758  -0.013   3.953   7.007  0.9651 -1.2867  1.3181
16804SOL    HW256759   0.077   4.051   6.935 -0.3782 -0.3009  0.9420
16805SOL     OW56760   2.861   0.133   0.427  0.1303  0.0329 -0.3710
16805SOL    HW156761   2.858   0.215   0.377  2.9764  0.0801 -0.6301
16805SOL    HW256762   2.875   0.160   0.517  1.3726 -0.1215 -0.4975
16806SOL     OW56763   3.771   0.481   6.466 -0.5423  0.1450  0.0664
16806SOL    HW156764   3.737   0.491   6.554  0.1368 -1.1976  0.5225
16806SOL    HW256765   3.865   0.464   6.478  0.1598  2.7677 -1.0863
16807SOL     OW56766   1.215   1.928   1.930  0.2715  0.1236 -0.1560
16807SOL    HW156767   1.160   2.000   1.963  0.3428 -0.1933  0.6599
16807SOL    HW256768   1.159   1.883   1.866  0.3305  1.0756 -0.9043
16808SOL     OW56769   3.951   4.404   5.022  0.5516  0.2747  0.3183
16808SOL    HW156770   3.857   4.397   5.004  0.8929 -1.3029 -1.0421
16808SOL    HW256771   3.965   4.498   5.034 -1.2954  0.4915  1.1797
16809SOL     OW56772   7.897   6.195   2.224  0.0811  0.1062 -0.1269
16809SOL    HW156773   7.843   6.240   2.289  0.4231  0.1527  0.1293
16809SOL    HW256774   7.897   6.104   2.251  0.3872  0.1585  0.0563
16810SOL     OW56775   4.730   6.971   7.462  0.2660  0.4681  0.3653
16810SOL    HW156776   4.760   6.891   7.506 -0.7723 -0.8171 -1.1200
16810SOL    HW256777   4.810   7.021   7.447  1.2885 -1.3312 -0.5995
16811SOL     OW56778   5.482   1.119   7.134  0.1618 -0.3492  0.2615
16811SOL    HW156779   5.562   1.139   7.086  1.0066 -2.6362  0.5787
16811SOL    HW256780   5.481   1.023   7.141 -3.2588 -0.5359 -0.7959
16812SOL     OW56781   0.586   6.772   7.662 -0.0993  0.2815  0.4695
16812SOL    HW156782   0.646   6.742   7.730 -0.6450 -0.6463  0.5636
16812SOL    HW256783   0.499   6.758   7.700 -0.3976  0.2007 -0.2307
16813SOL     OW56784   8.330   9.101   0.973 -0.3916  0.0393  0.0973
16813SOL    HW156785   8.305   9.078   0.884 -0.8848 -0.6213  0.3974
16813SOL    HW256786   8.415   9.059   0.987 -1.3119 -1.7473  0.6627
16814SOL     OW56787   0.294   2.158   2.060  0.7210  0.0028 -0.0430
16814SOL    HW156788   0.311   2.074   2.017  0.6391  0.2234 -0.5185
16814SOL    HW256789   0.269   2.216   1.988 -0.3610  0.1309  0.4306
16815SOL     OW56790   4.423   5.192   4.258  0.3396  1.1778  0.1003
16815SOL    HW156791   4.391   5.109   4.222  0.1806  1.6624 -0.9246
16815SOL    HW256792   4.459   5.169   4.344  0.6795 -0.0129 -0.3390
16816SOL     OW56793   2.667   4.773   2.334  0.7460 -0.1134  0.2062
16816SOL    HW156794   2.763   4.771   2.345  0.6694  0.6477  1.2229
16816SOL    HW256795   2.653   4.837   2.264  0.9568  0.2936  0.5298
16817SOL     OW56796   7.828   1.550   2.745  0.3706 -0.6710  0.5861
16817SOL    HW156797   7.875   1.633   2.740  0.3642 -0.6477  0.9217
16817SOL    HW256798   7.865   1.505   2.821  0.8167 -1.2490  0.0420
16818SOL     OW56799   1.200   0.449   6.893  0.3440  0.3732  0.3733
16818SOL    HW156800   1.222   0.380   6.830  0.9839  1.5869 -0.7773
16818SOL    HW256801   1.107   0.467   6.876  0.5172  0.7057 -0.2462
16819SOL     OW56802   2.330   5.728   7.303  0.2485  0.6322 -0.3713
16819SOL    HW156803   2.365   5.768   7.223  1.5013 -0.4639 -0.4093
16819SOL    HW256804   2.297   5.643   7.275 -1.5698  1.2197 -0.1318
16820SOL     OW56805   2.299   5.505   1.867  0.3744  0.3660  0.0683
16820SOL    HW156806   2.289   5.533   1.958  1.0422 -0.3058  0.3568
16820SOL    HW256807   2.267   5.578   1.815 -0.2535  0.6546  0.8516
16821SOL     OW56808   1.059   0.016   4.316  0.2030 -0.0409  0.3659
16821SOL    HW156809   1.021   0.080   4.376  2.9197 -0.8942  3.3153
16821SOL    HW256810   1.100   0.068   4.248 -1.3491  1.0767  0.2267
16822SOL     OW56811   3.639   7.866   3.889 -0.7945  0.3341  0.1649
16822SOL    HW156812   3.687   7.784   3.901  1.6457  1.9284  2.3822
16822SOL    HW256813   3.653   7.890   3.798  0.8068 -0.3693  0.1966
16823SOL     OW56814   5.033   8.019   2.535 -0.1383 -0.0694  0.5628
16823SOL    HW156815   5.007   7.927   2.538  0.2921 -0.2474 -0.4705
16823SOL    HW256816   5.099   8.028   2.604  1.3661 -1.0849 -0.6639
16824SOL     OW56817   1.898   7.571   0.736 -0.3945 -0.4269  0.1360
16824SOL    HW156818   1.982   7.613   0.758  1.0846 -2.5068 -1.2001
16824SOL    HW256819   1.854   7.562   0.821  0.5618  0.9560  0.8362
16825SOL     OW56820   7.413   6.093   0.330 -0.3170 -0.1880  0.5335
16825SOL    HW156821   7.461   6.028   0.279  1.0424 -0.1196  1.6551
16825SOL    HW256822   7.429   6.067   0.421 -0.5616  1.1415  0.9768
16826SOL     OW56823   4.727   9.215   0.901  0.2720  0.0960  0.1737
16826SOL    HW156824   4.699   9.306   0.909  0.2957  0.1165  0.0169
16826SOL    HW256825   4.652   9.170   0.862  0.4532  0.1505 -0.2429
16827SOL     OW56826   5.655   5.284   5.395 -0.0768  0.5254 -0.5197
16827SOL    HW156827   5.725   5.323   5.446 -0.3188  1.7013 -1.0508
16827SOL    HW256828   5.600   5.240   5.459  0.8878 -0.0263 -0.0497
16828SOL     OW56829   2.389   4.394   8.480 -0.1284 -0.5178 -0.1514
16828SOL    HW156830   2.444   4.402   8.403  1.1412  0.3641  0.8051
16828SOL    HW256831   2.309   4.443   8.458 -1.7014 -3.7191 -2.4400
16829SOL     OW56832   4.840   8.582   3.282 -0.2308 -0.6670 -0.5244
16829SOL    HW156833   4.767   8.593   3.343 -0.3059 -1.0220 -0.5513
16829SOL    HW256834   4.818   8.505   3.231 -0.6878  0.2513 -1.7448
16830SOL     OW56835   0.908   0.291   2.223  0.3233  0.0454  0.0430
16830SOL    HW156836   0.879   0.208   2.259  0.3925  0.0681  0.1507
16830SOL    HW256837   0.828   0.343   2.213  0.0130 -0.7108 -1.7982
16831SOL     OW56838   4.414   8.900   6.910  0.0481 -0.1217  0.0275
16831SOL    HW156839   4.364   8.980   6.895 -0.4286  0.0587  2.3123
16831SOL    HW256840   4.374   8.860   6.988  2.6399 -0.6266  1.1947
16832SOL     OW56841   7.846   1.598   3.375 -0.2277 -0.2098 -0.6799
16832SOL    HW156842   7.833   1.554   3.291  1.3855 -1.5459 -0.2922
16832SOL    HW256843   7.797   1.680   3.368 -0.7676 -0.6633 -2.6155
16833SOL     OW56844   2.785   6.196   2.520 -0.0649 -0.1732 -0.1061
16833SOL    HW156845   2.733   6.269   2.552  2.2329  0.6308  2.2001
16833SOL    HW256846   2.866   6.237   2.488  1.7958 -1.6282  2.3456
16834SOL     OW56847   3.044   6.001   0.973 -0.3353 -0.0163 -0.4177
16834SOL    HW156848   3.073   6.025   0.886  0.7760 -0.6336 -0.2397
16834SOL    HW256849   3.096   5.924   0.995 -0.9152 -0.1346  0.6132
16835SOL     OW56850   0.615   8.109   0.928 -0.1074 -0.2217 -0.0205
16835SOL    HW156851   0.658   8.043   0.983 -1.2337 -0.3172  0.7950
16835SOL    HW256852   0.642   8.193   0.966  0.9018 -0.1992 -0.7330
16836SOL     OW56853   4.787   4.293   0.827  0.4320 -0.5761 -0.5000
16836SOL    HW156854   4.724   4.223   0.814  1.1423 -1.0307 -1.5943
16836SOL    HW256855   4.866   4.263   0.783  2.0597 -0.8382  2.3371
16837SOL     OW56856   0.854   5.069   4.056  0.2107  0.5966 -0.5303
16837SOL    HW156857   0.804   5.054   3.976 -1.4250 -1.9197  0.8401
16837SOL    HW256858   0.909   4.992   4.065 -1.6102 -0.5278  2.0577
16838SOL     OW56859   3.535   6.374   6.089 -0.6907 -0.1427 -0.3565
16838SOL    HW156860   3.529   6.341   6.179 -1.3764 -0.9687 -0.6961
16838SOL    HW256861   3.464   6.438   6.082 -0.8267 -0.3009 -0.4091
16839SOL     OW56862   2.910   0.290   8.757 -0.0757 -0.0978  0.1808
16839SOL    HW156863   2.864   0.284   8.841 -0.8880  1.0684 -0.1531
16839SOL    HW256864   2.873   0.367   8.715  1.9156  0.6752 -0.2890
16840SOL     OW56865   2.740   6.000   6.469 -0.4618  0.0611  0.3901
16840SOL    HW156866   2.790   6.073   6.433  0.6374 -1.3825 -1.1724
16840SOL    HW256867   2.648   6.023   6.454 -0.0850 -0.2425 -3.0825
16841SOL     OW56868   4.353   1.867   5.577 -0.3420  0.5766 -0.0246
16841SOL    HW156869   4.342   1.941   5.517  1.3644 -0.0148 -1.1238
16841SOL    HW256870   4.279   1.874   5.637  0.7310  4.3258  1.1452
16842SOL     OW56871   5.528   6.895   8.350 -0.7819 -0.4780  0.2941
16842SOL    HW156872   5.469   6.860   8.417 -0.4981  0.8264  1.2504
16842SOL    HW256873   5.590   6.950   8.398  0.3573 -0.7031 -0.8683
16843SOL     OW56874   4.538   0.945   5.395 -0.0393 -0.1502  0.6236
16843SOL    HW156875   4.500   0.861   5.419  2.1754 -2.1909 -2.2890
16843SOL    HW256876   4.494   0.969   5.314  0.6038  0.5529  0.4686
16844SOL     OW56877   0.483   2.258   7.663  0.4038  0.1063  0.1244
16844SOL    HW156878   0.546   2.301   7.605 -0.6470  0.4788 -0.7644
16844SOL    HW256879   0.518   2.170   7.676  0.3227 -0.2306 -1.6594
16845SOL     OW56880   2.086   0.105   5.699  0.0699  0.4592  0.0706
16845SOL    HW156881   2.060   0.080   5.610 -0.5995 -1.9817  0.8798
16845SOL    HW256882   2.009   0.150   5.734 -0.2769 -0.0034 -0.0748
16846SOL     OW56883   2.681   5.100   3.115 -0.4620 -0.0523 -0.3555
16846SOL    HW156884   2.658   5.164   3.048 -0.3603  1.5525  1.0783
16846SOL    HW256885   2.599   5.054   3.135 -1.2448  1.6794  0.6484
16847SOL     OW56886   3.519   7.080   7.307 -0.0425 -0.7712  0.1120
16847SOL    HW156887   3.584   7.143   7.275  2.6123 -2.7059  1.2961
16847SOL    HW256888   3.439   7.132   7.318  1.2343  1.7572 -1.4766
16848SOL     OW56889   0.054   4.775   0.418 -0.0753 -0.4447 -0.0156
16848SOL    HW156890   0.001   4.703   0.452  1.2166 -1.2125  0.4617
16848SOL    HW256891   0.103   4.737   0.346 -0.8134  0.4889 -1.0406
16849SOL     OW56892   8.016   4.343   3.681  0.2762 -0.1033  0.1125
16849SOL    HW156893   7.941   4.362   3.737  0.9451 -0.7974  1.2909
16849SOL    HW256894   8.068   4.279   3.731  3.2726  2.5942  0.7709
16850SOL     OW56895   5.385   7.977   6.965  0.2004 -0.0926 -0.4185
16850SOL    HW156896   5.339   7.906   7.010 -0.8102  0.8615  0.1087
16850SOL    HW256897   5.460   7.996   7.022  1.3462 -1.6918 -1.3106
16851SOL     OW56898   5.156   0.256   8.869  0.3329  0.4810  0.1588
16851SOL    HW156899   5.107   0.292   8.943 -0.6906 -0.0901 -0.2157
16851SOL    HW256900   5.138   0.162   8.872 -1.1021  0.6474 -1.7719
16852SOL     OW56901   3.563   1.481   3.399 -0.0429  0.0973  0.3927
16852SOL    HW156902   3.603   1.568   3.399 -1.2183  0.6953 -1.3183
16852SOL    HW256903   3.479   1.493   3.443 -0.7300  0.1283 -0.8788
16853SOL     OW56904   1.775   4.515   0.852  0.1652 -0.3055 -0.3425
16853SOL    HW156905   1.710   4.547   0.791 -1.0606  0.3696  1.2431
16853SOL    HW256906   1.734   4.440   0.895  1.1637 -1.0374 -0.6201
16854SOL     OW56907   7.223   4.469   3.042  0.0926  0.3615  0.1810
16854SOL    HW156908   7.218   4.397   3.105 -1.4801  0.6613  0.4611
16854SOL    HW256909   7.201   4.429   2.958 -1.6333  0.6131  0.4684
16855SOL     OW56910   7.540   7.230   6.130 -0.0437 -0.1510  0.1679
16855SOL    HW156911   7.510   7.212   6.041 -1.2241  3.9927 -0.4736
16855SOL    HW256912   7.484   7.175   6.186 -1.2317 -0.7082 -1.5006
16856SOL     OW56913   1.405   7.084   1.691 -0.3212 -0.1491  0.2449
16856SOL    HW156914   1.390   6.996   1.724  1.1361 -1.3357 -2.0028
16856SOL    HW256915   1.487   7.112   1.732 -0.0500 -0.4246 -0.1043
16857SOL     OW56916   1.511   5.798   8.523 -0.5507  1.1258 -0.2087
16857SOL    HW156917   1.471   5.853   8.456 -2.9388  0.6153  0.7163
16857SOL    HW256918   1.550   5.860   8.585 -4.3615  2.0470  1.5520
16858SOL     OW56919   2.152   1.424   5.114  0.0531  0.2675 -0.8941
16858SOL    HW156920   2.124   1.479   5.041  3.1644 -1.3124 -3.5519
16858SOL    HW256921   2.218   1.475   5.159 -1.0087  0.7685  0.1445
16859SOL     OW56922   4.760   2.880   2.543  0.5348  0.0461 -0.0362
16859SOL    HW156923   4.689   2.820   2.520 -0.1737  0.5332  0.8573
16859SOL    HW256924   4.717   2.961   2.568  1.4310  0.5313  0.0032
16860SOL     OW56925   0.583   2.483   7.388 -0.8780 -0.0870 -0.0976
16860SOL    HW156926   0.559   2.390   7.389  0.6847 -0.5332 -0.6613
16860SOL    HW256927   0.615   2.498   7.299 -0.5834  0.8579  0.1577
16861SOL     OW56928   1.519   1.278   3.247 -0.1451  0.4701 -0.2331
16861SOL    HW156929   1.549   1.282   3.157  0.8729  0.0014  0.0704
16861SOL    HW256930   1.438   1.329   3.248 -0.4650  0.0133 -1.5171
16862SOL     OW56931   8.986   3.254   8.937 -0.5552 -0.2247 -0.1547
16862SOL    HW156932   8.891   3.245   8.947 -0.7989  1.8028 -0.2023
16862SOL    HW256933   9.005   3.343   8.968  1.3847 -0.7051  0.1411
16863SOL     OW56934   1.496   1.069   1.204  0.0248  0.0714 -0.2020
16863SOL    HW156935   1.473   1.158   1.229  1.2603  0.3511  0.0115
16863SOL    HW256936   1.496   1.019   1.286  3.2631  0.8067  0.3998
16864SOL     OW56937   2.257   4.736   6.991  0.5639  0.7501  0.1952
16864SOL    HW156938   2.283   4.748   6.899  0.5849  1.0687  0.2416
16864SOL    HW256939   2.325   4.679   7.027 -0.7699 -1.5301 -0.6224
16865SOL     OW56940   8.246   6.481   7.878 -0.0071 -0.8151  0.0986
16865SOL    HW156941   8.326   6.475   7.825  0.3237 -0.9228  0.5976
16865SOL    HW256942   8.246   6.401   7.931  0.0042 -0.4173  0.7108
16866SOL     OW56943   8.424   3.917   2.212 -0.4963  0.3303  0.0534
16866SOL    HW156944   8.500   3.870   2.248 -0.6250  2.0442  2.9246
16866SOL    HW256945   8.396   3.864   2.138  2.3973 -1.3284 -0.0163
16867SOL     OW56946   3.259   7.946   2.796 -0.3732 -0.0877  0.1068
16867SOL    HW156947   3.183   7.900   2.833 -1.5677  0.5247 -1.4562
16867SOL    HW256948   3.327   7.878   2.791 -0.9299 -0.7615  1.1465
16868SOL     OW56949   9.167   6.270   1.696  0.4532  0.2010 -0.9186
16868SOL    HW156950   9.224   6.239   1.767  1.1053  0.6364 -1.2420
16868SOL    HW256951   9.148   6.361   1.718  1.1245  0.5117 -1.5834
16869SOL     OW56952   4.439   6.290   8.184 -0.1376 -0.1574  0.0668
16869SOL    HW156953   4.445   6.377   8.144  1.0099 -1.0921 -1.9391
16869SOL    HW256954   4.350   6.286   8.219 -0.5743  1.4287 -0.7881
16870SOL     OW56955   8.730   8.894   2.268  0.1020  0.4556  0.1319
16870SOL    HW156956   8.774   8.882   2.184 -0.7470 -0.3221 -0.2081
16870SOL    HW256957   8.786   8.957   2.315  1.1259  0.1269 -0.6083
16871SOL     OW56958   3.394   1.370   3.120  0.4558  0.6108  0.5632
16871SOL    HW156959   3.441   1.323   3.189 -0.2979 -0.8655  0.1171
16871SOL    HW256960   3.365   1.302   3.060  0.3211  1.7791 -0.7568
16872SOL     OW56961   1.966   3.319   7.959  0.7458  0.3274 -0.5200
16872SOL    HW156962   1.967   3.320   7.864 -1.5669  0.0171 -0.6149
16872SOL    HW256963   1.979   3.410   7.984  0.0904  0.6220 -1.2038
16873SOL     OW56964   2.761   3.281   5.324 -0.1837  0.0929  0.3139
16873SOL    HW156965   2.755   3.191   5.293 -4.7939  0.3510 -0.1930
16873SOL    HW256966   2.850   3.308   5.301  0.0861 -3.0406 -3.2323
16874SOL     OW56967   7.012   7.334   2.984 -0.0510  0.2626 -0.6079
16874SOL    HW156968   6.935   7.305   2.936 -0.1720  0.2213 -0.3885
16874SOL    HW256969   7.086   7.313   2.925 -0.2836  1.3813 -1.3302
16875SOL     OW56970   4.305   1.924   8.961  0.2784  0.2006 -0.4922
16875SOL    HW156971   4.213   1.927   8.985  0.2019 -0.0996 -0.7340
16875SOL    HW256972   4.351   1.909   9.043  0.1145  0.3878 -0.3667
16876SOL     OW56973   1.772   0.430   2.726  0.6027  0.0777 -0.2379
16876SOL    HW156974   1.865   0.428   2.749  0.9655 -3.3033 -1.4159
16876SOL    HW256975   1.734   0.357   2.775 -1.4036  1.1162 -0.1343
16877SOL     OW56976   0.389   9.203   6.007 -0.4141 -0.2647 -0.2667
16877SOL    HW156977   0.395   9.259   6.084  2.6708 -0.0195 -0.5290
16877SOL    HW256978   0.366   9.116   6.041  0.9850 -0.1800  1.0159
16878SOL     OW56979   0.924   3.287   1.283 -0.2107 -0.3574  0.2115
16878SOL    HW156980   0.920   3.242   1.367 -0.5890  0.6428  0.7411
16878SOL    HW256981   0.941   3.217   1.220 -0.4329 -1.1914  1.0473
16879SOL     OW56982   1.455   8.302   2.911 -0.3636  0.5801 -0.2110
16879SOL    HW156983   1.480   8.392   2.931  5.1390 -0.4999 -0.7882
16879SOL    HW256984   1.455   8.257   2.996  1.2280  0.3298 -0.3221
16880SOL     OW56985   0.256   2.845   7.875 -0.8651  0.3292  0.0252
16880SOL    HW156986   0.217   2.765   7.841  1.3609 -0.6066 -0.5188
16880SOL    HW256987   0.300   2.885   7.799  2.3761 -0.6848  1.1769
16881SOL     OW56988   5.889   1.255   9.073  0.1990 -0.0951 -0.4102
16881SOL    HW156989   5.807   1.289   9.107 -0.3280 -0.3635 -1.3887
16881SOL    HW256990   5.881   1.160   9.080  0.6891 -0.1116  0.0644
16882SOL     OW56991   4.252   7.979   6.178 -0.3389  0.0783  0.5001
16882SOL    HW156992   4.202   8.025   6.246 -1.6335  1.0152 -1.0286
16882SOL    HW256993   4.335   8.026   6.173 -0.8737  1.0237  0.3242
16883SOL     OW56994   8.332   2.084   1.033  0.3179  0.1248  0.3189
16883SOL    HW156995   8.334   2.055   1.124  0.5530  0.5752  0.4638
16883SOL    HW256996   8.414   2.133   1.021 -0.1103  0.8173  0.1264
16884SOL     OW56997   3.055   4.094   0.341  0.3790  0.4017  0.0039
16884SOL    HW156998   3.035   4.176   0.387 -0.2645  1.4573 -2.0171
16884SOL    HW256999   2.983   4.036   0.362  0.0085  0.9263  0.1896
16885SOL     OW57000   2.554   1.194   4.638 -0.0353 -0.3010  0.1358
16885SOL    HW157001   2.602   1.274   4.619 -0.1973 -0.4252 -0.8702
16885SOL    HW257002   2.483   1.193   4.573 -1.1500 -0.3378  1.2985
16886SOL     OW57003   8.646   0.954   3.224 -0.1239  0.1704 -0.5797
16886SOL    HW157004   8.580   1.022   3.212 -3.1699 -2.4307  0.0772
16886SOL    HW257005   8.649   0.909   3.139 -0.7930 -0.9942 -0.0046
16887SOL     OW57006   2.819   3.807   6.033  0.0972 -0.2548 -0.2924
16887SOL    HW157007   2.760   3.848   5.970  0.0001 -0.0589 -0.0776
16887SOL    HW257008   2.906   3.818   5.995 -0.0695 -1.2273 -0.9827
16888SOL     OW57009   2.993   6.855   3.996 -0.1534  0.7358  0.5124
16888SOL    HW157010   2.994   6.916   4.069 -0.3785  1.4624 -0.0848
16888SOL    HW257011   3.006   6.909   3.918 -0.4309  0.0410 -0.0317
16889SOL     OW57012   3.521   2.137   8.511  0.5345  0.2642  0.1996
16889SOL    HW157013   3.578   2.105   8.442  1.2767 -2.0103  1.7483
16889SOL    HW257014   3.433   2.111   8.484  0.5316  1.2491 -0.8242
16890SOL     OW57015   1.480   0.590   1.079 -0.1977 -0.1500 -0.1112
16890SOL    HW157016   1.427   0.528   1.129 -1.7915  1.0175 -0.2449
16890SOL    HW257017   1.530   0.638   1.145 -0.8499  0.0978  0.2091
16891SOL     OW57018   1.677   4.014   0.476  0.3602 -0.3338 -0.2782
16891SOL    HW157019   1.657   4.079   0.544  0.3266 -0.7300  0.0925
16891SOL    HW257020   1.765   3.983   0.497  0.0534 -1.0092  0.0334
16892SOL     OW57021   4.394   6.547   3.568  0.2159 -0.2534  0.0551
16892SOL    HW157022   4.432   6.463   3.595  0.6171 -0.5444 -1.3110
16892SOL    HW257023   4.351   6.528   3.485  1.2632  1.1039 -0.8500
16893SOL     OW57024   8.414   1.995   7.088 -0.7337 -0.7699  0.0394
16893SOL    HW157025   8.505   1.997   7.118  0.6391  0.7510 -3.6015
16893SOL    HW257026   8.366   2.046   7.153  1.7318  1.4883  0.2329
16894SOL     OW57027   8.520   6.066   4.693  0.2068 -0.2947  0.0420
16894SOL    HW157028   8.476   5.983   4.714  1.2604 -0.8341  0.2173
16894SOL    HW257029   8.514   6.118   4.773 -1.2566  0.1829 -0.3555
16895SOL     OW57030   7.480   1.640   3.922 -0.6117 -0.1774  0.3131
16895SOL    HW157031   7.553   1.701   3.912  0.7487 -1.8991 -0.9428
16895SOL    HW257032   7.521   1.557   3.945 -2.1214 -1.3115 -0.8594
16896SOL     OW57033   1.367   4.172   3.537  0.1785 -0.1305  0.4479
16896SOL    HW157034   1.410   4.256   3.549 -0.4842  0.8540 -2.9350
16896SOL    HW257035   1.273   4.192   3.542 -0.0048 -0.4298 -1.1613
16897SOL     OW57036   8.266   4.910   1.830  0.5341  0.2466 -0.2587
16897SOL    HW157037   8.264   5.004   1.850  0.0089  0.5286 -1.4833
16897SOL    HW257038   8.251   4.906   1.735  4.2896 -0.8755 -0.9669
16898SOL     OW57039   3.792   0.645   2.222  0.1454 -0.6578  0.4966
16898SOL    HW157040   3.761   0.734   2.234 -0.0030 -0.9097  2.2418
16898SOL    HW257041   3.887   0.654   2.214  0.1318 -0.3573  0.6794
16899SOL     OW57042   0.118   8.214   8.157  0.2912  0.4662  0.0108
16899SOL    HW157043   0.101   8.286   8.096  1.9989  0.2361 -0.8196
16899SOL    HW257044   0.210   8.226   8.183 -0.2841  0.3337  2.2940
16900SOL     OW57045   2.045   0.144   2.624  0.0345 -0.3411  0.2000
16900SOL    HW157046   2.063   0.142   2.718  0.6720 -0.9807  0.0771
16900SOL    HW257047   1.967   0.090   2.614 -0.6066  0.5197  0.4674
16901SOL     OW57048   7.021   0.059   1.056  0.4842  0.2089 -0.2892
16901SOL    HW157049   7.088   0.011   1.105  1.3185  2.4498  0.9405
16901SOL    HW257050   6.946   0.062   1.115  1.2492  2.3109  0.6897
16902SOL     OW57051   4.159   9.117   2.763  0.3078  0.4105 -0.2316
16902SOL    HW157052   4.191   9.175   2.694  2.5198  0.2894  0.6074
16902SOL    HW257053   4.233   9.058   2.782 -0.5440 -0.1702  1.5843
16903SOL     OW57054   3.822   0.216   6.085  0.3006  0.2439  0.1035
16903SOL    HW157055   3.793   0.129   6.056 -0.0111  0.8790 -1.5849
16903SOL    HW257056   3.799   0.219   6.178 -0.1971 -1.2644  0.0604
16904SOL     OW57057   1.171   8.052   3.937 -0.1263 -0.5052  0.5410
16904SOL    HW157058   1.114   8.009   3.873 -0.4724  1.5635 -0.6379
16904SOL    HW257059   1.259   8.048   3.898  0.1005 -1.3658  1.1112
16905SOL     OW57060   8.745   2.497   1.460  0.3827 -0.4117  0.3576
16905SOL    HW157061   8.786   2.583   1.451  0.3976 -0.2377  1.8694
16905SOL    HW257062   8.664   2.504   1.409 -0.4908  1.1173  1.8138
16906SOL     OW57063   1.297   7.754   3.173 -0.3713  0.4192  0.2790
16906SOL    HW157064   1.255   7.835   3.204 -0.2786  0.4441  0.3423
16906SOL    HW257065   1.333   7.715   3.253 -1.4559 -0.3066  0.4423
16907SOL     OW57066   6.180   1.432   6.083  0.7792 -0.7674  0.6728
16907SOL    HW157067   6.206   1.343   6.102  1.8190 -0.2302  1.9107
16907SOL    HW257068   6.136   1.427   5.998  0.9961 -2.4009  0.6320
16908SOL     OW57069   9.240   0.430   3.160  0.0249  0.0050  0.5817
16908SOL    HW157070   9.307   0.418   3.092 -0.2985 -1.3463  0.4889
16908SOL    HW257071   9.285   0.479   3.229  0.6675  0.4459 -0.1298
16909SOL     OW57072   4.095   6.422   5.280 -0.8875 -0.5217 -0.1227
16909SOL    HW157073   4.041   6.387   5.351  0.2203 -2.4178 -0.1630
16909SOL    HW257074   4.118   6.346   5.228 -0.9218  0.7192 -2.0249
16910SOL     OW57075   0.190   2.004   8.526  0.4663  0.1503  0.3435
16910SOL    HW157076   0.263   1.981   8.584 -0.3014 -1.1465  0.8413
16910SOL    HW257077   0.112   1.979   8.575 -0.2530  0.0965 -0.8029
16911SOL     OW57078   3.591   1.287   9.071 -0.4000  0.1712  0.5983
16911SOL    HW157079   3.543   1.205   9.061 -0.6113  0.1684  1.5459
16911SOL    HW257080   3.647   1.272   9.147  1.3303  0.0804 -0.6363
16912SOL     OW57081   5.450   7.414   4.836  0.1855  0.0699 -0.1560
16912SOL    HW157082   5.396   7.490   4.810 -0.3055 -0.9975 -2.5273
16912SOL    HW257083   5.393   7.339   4.822  2.5608 -1.2587 -4.1582
16913SOL     OW57084   5.913   9.074   3.207  0.0015 -0.3860 -0.7931
16913SOL    HW157085   5.953   9.110   3.128 -0.9106  0.8681 -0.7337
16913SOL    HW257086   5.832   9.126   3.217  0.9025  0.6577  1.8598
16914SOL     OW57087   2.150   1.298   2.226  0.2915 -0.3789 -0.3092
16914SOL    HW157088   2.214   1.369   2.213  0.7554 -0.6140  0.6050
16914SOL    HW257089   2.131   1.267   2.137  0.5439  0.4895 -0.6770
16915SOL     OW57090   1.407   5.286   2.824  0.8350 -0.2396  0.2426
16915SOL    HW157091   1.379   5.378   2.823  1.4194 -0.0549 -1.1244
16915SOL    HW257092   1.479   5.283   2.887  2.0453  0.6505 -1.0422
16916SOL     OW57093   6.381   0.997   3.079  0.5436  0.3972 -0.8604
16916SOL    HW157094   6.472   0.995   3.052 -0.0519 -2.1131 -3.1725
16916SOL    HW257095   6.334   1.035   3.004 -0.5011 -0.2011 -0.5353
16917SOL     OW57096   6.969   4.399   3.370  0.1358  0.3743  0.2299
16917SOL    HW157097   6.896   4.369   3.316  0.0209  0.7409  0.1813
16917SOL    HW257098   7.047   4.378   3.319  0.0782 -0.1631  0.3505
16918SOL     OW57099   6.918   1.409   2.812 -0.3353  0.6392  0.7491
16918SOL    HW157100   6.880   1.338   2.760  4.6967  0.6165 -3.7461
16918SOL    HW257101   6.877   1.488   2.777  1.3672  0.4460 -1.9145
16919SOL     OW57102   0.919   7.736   6.216  0.6193 -0.2710  0.9449
16919SOL    HW157103   0.932   7.672   6.146 -1.2397 -0.1696  0.4569
16919SOL    HW257104   0.885   7.814   6.172 -2.2445 -0.7613  2.0382
16920SOL     OW57105   2.140   7.607   6.652 -0.7186  0.1135  0.3879
16920SOL    HW157106   2.091   7.651   6.582  0.6913  0.3618 -0.4964
16920SOL    HW257107   2.105   7.518   6.654  0.0005 -0.2519 -1.4671
16921SOL     OW57108   0.420   1.594   7.921  0.0571 -0.3336  0.0934
16921SOL    HW157109   0.374   1.655   7.977  0.2622 -0.5093  0.4620
16921SOL    HW257110   0.391   1.507   7.951 -1.0688 -0.4061 -1.1458
16922SOL     OW57111   1.306   8.399   7.681  0.6361 -0.1064  0.1429
16922SOL    HW157112   1.222   8.424   7.642  1.3980  2.0303 -0.2229
16922SOL    HW257113   1.283   8.331   7.745 -1.5695  1.3056  0.9647
16923SOL     OW57114   2.094   1.628   1.005  0.0399 -0.0047 -0.4180
16923SOL    HW157115   2.126   1.648   0.917 -1.1952 -0.6590 -1.0384
16923SOL    HW257116   2.173   1.605   1.055  0.7896  0.6804 -1.2573
16924SOL     OW57117   2.210   4.850   1.088 -0.3564 -0.1703 -0.3233
16924SOL    HW157118   2.223   4.944   1.087 -1.6613  0.0203 -1.3796
16924SOL    HW257119   2.203   4.828   1.181  1.3404  0.5410  0.0039
16925SOL     OW57120   2.567   7.139   8.457 -0.7888 -0.1896 -0.6476
16925SOL    HW157121   2.572   7.046   8.433 -0.2612 -0.4305  0.3364
16925SOL    HW257122   2.658   7.167   8.464 -0.7772 -0.6219  2.7662
16926SOL     OW57123   4.034   2.821   1.488  0.5646  0.0909 -0.1316
16926SOL    HW157124   3.970   2.778   1.431  1.1445  1.2125 -1.6669
16926SOL    HW257125   4.119   2.787   1.459  0.8070 -0.0584  0.7230
16927SOL     OW57126   1.635   5.520   8.444  0.3475 -0.0047 -0.1491
16927SOL    HW157127   1.617   5.607   8.479 -0.8989 -0.2348 -0.1638
16927SOL    HW257128   1.574   5.511   8.371  2.4251  0.2025 -2.0362
16928SOL     OW57129   2.243   5.849   8.299 -0.1995  0.2734  0.4124
16928SOL    HW157130   2.232   5.762   8.338 -1.6187  0.3356  0.1853
16928SOL    HW257131   2.215   5.839   8.208 -3.3273  1.5699  1.0880
16929SOL     OW57132   0.202   1.352   8.386 -0.1761 -0.4837  0.1635
16929SOL    HW157133   0.168   1.273   8.429 -0.3808 -0.7289 -0.4360
16929SOL    HW257134   0.129   1.381   8.330 -0.7563  1.1183  1.6513
16930SOL     OW57135   4.510   5.751   1.478 -0.2262  0.2140 -0.5441
16930SOL    HW157136   4.452   5.721   1.548  0.7178  1.4755  0.8291
16930SOL    HW257137   4.541   5.670   1.436 -1.2776 -0.5384  0.0923
16931SOL     OW57138   1.656   4.245   8.495  0.1599 -0.2416 -0.0856
16931SOL    HW157139   1.620   4.333   8.498  1.6303  0.3533  1.1631
16931SOL    HW257140   1.590   4.190   8.537 -0.0965  0.5211  0.5226
16932SOL     OW57141   0.735   0.220   5.798 -0.2370  0.0007  0.3572
16932SOL    HW157142   0.771   0.199   5.884 -4.0464  0.0618  2.1791
16932SOL    HW257143   0.708   0.136   5.762  0.6630  0.0548 -0.4597
16933SOL     OW57144   3.675   7.281   3.618  0.1972 -0.3899  0.2949
16933SOL    HW157145   3.753   7.275   3.564 -1.0751  2.5498 -2.1317
16933SOL    HW257146   3.708   7.301   3.706  2.1826  1.5897 -0.8249
16934SOL     OW57147   6.099   6.286   8.710  0.3037  0.0842 -0.2836
16934SOL    HW157148   6.172   6.261   8.765  0.9296  0.7318 -0.8014
16934SOL    HW257149   6.090   6.214   8.647 -0.8189 -0.9583  1.0245
16935SOL     OW57150   3.508   7.473   8.922 -0.6508 -0.1231 -0.3125
16935SOL    HW157151   3.579   7.536   8.925 -0.8981  0.1255  0.4555
16935SOL    HW257152   3.430   7.525   8.903 -1.4244  0.3625  3.4839
16936SOL     OW57153   1.289   7.328   3.782  0.2680 -0.3146  0.4700
16936SOL    HW157154   1.207   7.300   3.821 -0.1777 -0.7629 -0.7502
16936SOL    HW257155   1.275   7.420   3.760  0.5158 -0.0633  1.2980
16937SOL     OW57156   0.366   4.472   7.931  0.5177  0.3523  0.1726
16937SOL    HW157157   0.366   4.511   8.019  0.6355  1.1139 -0.1562
16937SOL    HW257158   0.305   4.527   7.882  1.3861  0.6839 -0.5470
16938SOL     OW57159   3.958   1.221   6.041  0.3007 -0.1881  0.0944
16938SOL    HW157160   3.877   1.263   6.012  0.0342 -0.5224  0.3416
16938SOL    HW257161   3.963   1.142   5.987  1.1418  0.4823 -0.8362
16939SOL     OW57162   8.300   2.288   6.752 -0.4067 -0.3237  0.2001
16939SOL    HW157163   8.382   2.331   6.727 -0.8622  0.5892  0.2479
16939SOL    HW257164   8.269   2.338   6.828 -0.6330 -1.1234  0.6448
16940SOL     OW57165   2.332   2.557   4.813  0.1228 -0.0118  0.7000
16940SOL    HW157166   2.245   2.524   4.789  1.0573 -2.1964  0.0860
16940SOL    HW257167   2.317   2.648   4.838 -2.5070 -0.5964  1.5911
16941SOL     OW57168   2.041   2.001   8.547  0.4473  0.5350 -0.4631
16941SOL    HW157169   2.030   2.000   8.642  1.4167 -0.0849 -0.3466
16941SOL    HW257170   2.121   2.051   8.533  1.0643 -0.5301 -0.8542
16942SOL     OW57171   1.742   4.855   2.066  0.5293 -0.3389  0.1219
16942SOL    HW157172   1.673   4.907   2.108  1.1604  0.5817  0.0370
16942SOL    HW257173   1.774   4.909   1.994  0.8129 -1.0845 -0.3312
16943SOL     OW57174   1.168   3.653   3.867  0.1700 -0.2455 -0.0452
16943SOL    HW157175   1.137   3.744   3.867  1.2082  0.1359  0.6653
16943SOL    HW257176   1.114   3.609   3.802  0.9007  1.3424 -1.8427
16944SOL     OW57177   6.293   8.114   1.192 -0.6972  0.3721  0.1785
16944SOL    HW157178   6.350   8.166   1.249  0.3907 -0.4423 -0.1376
16944SOL    HW257179   6.219   8.091   1.248 -0.2257  0.5875  0.9147
16945SOL     OW57180   0.406   7.711   2.943  0.6240 -0.4518 -0.1541
16945SOL    HW157181   0.370   7.685   2.858 -0.6416  0.6203  0.0218
16945SOL    HW257182   0.411   7.630   2.993 -0.1814 -0.8436 -0.6936
16946SOL     OW57183   4.280   8.782   8.976 -0.1625 -0.6422 -0.0447
16946SOL    HW157184   4.214   8.742   9.032  0.4677 -1.6295  0.0195
16946SOL    HW257185   4.300   8.715   8.910  1.6952 -0.9088  0.7099
16947SOL     OW57186   7.377   1.718   1.939 -0.3227 -0.4832  0.6083
16947SOL    HW157187   7.308   1.652   1.938  0.6304 -1.4915  0.1978
16947SOL    HW257188   7.447   1.680   1.992 -0.3598  0.8561  1.6992
16948SOL     OW57189   8.352   7.297   3.442  0.4346  0.1286 -0.3588
16948SOL    HW157190   8.360   7.206   3.414  2.1542 -0.7412  2.5419
16948SOL    HW257191   8.433   7.339   3.413  1.5415 -0.4068  1.7099
16949SOL     OW57192   6.472   7.610   8.982  0.3028  0.1618 -0.0353
16949SOL    HW157193   6.468   7.700   8.949 -2.1035  0.2890  0.3779
16949SOL    HW257194   6.418   7.560   8.921  1.5559 -1.0108 -0.2145
16950SOL     OW57195   5.575   2.418   2.148 -0.9546 -0.0850  0.1428
16950SOL    HW157196   5.545   2.409   2.239 -1.9494 -0.1378 -0.1829
16950SOL    HW257197   5.496   2.433   2.098 -0.1827  2.7996 -0.3775
16951SOL     OW57198   0.614   9.037   4.501 -0.1847  0.1842  0.5976
16951SOL    HW157199   0.693   9.091   4.493 -0.8068  0.9502 -0.8819
16951SOL    HW257200   0.548   9.084   4.449 -0.8189 -1.8742 -0.5793
16952SOL     OW57201   1.195   0.340   4.811  0.0513 -0.7271  0.1803
16952SOL    HW157202   1.111   0.374   4.841 -0.1981 -0.4882 -0.7652
16952SOL    HW257203   1.259   0.380   4.869 -0.3909 -0.0047  0.1877
16953SOL     OW57204   3.029   0.346   3.633  0.0804  0.2360 -0.5974
16953SOL    HW157205   3.083   0.315   3.560  1.0790  0.4889  0.0082
16953SOL    HW257206   2.947   0.296   3.625  1.1413 -1.6318 -0.3942
16954SOL     OW57207   8.176   8.397   0.843 -0.0187 -0.1791 -0.0167
16954SOL    HW157208   8.230   8.449   0.902 -1.0666  0.8089  0.0869
16954SOL    HW257209   8.239   8.340   0.798  0.9239 -0.1166  1.1770
16955SOL     OW57210   8.127   1.503   6.886  0.1656 -0.2260  0.3503
16955SOL    HW157211   8.078   1.421   6.892  0.4771 -0.3813  0.8237
16955SOL    HW257212   8.196   1.494   6.952  0.4615  0.2393  0.1034
16956SOL     OW57213   2.656   4.283   8.175 -0.4212  0.5616  0.0787
16956SOL    HW157214   2.591   4.349   8.200  1.3649  1.7549  1.8688
16956SOL    HW257215   2.707   4.269   8.254  0.5328 -1.5352 -0.8305
16957SOL     OW57216   8.340   1.831   0.087 -0.4107 -0.1877  0.2652
16957SOL    HW157217   8.284   1.902   0.119 -1.1574 -0.5354 -0.2409
16957SOL    HW257218   8.315   1.755   0.141  1.6723  0.3279  2.0713
16958SOL     OW57219   6.121   8.165   3.345 -0.2066  0.2091 -0.1884
16958SOL    HW157220   6.045   8.197   3.395 -0.6359  1.1464 -1.3820
16958SOL    HW257221   6.093   8.080   3.311  0.7744 -1.3656  2.6378
16959SOL     OW57222   6.428   8.243   0.755 -0.2703 -0.0049 -0.3819
16959SOL    HW157223   6.432   8.260   0.661  0.4725 -0.1698 -0.3919
16959SOL    HW257224   6.356   8.297   0.787  0.2307  0.9612 -0.8520
16960SOL     OW57225   7.037   1.029   4.343  0.2894 -0.1902  0.0584
16960SOL    HW157226   7.017   0.935   4.348  0.3579 -0.1648  1.2269
16960SOL    HW257227   7.053   1.054   4.434  2.9927  0.3840 -0.5034
16961SOL     OW57228   4.035   1.820   2.662 -0.0321 -0.7169  0.3785
16961SOL    HW157229   4.022   1.846   2.754  1.4060  0.0367  0.3951
16961SOL    HW257230   4.006   1.895   2.611  2.8450  0.5327  0.3864
16962SOL     OW57231   4.871   3.132   6.317 -0.4792 -0.4550 -0.2234
16962SOL    HW157232   4.834   3.043   6.315  0.6731 -0.9454 -0.7082
16962SOL    HW257233   4.898   3.145   6.408 -0.7394 -0.5702 -0.1305
16963SOL     OW57234   1.844   5.825   8.031  0.1754 -0.0991  0.3238
16963SOL    HW157235   1.767   5.829   8.088 -1.9131 -2.8064 -1.9947
16963SOL    HW257236   1.822   5.758   7.966  3.0457  1.5880 -2.6908
16964SOL     OW57237   6.469   6.940   1.566 -0.1692 -0.3851 -0.2844
16964SOL    HW157238   6.386   6.895   1.559 -0.3698  0.0695 -1.0884
16964SOL    HW257239   6.449   7.022   1.612 -0.0003 -0.6570  0.2776
16965SOL     OW57240   8.068   8.262   3.219 -0.1635 -0.2586 -0.0500
16965SOL    HW157241   8.031   8.176   3.240  2.5095 -1.5014 -0.0292
16965SOL    HW257242   7.994   8.313   3.187 -1.5985 -3.0830 -1.6287
16966SOL     OW57243   4.596   8.126   8.181  0.3991 -0.3159 -1.0770
16966SOL    HW157244   4.677   8.094   8.140 -0.3270 -1.1325 -1.9056
16966SOL    HW257245   4.577   8.061   8.249  0.7300  0.1706 -0.5162
16967SOL     OW57246   1.775   6.414   8.085 -0.5665 -0.1437 -0.3752
16967SOL    HW157247   1.737   6.350   8.024  0.5613 -2.7315  1.4443
16967SOL    HW257248   1.855   6.443   8.042  0.9556 -2.9964  0.2919
16968SOL     OW57249   2.611   8.183   4.311  0.0647 -0.1115 -0.3216
16968SOL    HW157250   2.584   8.251   4.249  2.1829 -0.1653 -1.3948
16968SOL    HW257251   2.531   8.133   4.328 -1.0110  1.1717 -1.3972
16969SOL     OW57252   5.063   3.487   6.910 -0.4198 -0.2118  0.0482
16969SOL    HW157253   4.978   3.488   6.865 -0.2664  2.6163 -0.3801
16969SOL    HW257254   5.042   3.470   7.001 -1.1136 -2.3561 -0.4600
16970SOL     OW57255   4.863   1.539   7.974  0.8342 -0.5932  0.1009
16970SOL    HW157256   4.853   1.499   8.060  2.9630 -0.1430  0.5994
16970SOL    HW257257   4.825   1.475   7.913 -2.0820 -0.2866  1.4032
16971SOL     OW57258   7.458   7.066   1.783 -0.2048  0.4731 -0.1847
16971SOL    HW157259   7.380   7.119   1.801 -0.5578 -0.5102  1.3380
16971SOL    HW257260   7.515   7.124   1.733 -1.3544  1.6565 -0.1839
16972SOL     OW57261   9.027   1.413   7.535 -0.0188 -0.7707 -0.2167
16972SOL    HW157262   8.953   1.468   7.507 -1.7130 -2.4331  0.7306
16972SOL    HW257263   9.019   1.410   7.631  1.0805 -1.2686 -0.1322
16973SOL     OW57264   6.625   2.322   5.352  0.1131  0.9546  0.6856
16973SOL    HW157265   6.620   2.378   5.430  0.9650 -0.3813  1.7555
16973SOL    HW257266   6.668   2.242   5.383 -1.9494 -0.7185 -0.5329
16974SOL     OW57267   3.433   6.033   7.797  0.5638  0.5115 -0.2992
16974SOL    HW157268   3.441   6.101   7.730  0.3813 -0.0297 -0.8841
16974SOL    HW257269   3.514   5.983   7.790  1.3492  1.5140  1.1127
16975SOL     OW57270   4.235   5.764   7.150  0.1476  0.6775 -0.8709
16975SOL    HW157271   4.155   5.817   7.147  0.3878  1.1053  0.0791
16975SOL    HW257272   4.227   5.712   7.230  1.7125  2.2102  0.3571
16976SOL     OW57273   5.647   5.374   6.919 -0.2847  0.0572 -0.2434
16976SOL    HW157274   5.644   5.313   6.845  3.0601  1.1403 -1.4559
16976SOL    HW257275   5.568   5.427   6.909 -1.7829 -2.1383 -0.8319
16977SOL     OW57276   5.530   9.102   8.947 -0.3884  0.4887 -0.1802
16977SOL    HW157277   5.544   9.031   9.010  1.5796  1.0952  0.1573
16977SOL    HW257278   5.514   9.180   9.002  1.0468  0.9633 -0.3952
16978SOL     OW57279   7.030   4.933   8.428  0.3691  0.1014  0.3918
16978SOL    HW157280   7.112   4.961   8.389  1.2691 -1.5692  0.9679
16978SOL    HW257281   6.963   4.990   8.389  1.6641  0.8495 -0.8052
16979SOL     OW57282   8.044   1.655   7.863  0.5727  0.2732  0.3931
16979SOL    HW157283   7.984   1.728   7.880  1.0386  1.0688 -1.1827
16979SOL    HW257284   8.127   1.682   7.902  0.4807  0.1343  0.6868
16980SOL     OW57285   0.361   4.623   4.939  0.1371 -0.3373  0.6000
16980SOL    HW157286   0.301   4.549   4.930  0.4541 -0.3409 -2.3654
16980SOL    HW257287   0.306   4.700   4.932  0.2121 -0.3205  0.1991
16981SOL     OW57288   2.091   5.408   7.324 -0.5348  0.2345  0.3356
16981SOL    HW157289   2.011   5.373   7.283 -0.2432 -1.8694  1.4223
16981SOL    HW257290   2.092   5.368   7.411  0.8051  1.6447  1.0072
16982SOL     OW57291   9.222   2.331   3.460 -0.1658 -0.5023  0.3503
16982SOL    HW157292   9.304   2.358   3.501 -1.2466  2.7049  0.6416
16982SOL    HW257293   9.237   2.342   3.366  1.1549 -4.5280 -0.1174
16983SOL     OW57294   8.565   3.312   1.314  0.0598 -0.3669  0.1218
16983SOL    HW157295   8.618   3.329   1.237 -0.1375  1.3282  0.3261
16983SOL    HW257296   8.548   3.218   1.311  0.3500 -0.3962 -1.6935
16984SOL     OW57297   8.694   4.328   3.429 -0.2796 -0.0905  0.8400
16984SOL    HW157298   8.620   4.273   3.456  0.3567 -1.0078  0.7809
16984SOL    HW257299   8.752   4.328   3.505 -0.1033  0.1984  0.7062
16985SOL     OW57300   7.785   4.954   0.393 -0.8847  0.4467  0.2101
16985SOL    HW157301   7.698   4.963   0.355 -0.6801  1.9084  0.0541
16985SOL    HW257302   7.845   4.962   0.319 -0.5917 -0.4157  0.3381
16986SOL     OW57303   9.064   2.200   1.928 -0.3114  0.4158 -0.5909
16986SOL    HW157304   9.101   2.144   1.996 -1.2770 -0.2777 -0.6115
16986SOL    HW257305   8.996   2.146   1.886  2.0825 -0.2504 -4.0400
16987SOL     OW57306   7.660   8.445   0.752  0.5498  0.2205  0.1422
16987SOL    HW157307   7.754   8.432   0.744  0.3901 -0.1178 -1.9367
16987SOL    HW257308   7.650   8.535   0.780  1.5236  1.2294 -2.4225
16988SOL     OW57309   5.834   4.649   0.312 -0.0222 -0.2139  0.4291
16988SOL    HW157310   5.913   4.673   0.263  0.0317 -0.2451  0.4996
16988SOL    HW257311   5.766   4.641   0.245  0.4878 -2.2080  0.0679
16989SOL     OW57312   5.620   3.666   7.025  0.0389  0.0696 -0.3699
16989SOL    HW157313   5.623   3.661   6.930 -1.0657 -0.0903 -0.4042
16989SOL    HW257314   5.552   3.604   7.051  1.7200 -1.4010  0.6770
16990SOL     OW57315   0.434   1.087   1.925  0.4179 -0.3062  0.6763
16990SOL    HW157316   0.484   1.055   2.000 -1.1530  0.9794  2.3655
16990SOL    HW257317   0.358   1.028   1.920  0.0009  0.2221  0.7424
16991SOL     OW57318   0.824   5.873   8.892 -0.6648  0.0107 -0.3199
16991SOL    HW157319   0.730   5.865   8.879 -0.8199 -0.1213  0.7925
16991SOL    HW257320   0.840   5.967   8.899 -1.0704 -0.0387  1.7867
16992SOL     OW57321   6.139   4.029   2.756 -0.3355 -0.4792  0.0818
16992SOL    HW157322   6.206   4.094   2.777 -0.4979 -0.2067 -0.2487
16992SOL    HW257323   6.123   4.040   2.662 -1.1904 -0.2195  0.2585
16993SOL     OW57324   2.533   8.480   8.502 -0.0069  0.0487 -0.5917
16993SOL    HW157325   2.498   8.434   8.426  0.3130 -0.1024 -0.6481
16993SOL    HW257326   2.626   8.488   8.485  0.6025 -2.4283  1.0287
16994SOL     OW57327   2.259   8.589   3.669  0.1765  0.0865  0.0427
16994SOL    HW157328   2.251   8.680   3.698  0.2305  0.6844 -1.6679
16994SOL    HW257329   2.332   8.553   3.720  0.0381  0.9379  0.8641
16995SOL     OW57330   0.643   8.784   7.860  0.4542 -0.2051 -0.9584
16995SOL    HW157331   0.577   8.800   7.793 -0.6941 -0.5042  0.0706
16995SOL    HW257332   0.667   8.692   7.848 -0.9114 -0.7152  0.0172
16996SOL     OW57333   8.406   7.607   3.212  0.2247 -0.2029  0.0400
16996SOL    HW157334   8.339   7.654   3.261  0.4748 -0.7897  0.9680
16996SOL    HW257335   8.412   7.654   3.129 -0.0666  0.9423  0.6398
16997SOL     OW57336   4.775   7.457   1.694  0.5424 -0.7128  0.2685
16997SOL    HW157337   4.816   7.436   1.778 -0.3807 -1.8454  0.4610
16997SOL    HW257338   4.827   7.409   1.629 -0.4053 -2.1431  0.5113
16998SOL     OW57339   1.125   4.887   7.366  0.2330  0.3667 -0.4090
16998SOL    HW157340   1.138   4.813   7.425  1.8718  1.5243  0.7820
16998SOL    HW257341   1.138   4.850   7.278  2.8769 -0.4837  0.2362
16999SOL     OW57342   7.840   8.906   8.798 -0.6036 -0.1319 -0.3185
16999SOL    HW157343   7.837   9.001   8.804  0.7097 -0.0325 -0.9235
16999SOL    HW257344   7.779   8.875   8.865  0.4137  1.1002  1.2467
17000SOL     OW57345   2.650   8.161   1.099  0.6700  0.0899 -0.0375
17000SOL    HW157346   2.639   8.078   1.052  0.7080 -0.2137  0.4726
17000SOL    HW257347   2.625   8.228   1.036  3.6131 -0.0704 -1.5106
17001SOL     OW57348   8.861   9.221   6.388 -0.2168 -0.2587  0.1439
17001SOL    HW157349   8.837   9.247   6.299 -2.1235 -2.3891 -0.0383
17001SOL    HW257350   8.957   9.212   6.385 -0.1861  0.2794 -1.5030
17002SOL     OW57351   6.957   3.536   2.994 -0.2255 -0.0406  0.0586
17002SOL    HW157352   7.017   3.541   2.920 -0.6865 -1.2991 -0.4368
17002SOL    HW257353   6.928   3.445   2.994 -2.0106  0.4887  0.3704
17003SOL     OW57354   4.091   1.076   9.240  0.1319 -0.3527 -0.1837
17003SOL    HW157355   4.065   1.015   9.310 -0.0810  0.6181  0.6099
17003SOL    HW257356   4.028   1.061   9.170 -0.7737 -0.1046  0.5528
17004SOL     OW57357   0.712   9.001   8.710 -0.6121 -0.0076 -0.3291
17004SOL    HW157358   0.632   9.045   8.739 -0.5768  0.1154 -0.4169
17004SOL    HW257359   0.782   9.062   8.733 -0.6398  0.4266 -1.3354
17005SOL     OW57360   3.594   2.617   2.195 -0.5474 -0.0452  0.1349
17005SOL    HW157361   3.573   2.524   2.205  1.9059 -0.5612  1.2023
17005SOL    HW257362   3.689   2.622   2.205 -0.3061  2.3356 -2.0788
17006SOL     OW57363   8.725   5.969   9.040  0.2985 -1.1423 -0.1179
17006SOL    HW157364   8.636   5.979   9.007 -0.3532 -2.2657  1.2523
17006SOL    HW257365   8.744   5.876   9.033  1.0767 -1.0322  0.3624
17007SOL     OW57366   3.196   0.293   6.761  0.5394  0.1293  0.2814
17007SOL    HW157367   3.238   0.303   6.846 -0.8270 -1.5928  1.2132
17007SOL    HW257368   3.183   0.198   6.751 -1.0024  0.4274 -0.9964
17008SOL     OW57369   8.599   1.410   8.731 -0.9433  0.3048 -0.4306
17008SOL    HW157370   8.656   1.469   8.780  0.3026 -0.7756 -0.5187
17008SOL    HW257371   8.613   1.433   8.639  1.1945 -1.4486 -0.6271
17009SOL     OW57372   5.475   0.891   1.056  0.1911 -0.0138  0.8384
17009SOL    HW157373   5.449   0.808   1.097 -0.1558  0.7481  2.2421
17009SOL    HW257374   5.510   0.866   0.971 -1.4524 -1.4497  0.5393
17010SOL     OW57375   4.659   6.844   8.463 -0.0424 -0.4611  0.2719
17010SOL    HW157376   4.711   6.780   8.511 -2.0842 -1.6271  1.0502
17010SOL    HW257377   4.639   6.802   8.380  0.2184 -0.0271 -0.0173
17011SOL     OW57378   8.578   3.526   9.169  1.0437 -0.2489 -0.0520
17011SOL    HW157379   8.622   3.493   9.248  1.0192  3.1430  1.5153
17011SOL    HW257380   8.486   3.528   9.192  1.1195  1.5532  0.2272
17012SOL     OW57381   5.521   8.170   7.504  0.4806 -0.6275 -0.2021
17012SOL    HW157382   5.453   8.128   7.452 -0.6903 -0.4726  1.1470
17012SOL    HW257383   5.511   8.264   7.486  1.6776 -0.7290 -1.5408
17013SOL     OW57384   2.234   9.055   5.067 -0.7112 -0.5095 -0.5824
17013SOL    HW157385   2.174   9.101   5.009 -0.7152 -0.8082 -0.8189
17013SOL    HW257386   2.321   9.081   5.037 -0.7222  0.4284  0.1731
17014SOL     OW57387   8.966   6.201   0.647 -0.4650  0.3970  0.0317
17014SOL    HW157388   9.058   6.227   0.653  1.2662 -4.1984 -1.7797
17014SOL    HW257389   8.937   6.196   0.738  1.3001  1.3104  0.7011
17015SOL     OW57390   3.343   3.240   6.095  0.1714  0.4387  0.3305
17015SOL    HW157391   3.330   3.207   6.006 -0.0596 -0.5804  0.7296
17015SOL    HW257392   3.362   3.333   6.083  0.3161  0.2832 -0.7942
17016SOL     OW57393   4.694   7.751   8.477 -0.6055  0.2636 -0.4353
17016SOL    HW157394   4.747   7.694   8.422 -0.0641  1.2097 -0.9356
17016SOL    HW257395   4.682   7.703   8.558  0.4330 -0.2624 -0.5730
17017SOL     OW57396   5.313   3.402   2.316 -0.1667  0.4758  0.0376
17017SOL    HW157397   5.297   3.389   2.409 -1.0166  2.1020  0.1539
17017SOL    HW257398   5.405   3.378   2.304 -0.4387 -1.1802  0.9862
17018SOL     OW57399   2.000   1.482   8.906  0.1597 -0.1563 -0.2532
17018SOL    HW157400   1.924   1.434   8.876 -0.4657 -1.8824  3.5042
17018SOL    HW257401   2.075   1.436   8.867 -0.5702 -2.1422  0.5541
17019SOL     OW57402   5.319   8.456   2.746  0.1320 -0.2923 -0.3269
17019SOL    HW157403   5.373   8.523   2.704  1.4648 -1.2508 -0.1893
17019SOL    HW257404   5.323   8.476   2.839  0.3500 -0.4363 -0.3055
17020SOL     OW57405   2.013   7.734   5.787  0.1396 -0.0871 -0.1224
17020SOL    HW157406   1.925   7.771   5.773 -1.3248 -1.6860  3.5189
17020SOL    HW257407   2.052   7.790   5.854  0.9887 -0.7388 -0.0589
17021SOL     OW57408   0.869   4.714   1.991 -0.1560 -0.3902 -0.1388
17021SOL    HW157409   0.960   4.729   2.017 -0.0994 -0.2699 -0.4025
17021SOL    HW257410   0.828   4.676   2.069 -0.1365  0.5023  0.3253
17022SOL     OW57411   0.898   7.668   3.633 -0.4009 -0.0408 -0.0785
17022SOL    HW157412   0.808   7.680   3.664 -0.4390  0.0770 -0.2328
17022SOL    HW257413   0.943   7.625   3.706 -1.0952 -2.0621 -0.7725
17023SOL     OW57414   7.776   0.770   6.434 -0.8772  0.4196  0.5925
17023SOL    HW157415   7.722   0.849   6.424 -0.0924  0.8448 -0.6788
17023SOL    HW257416   7.733   0.704   6.380 -0.4860  0.5862  0.0569
17024SOL     OW57417   3.022   8.913   1.568 -0.0783  0.1943 -1.3644
17024SOL    HW157418   3.047   9.001   1.543  1.2765  0.0934 -0.4708
17024SOL    HW257419   2.930   8.906   1.544  0.2359  1.2684 -2.9771
17025SOL     OW57420   2.134   7.092   4.403 -0.3933 -0.2271  0.7393
17025SOL    HW157421   2.166   7.011   4.444  1.8359 -0.8319 -1.8819
17025SOL    HW257422   2.060   7.064   4.349  0.6027 -0.7041 -0.4556
17026SOL     OW57423   2.273   3.398   1.830  0.6149  0.1174  0.1726
17026SOL    HW157424   2.202   3.452   1.797  0.9119 -0.2955 -1.2119
17026SOL    HW257425   2.257   3.391   1.924 -0.2721  1.3357  0.1301
17027SOL     OW57426   3.026   1.872   2.891  0.2030  0.7373 -0.5483
17027SOL    HW157427   3.030   1.858   2.986 -1.2759  2.4260 -0.1783
17027SOL    HW257428   3.096   1.817   2.856  0.6454 -0.1085  1.4916
17028SOL     OW57429   7.319   8.002   8.059  0.3380 -0.3429  0.4799
17028SOL    HW157430   7.355   8.063   7.994  1.2904 -1.0569  0.3144
17028SOL    HW257431   7.376   8.013   8.135 -0.9004  0.6506  1.3156
17029SOL     OW57432   2.396   8.671   1.812 -0.3084  0.6389  0.1440
17029SOL    HW157433   2.466   8.715   1.764  1.2863 -1.5271  0.3260
17029SOL    HW257434   2.370   8.734   1.879  0.2067  2.1694 -1.0459
17030SOL     OW57435   8.972   1.676   2.299 -0.1100 -0.0065 -0.1122
17030SOL    HW157436   9.009   1.717   2.377  2.9893 -2.8572  0.1432
17030SOL    HW257437   8.917   1.605   2.333 -1.0128  0.4732 -0.5468
17031SOL     OW57438   5.672   6.484   7.800 -0.0852 -0.3669 -0.3515
17031SOL    HW157439   5.637   6.432   7.872 -0.1370  0.4191  0.2126
17031SOL    HW257440   5.762   6.454   7.790 -0.1250 -0.5819 -0.0527
17032SOL     OW57441   5.198   8.188   7.089 -0.3416  0.0873  0.3376
17032SOL    HW157442   5.156   8.274   7.086  0.1507  0.3037 -0.9088
17032SOL    HW257443   5.146   8.134   7.030  0.0090 -0.1539  0.2487
17033SOL     OW57444   3.752   3.017   0.071 -0.2394  0.1085  0.3742
17033SOL    HW157445   3.769   3.109   0.050 -1.1674 -0.1413 -1.6729
17033SOL    HW257446   3.818   2.969   0.020  0.2791 -0.3843  1.4780
17034SOL     OW57447   6.610   1.128   5.728 -0.0010 -0.4933  0.5855
17034SOL    HW157448   6.519   1.157   5.733  0.3606  0.9759 -0.5715
17034SOL    HW257449   6.657   1.183   5.790  0.3305 -0.1346  0.0299
17035SOL     OW57450   8.002   6.305   3.505  0.1576  0.6603  0.0090
17035SOL    HW157451   7.918   6.259   3.514 -0.6069  1.4856 -2.1236
17035SOL    HW257452   8.026   6.330   3.594  0.4287 -3.4237  1.2677
17036SOL     OW57453   0.118   3.299   0.734  0.2529  0.5051  0.2290
17036SOL    HW157454   0.065   3.275   0.810 -1.5994  0.6144 -0.9521
17036SOL    HW257455   0.144   3.215   0.695  0.5220  0.4494  0.5264
17037SOL     OW57456   2.018   1.499   0.560  0.1841 -0.2143  0.3477
17037SOL    HW157457   1.942   1.529   0.610  1.3721 -1.5221  3.1509
17037SOL    HW257458   1.987   1.423   0.512 -0.6327  0.1475  0.2950
17038SOL     OW57459   6.321   4.295   1.127 -0.3822  0.8911  0.2265
17038SOL    HW157460   6.290   4.291   1.036 -2.5324  2.8603  0.7684
17038SOL    HW257461   6.416   4.304   1.119 -0.0897 -2.4019 -1.6508
17039SOL     OW57462   7.670   8.573   3.621 -0.8755  0.0789 -0.2093
17039SOL    HW157463   7.625   8.489   3.610 -0.3749 -0.1578 -0.4946
17039SOL    HW257464   7.716   8.586   3.538 -0.4326  0.3220  0.0711
17040SOL     OW57465   8.953   4.596   8.166  0.2102  0.3673  0.7125
17040SOL    HW157466   8.944   4.528   8.233 -0.7926 -0.5930 -0.3570
17040SOL    HW257467   8.864   4.627   8.151  0.0174 -1.1412 -1.8467
17041SOL     OW57468   1.479   7.512   8.873  0.4932 -0.9081 -0.1134
17041SOL    HW157469   1.503   7.458   8.798 -0.7179  0.2030 -1.3571
17041SOL    HW257470   1.543   7.584   8.873  0.8523 -1.2252  0.2860
17042SOL     OW57471   3.861   6.314   4.236 -0.6693 -0.1520  0.1700
17042SOL    HW157472   3.861   6.374   4.312 -0.9179  0.1186 -0.0396
17042SOL    HW257473   3.952   6.312   4.207 -0.6154 -0.0682  0.3306
17043SOL     OW57474   3.912   4.976   1.767 -0.4935 -0.2698  0.0006
17043SOL    HW157475   3.892   4.959   1.675  2.0829 -1.5467 -0.4152
17043SOL    HW257476   3.999   5.016   1.766 -0.7837  0.5013  1.8600
17044SOL     OW57477   8.635   2.595   7.380  0.3825 -0.1656  0.0048
17044SOL    HW157478   8.684   2.513   7.389  0.0459 -0.6131 -1.7359
17044SOL    HW257479   8.601   2.612   7.467  3.4163  0.0711  1.2931
17045SOL     OW57480   4.295   1.579   0.597  0.0371  0.0276 -0.0153
17045SOL    HW157481   4.209   1.575   0.638  0.6757  0.7715  1.4525
17045SOL    HW257482   4.292   1.511   0.529 -2.3463  1.2874 -1.3050
17046SOL     OW57483   4.824   7.835   2.602 -0.4018  0.8556 -0.1990
17046SOL    HW157484   4.891   7.772   2.579 -2.1638 -1.6777  1.1040
17046SOL    HW257485   4.779   7.854   2.520 -0.2617 -0.1269 -0.5151
17047SOL     OW57486   7.030   7.403   6.955 -0.1150  0.6704  0.1224
17047SOL    HW157487   6.994   7.489   6.977  1.1209  1.6787 -1.5359
17047SOL    HW257488   7.110   7.423   6.905  0.4073 -1.4519  0.0330
17048SOL     OW57489   0.435   2.099   2.502  0.5610 -0.1317 -0.1226
17048SOL    HW157490   0.405   2.018   2.461  1.9836 -0.8116  0.0974
17048SOL    HW257491   0.421   2.086   2.595  0.3712  0.0613 -0.1238
17049SOL     OW57492   3.889   3.269   8.481  0.1811 -0.1245  0.3092
17049SOL    HW157493   3.944   3.282   8.559  1.0864 -1.5449 -0.0707
17049SOL    HW257494   3.936   3.205   8.428 -2.0015 -1.7292  0.1529
17050SOL     OW57495   5.662   0.399   8.266  0.7803  0.4224 -0.4772
17050SOL    HW157496   5.669   0.494   8.274 -0.2348  0.6191 -1.6949
17050SOL    HW257497   5.662   0.368   8.356 -0.5624  1.7176  0.0098
17051SOL     OW57498   0.314   3.973   7.970 -0.2452 -0.0198 -0.1374
17051SOL    HW157499   0.226   3.990   8.003 -0.6798  0.8779 -1.6604
17051SOL    HW257500   0.349   4.060   7.949  0.3094 -0.4900 -1.2337
17052SOL     OW57501   2.606   1.688   6.836  0.3941  0.6973  0.0250
17052SOL    HW157502   2.542   1.654   6.898  0.8978  0.6514  0.5309
17052SOL    HW257503   2.608   1.782   6.853  0.3952  0.7099 -0.0461
17053SOL     OW57504   4.994   2.062   1.477 -0.3615  0.1377  0.3851
17053SOL    HW157505   5.053   2.053   1.552 -0.4988 -0.9307  0.3810
17053SOL    HW257506   4.910   2.028   1.509  0.0088 -2.0415 -0.7433
17054SOL     OW57507   6.120   7.434   7.462 -0.5510 -0.0652  0.2931
17054SOL    HW157508   6.085   7.381   7.533  0.7088  0.3223  1.2313
17054SOL    HW257509   6.161   7.370   7.403 -0.8675 -0.3092  0.3336
17055SOL     OW57510   1.960   2.289   2.871 -0.6189 -0.0414 -0.0882
17055SOL    HW157511   2.040   2.270   2.823  1.9714  1.4071  3.2171
17055SOL    HW257512   1.946   2.383   2.861  0.7271  0.5751  2.6818
17056SOL     OW57513   6.317   0.482   3.690  0.1150  0.1382 -0.5522
17056SOL    HW157514   6.364   0.447   3.766 -1.1189  1.2176  0.7836
17056SOL    HW257515   6.385   0.508   3.629  1.2034  0.2155  0.6508
17057SOL     OW57516   1.165   6.836   6.760  0.1113  0.5077 -0.2186
17057SOL    HW157517   1.136   6.766   6.702  2.8446  0.0152 -1.1686
17057SOL    HW257518   1.214   6.792   6.830  0.7578  1.3532 -0.1081
17058SOL     OW57519   0.010   8.011   3.221 -0.1684 -0.0948 -0.6724
17058SOL    HW157520   0.030   7.948   3.151 -0.5484  0.7220 -1.5472
17058SOL    HW257521   0.079   7.998   3.286 -0.2450 -1.4079 -0.8294
17059SOL     OW57522   0.830   8.176   1.213 -0.3066  0.1174 -0.1748
17059SOL    HW157523   0.883   8.181   1.293 -0.4938 -0.4416 -0.0085
17059SOL    HW257524   0.834   8.264   1.176  1.4210 -0.0998 -0.5953
17060SOL     OW57525   2.120   2.898   1.449 -0.2430 -0.3952  0.2168
17060SOL    HW157526   2.073   2.968   1.495  0.7892  0.9389 -0.6836
17060SOL    HW257527   2.058   2.870   1.381  0.0196  1.0596 -0.6915
17061SOL     OW57528   8.029   1.714   0.199 -0.2210 -0.0480  0.2723
17061SOL    HW157529   8.084   1.650   0.154  1.3008  0.3069  1.5470
17061SOL    HW257530   8.041   1.695   0.292 -0.3917  1.5628  0.6503
17062SOL     OW57531   3.274   1.733   7.540  0.0851 -0.0573  0.7964
17062SOL    HW157532   3.209   1.709   7.607 -0.1230  1.3301  1.1156
17062SOL    HW257533   3.243   1.816   7.505  0.8774 -0.1462 -0.1525
17063SOL     OW57534   7.468   2.770   0.215  0.6064 -0.0134 -0.1429
17063SOL    HW157535   7.459   2.865   0.213  0.9287  0.0888  1.7007
17063SOL    HW257536   7.560   2.754   0.194  0.1396 -0.0625 -2.3238
17064SOL     OW57537   9.209   0.045   8.170  0.4901  0.5700  0.0798
17064SOL    HW157538   9.149   0.027   8.242 -0.2162  0.6631 -0.4633
17064SOL    HW257539   9.286   0.083   8.211  0.4705 -0.2204  0.8685
17065SOL     OW57540   6.474   6.679   0.021 -0.0827  0.3076 -0.0833
17065SOL    HW157541   6.500   6.660  -0.070  2.1401  2.9056 -0.1343
17065SOL    HW257542   6.540   6.635   0.074 -0.8028 -0.3787  0.2605
17066SOL     OW57543   7.408   8.380   4.172 -0.3152 -0.1401 -0.2237
17066SOL    HW157544   7.453   8.451   4.126 -1.1700 -0.4508 -1.6090
17066SOL    HW257545   7.450   8.301   4.139  0.3423 -0.3247  0.9937
17067SOL     OW57546   5.339   8.921   4.916 -0.2425  0.0798 -0.2634
17067SOL    HW157547   5.382   8.910   4.831 -0.1562  0.6864 -0.3013
17067SOL    HW257548   5.246   8.921   4.896 -0.1998  1.7208 -0.5563
17068SOL     OW57549   1.369   7.586   5.429  0.1370 -0.0999  0.3102
17068SOL    HW157550   1.305   7.534   5.477 -0.4003  1.1104  0.9362
17068SOL    HW257551   1.346   7.573   5.337 -1.6449  1.0637  0.5441
17069SOL     OW57552   3.961   3.661   0.833  0.0466 -0.1129 -0.2516
17069SOL    HW157553   3.865   3.665   0.839  0.1442  1.1911  1.3444
17069SOL    HW257554   3.980   3.680   0.741 -1.2271 -1.2144 -0.7821
17070SOL     OW57555   4.216   2.857   5.340  0.3458 -0.4781 -0.7083
17070SOL    HW157556   4.148   2.791   5.354 -0.5079  0.5591  0.1923
17070SOL    HW257557   4.272   2.849   5.418 -0.0818  0.2294 -0.3247
17071SOL     OW57558   7.944   8.151   4.266 -0.2667  0.2140 -0.2246
17071SOL    HW157559   8.006   8.161   4.338 -1.2130  0.2332  0.6033
17071SOL    HW257560   7.992   8.183   4.189  0.8103  0.0440  0.3581
17072SOL     OW57561   6.040   5.735   0.056 -0.3455  0.2680  0.3861
17072SOL    HW157562   5.989   5.801   0.010 -0.8640  0.2018  0.8527
17072SOL    HW257563   6.027   5.655   0.005  1.0480  0.6990 -0.7275
17073SOL     OW57564   2.619   2.730   3.697  0.3239  0.0838 -0.4587
17073SOL    HW157565   2.644   2.820   3.677  2.1740 -0.0068  1.0537
17073SOL    HW257566   2.526   2.725   3.678 -0.0605  2.6408  0.4011
17074SOL     OW57567   6.542   5.225   7.816 -0.1558 -0.5890 -0.1240
17074SOL    HW157568   6.485   5.229   7.739  0.3124 -0.1440 -0.4518
17074SOL    HW257569   6.612   5.165   7.791 -0.2554 -0.8147  0.1294
17075SOL     OW57570   6.542   8.460   4.310 -0.6543  0.2701  0.0375
17075SOL    HW157571   6.478   8.531   4.312 -1.1391 -0.0814 -1.4934
17075SOL    HW257572   6.494   8.385   4.274  0.8073  0.2847 -2.1471
17076SOL     OW57573   2.987   1.330   0.136  0.1342 -0.3776 -0.2921
17076SOL    HW157574   2.895   1.302   0.135 -0.4053  1.2605 -1.9517
17076SOL    HW257575   3.025   1.286   0.060  0.1881  0.5163 -0.7908
17077SOL     OW57576   9.090   4.772   4.799 -0.3958 -0.2254 -0.2320
17077SOL    HW157577   9.072   4.750   4.708 -2.4383 -0.4772  0.1859
17077SOL    HW257578   9.004   4.787   4.838  0.2984 -1.4371  1.9875
17078SOL     OW57579   3.611   4.030   5.416 -0.1007 -0.2061  0.1101
17078SOL    HW157580   3.704   4.029   5.437  0.5672  0.8966 -2.4411
17078SOL    HW257581   3.583   4.120   5.434 -0.2649 -0.1079 -0.5814
17079SOL     OW57582   2.364   2.369   6.605 -0.3117  0.6112 -0.0689
17079SOL    HW157583   2.379   2.398   6.696  2.0615  0.2593 -0.2766
17079SOL    HW257584   2.443   2.397   6.558 -0.4054 -1.3365 -1.4882
17080SOL     OW57585   0.754   8.011   0.111  0.3672 -0.0131 -0.2435
17080SOL    HW157586   0.787   7.922   0.123  1.9404  0.7445  1.4915
17080SOL    HW257587   0.806   8.046   0.039 -0.2914 -0.4672 -0.9669
17081SOL     OW57588   1.463   1.799   8.899  0.4090 -0.1328  0.0655
17081SOL    HW157589   1.523   1.730   8.927  0.3988  0.4853  1.7050
17081SOL    HW257590   1.494   1.823   8.812  0.1369 -2.4845 -0.7698
17082SOL     OW57591   8.715   3.538   0.507 -0.1160  0.1570 -0.0802
17082SOL    HW157592   8.779   3.580   0.564  0.0332  1.8212 -1.4053
17082SOL    HW257593   8.641   3.599   0.506 -0.8198 -0.6792 -0.3283
17083SOL     OW57594   5.369   6.663   5.183 -0.0366 -0.4211  0.4490
17083SOL    HW157595   5.381   6.600   5.111 -0.4969  1.3375 -1.2434
17083SOL    HW257596   5.285   6.639   5.222  0.1208 -1.2676  0.2938
17084SOL     OW57597   8.463   8.961   6.261 -0.0802 -0.2134  0.0532
17084SOL    HW157598   8.373   8.964   6.295 -0.4077  0.5508 -0.8485
17084SOL    HW257599   8.484   9.052   6.242  1.3989 -0.1942  1.5130
17085SOL     OW57600   3.718   1.528   0.637 -0.3960  0.3703  0.6645
17085SOL    HW157601   3.774   1.592   0.681 -1.3807  0.9691  1.0822
17085SOL    HW257602   3.654   1.581   0.589 -0.5938 -0.2969  0.1726
17086SOL     OW57603   9.025   0.441   0.920 -0.0341  0.1920 -0.4865
17086SOL    HW157604   9.028   0.508   0.852 -1.2947  0.8716  0.1029
17086SOL    HW257605   8.947   0.390   0.900  0.1779 -0.2709 -0.1622
17087SOL     OW57606   9.060   1.228   5.274  0.4449  0.3037 -0.2770
17087SOL    HW157607   9.134   1.224   5.214 -0.8928  3.6563 -2.4592
17087SOL    HW257608   9.099   1.247   5.359  2.1629  1.2761 -1.2300
17088SOL     OW57609   3.967   8.107   4.905 -0.2209  0.2193  0.2456
17088SOL    HW157610   4.034   8.137   4.844  0.1642 -1.9373 -0.4781
17088SOL    HW257611   3.885   8.112   4.855 -0.1940  0.2813  0.2079
17089SOL     OW57612   2.059   0.083   9.153  0.0811 -0.5956 -0.3688
17089SOL    HW157613   1.995   0.104   9.220 -0.3176 -1.0724 -0.5997
17089SOL    HW257614   2.062  -0.013   9.150 -0.9109 -0.6181 -1.9629
17090SOL     OW57615   1.923   8.594   0.784  0.1456  0.4822 -0.4123
17090SOL    HW157616   1.992   8.619   0.846 -0.5961 -1.3560  1.2559
17090SOL    HW257617   1.854   8.658   0.798 -0.2881 -0.3048  1.2059
17091SOL     OW57618   0.214   5.520   0.331 -0.0989  0.1684  0.3215
17091SOL    HW157619   0.209   5.595   0.272 -2.6070 -0.7409 -0.7873
17091SOL    HW257620   0.257   5.452   0.280  0.6073  0.3293  0.6996
17092SOL     OW57621   4.419   3.626   6.683 -0.5306  0.0735  0.8635
17092SOL    HW157622   4.508   3.658   6.666  0.5784 -2.7232  0.8282
17092SOL    HW257623   4.369   3.652   6.606  1.0234 -0.7636 -0.5014
17093SOL     OW57624   1.004   5.596   4.100 -0.2897  0.2178  0.7097
17093SOL    HW157625   0.915   5.572   4.072 -0.2545  1.0332 -0.1715
17093SOL    HW257626   1.047   5.623   4.019  0.4990  0.6246  1.2591
17094SOL     OW57627   2.760   3.012   5.222 -0.0836  0.2940 -0.4870
17094SOL    HW157628   2.719   2.962   5.293  1.7888 -1.6079 -0.6548
17094SOL    HW257629   2.707   2.992   5.145 -0.8272  0.5994 -0.0612
17095SOL     OW57630   7.667   3.378   3.190  0.2047  0.8806 -0.3255
17095SOL    HW157631   7.596   3.427   3.233 -0.4207 -1.2686  1.3039
17095SOL    HW257632   7.624   3.333   3.117 -0.2697 -0.6251  0.8137
17096SOL     OW57633   0.526   0.250   2.201  0.0362 -0.5423 -1.0198
17096SOL    HW157634   0.531   0.225   2.293 -1.8870 -0.2915 -0.8085
17096SOL    HW257635   0.569   0.178   2.154  0.0777 -1.1990  0.0015
17097SOL     OW57636   5.350   7.828   6.176  0.7522 -0.0510 -0.1900
17097SOL    HW157637   5.420   7.892   6.165  0.5756  0.4033  1.1593
17097SOL    HW257638   5.304   7.855   6.255  0.4349 -1.6336  0.2147
17098SOL     OW57639   4.158   7.981   7.134  0.7013 -0.3032 -0.1987
17098SOL    HW157640   4.067   7.952   7.131 -1.0237  4.2081 -1.2389
17098SOL    HW257641   4.192   7.961   7.046  0.1452 -0.6174 -0.3469
17099SOL     OW57642   4.736   3.787   2.326  0.1828 -0.5566  0.7549
17099SOL    HW157643   4.815   3.817   2.371 -1.3149  0.5721  2.7904
17099SOL    HW257644   4.756   3.798   2.233  2.0713  0.5890  1.2460
17100SOL     OW57645   2.705   0.206   2.238 -0.4514 -0.2935 -0.0294
17100SOL    HW157646   2.728   0.224   2.329 -0.5167 -0.7743  0.0821
17100SOL    HW257647   2.704   0.292   2.196 -0.8353 -0.0333  0.5166
17101SOL     OW57648   8.508   8.705   5.851  0.3349  0.1587 -0.2055
17101SOL    HW157649   8.550   8.688   5.935  0.8938  0.8717 -0.3368
17101SOL    HW257650   8.572   8.756   5.801  0.2627 -0.7698 -1.3028
17102SOL     OW57651   6.875   8.668   7.293 -0.1695  0.4549 -0.0811
17102SOL    HW157652   6.814   8.636   7.359  1.6602 -1.0638  0.9842
17102SOL    HW257653   6.925   8.736   7.338 -0.7082  1.3511 -0.7961
17103SOL     OW57654   1.104   8.849   0.142  0.1587  0.1718 -0.3396
17103SOL    HW157655   1.019   8.865   0.101  0.4183  1.8235 -0.3271
17103SOL    HW257656   1.104   8.756   0.162 -2.9149  0.5667  2.3866
17104SOL     OW57657   6.088   1.175   4.195  0.6859 -0.0540 -0.3601
17104SOL    HW157658   6.066   1.261   4.160 -0.9440  0.1053  0.9239
17104SOL    HW257659   6.132   1.194   4.278 -1.4283 -0.4098  0.9062
17105SOL     OW57660   4.736   9.080   6.893 -0.8306 -0.4286  0.2976
17105SOL    HW157661   4.731   9.150   6.827 -1.3177 -1.3227 -0.6459
17105SOL    HW257662   4.744   9.000   6.842 -1.1459 -1.1458  1.3429
17106SOL     OW57663   8.323   9.021   7.361 -0.5305  0.1146  0.1242
17106SOL    HW157664   8.415   9.032   7.338 -1.0358 -0.5673 -2.5363
17106SOL    HW257665   8.304   9.094   7.421  1.9709 -0.4052  1.6928
17107SOL     OW57666   7.285   2.562   6.229 -0.3315  0.0286  0.1594
17107SOL    HW157667   7.205   2.577   6.179  0.9819 -0.5977 -2.2825
17107SOL    HW257668   7.354   2.555   6.163  1.4292 -1.5383  2.0215
17108SOL     OW57669   0.570   9.073   2.134 -0.1204  0.6633  0.4021
17108SOL    HW157670   0.613   8.997   2.094 -0.5456  0.1364  0.9274
17108SOL    HW257671   0.477   9.054   2.124 -0.2265  0.9896  0.7770
17109SOL     OW57672   7.386   2.461   7.933  0.2052 -0.2373 -0.0349
17109SOL    HW157673   7.397   2.389   7.872 -0.3661 -0.6333  0.3268
17109SOL    HW257674   7.476   2.491   7.950  0.2938  1.0295 -2.3899
17110SOL     OW57675   6.981   4.770   8.122 -0.1609 -0.1417 -0.6792
17110SOL    HW157676   7.071   4.753   8.092  0.2588 -0.9042  0.9093
17110SOL    HW257677   6.985   4.859   8.158  0.0825 -0.3511 -0.1811
17111SOL     OW57678   3.870   7.114   1.260 -0.3393 -0.3495  0.1387
17111SOL    HW157679   3.833   7.052   1.197 -0.2886 -0.1884 -0.0472
17111SOL    HW257680   3.946   7.069   1.296  0.4722  0.1249 -0.9531
17112SOL     OW57681   6.930   0.728   2.106  0.4200 -0.0519  0.2124
17112SOL    HW157682   6.844   0.726   2.063  1.0369  0.3809 -1.0675
17112SOL    HW257683   6.911   0.703   2.197 -1.0917  0.2545  0.0127
17113SOL     OW57684   7.336   9.216   4.869 -0.6748 -0.4122  0.5635
17113SOL    HW157685   7.385   9.290   4.834 -0.8547 -1.0835 -1.1980
17113SOL    HW257686   7.304   9.169   4.792 -1.5785 -1.6559  1.6433
17114SOL     OW57687   4.320   3.497   8.751  0.5490  0.0313 -0.2819
17114SOL    HW157688   4.339   3.408   8.781  1.6833 -0.0975 -1.3147
17114SOL    HW257689   4.384   3.552   8.797  0.5730  0.1708 -0.4796
17115SOL     OW57690   5.494   7.267   8.299  0.2239  0.5216 -0.0733
17115SOL    HW157691   5.460   7.235   8.216  0.7417  0.0104 -0.0927
17115SOL    HW257692   5.419   7.262   8.359 -0.4057  1.7547 -0.7140
17116SOL     OW57693   3.352   2.341   4.981 -0.5566  0.0776 -0.0159
17116SOL    HW157694   3.307   2.299   5.055 -1.2099  0.2668 -0.3046
17116SOL    HW257695   3.298   2.416   4.959  0.8599  1.4207  0.8366
17117SOL     OW57696   2.867   7.371   3.613 -0.3405  0.2568  0.0740
17117SOL    HW157697   2.932   7.421   3.563  0.2698 -0.4692  0.1256
17117SOL    HW257698   2.871   7.407   3.701  0.2376 -0.0092  0.1594
17118SOL     OW57699   7.814   1.097   7.656 -0.2136 -0.2035 -0.2324
17118SOL    HW157700   7.908   1.109   7.643 -0.2779  0.6997  0.0217
17118SOL    HW257701   7.806   1.062   7.745 -0.1237  0.0227 -0.1329
17119SOL     OW57702   1.334   3.478   4.564  0.3837  0.0873 -0.1948
17119SOL    HW157703   1.280   3.523   4.499 -0.3588 -0.1845  0.2301
17119SOL    HW257704   1.353   3.392   4.525  0.0005 -0.0479 -0.0796
17120SOL     OW57705   5.924   0.591   7.868 -0.5549 -0.1827  0.0360
17120SOL    HW157706   5.838   0.575   7.908 -1.8060  0.3030 -2.2464
17120SOL    HW257707   5.925   0.532   7.792 -0.9824  3.0821 -2.7215
17121SOL     OW57708   2.879   0.571   4.926  0.2299 -0.0307  0.3130
17121SOL    HW157709   2.844   0.484   4.948  0.8934 -0.0016  1.6223
17121SOL    HW257710   2.811   0.611   4.872  0.6165 -1.9652 -1.7782
17122SOL     OW57711   8.619   0.355   9.232 -0.2988  0.5197 -0.3754
17122SOL    HW157712   8.620   0.447   9.258  1.5660  0.3270  0.3502
17122SOL    HW257713   8.705   0.340   9.193 -0.4388 -1.0042 -0.1479
17123SOL     OW57714   2.834   8.091   5.902 -0.4415 -0.1901  0.3538
17123SOL    HW157715   2.764   8.106   5.964 -0.5764  1.8598 -0.2406
17123SOL    HW257716   2.914   8.107   5.951 -0.4838 -0.1444  0.4072
17124SOL     OW57717   1.222   8.909   8.076  0.4159  0.0751 -0.0307
17124SOL    HW157718   1.177   8.825   8.072 -1.5255  0.9041  1.8894
17124SOL    HW257719   1.179   8.963   8.010  0.4007  0.0917 -0.0077
17125SOL     OW57720   7.623   2.306   5.417  0.1033  0.3459 -0.3634
17125SOL    HW157721   7.658   2.384   5.374  0.0156  0.5019 -0.1521
17125SOL    HW257722   7.692   2.279   5.478 -0.7822  1.6292  1.2866
17126SOL     OW57723   5.687   3.969   3.289 -0.1802 -0.5952 -0.6552
17126SOL    HW157724   5.639   4.014   3.359  0.3048 -0.4358 -0.4190
17126SOL    HW257725   5.772   4.013   3.286  0.9639 -2.5566  0.7289
17127SOL     OW57726   2.112   8.001   8.195 -0.0939  0.1588  0.4050
17127SOL    HW157727   2.119   8.082   8.144 -0.7909 -0.2645 -0.4140
17127SOL    HW257728   2.130   7.932   8.131 -0.7567 -0.3771  0.7825
17128SOL     OW57729   1.192   3.179   8.311 -0.2373  0.8454 -0.0627
17128SOL    HW157730   1.218   3.195   8.221 -3.0173  0.4372 -1.0469
17128SOL    HW257731   1.213   3.087   8.327 -0.6123  0.6481 -0.6656
17129SOL     OW57732   3.809   1.333   2.135 -0.4001  0.0177  0.1290
17129SOL    HW157733   3.743   1.401   2.124  0.1198  0.6101  0.5779
17129SOL    HW257734   3.892   1.376   2.115 -0.0899 -0.5523  0.1566
17130SOL     OW57735   2.529   1.568   5.981 -0.7972  0.0718  0.3450
17130SOL    HW157736   2.600   1.607   5.931 -0.5872 -1.8100 -0.9010
17130SOL    HW257737   2.485   1.643   6.022  1.0141  1.3898  0.0104
17131SOL     OW57738   9.058   3.937   8.602 -0.0765 -0.1994  0.4870
17131SOL    HW157739   9.092   3.903   8.519 -1.0073 -0.1906  0.0875
17131SOL    HW257740   9.015   4.019   8.578  0.0917  0.0655  1.0669
17132SOL     OW57741   6.743   2.857   0.437  0.0243 -0.7399 -0.1375
17132SOL    HW157742   6.822   2.809   0.412 -0.2027 -2.3735  2.0455
17132SOL    HW257743   6.675   2.823   0.379  0.3056 -1.5560 -0.0041
17133SOL     OW57744   8.138   4.612   6.375  0.0530  0.2218  0.1115
17133SOL    HW157745   8.118   4.548   6.443 -0.5621  1.0592  0.7297
17133SOL    HW257746   8.232   4.626   6.383  0.4504 -1.5521 -0.8914
17134SOL     OW57747   2.761   3.409   4.525  0.2335 -0.1136 -0.2960
17134SOL    HW157748   2.679   3.432   4.568  2.2210  2.9569  2.3362
17134SOL    HW257749   2.756   3.314   4.514 -3.4393 -0.1113  0.0806
17135SOL     OW57750   1.041   8.484   8.701 -0.3363  0.0314 -0.6912
17135SOL    HW157751   0.954   8.453   8.676 -0.5551 -0.2505  0.3711
17135SOL    HW257752   1.089   8.404   8.722 -0.8056  0.2894  1.7614
17136SOL     OW57753   0.973   1.164   3.969  0.5213  0.2448  0.2764
17136SOL    HW157754   1.056   1.198   4.003 -0.1638  0.9070  1.3680
17136SOL    HW257755   0.925   1.242   3.942 -0.1515 -0.0502  0.6075
17137SOL     OW57756   6.900   7.036   4.058 -0.4787 -0.2474 -0.2258
17137SOL    HW157757   6.825   6.983   4.087  0.0983 -1.1501 -0.3396
17137SOL    HW257758   6.939   6.986   3.986 -0.7894  1.0689 -1.3501
17138SOL     OW57759   5.662   8.609   1.861  0.6127  0.3962 -0.0802
17138SOL    HW157760   5.746   8.618   1.906  0.2547 -0.8146  0.8985
17138SOL    HW257761   5.612   8.686   1.888  1.2416  0.8806 -0.2901
17139SOL     OW57762   1.725   8.568   8.124 -0.3390  0.4668 -0.5533
17139SOL    HW157763   1.653   8.561   8.188  0.8817 -0.9299  0.7746
17139SOL    HW257764   1.790   8.623   8.168 -0.2971  1.1461 -1.4534
17140SOL     OW57765   4.363   1.397   9.227 -0.8012 -0.3014 -0.0704
17140SOL    HW157766   4.375   1.309   9.191  0.4181  0.0390 -0.5464
17140SOL    HW257767   4.348   1.452   9.151 -0.0509  0.1297  0.0820
17141SOL     OW57768   5.877   2.592   2.866  0.3726  0.0324 -0.4494
17141SOL    HW157769   5.863   2.570   2.774 -0.0097  0.3766 -0.4775
17141SOL    HW257770   5.793   2.574   2.908  0.4279  0.2494 -0.2431
17142SOL     OW57771   1.825   1.088   2.901  0.0445 -0.4065 -0.0078
17142SOL    HW157772   1.737   1.109   2.932 -0.6092 -0.9391 -1.4378
17142SOL    HW257773   1.864   1.172   2.880  1.5438  0.3596  4.5705
17143SOL     OW57774   0.743   6.234   1.295 -0.2652  0.1024 -0.2095
17143SOL    HW157775   0.789   6.316   1.313 -0.7095  0.2224  0.3932
17143SOL    HW257776   0.806   6.166   1.316 -0.2713  0.2711  0.3596
17144SOL     OW57777   1.208   2.332   2.147  0.1613  0.2472  0.1057
17144SOL    HW157778   1.214   2.428   2.153  0.4378  0.3280 -1.2464
17144SOL    HW257779   1.298   2.302   2.157  0.5983  0.3684 -2.6442
17145SOL     OW57780   1.556   8.658   7.069  0.3116 -0.1925 -0.4822
17145SOL    HW157781   1.496   8.723   7.033  1.5461  0.8698 -0.6697
17145SOL    HW257782   1.502   8.606   7.129 -0.7268  0.8956 -0.4488
17146SOL     OW57783   1.782   3.016   3.849 -0.5323  0.1040  0.4777
17146SOL    HW157784   1.762   3.027   3.757 -0.8409  2.1277  0.7516
17146SOL    HW257785   1.877   3.005   3.852 -0.3657  1.2804 -0.0033
17147SOL     OW57786   7.716   1.124   8.339 -0.1563 -0.2954 -0.2928
17147SOL    HW157787   7.677   1.040   8.361 -0.9756  0.3059  0.6102
17147SOL    HW257788   7.810   1.106   8.332 -0.4771 -1.6111 -1.7904
17148SOL     OW57789   4.707   0.924   0.095  0.4621  0.5460 -0.1719
17148SOL    HW157790   4.724   0.913   0.001  0.8771  0.1607 -0.0570
17148SOL    HW257791   4.695   0.834   0.128 -1.8575  0.7782 -0.2406
17149SOL     OW57792   1.878   7.393   4.952 -0.0140 -0.2383  0.3270
17149SOL    HW157793   1.939   7.455   4.913 -0.9552  0.4252 -0.1270
17149SOL    HW257794   1.923   7.360   5.030  0.6234  0.7713  0.3992
17150SOL     OW57795   0.228   1.030   7.627  0.1264 -0.6819 -0.5329
17150SOL    HW157796   0.166   1.032   7.701 -0.7661  0.3035 -1.2840
17150SOL    HW257797   0.259   0.939   7.625  1.3350 -0.4103  1.9670
17151SOL     OW57798   5.863   6.246   7.514 -0.1356  0.2534  0.6133
17151SOL    HW157799   5.806   6.250   7.438  1.7525  0.3947 -0.8837
17151SOL    HW257800   5.828   6.175   7.567 -0.8120 -0.6704 -1.0042
17152SOL     OW57801   3.818   8.558   4.056 -0.0382  0.3808  0.4851
17152SOL    HW157802   3.876   8.626   4.089  0.0714  0.4201  0.2106
17152SOL    HW257803   3.732   8.581   4.090  0.3298 -0.4766  2.1158
17153SOL     OW57804   4.793   3.536   5.561  0.0297 -0.4312 -0.6865
17153SOL    HW157805   4.703   3.539   5.595 -0.4599 -0.1052 -1.9619
17153SOL    HW257806   4.846   3.509   5.636 -0.7877  1.7257  0.7685
17154SOL     OW57807   3.391   2.661   5.231  0.7233  0.2180  0.2074
17154SOL    HW157808   3.408   2.605   5.306  1.4142  1.4566  1.0128
17154SOL    HW257809   3.321   2.719   5.259  0.7601  0.4774 -0.2224
17155SOL     OW57810   8.152   1.279   6.550 -0.1418  0.7501  0.0867
17155SOL    HW157811   8.132   1.356   6.496 -0.8590  0.3076 -0.2816
17155SOL    HW257812   8.241   1.295   6.581 -0.9070  2.6464  1.5415
17156SOL     OW57813   5.033   2.216   3.752  0.3996 -0.1234 -0.0351
17156SOL    HW157814   5.005   2.167   3.674  0.9242 -0.8410  0.2185
17156SOL    HW257815   4.951   2.248   3.790  0.1569  0.5864 -1.0929
17157SOL     OW57816   0.968   3.385   5.850 -0.0729  0.0978  0.2994
17157SOL    HW157817   0.889   3.434   5.874  0.6089  0.8410  1.1252
17157SOL    HW257818   1.015   3.444   5.792  0.2624  0.0076  0.4791
17158SOL     OW57819   8.559   2.035   0.337  0.6714  0.4748 -0.3208
17158SOL    HW157820   8.467   2.012   0.354  0.4191  1.0211 -0.8968
17158SOL    HW257821   8.572   2.016   0.244  1.5718 -0.9718  0.0777
17159SOL     OW57822   1.828   2.057   5.215  0.2486  0.8149  0.6955
17159SOL    HW157823   1.880   2.113   5.272 -0.5296  0.5037  1.7487
17159SOL    HW257824   1.809   1.979   5.268 -0.1040  0.3082 -0.1504
17160SOL     OW57825   6.004   3.052   3.645  0.1485 -0.6020  0.9399
17160SOL    HW157826   5.918   3.015   3.625 -0.7842  1.7740  0.1303
17160SOL    HW257827   6.001   3.071   3.739 -0.5659  0.2500  0.7556
17161SOL     OW57828   4.051   6.831   7.076 -0.1994  0.3438  0.7802
17161SOL    HW157829   4.018   6.916   7.049 -1.0174 -0.0200  0.6079
17161SOL    HW257830   3.979   6.791   7.124  0.4709  0.0888  1.6055
17162SOL     OW57831   4.965   0.136   8.517 -0.1822  0.3250  0.0960
17162SOL    HW157832   5.044   0.188   8.499  0.3823 -0.5442 -0.0141
17162SOL    HW257833   4.960   0.076   8.444  0.6864 -1.5400  1.4834
17163SOL     OW57834   4.580   8.595   2.483  0.3484  0.4884 -0.1196
17163SOL    HW157835   4.525   8.558   2.414 -0.3606  2.2184 -0.5350
17163SOL    HW257836   4.527   8.590   2.562  0.7263 -0.4646  0.0831
17164SOL     OW57837   3.567   1.427   4.428 -0.5247  0.4209  0.2105
17164SOL    HW157838   3.637   1.404   4.367 -1.6795  0.5368 -1.1984
17164SOL    HW257839   3.559   1.350   4.485  0.0537 -0.0030 -0.2610
17165SOL     OW57840   7.613   0.753   2.585 -0.3171 -0.2963  0.5086
17165SOL    HW157841   7.532   0.801   2.565 -0.2911 -0.7121 -0.7061
17165SOL    HW257842   7.662   0.811   2.643 -1.9836 -0.5179  2.2742
17166SOL     OW57843   1.305   1.101   3.186 -0.0369 -0.2144  0.2647
17166SOL    HW157844   1.296   1.185   3.230  0.8618  0.3917 -0.6569
17166SOL    HW257845   1.245   1.105   3.111 -0.3097 -0.5676  0.4592
17167SOL     OW57846   2.358   6.217   0.958  0.3246 -0.0557  0.4796
17167SOL    HW157847   2.416   6.251   1.027  0.6347 -0.1409  0.2654
17167SOL    HW257848   2.278   6.193   1.004  1.0660 -1.5306  1.0642
17168SOL     OW57849   1.683   7.757   3.960  0.0141  0.4439 -0.3135
17168SOL    HW157850   1.748   7.688   3.969 -0.6802 -0.0622  0.9467
17168SOL    HW257851   1.728   7.826   3.910  0.8252 -0.7437 -1.2904
17169SOL     OW57852   1.285   0.489   7.805 -0.2865 -0.2865 -0.2004
17169SOL    HW157853   1.227   0.565   7.808 -2.9701 -2.1297 -1.1937
17169SOL    HW257854   1.269   0.444   7.888  1.5461  0.3439  0.5354
17170SOL     OW57855   5.307   2.381   4.959  0.3987  0.2676 -0.4169
17170SOL    HW157856   5.359   2.334   4.894  0.3050  1.5858 -1.5013
17170SOL    HW257857   5.369   2.438   5.004  0.4918 -0.7580  0.8053
17171SOL     OW57858   7.095   2.842   4.724 -0.3371  0.4184  1.0892
17171SOL    HW157859   7.181   2.882   4.708  0.0794 -0.3109  1.4451
17171SOL    HW257860   7.112   2.777   4.793 -1.1543  0.1915  1.0799
17172SOL     OW57861   1.572   6.933   8.801  0.0554 -0.1133  0.1190
17172SOL    HW157862   1.630   6.864   8.833  0.0638  0.8966  2.4418
17172SOL    HW257863   1.558   6.990   8.876 -1.3862  1.4553 -1.2524
17173SOL     OW57864   3.708   2.987   7.173  0.1203 -0.8098 -0.3529
17173SOL    HW157865   3.753   2.980   7.088  0.0705 -2.1456 -0.2945
17173SOL    HW257866   3.649   3.062   7.162  1.3873  0.1691 -0.8739
17174SOL     OW57867   2.449   6.290   4.751 -0.0476  0.4917 -0.5773
17174SOL    HW157868   2.355   6.307   4.754 -0.3447 -1.0006  1.9949
17174SOL    HW257869   2.463   6.223   4.819  2.7605  0.1026 -1.4123
17175SOL     OW57870   1.154   7.523   3.338 -0.4819  0.1658 -0.8394
17175SOL    HW157871   1.200   7.599   3.374  0.1674 -0.2597 -0.7599
17175SOL    HW257872   1.203   7.500   3.260 -0.3036 -0.5575 -0.5175
17176SOL     OW57873   7.752   1.245   3.159  0.6123 -0.4329 -0.4724
17176SOL    HW157874   7.681   1.301   3.190  1.3946 -0.2955  1.2285
17176SOL    HW257875   7.816   1.305   3.120  1.1189 -0.1813  0.6932
17177SOL     OW57876   2.657   2.179   6.105  0.0599 -0.7473  0.6433
17177SOL    HW157877   2.593   2.218   6.046  0.0511 -0.7409  0.6572
17177SOL    HW257878   2.742   2.199   6.065  0.2275  1.5859  1.9942
17178SOL     OW57879   1.110   4.973   6.083 -0.2337  0.6257  0.5817
17178SOL    HW157880   1.080   5.051   6.130  0.1050  0.9920  0.1968
17178SOL    HW257881   1.205   4.984   6.076 -0.1527  0.0587  0.7344
17179SOL     OW57882   4.317   6.071   3.235 -0.2040 -0.1055  0.0895
17179SOL    HW157883   4.406   6.061   3.269 -0.1838  0.2094  0.1415
17179SOL    HW257884   4.325   6.134   3.163 -0.1084 -1.4339 -1.1084
17180SOL     OW57885   3.050   8.471   3.816 -0.3312  0.3007 -0.4078
17180SOL    HW157886   3.009   8.389   3.843  0.0543  0.4484  0.7019
17180SOL    HW257887   3.144   8.452   3.816 -0.3060 -0.4567 -4.3250
17181SOL     OW57888   2.939   7.768   3.192 -0.0752 -0.3112  0.5124
17181SOL    HW157889   2.934   7.854   3.233  1.4492  0.3970 -0.6806
17181SOL    HW257890   2.851   7.732   3.200 -1.1347  1.9698 -0.2211
17182SOL     OW57891   1.472   4.830   0.923  0.1928 -0.0680 -0.8320
17182SOL    HW157892   1.385   4.857   0.893 -0.6154 -2.1054 -0.5201
17182SOL    HW257893   1.507   4.776   0.852  2.1319  2.3370 -1.8314
17183SOL     OW57894   0.778   7.061   2.333  0.2224 -0.2997  0.1987
17183SOL    HW157895   0.851   7.006   2.362 -0.3860 -1.8843 -1.0852
17183SOL    HW257896   0.721   7.068   2.410  1.6340  0.8569  1.1780
17184SOL     OW57897   7.729   3.977   5.522  0.1207  0.1192 -0.2777
17184SOL    HW157898   7.711   3.909   5.586 -0.3608  0.2965 -0.2259
17184SOL    HW257899   7.729   3.932   5.438  0.2336 -0.0181 -0.2058
17185SOL     OW57900   4.883   5.516   3.788 -0.5164 -0.2283 -0.0422
17185SOL    HW157901   4.803   5.546   3.744 -0.9832 -2.2516 -0.7036
17185SOL    HW257902   4.857   5.508   3.880 -0.3841  1.2934  0.1401
17186SOL     OW57903   2.410   2.508   1.255 -0.1808 -0.1120 -0.2719
17186SOL    HW157904   2.415   2.597   1.220  0.5635 -0.7103 -1.7714
17186SOL    HW257905   2.495   2.493   1.297  0.1045 -0.4705 -0.9601
17187SOL     OW57906   1.422   6.625   8.611  0.1048  0.2296 -0.1193
17187SOL    HW157907   1.512   6.656   8.621 -0.0806  0.3225  1.4946
17187SOL    HW257908   1.429   6.544   8.562  1.1328 -0.0829  0.5305
17188SOL     OW57909   2.835   0.659   2.466 -0.1105 -0.1486  0.0083
17188SOL    HW157910   2.823   0.678   2.372 -1.4426 -1.0340 -0.0313
17188SOL    HW257911   2.749   0.675   2.504  0.3700 -0.0026  1.0578
17189SOL     OW57912   0.347   6.827   5.026 -0.2313  0.5808  0.1070
17189SOL    HW157913   0.418   6.874   4.983  0.9713 -1.8460 -0.7533
17189SOL    HW257914   0.391   6.767   5.086 -1.5349 -0.8032 -0.2491
17190SOL     OW57915   3.050   2.362   4.727  0.5231  0.4727 -0.0175
17190SOL    HW157916   3.043   2.441   4.673 -1.8204  1.2195  1.2375
17190SOL    HW257917   3.084   2.392   4.810  0.3194  0.0363  0.2307
17191SOL     OW57918   3.397   1.820   1.967 -0.3101 -0.1597 -0.4386
17191SOL    HW157919   3.326   1.764   1.937  1.0402 -1.3988 -1.4422
17191SOL    HW257920   3.397   1.894   1.906 -2.0571  0.9977  0.8554
17192SOL     OW57921   8.781   8.343   6.764  0.4194 -0.1369 -0.2481
17192SOL    HW157922   8.798   8.307   6.851  0.4214 -0.0677 -0.2198
17192SOL    HW257923   8.751   8.432   6.780 -1.7373 -0.8277 -0.1932
17193SOL     OW57924   4.236   4.559   8.620  0.1011  0.3447 -0.5485
17193SOL    HW157925   4.218   4.466   8.631  0.1684  0.2080 -1.4685
17193SOL    HW257926   4.150   4.600   8.610 -0.3933  1.1222  4.3081
17194SOL     OW57927   4.545   1.491   1.024 -0.1102 -0.0057 -0.4345
17194SOL    HW157928   4.539   1.457   0.935  0.3453 -0.8173 -0.1609
17194SOL    HW257929   4.458   1.476   1.062  0.0101 -0.6416 -0.4003
17195SOL     OW57930   3.920   4.684   3.860 -0.1279  0.2753  0.6605
17195SOL    HW157931   3.998   4.628   3.854 -1.9273 -2.3014 -3.1333
17195SOL    HW257932   3.867   4.643   3.928  0.4103  0.0027  0.9209
17196SOL     OW57933   7.072   4.626   3.251  0.0028  0.6139  0.1519
17196SOL    HW157934   7.010   4.560   3.283 -1.0688  1.7035  0.3718
17196SOL    HW257935   7.120   4.581   3.181 -0.2660 -0.6000  0.7278
17197SOL     OW57936   2.563   1.693   1.324 -0.1383  0.4175  0.5972
17197SOL    HW157937   2.499   1.765   1.323 -0.8545 -0.2009 -0.9673
17197SOL    HW257938   2.631   1.720   1.262  0.1991  0.2727  0.9013
17198SOL     OW57939   2.424   1.023   8.078  0.3254 -0.2853 -0.0553
17198SOL    HW157940   2.427   1.055   8.168 -0.0077 -0.3024 -0.0351
17198SOL    HW257941   2.361   0.950   8.081  1.1534 -1.0139 -0.0755
17199SOL     OW57942   4.692   1.383   3.248 -0.3093  0.0120  0.1486
17199SOL    HW157943   4.761   1.333   3.205  0.4992 -0.0336  1.4429
17199SOL    HW257944   4.727   1.472   3.253 -0.5825  0.1107  0.3226
17200SOL     OW57945   5.562   6.427   2.482 -0.2158 -0.1023 -0.6326
17200SOL    HW157946   5.539   6.515   2.513  0.9592 -0.0238  0.0966
17200SOL    HW257947   5.598   6.384   2.560 -1.0208 -1.3349 -0.9152
17201SOL     OW57948   3.255   0.031   6.712 -0.6805  0.3106  0.0929
17201SOL    HW157949   3.260  -0.038   6.646  0.3304  0.1553  0.3204
17201SOL    HW257950   3.346   0.052   6.732 -0.9553  0.1403  1.6548
17202SOL     OW57951   6.138   2.366   5.194 -0.3805  0.2184  0.2026
17202SOL    HW157952   6.233   2.351   5.197 -0.1276  1.8797  2.0356
17202SOL    HW257953   6.118   2.408   5.277 -2.6621  0.4010 -0.3949
17203SOL     OW57954   5.281   5.182   2.194  0.0254 -0.2485 -0.3536
17203SOL    HW157955   5.212   5.142   2.141 -0.3282 -1.0215  0.6564
17203SOL    HW257956   5.303   5.263   2.147  0.8076 -1.6136 -2.4879
17204SOL     OW57957   1.085   4.765   5.847  0.6375  0.2238 -0.1494
17204SOL    HW157958   1.016   4.831   5.857  0.4528 -0.2026  1.9304
17204SOL    HW257959   1.060   4.714   5.771  1.2236  3.0341 -2.3870
17205SOL     OW57960   9.063   8.949   1.895 -0.5892 -0.0856  0.2901
17205SOL    HW157961   8.980   8.959   1.942 -0.1787  1.4308  0.7551
17205SOL    HW257962   9.037   8.924   1.806 -1.5517  0.1722  0.4818
17206SOL     OW57963   5.279   7.495   6.724 -0.0280 -0.0409  0.1808
17206SOL    HW157964   5.236   7.425   6.773 -0.0385 -0.1644 -0.0040
17206SOL    HW257965   5.243   7.488   6.636 -0.9305  0.9554  0.4402
17207SOL     OW57966   8.266   7.563   2.828 -0.4244  0.2796 -0.3071
17207SOL    HW157967   8.311   7.626   2.884  2.1820 -0.9313 -0.8786
17207SOL    HW257968   8.232   7.497   2.889 -0.0501  0.4048  0.0409
17208SOL     OW57969   3.939   7.141   7.290  0.6755  0.6094 -0.6385
17208SOL    HW157970   3.860   7.190   7.267  0.8956  1.1451 -0.2659
17208SOL    HW257971   4.002   7.165   7.222  0.8575  1.0338 -0.3240
17209SOL     OW57972   2.461   7.406   7.152  0.0334  0.0756 -0.2544
17209SOL    HW157973   2.392   7.374   7.210 -0.2890  1.1698 -0.0193
17209SOL    HW257974   2.465   7.500   7.169 -1.4075  0.8376 -3.3565
17210SOL     OW57975   3.851   1.194   7.896 -0.2359  0.0581  0.3040
17210SOL    HW157976   3.908   1.174   7.971 -0.3438  0.9277  0.6211
17210SOL    HW257977   3.768   1.152   7.918  0.0977 -0.7357  0.0987
17211SOL     OW57978   2.747   8.183   5.100  0.0729  0.4872 -0.2392
17211SOL    HW157979   2.727   8.249   5.165 -0.1668  1.0409 -0.8639
17211SOL    HW257980   2.673   8.186   5.039  0.6161  0.4503 -0.9071
17212SOL     OW57981   7.866   8.761   7.477  0.0201  0.4830 -0.4022
17212SOL    HW157982   7.946   8.800   7.443 -0.9015  3.4568  0.5406
17212SOL    HW257983   7.892   8.724   7.562  0.9389 -1.1963 -1.3627
17213SOL     OW57984   5.367   3.136   4.567  0.1021 -0.1817 -0.0381
17213SOL    HW157985   5.372   3.048   4.531 -1.3739  0.2450 -1.3700
17213SOL    HW257986   5.274   3.154   4.576  0.3525  1.4420 -0.2786
17214SOL     OW57987   1.120   4.974   8.480  0.0364  0.2020  0.2543
17214SOL    HW157988   1.101   4.902   8.541  2.0072 -0.2719  0.4029
17214SOL    HW257989   1.194   5.020   8.521  3.9573 -2.2603 -3.2817
17215SOL     OW57990   6.529   6.492   7.960 -0.2224 -0.4324 -0.6568
17215SOL    HW157991   6.608   6.487   8.015 -0.3572 -0.3214 -0.4541
17215SOL    HW257992   6.548   6.563   7.898  0.1982 -0.9914 -1.1833
17216SOL     OW57993   3.647   8.111   8.972 -0.7635  0.2278 -0.4516
17216SOL    HW157994   3.729   8.161   8.977 -0.6391 -0.0544  0.5432
17216SOL    HW257995   3.659   8.054   8.896  0.0201  0.1004 -0.2402
17217SOL     OW57996   4.119   1.791   5.736 -0.4136  0.8864  0.3897
17217SOL    HW157997   4.042   1.753   5.778  1.3087 -1.8323  1.3493
17217SOL    HW257998   4.136   1.871   5.787 -0.7304 -0.2048  2.3162
17218SOL     OW57999   3.825   3.825   3.154  0.1923 -0.1420 -0.1901
17218SOL    HW158000   3.797   3.807   3.064 -0.7792 -0.7676  0.2287
17218SOL    HW258001   3.748   3.806   3.208  1.5368 -2.4312  1.0710
17219SOL     OW58002   2.893   7.491   0.472  0.6411  0.6557  1.1221
17219SOL    HW158003   2.844   7.413   0.447 -1.3158  1.7983  1.2353
17219SOL    HW258004   2.974   7.456   0.510 -0.6756 -1.3861  2.2740
17220SOL     OW58005   2.919   3.700   2.822  0.3679  0.2858  0.0751
17220SOL    HW158006   2.830   3.709   2.856  0.9823 -2.3288  2.8305
17220SOL    HW258007   2.908   3.656   2.738 -0.9793  1.4123 -0.3621
17221SOL     OW58008   0.030   2.092   4.198  0.0244 -0.2283 -0.0820
17221SOL    HW158009  -0.024   2.113   4.122 -0.4440 -0.8750  0.0650
17221SOL    HW258010   0.031   2.173   4.249  1.3642  0.6248 -1.3554
17222SOL     OW58011   0.540   5.610   1.564  0.9175 -0.1301 -0.0547
17222SOL    HW158012   0.597   5.664   1.509  0.0377 -0.2552 -1.1191
17222SOL    HW258013   0.474   5.671   1.596  1.5446 -0.0143  1.0698
17223SOL     OW58014   0.204   1.126   5.010 -0.0394  0.0691  0.2003
17223SOL    HW158015   0.289   1.084   5.022 -0.5773 -1.4763 -1.0589
17223SOL    HW258016   0.141   1.059   5.037 -0.8971  1.4013  1.7263
17224SOL     OW58017   5.254   5.236   6.133 -0.1613 -0.2213  0.5254
17224SOL    HW158018   5.217   5.197   6.213 -0.2022 -0.5923  0.3296
17224SOL    HW258019   5.349   5.224   6.143 -0.2117 -1.0127  0.1477
17225SOL     OW58020   3.967   4.769   8.180 -0.3842  0.0721  0.3011
17225SOL    HW158021   4.008   4.733   8.101 -0.3128  1.5145 -0.3435
17225SOL    HW258022   4.040   4.785   8.240 -0.1374  1.2747 -0.2948
17226SOL     OW58023   6.704   6.074   4.764 -0.0612  0.0606  0.3350
17226SOL    HW158024   6.629   6.019   4.787  0.4812 -0.7974  0.1168
17226SOL    HW258025   6.732   6.112   4.847 -0.1798 -0.3452  0.5636
17227SOL     OW58026   8.797   6.965   8.321 -0.5691  0.3859  0.8050
17227SOL    HW158027   8.720   7.022   8.319  0.3871  1.6908 -0.4572
17227SOL    HW258028   8.772   6.889   8.267 -0.6223  1.3136 -0.5142
17228SOL     OW58029   4.599   6.678   3.964 -0.8917  0.4355  0.3292
17228SOL    HW158030   4.672   6.630   4.005 -0.5322  0.9057  0.2444
17228SOL    HW258031   4.620   6.677   3.871  0.8532  3.5171  0.5412
17229SOL     OW58032   7.278   4.557   2.132 -0.1807 -0.6069  0.7293
17229SOL    HW158033   7.229   4.490   2.085 -1.2276  1.4856 -1.3669
17229SOL    HW258034   7.227   4.637   2.119  0.0424  0.3949  4.5712
17230SOL     OW58035   9.124   6.054   9.172 -0.2478 -0.2502 -0.3076
17230SOL    HW158036   9.197   6.102   9.134 -1.1163  1.5002  0.0946
17230SOL    HW258037   9.164   5.979   9.216  1.7167  2.0892  2.2800
17231SOL     OW58038   7.361   1.347   0.893 -0.3999 -0.5939 -0.4271
17231SOL    HW158039   7.383   1.439   0.877 -0.7291 -0.5258 -0.4832
17231SOL    HW258040   7.445   1.306   0.915 -0.2342 -0.3064 -0.5219
17232SOL     OW58041   0.985   5.041   1.664 -0.0189 -0.4898 -0.3976
17232SOL    HW158042   0.915   5.080   1.611 -1.4307 -0.3430  1.4751
17232SOL    HW258043   1.064   5.090   1.639 -0.8880  0.4563 -1.3855
17233SOL     OW58044   0.646   8.959   5.395  0.0069  0.0111 -0.2737
17233SOL    HW158045   0.723   8.936   5.447  0.0129  0.9863  0.1801
17233SOL    HW258046   0.579   8.979   5.460  0.2124  1.9336 -0.5791
17234SOL     OW58047   3.653   4.721   0.824  0.2524 -0.1461  0.3454
17234SOL    HW158048   3.738   4.679   0.840  0.2159 -0.6723 -0.7627
17234SOL    HW258049   3.593   4.648   0.806 -0.8211  0.0979  2.5633
17235SOL     OW58050   2.638   8.762   2.884  0.5192  0.0025 -0.7045
17235SOL    HW158051   2.608   8.702   2.952  1.7599  1.2816  1.0377
17235SOL    HW258052   2.727   8.734   2.865  1.0255  1.1297 -0.0459
17236SOL     OW58053   8.832   7.613   8.368 -0.2192  0.0863 -0.0835
17236SOL    HW158054   8.862   7.669   8.297 -0.8538 -0.5261 -0.8645
17236SOL    HW258055   8.737   7.627   8.371 -0.4649 -1.2529 -0.6106
17237SOL     OW58056   3.449   4.227   5.849  0.1912 -0.1266 -0.5734
17237SOL    HW158057   3.375   4.202   5.904 -0.7471  1.6175 -0.9623
17237SOL    HW258058   3.525   4.216   5.905 -0.4831 -0.7125  0.2608
17238SOL     OW58059   8.146   4.933   9.119 -0.1933 -1.0839  0.1671
17238SOL    HW158060   8.241   4.936   9.108 -0.2755  0.6414 -0.5029
17238SOL    HW258061   8.127   5.002   9.183 -1.0047 -1.2360  0.1104
17239SOL     OW58062   7.245   1.940   6.807 -0.6246  0.2628 -0.0793
17239SOL    HW158063   7.166   1.888   6.821 -0.6790 -0.0834 -1.5413
17239SOL    HW258064   7.233   1.978   6.720  2.4142 -2.8146 -2.1020
17240SOL     OW58065   3.122   1.507   6.916 -0.1381  0.1221 -0.1896
17240SOL    HW158066   3.051   1.538   6.861  0.9624 -0.7273 -2.1872
17240SOL    HW258067   3.082   1.493   7.002 -1.8761  1.5982 -0.7113
17241SOL     OW58068   6.760   3.701   7.474  0.0155  0.1892  0.4028
17241SOL    HW158069   6.823   3.768   7.500  0.7055 -0.1770 -0.2774
17241SOL    HW258070   6.734   3.726   7.385  1.3294 -1.1658 -0.4058
17242SOL     OW58071   1.865   7.484   8.090  0.0202 -1.0623 -0.0501
17242SOL    HW158072   1.950   7.513   8.124  0.1708 -0.1504 -1.1474
17242SOL    HW258073   1.804   7.553   8.117 -0.4133 -1.7687  0.8277
17243SOL     OW58074   6.991   1.434   6.388  0.2081 -1.0282  0.1340
17243SOL    HW158075   7.039   1.517   6.388  2.2275 -2.1410  0.1345
17243SOL    HW258076   7.014   1.393   6.471 -0.7448 -1.6281  0.1179
17244SOL     OW58077   1.110   8.361   1.085 -0.9361  0.0139 -0.3941
17244SOL    HW158078   1.146   8.387   1.000  1.5448 -0.8006  0.3072
17244SOL    HW258079   1.087   8.268   1.073 -0.2412 -0.2026 -0.0986
17245SOL     OW58080   5.438   8.913   2.181 -0.3285  0.1216  0.1961
17245SOL    HW158081   5.429   8.899   2.276  2.3914  1.4815  0.7488
17245SOL    HW258082   5.436   9.008   2.170  1.9465  0.1275 -0.7085
17246SOL     OW58083   7.871   3.083   2.379  0.9458  0.7171 -0.5857
17246SOL    HW158084   7.903   3.099   2.290 -1.2659  2.5752 -1.1527
17246SOL    HW258085   7.858   3.171   2.415  0.2527  0.0007  0.9881
17247SOL     OW58086   0.173   2.698   7.102  0.6976 -0.3138 -0.1893
17247SOL    HW158087   0.198   2.606   7.097 -0.3177 -0.5806 -0.5587
17247SOL    HW258088   0.121   2.713   7.024 -2.1518 -0.3998  1.5464
17248SOL     OW58089   1.596   7.712   4.777  0.2713  0.5043  0.2834
17248SOL    HW158090   1.509   7.707   4.738  0.2983  1.5449  0.0623
17248SOL    HW258091   1.656   7.697   4.704  0.2993  1.1672  0.1686
17249SOL     OW58092   6.196   7.580   0.288 -0.3856  0.2928 -0.0418
17249SOL    HW158093   6.132   7.642   0.321  1.5487  1.7685  1.1759
17249SOL    HW258094   6.281   7.615   0.317  1.0753 -0.9749 -2.4422
17250SOL     OW58095   5.280   1.615   4.703  0.7510  0.3449 -0.4037
17250SOL    HW158096   5.333   1.692   4.722  0.1348  0.4922  0.8068
17250SOL    HW258097   5.259   1.578   4.789  0.7717 -1.0010 -0.9394
17251SOL     OW58098   1.451   5.486   1.403  0.0090 -0.6099  0.0520
17251SOL    HW158099   1.417   5.504   1.490  1.0214 -0.2227  0.3793
17251SOL    HW258100   1.437   5.392   1.390 -4.6819  0.0573 -1.3857
17252SOL     OW58101   4.045   6.466   7.504  0.4683  0.2584  0.0868
17252SOL    HW158102   4.031   6.376   7.533 -0.2257  0.1365 -0.5913
17252SOL    HW258103   4.005   6.470   7.417 -0.4634  1.5044  0.5404
17253SOL     OW58104   7.247   3.662   3.366 -0.4889  0.6506 -0.7667
17253SOL    HW158105   7.153   3.665   3.385 -0.2060 -0.1771  0.9495
17253SOL    HW258106   7.282   3.741   3.407 -0.1782 -0.0537  0.3723
17254SOL     OW58107   4.051   1.034   1.075 -0.3525  0.0442 -0.2204
17254SOL    HW158108   4.024   0.947   1.104  0.4694  0.1745  1.0464
17254SOL    HW258109   4.127   1.018   1.019  0.1546 -0.0543  0.4701
17255SOL     OW58110   5.770   0.925   0.947 -0.2934  0.3068  0.2176
17255SOL    HW158111   5.863   0.944   0.933 -0.1949 -0.1642  0.2014
17255SOL    HW258112   5.726   1.010   0.938  0.2718  0.7542  1.5135
17256SOL     OW58113   1.763   5.380   2.881  0.4812  0.3107 -0.0384
17256SOL    HW158114   1.708   5.433   2.939  1.0612  0.1222  0.7062
17256SOL    HW258115   1.771   5.296   2.927  1.0841  0.2105 -0.3164
17257SOL     OW58116   2.291   6.727   0.513 -0.3599  0.0729  0.3667
17257SOL    HW158117   2.275   6.764   0.600 -0.8737 -0.0874  0.3449
17257SOL    HW258118   2.277   6.800   0.453  0.6602  0.3542  0.4580
17258SOL     OW58119   1.676   3.185   4.290  0.2101  0.1485 -0.5218
17258SOL    HW158120   1.714   3.228   4.367 -0.6810  1.2424 -0.6748
17258SOL    HW258121   1.695   3.244   4.217  0.0024 -0.2976 -0.9478
17259SOL     OW58122   0.076   4.818   3.270 -0.2219  0.3938  0.5401
17259SOL    HW158123   0.134   4.894   3.274  0.0502  0.1501  1.4658
17259SOL    HW258124  -0.012   4.855   3.273 -0.0921  0.6773  1.0891
17260SOL     OW58125   2.314   5.744   8.789 -0.1720 -0.1021 -0.0240
17260SOL    HW158126   2.222   5.768   8.775 -0.5384 -1.2037  0.3824
17260SOL    HW258127   2.358   5.827   8.805 -1.1281  0.4284 -0.0475
17261SOL     OW58128   6.518   0.769   8.162  0.2175 -0.2180 -0.2205
17261SOL    HW158129   6.464   0.728   8.230  0.5114  0.6979  0.5775
17261SOL    HW258130   6.513   0.863   8.179  0.4874  0.0158 -1.3287
17262SOL     OW58131   5.757   5.277   3.832  0.1711  0.0037  0.0596
17262SOL    HW158132   5.837   5.294   3.782 -0.3743 -0.1700 -0.8963
17262SOL    HW258133   5.788   5.238   3.914  1.0695  0.0317 -0.2547
17263SOL     OW58134   1.176   8.110   7.471  0.2414 -0.7359  0.3917
17263SOL    HW158135   1.101   8.117   7.530  0.3328 -1.0376  0.5419
17263SOL    HW258136   1.178   8.019   7.444 -0.3100 -0.4245 -0.7554
17264SOL     OW58137   4.735   7.458   2.919  0.2632  0.0907  0.4142
17264SOL    HW158138   4.772   7.544   2.938  2.4412 -0.4819 -0.8404
17264SOL    HW258139   4.659   7.476   2.864 -1.2206  1.3056  2.7113
17265SOL     OW58140   5.954   2.537   5.612  0.5558 -0.0875 -0.3133
17265SOL    HW158141   5.925   2.566   5.526 -1.4315 -2.1378 -0.4088
17265SOL    HW258142   5.939   2.443   5.613  1.1945 -0.2367  2.0420
17266SOL     OW58143   4.209   3.535   7.591 -0.0179 -0.0086 -0.1292
17266SOL    HW158144   4.295   3.497   7.603  1.0435  1.5687 -2.0352
17266SOL    HW258145   4.148   3.466   7.618  1.7763 -0.7507  2.3816
17267SOL     OW58146   1.968   6.484   9.082 -0.1064 -0.0594  0.5259
17267SOL    HW158147   1.995   6.522   9.166  1.1396 -0.2973  0.2471
17267SOL    HW258148   2.020   6.404   9.074 -0.6299 -0.3352 -0.2145
17268SOL     OW58149   6.986   1.197   7.348  0.1219  0.1991 -0.1940
17268SOL    HW158150   7.061   1.249   7.317  0.6293  0.0164  0.6621
17268SOL    HW258151   6.912   1.229   7.298  0.7684  0.4269 -1.0269
17269SOL     OW58152   5.420   3.480   7.070  0.3176  0.4780 -0.1090
17269SOL    HW158153   5.480   3.407   7.054  1.2184  1.0079  0.7270
17269SOL    HW258154   5.353   3.444   7.127  0.7967  0.3144  0.3599
17270SOL     OW58155   5.840   0.870   1.254 -0.2070 -0.4311  0.1037
17270SOL    HW158156   5.932   0.870   1.228  0.0552  1.6829  0.8652
17270SOL    HW258157   5.798   0.933   1.195 -1.0143 -0.7998  0.2651
17271SOL     OW58158   6.994   8.329   8.563 -0.4714 -0.6523 -0.3726
17271SOL    HW158159   7.077   8.284   8.573 -0.4658 -0.7426 -0.7912
17271SOL    HW258160   6.928   8.260   8.571 -0.4042 -1.2095 -3.2956
17272SOL     OW58161   1.737   2.553   6.849 -0.0560 -0.1912 -0.1965
17272SOL    HW158162   1.732   2.490   6.778  0.5452 -1.7933  1.1174
17272SOL    HW258163   1.715   2.503   6.928  0.0424  1.3378  0.8501
17273SOL     OW58164   2.180   6.916   5.922 -0.2156 -0.1152  0.0148
17273SOL    HW158165   2.274   6.922   5.901 -0.0390  0.5209  0.9503
17273SOL    HW258166   2.137   6.913   5.837  0.6097  0.3589 -0.4339
17274SOL     OW58167   6.069   3.584   2.086 -0.1651  0.0726  0.1990
17274SOL    HW158168   5.985   3.539   2.096 -1.7568  2.5990 -0.8065
17274SOL    HW258169   6.089   3.578   1.993 -1.0436  2.3123 -0.2022
17275SOL     OW58170   6.857   5.056   4.276 -0.1120 -0.1287  0.1897
17275SOL    HW158171   6.895   5.128   4.326  0.4085  0.0191 -0.3948
17275SOL    HW258172   6.900   5.061   4.190  0.9047 -1.9162  0.5342
17276SOL     OW58173   1.721   7.208   3.068 -0.1837 -0.1756 -0.0165
17276SOL    HW158174   1.740   7.178   3.157  1.3790  0.0060 -0.2527
17276SOL    HW258175   1.725   7.304   3.074  3.5997 -0.1068 -0.8892
17277SOL     OW58176   4.947   5.414   8.794  0.2749  0.1319  0.5074
17277SOL    HW158177   4.952   5.324   8.826  1.7792 -0.6051 -1.6108
17277SOL    HW258178   4.940   5.406   8.699 -1.6234  2.2580  0.3626
17278SOL     OW58179   2.197   3.912   3.174  0.4041 -0.4160 -0.8351
17278SOL    HW158180   2.193   3.819   3.154  1.0443 -0.7791  0.5772
17278SOL    HW258181   2.225   3.953   3.092  2.0736 -1.7061 -0.9595
17279SOL     OW58182   2.451   5.587   7.933 -0.1528 -0.1333 -0.2866
17279SOL    HW158183   2.547   5.589   7.937 -0.1821 -0.0504  0.6065
17279SOL    HW258184   2.424   5.547   8.016 -0.9239  1.0124  0.0432
17280SOL     OW58185   4.674   0.363   1.785 -0.3765 -0.2501  0.0476
17280SOL    HW158186   4.649   0.294   1.847 -0.6356  0.2143  0.4648
17280SOL    HW258187   4.620   0.348   1.708 -0.7387 -0.2572  0.3023
17281SOL     OW58188   0.651   2.556   7.109  0.3372 -0.2247  0.6285
17281SOL    HW158189   0.576   2.509   7.072  0.5620 -0.2435  0.1919
17281SOL    HW258190   0.718   2.489   7.118 -0.4316 -0.7464  3.2409
17282SOL     OW58191   1.992   6.130   5.981 -0.5121 -0.2855  0.2649
17282SOL    HW158192   2.085   6.109   5.975 -0.0741  1.3353  0.6730
17282SOL    HW258193   1.976   6.187   5.906 -1.3801 -1.1597 -0.2380
17283SOL     OW58194   0.692   9.098   7.435 -0.1458  0.9273 -0.2200
17283SOL    HW158195   0.748   9.076   7.360  2.4730  1.4387  1.4680
17283SOL    HW258196   0.681   9.192   7.429  0.7355  1.0829  0.4330
17284SOL     OW58197   4.396   7.547   0.684  0.1685  0.5339 -0.1345
17284SOL    HW158198   4.364   7.633   0.658 -1.2208 -0.0484 -0.4747
17284SOL    HW258199   4.347   7.526   0.764  2.2778  1.0594  1.3671
17285SOL     OW58200   6.775   5.188   3.942  0.3261  0.5338  0.3713
17285SOL    HW158201   6.698   5.172   3.887  1.3337  1.5596 -1.4333
17285SOL    HW258202   6.848   5.152   3.892  1.0382 -0.6603  2.1703
17286SOL     OW58203   7.042   7.129   3.733  0.5702 -0.2202 -0.7034
17286SOL    HW158204   7.115   7.117   3.672  0.1156  0.3170 -1.3655
17286SOL    HW258205   7.031   7.043   3.774  0.8364 -0.6118 -1.4334
17287SOL     OW58206   8.328   1.263   8.936  0.4311 -0.3515  0.8324
17287SOL    HW158207   8.266   1.222   8.876  0.4350 -1.2899  1.4392
17287SOL    HW258208   8.410   1.214   8.923  1.2070  1.1554 -0.2766
17288SOL     OW58209   4.620   9.057   5.456 -0.4452 -0.3740 -0.1805
17288SOL    HW158210   4.525   9.068   5.462 -0.5744 -1.6387  0.4717
17288SOL    HW258211   4.643   9.093   5.371 -1.2706  1.3791  0.2937
17289SOL     OW58212   5.922   0.341   5.746 -0.1898  0.5826  0.1906
17289SOL    HW158213   5.855   0.280   5.778 -0.9869  0.8620 -0.8883
17289SOL    HW258214   5.876   0.423   5.732  0.2305  0.6357 -1.0876
17290SOL     OW58215   2.211   1.417   7.114 -0.2049  0.1692 -0.6871
17290SOL    HW158216   2.266   1.404   7.036 -1.2200  0.1157 -1.4060
17290SOL    HW258217   2.148   1.485   7.088 -0.0407  0.7398  0.3665
17291SOL     OW58218   0.072   6.687   4.343 -0.1612 -0.5516  0.1470
17291SOL    HW158219   0.066   6.709   4.250 -3.4561  0.7494  0.5082
17291SOL    HW258220   0.155   6.724   4.372  0.3387  0.1356 -2.0399
17292SOL     OW58221   4.088   0.769   5.811  0.1396 -0.1657  0.1367
17292SOL    HW158222   4.149   0.698   5.790  1.9659  1.5144 -0.4785
17292SOL    HW258223   4.099   0.832   5.740 -2.2206  0.3178  0.1044
17293SOL     OW58224   3.081   6.105   6.452 -0.7453 -0.6088 -0.0230
17293SOL    HW158225   3.164   6.150   6.469 -0.3031 -1.2929 -0.3196
17293SOL    HW258226   3.066   6.053   6.531 -0.6448 -0.8452 -0.1569
17294SOL     OW58227   1.439   4.740   3.408  0.1542  0.3683 -0.6552
17294SOL    HW158228   1.524   4.718   3.372  0.0023  1.5932 -1.8612
17294SOL    HW258229   1.392   4.657   3.413  1.0019 -0.1522 -1.0889
17295SOL     OW58230   6.591   9.009   0.951  0.2410  0.1824 -0.1078
17295SOL    HW158231   6.561   8.976   1.036  1.1303  0.3639  0.3026
17295SOL    HW258232   6.513   9.043   0.909 -0.6697 -2.1579 -0.4389
17296SOL     OW58233   2.627   1.454   2.553 -0.0598 -0.2221  0.2288
17296SOL    HW158234   2.649   1.429   2.643  1.3385  1.5498  0.4467
17296SOL    HW258235   2.595   1.544   2.561 -0.6820 -0.3144 -0.9799
17297SOL     OW58236   1.286   3.944   5.811  0.5997 -0.2771  0.1232
17297SOL    HW158237   1.246   3.987   5.886  1.5291 -1.0139  1.0620
17297SOL    HW258238   1.331   3.867   5.847  2.9789  0.5660 -0.8244
17298SOL     OW58239   1.920   3.623   3.280 -0.3012  0.6448 -0.1734
17298SOL    HW158240   1.849   3.681   3.253 -1.5141 -1.0010 -0.6530
17298SOL    HW258241   1.880   3.536   3.283  1.4631 -0.1791  0.5029
17299SOL     OW58242   2.678   7.730   7.768  0.2712  0.5676  0.6798
17299SOL    HW158243   2.716   7.733   7.856  0.0911 -0.1468  0.7869
17299SOL    HW258244   2.600   7.785   7.774  0.5908  1.0166  0.7980
17300SOL     OW58245   1.673   7.779   2.377  0.4539  0.5073  0.0640
17300SOL    HW158246   1.766   7.800   2.364  0.7980 -1.0823 -0.1969
17300SOL    HW258247   1.640   7.852   2.429  1.6697  1.4765 -0.4409
17301SOL     OW58248   3.331   6.674   7.074 -0.1777  0.3606 -0.1986
17301SOL    HW158249   3.370   6.623   7.146 -1.0187  0.6970  0.5081
17301SOL    HW258250   3.311   6.759   7.113  0.3377  0.9311 -1.1254
17302SOL     OW58251   1.082   7.914   7.320  0.1897  0.2901 -0.1576
17302SOL    HW158252   1.009   7.874   7.367 -0.8272  0.6130 -1.3993
17302SOL    HW258253   1.044   7.992   7.279  1.2886  0.5866 -0.6448
17303SOL     OW58254   3.903   0.580   3.554 -0.4421  0.2925  0.2482
17303SOL    HW158255   3.816   0.545   3.535 -0.3973  0.0240  0.5378
17303SOL    HW258256   3.942   0.518   3.615  0.1826  0.1001 -0.3339
17304SOL     OW58257   4.206   1.325   7.238 -0.1294 -0.6997  0.1574
17304SOL    HW158258   4.204   1.360   7.326  0.4611 -2.4995  0.9413
17304SOL    HW258259   4.121   1.284   7.226  0.4568 -2.1295  0.6600
17305SOL     OW58260   5.622   8.289   5.120  0.2260 -0.1339 -0.2643
17305SOL    HW158261   5.695   8.227   5.120  0.7842  0.4875  1.1239
17305SOL    HW258262   5.619   8.322   5.030  0.3794 -1.6170 -0.8364
17306SOL     OW58263   7.846   2.283   8.306  0.3009 -0.2861  0.3337
17306SOL    HW158264   7.897   2.303   8.385 -0.3223  0.7267  0.4874
17306SOL    HW258265   7.829   2.367   8.266  3.1381 -0.9097 -2.5632
17307SOL     OW58266   0.512   0.126   6.553  0.5694 -0.2123  0.4908
17307SOL    HW158267   0.418   0.142   6.561  0.5315 -0.6215  0.9661
17307SOL    HW258268   0.551   0.213   6.551  0.2605 -0.0351  1.5099
17308SOL     OW58269   0.565   8.312   6.249  0.5164  0.1192  0.4714
17308SOL    HW158270   0.611   8.372   6.308  2.5685  1.6618 -2.4422
17308SOL    HW258271   0.634   8.255   6.214 -0.4816 -0.2854 -0.9372
17309SOL     OW58272   0.493   5.369   6.284 -0.1649 -0.0142 -0.1234
17309SOL    HW158273   0.438   5.412   6.349  0.3305 -1.3193  1.2314
17309SOL    HW258274   0.554   5.316   6.336  1.7387  0.6210 -1.5805
17310SOL     OW58275   6.748   0.057   8.412  0.1479 -0.2535 -0.1176
17310SOL    HW158276   6.792   0.110   8.478 -0.2809 -2.6742  2.3474
17310SOL    HW258277   6.655   0.075   8.425  0.1369  0.8259 -1.5681
17311SOL     OW58278   6.234   2.545   3.288 -0.0662 -0.1613 -0.1762
17311SOL    HW158279   6.321   2.506   3.295  0.3187  0.4893 -1.0897
17311SOL    HW258280   6.235   2.591   3.204 -1.4793 -0.5878 -0.4490
17312SOL     OW58281   7.334   2.790   2.160 -0.0509 -0.1184 -0.1143
17312SOL    HW158282   7.369   2.703   2.139  1.0193  0.8796 -2.8306
17312SOL    HW258283   7.410   2.848   2.156 -1.1201  1.2886 -0.6572
17313SOL     OW58284   9.240   7.584   5.731  0.2796  0.1460  0.6662
17313SOL    HW158285   9.299   7.565   5.658  1.6650  1.0811  1.5150
17313SOL    HW258286   9.290   7.562   5.809 -1.2357 -0.9992  1.3828
17314SOL     OW58287   5.788   6.815   2.057 -0.3933 -0.2316  0.1939
17314SOL    HW158288   5.801   6.885   1.992 -1.9180  0.5452  0.6856
17314SOL    HW258289   5.726   6.851   2.120  1.8277 -0.5470  2.7671
17315SOL     OW58290   3.864   1.452   6.799 -0.1174  0.1522  0.6433
17315SOL    HW158291   3.910   1.370   6.785 -3.3520 -1.5156 -1.4150
17315SOL    HW258292   3.863   1.464   6.894  0.0606 -2.4374  1.0231
17316SOL     OW58293   2.399   4.970   3.104  0.7083 -0.3115 -0.4096
17316SOL    HW158294   2.376   5.015   3.022  0.8188 -1.1201 -0.9056
17316SOL    HW258295   2.315   4.947   3.143  0.6483  0.5057 -0.0408
17317SOL     OW58296   8.725   7.952   0.596  0.7128  0.1271  0.2387
17317SOL    HW158297   8.680   7.913   0.671 -1.0403 -0.3186 -0.9625
17317SOL    HW258298   8.695   8.043   0.595  1.2613  0.3143  0.4513
17318SOL     OW58299   4.499   7.051   9.093  0.2142 -0.7069  0.6170
17318SOL    HW158300   4.583   7.044   9.137  0.6395 -1.6604 -0.3062
17318SOL    HW258301   4.521   7.073   9.002 -0.5408 -0.6695  0.4363
17319SOL     OW58302   0.738   2.470   2.812  0.8943 -0.2514  0.4108
17319SOL    HW158303   0.696   2.518   2.883  0.0709 -2.2567  1.3680
17319SOL    HW258304   0.665   2.427   2.766  1.2681  1.9188 -2.4715
17320SOL     OW58305   9.214   1.463   9.106 -0.2025 -0.5692  0.2273
17320SOL    HW158306   9.275   1.426   9.170 -0.2695  1.6769  1.6995
17320SOL    HW258307   9.127   1.444   9.142 -0.2649 -0.1454  0.3075
17321SOL     OW58308   8.373   9.027   5.449 -0.2137 -0.0993 -0.2892
17321SOL    HW158309   8.302   9.019   5.512 -0.2758  0.9072 -0.2179
17321SOL    HW258310   8.420   8.943   5.455 -0.7380 -0.3491  0.4501
17322SOL     OW58311   0.109   4.716   4.759 -0.7808 -0.1528 -0.0795
17322SOL    HW158312   0.020   4.741   4.783 -0.7463  0.1151 -0.2293
17322SOL    HW258313   0.119   4.628   4.793 -0.0210  0.9489  2.8708
17323SOL     OW58314   8.377   8.253   4.994  0.0740  0.9425  0.3146
17323SOL    HW158315   8.338   8.341   4.993  0.3916  1.0850  0.1962
17323SOL    HW258316   8.445   8.257   5.061 -0.5764  0.4845  1.0112
17324SOL     OW58317   6.915   5.390   7.506  0.3411  0.3818 -0.2243
17324SOL    HW158318   6.855   5.334   7.456  1.0272  1.1602 -1.9958
17324SOL    HW258319   6.859   5.456   7.545 -0.1840 -0.1220 -0.1040
17325SOL     OW58320   6.571   6.427   8.252  0.0722 -0.0936  0.6384
17325SOL    HW158321   6.520   6.381   8.318 -1.5048 -0.9560 -1.0903
17325SOL    HW258322   6.543   6.519   8.261 -0.8767 -0.3580  0.5486
17326SOL     OW58323   2.823   9.078   8.140 -0.3374 -0.4809  0.1205
17326SOL    HW158324   2.743   9.056   8.187 -0.9910 -1.2517 -1.2690
17326SOL    HW258325   2.823   9.019   8.064  0.4823  0.9082 -1.0135
17327SOL     OW58326   4.149   8.460   7.245  0.3218 -0.4386 -0.0252
17327SOL    HW158327   4.185   8.372   7.231  0.1748 -0.6494  0.8729
17327SOL    HW258328   4.215   8.505   7.298  0.4889  0.0649 -0.6535
17328SOL     OW58329   3.000   0.023   0.879 -0.3296  0.0118 -0.8364
17328SOL    HW158330   2.953   0.091   0.832  0.3676  0.3838 -1.0009
17328SOL    HW258331   2.959  -0.059   0.850  0.2792  0.2067 -2.3200
17329SOL     OW58332   1.172   1.832   8.305  0.1380  0.2081 -0.0643
17329SOL    HW158333   1.138   1.767   8.367  0.1380  0.0222 -0.2589
17329SOL    HW258334   1.140   1.803   8.220 -0.6091  0.9523 -0.0590
17330SOL     OW58335   6.104   6.874   8.551  0.5367 -0.1061 -0.9524
17330SOL    HW158336   6.199   6.875   8.542  0.6892  1.4871  0.3100
17330SOL    HW258337   6.088   6.849   8.642 -0.2806 -0.7365 -1.2508
17331SOL     OW58338   2.303   7.905   5.139 -0.0917  0.7004  0.0880
17331SOL    HW158339   2.346   7.990   5.133 -1.2463  1.2291 -1.5056
17331SOL    HW258340   2.220   7.923   5.184  0.0009  0.2671  0.4397
17332SOL     OW58341   1.215   8.616   6.262 -0.4665 -0.0602  0.2723
17332SOL    HW158342   1.251   8.701   6.288 -1.6733  0.1911  1.1901
17332SOL    HW258343   1.179   8.630   6.175 -0.5224  0.3246  0.3574
17333SOL     OW58344   0.079   0.491   6.867 -0.1055  0.1634 -0.3443
17333SOL    HW158345   0.169   0.460   6.859  0.6149  0.9719  2.9851
17333SOL    HW258346   0.042   0.437   6.937 -2.3076 -0.2068 -1.6985
17334SOL     OW58347   0.099   3.571   3.924  0.0962 -0.3497  0.1513
17334SOL    HW158348   0.179   3.524   3.899  1.2508  0.7960  1.5327
17334SOL    HW258349   0.125   3.624   3.999 -1.8849  0.3475  0.3912
17335SOL     OW58350   0.183   9.156   6.270  0.1213  0.2683 -0.0671
17335SOL    HW158351   0.177   9.110   6.354 -1.7038  0.4376 -0.0599
17335SOL    HW258352   0.230   9.095   6.213  2.9718  0.8501  1.4717
17336SOL     OW58353   6.640   4.405   7.748 -0.2005  0.6237  0.0660
17336SOL    HW158354   6.634   4.384   7.655 -0.2203 -0.8627  0.3728
17336SOL    HW258355   6.550   4.416   7.777 -0.1557  1.8963 -0.2481
17337SOL     OW58356   7.308   3.610   5.206  0.1217 -0.3235  0.1835
17337SOL    HW158357   7.370   3.538   5.218  0.1606  0.0679  3.0257
17337SOL    HW258358   7.247   3.579   5.139  2.7020 -1.1362 -1.9601
17338SOL     OW58359   0.234   3.030   9.085 -0.1491 -0.3249 -0.5405
17338SOL    HW158360   0.156   3.084   9.081  0.8706  1.1556 -1.3038
17338SOL    HW258361   0.216   2.957   9.026 -1.2512 -0.4351 -0.0821
17339SOL     OW58362   4.238   5.858   6.187  0.0581 -0.7315  0.5230
17339SOL    HW158363   4.193   5.790   6.138  2.3124 -1.9726  0.0159
17339SOL    HW258364   4.176   5.931   6.190 -1.7446 -2.1412 -0.4889
17340SOL     OW58365   3.668   3.498   3.286  0.4669 -0.3916  0.4944
17340SOL    HW158366   3.690   3.489   3.379 -0.1918  1.3400  0.8572
17340SOL    HW258367   3.608   3.425   3.268  0.7374 -0.8420  1.3684
17341SOL     OW58368   4.108   1.990   0.533  0.3187  0.2301 -0.5829
17341SOL    HW158369   4.193   1.946   0.537  0.2688  0.2168  1.3782
17341SOL    HW258370   4.096   2.027   0.621 -2.5512 -1.3903 -0.1749
17342SOL     OW58371   3.851   8.412   5.922 -0.2641 -0.5819  1.1266
17342SOL    HW158372   3.919   8.476   5.943 -0.0640 -0.0627 -0.9379
17342SOL    HW258373   3.769   8.458   5.938 -0.1212 -0.3610  1.2212
17343SOL     OW58374   2.729   6.353   7.796 -0.6285  0.0534  0.1086
17343SOL    HW158375   2.669   6.398   7.737 -0.0710  0.0315 -0.4815
17343SOL    HW258376   2.751   6.418   7.863 -0.6372  0.3337 -0.1617
17344SOL     OW58377   7.087   0.097   1.843 -0.2502  0.0792  0.4764
17344SOL    HW158378   7.145   0.126   1.772  0.9930 -2.0428  0.5623
17344SOL    HW258379   7.107   0.156   1.916  0.7672  0.2886  0.0478
17345SOL     OW58380   1.974   7.963   2.988 -0.4879  0.3694 -0.0864
17345SOL    HW158381   2.066   7.973   3.009 -0.8153  1.5181  0.8739
17345SOL    HW258382   1.968   7.985   2.895 -0.0119  1.8573  0.2063
17346SOL     OW58383   4.576   4.817   8.942  0.4137  0.0021  0.4167
17346SOL    HW158384   4.636   4.884   8.909  1.8528 -1.4490 -0.0263
17346SOL    HW258385   4.537   4.780   8.863 -1.2146  0.9991  0.7019
17347SOL     OW58386   4.770   4.202   2.464  0.1849 -0.3040  0.9096
17347SOL    HW158387   4.855   4.179   2.425  0.2472  0.4870  0.5636
17347SOL    HW258388   4.715   4.126   2.448  0.0037  0.2388 -1.3320
17348SOL     OW58389   0.326   8.966   6.107 -0.3848 -0.5255 -0.0260
17348SOL    HW158390   0.380   8.922   6.173  1.8708  0.2563 -1.2578
17348SOL    HW258391   0.314   8.901   6.038  1.7948  0.2278 -1.2158
17349SOL     OW58392   4.310   1.986   2.525  0.0131  0.9554 -0.2450
17349SOL    HW158393   4.229   2.010   2.571  0.7202  1.0690  0.9821
17349SOL    HW258394   4.368   1.952   2.593 -0.0158 -1.9511 -1.4945
17350SOL     OW58395   1.060   1.105   4.961 -0.4040 -0.3023  0.2283
17350SOL    HW158396   1.109   1.111   5.043  0.1166  0.9148 -0.1469
17350SOL    HW258397   1.125   1.073   4.897  0.0107  1.4593 -0.3042
17351SOL     OW58398   8.161   5.454   6.829 -0.6649 -0.2190 -0.2758
17351SOL    HW158399   8.207   5.434   6.910  0.3211 -1.7331 -1.1682
17351SOL    HW258400   8.167   5.549   6.821  1.9906 -0.3134 -0.1481
17352SOL     OW58401   2.986   9.200   6.520  0.6808 -0.1529 -0.8371
17352SOL    HW158402   2.998   9.268   6.454  0.5926  1.0280  0.3235
17352SOL    HW258403   2.895   9.209   6.548  0.6738 -0.7398 -0.6481
17353SOL     OW58404   6.141   4.212   6.877  0.0074  0.3053 -0.3692
17353SOL    HW158405   6.167   4.174   6.793  1.1151  0.9186 -0.3151
17353SOL    HW258406   6.183   4.298   6.879  0.5399  0.0378  1.0924
17354SOL     OW58407   2.269   3.522   0.577  0.0351 -0.2901  0.2837
17354SOL    HW158408   2.258   3.461   0.650 -0.6138 -0.8572 -0.2780
17354SOL    HW258409   2.203   3.495   0.513 -0.3098  1.0471  0.0526
17355SOL     OW58410   8.622   9.030   0.564 -0.0358 -0.0719 -0.3736
17355SOL    HW158411   8.642   9.088   0.491 -0.1826 -1.7463 -1.8031
17355SOL    HW258412   8.691   8.963   0.562 -0.7347 -0.8381  0.2523
17356SOL     OW58413   2.939   7.512   8.863 -0.6788 -0.2681  0.6955
17356SOL    HW158414   3.018   7.560   8.887 -0.5489  1.1458 -2.0666
17356SOL    HW258415   2.971   7.425   8.836 -0.0688  0.1588 -0.0121
17357SOL     OW58416   2.072   2.179   5.025  0.1876 -0.4414  1.1580
17357SOL    HW158417   2.025   2.177   4.942  1.6473  0.7138  0.2419
17357SOL    HW258418   2.041   2.101   5.072 -2.6340  0.3049  0.6974
17358SOL     OW58419   3.952   1.974   6.034 -0.1038 -0.6757  0.2435
17358SOL    HW158420   3.904   1.891   6.044 -1.2372  0.1580  2.2897
17358SOL    HW258421   3.889   2.033   5.993 -0.7281  0.2232  2.3191
17359SOL     OW58422   1.523   4.871   3.899 -0.1292  0.0932 -0.1254
17359SOL    HW158423   1.592   4.936   3.914  1.0717 -1.2310  0.2527
17359SOL    HW258424   1.566   4.802   3.848 -1.5045 -0.2126 -0.9265
17360SOL     OW58425   3.502   5.627   7.563  0.3350 -0.1147 -0.3177
17360SOL    HW158426   3.446   5.582   7.499  0.1734  0.1248 -0.3479
17360SOL    HW258427   3.549   5.692   7.511 -1.2814  1.4700  0.1025
17361SOL     OW58428   4.593   2.588   8.106 -0.2955  0.0310 -0.2092
17361SOL    HW158429   4.509   2.571   8.148 -0.4738 -0.9246 -0.9154
17361SOL    HW258430   4.592   2.682   8.086 -1.4199 -0.0804 -0.6959
17362SOL     OW58431   2.508   7.571   8.712 -0.0003 -0.0168 -0.4721
17362SOL    HW158432   2.588   7.620   8.732  0.4478 -0.8415 -0.1655
17362SOL    HW258433   2.444   7.637   8.688  0.8875  0.6456 -1.0967
17363SOL     OW58434   5.636   7.144   0.794  0.3914 -0.2108 -0.2272
17363SOL    HW158435   5.721   7.145   0.750  0.6953 -0.7553  0.3308
17363SOL    HW258436   5.637   7.065   0.848  0.6755  1.1844  1.9606
17364SOL     OW58437   7.749   3.285   2.687  0.1669 -0.8279 -0.3493
17364SOL    HW158438   7.771   3.336   2.610 -0.8721 -1.2205 -0.9222
17364SOL    HW258439   7.781   3.197   2.667 -1.2050 -1.2304 -0.8858
17365SOL     OW58440   6.542   0.450   5.348 -0.4051 -0.0856  0.5292
17365SOL    HW158441   6.546   0.397   5.428 -0.6933  1.2561  1.4739
17365SOL    HW258442   6.621   0.426   5.299 -1.3463 -2.5801  0.1022
17366SOL     OW58443   2.153   5.966   4.724  0.5969 -0.3083 -0.0702
17366SOL    HW158444   2.059   5.952   4.730  0.3398  1.6513  1.5159
17366SOL    HW258445   2.164   6.024   4.649  0.4854 -0.1783  0.0139
17367SOL     OW58446   6.411   8.294   4.125  0.6551 -0.0233  0.8710
17367SOL    HW158447   6.353   8.237   4.075 -0.5340 -0.1895  2.3710
17367SOL    HW258448   6.402   8.380   4.085 -0.6005 -0.0591  1.0442
17368SOL     OW58449   9.088   0.241   3.025  0.1714 -0.5074 -0.4858
17368SOL    HW158450   9.159   0.271   2.968 -0.3616  1.6539 -0.0873
17368SOL    HW258451   9.117   0.265   3.113 -1.0147  0.4199 -0.3223
17369SOL     OW58452   0.523   6.279   2.486  0.2490 -0.2331  0.4844
17369SOL    HW158453   0.587   6.313   2.548 -0.5226  2.5658 -0.0990
17369SOL    HW258454   0.574   6.225   2.425  1.3964 -1.0193  2.0698
17370SOL     OW58455   1.133   3.138   2.673  0.1046 -0.1874  0.9022
17370SOL    HW158456   1.086   3.055   2.677 -1.2318  0.5704  2.2011
17370SOL    HW258457   1.219   3.116   2.638  0.3337 -2.3811  2.6484
17371SOL     OW58458   0.281   4.922   7.884  0.5675  0.3379 -0.5661
17371SOL    HW158459   0.367   4.883   7.893  0.0430 -0.5608  0.8666
17371SOL    HW258460   0.250   4.893   7.798  1.3053 -0.1046 -0.6822
17372SOL     OW58461   2.065   4.720   2.520 -0.0962  0.3004  0.6837
17372SOL    HW158462   2.022   4.643   2.481 -0.3437  1.2058 -0.9282
17372SOL    HW258463   2.048   4.712   2.614  0.1755 -1.7798  0.6094
17373SOL     OW58464   2.385   4.001   7.524 -0.5655  0.7253 -0.2935
17373SOL    HW158465   2.312   4.024   7.581 -0.4509  0.7050 -0.1379
17373SOL    HW258466   2.401   4.080   7.472 -0.7757  0.6896 -0.4114
17374SOL     OW58467   6.537   5.357   1.922 -0.0270 -0.1082  0.2990
17374SOL    HW158468   6.534   5.451   1.939  2.8367 -0.1829  1.9261
17374SOL    HW258469   6.563   5.349   1.831  0.4324  0.7183  0.3502
17375SOL     OW58470   6.656   4.259   2.123  0.6104 -0.8324  0.4110
17375SOL    HW158471   6.583   4.291   2.070  0.1619 -1.1016  0.8626
17375SOL    HW258472   6.734   4.298   2.082  0.2073 -0.4407  0.0062
17376SOL     OW58473   1.076   0.397   8.554  0.5176  0.1979  0.2677
17376SOL    HW158474   1.045   0.469   8.498  0.0353 -0.7269 -0.6751
17376SOL    HW258475   1.059   0.428   8.643  0.8420  1.4911 -0.0926
17377SOL     OW58476   0.612   2.500   4.225  0.1326 -0.0960  0.1990
17377SOL    HW158477   0.643   2.411   4.241 -0.9172 -0.2466  1.6646
17377SOL    HW258478   0.527   2.503   4.270 -0.6409  1.1327 -1.2641
17378SOL     OW58479   0.709   1.662   8.897  0.5087 -0.0949 -0.3560
17378SOL    HW158480   0.640   1.688   8.958  0.0344 -0.6262 -0.6577
17378SOL    HW258481   0.773   1.732   8.903  0.0632  0.2839  0.1197
17379SOL     OW58482   5.023   2.197   8.290  0.0017  0.4162  0.1510
17379SOL    HW158483   5.019   2.105   8.266  0.4117  0.0772  1.3300
17379SOL    HW258484   5.028   2.197   8.385  2.4787  1.5708  0.0845
17380SOL     OW58485   7.123   5.525   7.350 -0.3767 -0.6376  0.3418
17380SOL    HW158486   7.067   5.451   7.374 -1.0958  0.3013  1.6898
17380SOL    HW258487   7.168   5.548   7.432  0.6657 -0.2590 -0.3209
17381SOL     OW58488   3.806   2.014   9.055  0.1678  0.1853 -0.3826
17381SOL    HW158489   3.774   2.011   9.145 -0.1787  0.7879 -0.4818
17381SOL    HW258490   3.772   1.934   9.015 -0.7288  0.5349 -0.3244
17382SOL     OW58491   1.653   1.711   1.021  0.3796 -0.2913 -0.2351
17382SOL    HW158492   1.618   1.780   1.077  0.4460 -0.7084  0.3368
17382SOL    HW258493   1.715   1.755   0.963  0.7927  0.0534  0.4563
17383SOL     OW58494   8.532   5.916   6.258  0.0149 -0.8845  0.3206
17383SOL    HW158495   8.602   5.975   6.283 -0.4311  0.0588 -0.5791
17383SOL    HW258496   8.484   5.900   6.340 -1.2724  1.9256  0.2275
17384SOL     OW58497   1.339   2.963   4.963 -0.4466 -0.7164  0.0856
17384SOL    HW158498   1.292   2.980   5.045  0.3804 -1.6177  0.7600
17384SOL    HW258499   1.338   2.868   4.954 -0.3438 -0.6353 -0.8556
17385SOL     OW58500   5.146   6.223   8.361  0.2833  0.3567 -0.4346
17385SOL    HW158501   5.188   6.308   8.377  1.0283 -0.3458  1.7477
17385SOL    HW258502   5.120   6.193   8.448  1.0782 -2.1805 -0.9917
17386SOL     OW58503   8.138   7.320   2.897 -0.2100 -0.0917 -0.0341
17386SOL    HW158504   8.072   7.378   2.935  0.7725  0.2852  1.1540
17386SOL    HW258505   8.089   7.243   2.867 -1.5458  1.2988 -1.6368
17387SOL     OW58506   3.252   1.300   8.260 -0.7746 -0.7024 -0.1161
17387SOL    HW158507   3.315   1.232   8.236 -0.4627 -0.2314 -0.6520
17387SOL    HW258508   3.198   1.259   8.328  0.9592 -0.6679  1.3496
17388SOL     OW58509   0.397   8.020   6.060  0.1848  0.1512 -0.1830
17388SOL    HW158510   0.486   8.032   6.094 -0.1897  0.7119  0.6345
17388SOL    HW258511   0.407   7.956   5.989  1.6389  2.1113 -1.8761
17389SOL     OW58512   0.935   2.930   6.496  0.4775 -0.7142  0.4621
17389SOL    HW158513   0.897   3.016   6.475  1.2517 -0.3023  0.6935
17389SOL    HW258514   0.954   2.891   6.411  1.9765  0.2068  0.3414
17390SOL     OW58515   5.953   5.204   0.050  0.2865  0.0935 -0.2294
17390SOL    HW158516   5.885   5.235   0.110  0.8308  1.8873 -0.4791
17390SOL    HW258517   6.027   5.263   0.065  1.0491 -0.5200 -1.4399
17391SOL     OW58518   2.455   1.269   0.651 -0.2125  0.0736  0.4865
17391SOL    HW158519   2.436   1.313   0.734  0.4164 -1.0239  1.2296
17391SOL    HW258520   2.489   1.183   0.676  1.5718  0.3423 -0.8658
17392SOL     OW58521   5.415   5.477   0.021  0.6605 -0.6243  0.4249
17392SOL    HW158522   5.374   5.397   0.054  0.0449 -0.3072  0.4368
17392SOL    HW258523   5.342   5.536   0.002  1.0150 -0.5876 -0.9692
17393SOL     OW58524   0.046   7.075   7.219 -0.2289  0.5833  0.4777
17393SOL    HW158525   0.088   7.051   7.302  2.0131  0.3831 -0.6622
17393SOL    HW258526   0.014   6.992   7.184 -1.1289  0.6598  1.0907
17394SOL     OW58527   3.841   6.707   6.791  0.0732 -0.6200 -0.5496
17394SOL    HW158528   3.805   6.777   6.737 -0.4349 -1.4554 -1.3356
17394SOL    HW258529   3.925   6.686   6.751  0.5214 -0.0317  0.0722
17395SOL     OW58530   5.135   6.856   5.075  0.7219 -0.1971  0.2190
17395SOL    HW158531   5.088   6.779   5.044 -0.1429  0.0344  0.9143
17395SOL    HW258532   5.119   6.923   5.008  0.2518 -0.1941  0.3294
17396SOL     OW58533   4.280   2.096   3.832  0.4225 -0.0594  0.5576
17396SOL    HW158534   4.263   2.189   3.819 -0.6699  0.1147  2.8741
17396SOL    HW258535   4.281   2.084   3.927 -0.4191 -2.5832  0.3286
17397SOL     OW58536   4.700   7.719   0.490 -0.3332  0.1593  0.2705
17397SOL    HW158537   4.755   7.760   0.423  1.4586  0.9085  2.1207
17397SOL    HW258538   4.641   7.790   0.518 -0.2283  0.2009  0.3837
17398SOL     OW58539   0.485   1.540   4.396  0.4362 -0.2041  0.6218
17398SOL    HW158540   0.408   1.516   4.448  1.5535  1.6542  3.3700
17398SOL    HW258541   0.483   1.481   4.320 -3.3307 -0.5863  0.8653
17399SOL     OW58542   2.426   2.330   0.655  0.2315  0.0795  0.8142
17399SOL    HW158543   2.388   2.359   0.572 -1.0219  1.3658  1.7883
17399SOL    HW258544   2.351   2.312   0.711  1.0466 -1.4942  1.4749
17400SOL     OW58545   0.457   5.431   2.748 -0.3206  0.1127  0.5905
17400SOL    HW158546   0.417   5.378   2.679 -0.9627 -1.6132  2.2010
17400SOL    HW258547   0.537   5.385   2.771  0.1668  0.9664  0.6230
17401SOL     OW58548   8.935   8.490   7.597  0.1172  0.2933  0.0752
17401SOL    HW158549   8.876   8.461   7.666  0.1540  2.0962  0.9189
17401SOL    HW258550   9.023   8.471   7.630  0.2224  2.5555  1.3122
17402SOL     OW58551   1.467   2.987   0.389 -0.2081  0.1047 -0.2469
17402SOL    HW158552   1.523   2.912   0.369 -0.0029  0.2181 -0.1031
17402SOL    HW258553   1.398   2.983   0.323 -1.0912 -1.1235  0.7012
17403SOL     OW58554   6.731   1.301   5.292 -0.6729  0.5049  0.6682
17403SOL    HW158555   6.732   1.228   5.230 -0.7742  0.9111  0.1918
17403SOL    HW258556   6.800   1.279   5.355 -0.3207  0.2779  0.2098
17404SOL     OW58557   0.863   9.058   4.940  0.0392  0.6117  0.0838
17404SOL    HW158558   0.810   8.984   4.912 -0.8475  1.5580 -0.7927
17404SOL    HW258559   0.816   9.094   5.015 -0.3314  1.1735 -0.4110
17405SOL     OW58560   0.788   3.285   7.999  0.1215  0.2526 -0.2511
17405SOL    HW158561   0.802   3.210   8.057 -0.2692  0.9288  0.7369
17405SOL    HW258562   0.820   3.255   7.913  1.1325 -0.6068  0.4007
17406SOL     OW58563   2.268   0.986   4.601  0.3390  0.1317 -0.7812
17406SOL    HW158564   2.318   0.963   4.522  0.7627  0.8695 -0.7344
17406SOL    HW258565   2.189   1.028   4.568  0.7790  0.9594 -0.8142
17407SOL     OW58566   8.702   6.765   4.900 -0.1260  0.0261  0.2317
17407SOL    HW158567   8.690   6.745   4.993 -0.4030 -1.0485 -0.0192
17407SOL    HW258568   8.639   6.709   4.855  1.8019 -1.4431 -0.7742
17408SOL     OW58569   1.172   2.984   9.224 -0.2854 -0.0039 -0.9436
17408SOL    HW158570   1.091   2.934   9.230  0.4479 -1.0257  1.2074
17408SOL    HW258571   1.230   2.929   9.171 -0.5501  0.1466 -1.4023
17409SOL     OW58572   8.663   7.158   3.735 -0.4450  0.4668  0.1857
17409SOL    HW158573   8.758   7.154   3.740 -0.4080  0.7179 -0.2305
17409SOL    HW258574   8.643   7.132   3.645 -0.6931  1.5969 -0.1030
17410SOL     OW58575   8.990   7.129   4.258 -0.0455 -0.0463 -0.2995
17410SOL    HW158576   9.016   7.054   4.204  3.3989  0.4029  0.5263
17410SOL    HW258577   9.062   7.140   4.320 -1.4419  2.6695  0.9974
17411SOL     OW58578   7.045   4.574   1.280 -0.3173 -0.9002  0.0498
17411SOL    HW158579   7.004   4.490   1.303  0.2638 -0.6681  2.1420
17411SOL    HW258580   7.112   4.551   1.216 -0.6491 -1.9356  0.0546
17412SOL     OW58581   0.779   0.824   8.007  0.3503 -0.3030 -0.1448
17412SOL    HW158582   0.855   0.770   8.031  0.7145 -0.3387 -1.3127
17412SOL    HW258583   0.817   0.899   7.963 -0.3251 -0.6639 -1.3726
17413SOL     OW58584   3.722   8.849   4.163 -0.0532  0.1323  0.0536
17413SOL    HW158585   3.667   8.848   4.241  2.4418 -0.7343  1.9592
17413SOL    HW258586   3.720   8.940   4.133 -4.1240 -0.2566 -1.3170
17414SOL     OW58587   8.966   1.333   1.480  0.3592 -0.1534  0.2272
17414SOL    HW158588   9.038   1.393   1.459  0.7219 -0.9035 -0.8001
17414SOL    HW258589   8.979   1.309   1.571  1.5562 -0.4371 -0.0028
17415SOL     OW58590   6.871   1.592   0.975  0.0238  0.1249 -0.6156
17415SOL    HW158591   6.837   1.634   0.896  1.2634 -1.4467 -2.0822
17415SOL    HW258592   6.838   1.502   0.970  2.5905 -0.8839 -1.0625
17416SOL     OW58593   3.495   0.181   0.283 -0.0734  0.4560 -0.2113
17416SOL    HW158594   3.404   0.151   0.279 -0.1842  0.6891  0.3768
17416SOL    HW258595   3.495   0.245   0.354  0.3100  1.3235 -0.9801
17417SOL     OW58596   0.750   7.350   2.455 -0.3507  0.1586 -0.1406
17417SOL    HW158597   0.786   7.366   2.368 -2.1031  1.1750 -0.7434
17417SOL    HW258598   0.761   7.257   2.470 -1.3958 -0.3400 -2.1433
17418SOL     OW58599   8.432   4.568   8.142  0.1763 -0.0111 -0.0702
17418SOL    HW158600   8.355   4.598   8.191 -0.8829 -0.0788 -1.6142
17418SOL    HW258601   8.398   4.549   8.054  2.3061  1.9407 -1.4418
17419SOL     OW58602   2.789   2.583   4.634  0.0691  0.2674  0.1998
17419SOL    HW158603   2.735   2.661   4.644 -2.4361 -1.2976 -0.2240
17419SOL    HW258604   2.741   2.514   4.680  1.2063 -1.4488 -1.0575
17420SOL     OW58605   8.219   8.164   6.890 -0.3829  0.4438  0.3969
17420SOL    HW158606   8.125   8.164   6.909 -0.1434 -3.3985  2.5188
17420SOL    HW258607   8.225   8.188   6.798 -3.3425  1.3573  0.3261
17421SOL     OW58608   7.640   4.505   6.714  0.1899 -0.7988  0.5388
17421SOL    HW158609   7.548   4.494   6.692  0.9653 -3.9840 -1.9589
17421SOL    HW258610   7.671   4.573   6.655 -0.3026 -0.5565  0.5554
17422SOL     OW58611   8.919   3.673   0.733  0.0756  0.0419  0.1785
17422SOL    HW158612   9.012   3.681   0.713  0.0353 -1.1755 -0.6450
17422SOL    HW258613   8.880   3.751   0.693  0.7956  0.9367  1.1475
17423SOL     OW58614   3.924   1.541   1.541 -0.0059  0.2337 -0.1091
17423SOL    HW158615   3.907   1.523   1.634 -1.7801  0.1079 -0.4188
17423SOL    HW258616   4.019   1.536   1.533  0.1044 -1.0811  1.4297
17424SOL     OW58617   0.962   7.256   6.531  0.3766  0.3887  0.5529
17424SOL    HW158618   0.903   7.234   6.603  0.2523  1.5735  0.8398
17424SOL    HW258619   0.911   7.239   6.452  0.0819  0.2227  0.7777
17425SOL     OW58620   5.798   1.865   6.584 -0.2375 -0.3895 -0.1347
17425SOL    HW158621   5.807   1.956   6.612  0.7345 -0.9718  1.6442
17425SOL    HW258622   5.706   1.857   6.559 -0.3019  1.1108 -0.4755
17426SOL     OW58623   5.610   5.300   3.196 -0.3365 -0.0216  0.6016
17426SOL    HW158624   5.590   5.217   3.153 -1.4443  0.6745 -0.2632
17426SOL    HW258625   5.678   5.277   3.260 -0.5593 -1.5712  0.3347
17427SOL     OW58626   8.729   0.905   1.633 -0.4963 -0.7608  0.1849
17427SOL    HW158627   8.666   0.906   1.561 -1.7266  1.6940  1.1768
17427SOL    HW258628   8.790   0.977   1.612  0.2142 -1.1943  0.7228
17428SOL     OW58629   1.974   8.481   5.821 -0.2949 -0.5773  0.5442
17428SOL    HW158630   2.051   8.535   5.806 -0.1942 -0.5512  1.1568
17428SOL    HW258631   2.004   8.392   5.802 -0.6809 -0.3566 -1.2873
17429SOL     OW58632   7.854   5.897   0.907  0.5863 -0.2210 -0.2123
17429SOL    HW158633   7.939   5.940   0.894 -1.3315  3.9644 -0.5622
17429SOL    HW258634   7.839   5.901   1.002  0.8637 -1.2261 -0.1165
17430SOL     OW58635   6.839   0.954   0.189 -0.2416 -0.6975  0.0933
17430SOL    HW158636   6.799   1.034   0.223 -0.2956 -1.3843  1.7650
17430SOL    HW258637   6.933   0.968   0.198 -0.2681 -1.6872  2.6991
17431SOL     OW58638   4.085   5.474   8.877 -0.6004 -0.0825  0.0814
17431SOL    HW158639   4.088   5.379   8.888  1.7773 -0.0369  0.3699
17431SOL    HW258640   4.055   5.508   8.961 -2.9756 -0.5832 -0.4919
17432SOL     OW58641   7.920   2.336   9.088  0.4465 -0.5721  0.0112
17432SOL    HW158642   7.913   2.329   8.993  1.5794 -1.1717 -0.0488
17432SOL    HW258643   7.951   2.426   9.103  2.8210 -1.2561 -0.3916
17433SOL     OW58644   2.068   1.519   1.599 -0.0076 -0.0052 -0.3391
17433SOL    HW158645   2.089   1.565   1.517 -0.8075  0.2300 -0.4196
17433SOL    HW258646   1.995   1.569   1.636 -0.5542 -0.9126 -0.1742
17434SOL     OW58647   4.863   1.894   3.940  0.0156  0.3018  0.2067
17434SOL    HW158648   4.850   1.937   3.856  1.6548  0.4367  0.0046
17434SOL    HW258649   4.868   1.801   3.919  2.7826  0.4729 -0.2124
17435SOL     OW58650   5.352   8.911   1.248 -0.3858 -0.7275  0.5204
17435SOL    HW158651   5.375   8.951   1.332  2.8288 -2.3321  0.5531
17435SOL    HW258652   5.394   8.967   1.182  1.3749 -2.1304  0.3753
17436SOL     OW58653   8.190   3.682   8.222 -0.4693  0.6815  0.7514
17436SOL    HW158654   8.165   3.591   8.206  2.6191  0.2633 -3.4326
17436SOL    HW258655   8.127   3.733   8.170  0.4645  0.4968 -0.6120
17437SOL     OW58656   7.762   1.340   1.973  0.1260 -0.0563  0.5756
17437SOL    HW158657   7.731   1.316   1.886 -0.5147  0.9464  0.5102
17437SOL    HW258658   7.841   1.288   1.985 -0.1769 -0.7471 -0.3084
17438SOL     OW58659   2.579   5.927   4.852 -0.1193  0.8978 -0.0920
17438SOL    HW158660   2.504   5.982   4.875  0.0493  0.4884  1.5481
17438SOL    HW258661   2.557   5.841   4.887  0.5753  0.4505 -0.7187
17439SOL     OW58662   6.042   5.605   2.736  0.1099  0.4946  0.4360
17439SOL    HW158663   6.056   5.511   2.744  0.8492  0.5807  0.2057
17439SOL    HW258664   5.962   5.613   2.684  0.3857 -0.0082 -0.0763
17440SOL     OW58665   4.092   6.679   5.195  0.0599 -0.3728 -0.0461
17440SOL    HW158666   4.102   6.600   5.248 -0.8459 -0.9042 -0.6402
17440SOL    HW258667   4.163   6.674   5.131  1.4724  0.5233  1.3719
17441SOL     OW58668   8.987   4.739   5.448 -0.5980 -0.4178  0.7405
17441SOL    HW158669   8.976   4.816   5.504 -0.4741 -0.2936  0.5925
17441SOL    HW258670   9.081   4.719   5.453 -0.7038 -0.8459  1.1614
17442SOL     OW58671   0.632   7.807   4.197 -0.3166 -0.1656  0.4142
17442SOL    HW158672   0.673   7.885   4.161 -0.7319 -0.3632 -0.5283
17442SOL    HW258673   0.655   7.737   4.136 -0.3362 -0.6857  0.9946
17443SOL     OW58674   0.348   3.212   4.515 -0.2599 -0.8453 -0.6552
17443SOL    HW158675   0.393   3.280   4.465 -0.2709 -0.0712  0.3604
17443SOL    HW258676   0.408   3.138   4.514 -0.0728 -0.6928 -1.4354
17444SOL     OW58677   3.148   7.264   7.077  0.1251  0.2743  0.6556
17444SOL    HW158678   3.107   7.208   7.142 -1.2547 -0.1635 -0.5358
17444SOL    HW258679   3.108   7.350   7.090 -0.8087 -0.0270 -0.1702
17445SOL     OW58680   6.305   5.540   6.538 -0.0610  0.5467 -0.4576
17445SOL    HW158681   6.246   5.546   6.463 -1.3955  1.5995  0.6053
17445SOL    HW258682   6.272   5.606   6.599 -0.1524 -1.4676  1.8065
17446SOL     OW58683   1.944   1.403   8.126  0.1538 -0.0683 -0.1094
17446SOL    HW158684   2.031   1.380   8.159  0.4040  1.1369  0.1206
17446SOL    HW258685   1.883   1.361   8.186  0.5918 -0.1904  0.2521
17447SOL     OW58686   6.165   5.397   0.009  0.1816  0.1950 -0.2702
17447SOL    HW158687   6.255   5.419   0.030  0.4634 -0.7579 -0.4421
17447SOL    HW258688   6.142   5.454  -0.064  0.4716  0.7996  0.1103
17448SOL     OW58689   7.361   5.299   5.794  0.0827  0.3770  0.5041
17448SOL    HW158690   7.334   5.302   5.702 -0.5545 -1.3211  0.6025
17448SOL    HW258691   7.411   5.217   5.801 -1.7314 -0.6529  2.1212
17449SOL     OW58692   2.535   5.671   2.021  0.2777  0.3376 -0.1486
17449SOL    HW158693   2.593   5.718   2.082  2.1594 -0.7125 -1.0735
17449SOL    HW258694   2.470   5.630   2.078 -0.4977  2.6983  0.8123
17450SOL     OW58695   0.756   5.660   6.017  0.2053 -0.0540  0.4413
17450SOL    HW158696   0.696   5.586   6.026 -1.7696  1.3479 -0.5214
17450SOL    HW258697   0.700   5.735   5.996  2.1693  1.6409  0.8558
17451SOL     OW58698   0.200   2.831   1.776 -0.3989  0.0232 -0.1871
17451SOL    HW158699   0.110   2.802   1.794 -0.9585  2.0024  0.3878
17451SOL    HW258700   0.192   2.924   1.755  1.4183  0.0112 -1.1432
17452SOL     OW58701   3.334   3.944   4.909 -0.0456  0.0131  0.6615
17452SOL    HW158702   3.408   3.972   4.855  0.4919 -0.1649  1.2857
17452SOL    HW258703   3.263   4.004   4.886 -0.1162 -0.6241 -0.8890
17453SOL     OW58704   8.154   3.432   0.500 -0.1663 -0.0250  0.4256
17453SOL    HW158705   8.219   3.398   0.438 -0.8830 -0.1273 -0.2744
17453SOL    HW258706   8.124   3.514   0.461 -0.3561  0.0977  0.8220
17454SOL     OW58707   6.653   7.843   1.430 -0.3596  0.0450  0.2340
17454SOL    HW158708   6.694   7.818   1.513  1.1370 -1.2092 -0.8109
17454SOL    HW258709   6.629   7.935   1.441  2.7352  0.8741  1.0216
17455SOL     OW58710   2.365   1.450   2.375 -0.8739  0.0996  0.4593
17455SOL    HW158711   2.395   1.360   2.358 -0.0646  0.4946 -0.2636
17455SOL    HW258712   2.429   1.485   2.437 -0.5246  0.5420 -0.1381
17456SOL     OW58713   5.504   5.231   7.880  0.5163 -0.0479 -0.4243
17456SOL    HW158714   5.558   5.209   7.957  0.7491 -2.7786 -1.2656
17456SOL    HW258715   5.448   5.302   7.910  1.7989  0.1519  1.7310
17457SOL     OW58716   5.446   3.840   6.764 -0.3231  0.0601  0.3669
17457SOL    HW158717   5.383   3.801   6.704  0.1541  0.2902 -0.2941
17457SOL    HW258718   5.423   3.804   6.850  1.4945 -3.6118 -0.4690
17458SOL     OW58719   0.030   3.121   6.347 -0.0222 -0.3625 -0.8768
17458SOL    HW158720   0.111   3.161   6.313 -0.4518  0.2539 -1.1863
17458SOL    HW258721  -0.026   3.112   6.269 -0.6948  0.2813 -0.4755
17459SOL     OW58722   0.477   3.430   4.384 -0.4460  0.5690 -0.4368
17459SOL    HW158723   0.475   3.518   4.421 -0.6039  0.7050 -0.7621
17459SOL    HW258724   0.438   3.440   4.297 -1.3382  0.0061 -0.1130
17460SOL     OW58725   2.457   1.877   2.389  0.1774 -0.2899  0.0119
17460SOL    HW158726   2.385   1.832   2.346  0.4146 -1.3894  0.7145
17460SOL    HW258727   2.472   1.827   2.470  1.0456  0.5231  0.3811
17461SOL     OW58728   5.328   5.164   2.728 -0.2905  0.4479  0.2322
17461SOL    HW158729   5.236   5.187   2.743 -0.5542 -1.1689  1.3164
17461SOL    HW258730   5.346   5.196   2.640 -2.4109 -0.6485 -0.6873
17462SOL     OW58731   6.880   3.986   3.342  0.3217  0.2580  0.0941
17462SOL    HW158732   6.784   3.984   3.343  0.3278  0.3078  1.2063
17462SOL    HW258733   6.905   3.893   3.343  0.2906  0.2511  0.2116
17463SOL     OW58734   3.458   1.550   4.730 -0.0682 -0.4186  0.3309
17463SOL    HW158735   3.473   1.569   4.637  0.0642  0.0389  0.4436
17463SOL    HW258736   3.370   1.582   4.748  0.6003  1.2635  0.8160
17464SOL     OW58737   3.202   8.627   6.821  0.2084  0.2021 -0.6445
17464SOL    HW158738   3.115   8.641   6.859  0.4592  0.2164 -0.0735
17464SOL    HW258739   3.187   8.629   6.726 -0.7104 -1.5469 -0.5848
17465SOL     OW58740   2.215   5.816   8.023  0.0725 -0.2591  0.1927
17465SOL    HW158741   2.147   5.812   7.956  0.1575  0.1694  0.0787
17465SOL    HW258742   2.289   5.859   7.980  0.8195 -1.6717 -0.0240
17466SOL     OW58743   7.365   6.253   8.505  0.0465  0.2739  0.1002
17466SOL    HW158744   7.284   6.214   8.538  0.8853 -1.3959  0.2895
17466SOL    HW258745   7.372   6.336   8.553 -1.1245  0.0700  0.6810
17467SOL     OW58746   6.381   4.008   3.788 -0.4900  0.6566  0.8579
17467SOL    HW158747   6.467   3.978   3.818 -0.1810  1.2585  0.5958
17467SOL    HW258748   6.325   3.931   3.796  0.6622 -0.5205 -1.4469
17468SOL     OW58749   0.842   8.514   1.426  0.0270  0.2284 -0.1685
17468SOL    HW158750   0.841   8.460   1.504  0.3850 -1.4957 -1.3093
17468SOL    HW258751   0.920   8.569   1.436  0.8619 -0.9549  0.0721
17469SOL     OW58752   0.981   5.013   0.723  0.2464 -0.4332 -0.0586
17469SOL    HW158753   0.929   5.057   0.791  0.6034 -0.7421  0.4209
17469SOL    HW258754   0.984   5.075   0.651  2.6046  1.2886  1.4082
17470SOL     OW58755   4.425   3.307   8.001 -0.0199  0.3926  0.0411
17470SOL    HW158756   4.406   3.388   7.953  2.0582 -0.4346 -2.3696
17470SOL    HW258757   4.456   3.337   8.087  2.8678  2.3797 -1.5439
17471SOL     OW58758   3.516   3.431   1.026  0.2885  0.2625 -0.0180
17471SOL    HW158759   3.464   3.381   0.964 -0.1717 -0.3741  0.8717
17471SOL    HW258760   3.453   3.486   1.072  0.3111 -0.7798  1.3237
17472SOL     OW58761   1.937   1.444   6.819 -0.6262  0.6885  0.1723
17472SOL    HW158762   2.009   1.381   6.820 -0.8518  0.3262 -1.6056
17472SOL    HW258763   1.963   1.509   6.754 -1.8934  0.5301 -0.5361
17473SOL     OW58764   2.015   8.773   8.677 -0.2656 -0.0154  0.1920
17473SOL    HW158765   2.031   8.865   8.654 -0.6743 -0.0301 -0.1631
17473SOL    HW258766   1.964   8.778   8.758  1.6115  0.0294  1.4586
17474SOL     OW58767   0.468   6.185   4.599  0.0785  0.2454  0.5748
17474SOL    HW158768   0.417   6.257   4.637 -2.3141 -0.8077 -0.4581
17474SOL    HW258769   0.406   6.113   4.594  1.9315 -1.3641 -0.0821
17475SOL     OW58770   8.396   8.494   6.085  0.0151  0.3630  0.0958
17475SOL    HW158771   8.481   8.451   6.098 -0.4574 -0.0812  2.1818
17475SOL    HW258772   8.414   8.587   6.092  0.4616  0.3158 -0.4089
17476SOL     OW58773   9.077   2.068   7.347 -0.0923  0.5518 -0.0426
17476SOL    HW158774   9.101   2.076   7.255  2.0864 -2.3634  0.1239
17476SOL    HW258775   9.153   2.103   7.394  0.7421 -1.8728  0.5462
17477SOL     OW58776   4.887   3.564   3.655  0.2364  0.1706  0.7961
17477SOL    HW158777   4.980   3.578   3.638 -0.0590  0.9540 -0.3323
17477SOL    HW258778   4.873   3.471   3.638  0.3703  0.5081 -1.5143
17478SOL     OW58779   8.544   6.652   3.014 -0.1422  0.3219  0.5042
17478SOL    HW158780   8.545   6.633   2.920 -2.4006 -0.2386  0.5359
17478SOL    HW258781   8.466   6.608   3.046  0.2820  0.9808  2.5672
17479SOL     OW58782   2.589   8.631   5.874  0.0398  0.1072  0.2227
17479SOL    HW158783   2.643   8.552   5.882  0.3059  0.1743 -0.7997
17479SOL    HW258784   2.541   8.619   5.792 -2.1420 -0.3264  1.4753
17480SOL     OW58785   4.703   2.309   2.642 -0.2930 -0.4017  0.0791
17480SOL    HW158786   4.759   2.378   2.605 -1.0317  0.0251 -0.2739
17480SOL    HW258787   4.617   2.350   2.650 -0.5290 -1.0064  0.7445
17481SOL     OW58788   7.233   0.565   6.645  0.8166  0.2153 -0.0392
17481SOL    HW158789   7.143   0.584   6.670  0.4963 -0.1749 -0.8534
17481SOL    HW258790   7.272   0.651   6.630  0.7945  0.4158  1.0030
17482SOL     OW58791   2.657   5.634   0.079  0.3244  0.1241 -0.3896
17482SOL    HW158792   2.744   5.655   0.044 -0.0971 -0.1097 -1.6546
17482SOL    HW258793   2.662   5.541   0.102  0.2597 -0.0373 -0.9948
17483SOL     OW58794   4.166   1.115   4.058  0.2720  0.2875  0.3363
17483SOL    HW158795   4.221   1.057   4.111  2.9633  1.6037 -0.8164
17483SOL    HW258796   4.137   1.059   3.985  1.9636  0.0514 -0.2037
17484SOL     OW58797   1.814   4.992   0.733 -0.1994  0.4208  0.3973
17484SOL    HW158798   1.803   5.053   0.807  2.7551  1.7006 -0.0467
17484SOL    HW258799   1.848   4.912   0.773 -0.3540  0.4522  0.5949
17485SOL     OW58800   0.147   4.179   0.137 -0.4636 -0.0965 -0.0823
17485SOL    HW158801   0.193   4.104   0.100 -0.5363  0.8519 -2.2164
17485SOL    HW258802   0.216   4.243   0.157 -0.6473  0.7764 -1.9908
17486SOL     OW58803   8.380   6.124   4.923 -0.1728  0.3981  0.9554
17486SOL    HW158804   8.436   6.119   5.000 -1.9583  2.3005  2.4881
17486SOL    HW258805   8.351   6.034   4.908  1.8969 -0.3464  1.1391
17487SOL     OW58806   7.170   6.394   5.267  0.7387  0.3198 -0.3712
17487SOL    HW158807   7.229   6.342   5.321  1.5455 -0.1075 -1.6184
17487SOL    HW258808   7.212   6.397   5.181 -0.2538  1.4050 -0.8551
17488SOL     OW58809   2.368   2.695   3.625  0.0492  0.3169 -0.6215
17488SOL    HW158810   2.298   2.697   3.559 -0.9992  2.5697  0.4300
17488SOL    HW258811   2.383   2.603   3.641 -0.9112 -0.2833 -2.7127
17489SOL     OW58812   8.712   6.355   2.391 -0.3051 -0.0032  0.3803
17489SOL    HW158813   8.807   6.353   2.399 -0.3249  0.4045  0.7528
17489SOL    HW258814   8.686   6.263   2.392 -0.0460 -0.0840  2.0333
17490SOL     OW58815   5.201   3.308   9.023 -0.1696 -0.8364  0.5595
17490SOL    HW158816   5.141   3.342   9.089 -0.5704  0.8675 -0.5919
17490SOL    HW258817   5.153   3.316   8.940  1.0964 -0.8327 -0.2084
17491SOL     OW58818   4.058   5.782   6.884 -0.2002  0.4594 -0.3441
17491SOL    HW158819   4.100   5.834   6.816 -0.7339  1.9676  0.4466
17491SOL    HW258820   4.075   5.830   6.965 -1.2501 -0.2627  0.3265
17492SOL     OW58821   7.286   7.420   6.267 -0.1462 -0.3322  0.1215
17492SOL    HW158822   7.251   7.496   6.314 -1.2271 -0.5855 -0.2270
17492SOL    HW258823   7.360   7.391   6.320 -0.1361  0.5578  0.6148
17493SOL     OW58824   6.651   4.517   4.147  0.0438  0.1760  0.4699
17493SOL    HW158825   6.684   4.429   4.127  0.8854  0.7493 -0.7874
17493SOL    HW258826   6.566   4.521   4.101  0.8715  0.6468 -1.0919
17494SOL     OW58827   0.254   2.420   1.124 -0.1518  0.7547 -0.5421
17494SOL    HW158828   0.169   2.447   1.158 -0.6633 -0.2770 -0.9691
17494SOL    HW258829   0.243   2.328   1.100  1.1492  0.5325 -0.3896
17495SOL     OW58830   8.664   2.481   0.300 -0.2150 -0.4511  0.1638
17495SOL    HW158831   8.655   2.566   0.257  0.4169  0.8607  2.4901
17495SOL    HW258832   8.753   2.453   0.281  0.2248  0.3555  0.9686
17496SOL     OW58833   5.414   5.687   2.033  0.2977 -0.1022  0.6612
17496SOL    HW158834   5.488   5.738   2.000  1.6206 -2.4485 -0.1556
17496SOL    HW258835   5.337   5.735   2.002  1.3748  2.5165  1.7009
17497SOL     OW58836   7.303   6.051   6.021  0.2824  0.1078  0.0693
17497SOL    HW158837   7.341   5.971   6.058  0.1546  0.3401  0.7088
17497SOL    HW258838   7.211   6.048   6.047 -0.2131 -0.5529 -1.6372
17498SOL     OW58839   2.486   0.188   1.099  0.3368 -0.4032 -0.0503
17498SOL    HW158840   2.519   0.278   1.101 -0.0156 -0.2852  1.1611
17498SOL    HW258841   2.455   0.176   1.009  0.8086  0.5256 -0.3504
17499SOL     OW58842   3.365   7.555   8.005  0.1204  1.0218 -0.0163
17499SOL    HW158843   3.424   7.481   7.991 -2.1176 -0.7036 -1.0412
17499SOL    HW258844   3.370   7.573   8.099 -0.0710 -1.1979  0.4752
17500SOL     OW58845   9.041   1.004   2.403 -0.1985  0.4495  0.9931
17500SOL    HW158846   8.978   1.002   2.475 -1.0623 -0.5122  0.2404
17500SOL    HW258847   9.036   1.094   2.369 -1.7455  0.1812  0.4584
17501SOL     OW58848   4.312   1.592   8.586  0.8090  0.4767 -0.0145
17501SOL    HW158849   4.284   1.522   8.526 -1.0340  0.9974  0.1590
17501SOL    HW258850   4.400   1.567   8.613  0.3860 -1.5535 -0.3062
17502SOL     OW58851   4.061   6.957   2.958 -0.4065  0.1473 -0.1541
17502SOL    HW158852   4.076   7.040   3.003 -0.6193 -0.0566  0.3044
17502SOL    HW258853   4.129   6.899   2.992 -0.3392  0.0946 -0.3755
17503SOL     OW58854   6.786   7.718   8.981 -0.1774 -0.5699 -0.0699
17503SOL    HW158855   6.852   7.746   8.918  1.4013 -3.0862  0.2882
17503SOL    HW258856   6.760   7.631   8.951 -0.1945 -1.3840  2.0868
17504SOL     OW58857   3.906   8.341   6.220 -0.5411  0.0209 -0.2283
17504SOL    HW158858   3.915   8.297   6.136 -1.7780 -1.3534  0.3099
17504SOL    HW258859   3.989   8.324   6.265 -0.4850 -0.6400 -0.5617
17505SOL     OW58860   2.182   4.673   5.597  0.0311 -0.5490  0.1561
17505SOL    HW158861   2.195   4.765   5.623  0.0313 -0.8591  1.3171
17505SOL    HW258862   2.267   4.646   5.563 -0.3437  0.2757 -1.5687
17506SOL     OW58863   4.146   2.774   2.977  0.0154 -0.3142  0.1288
17506SOL    HW158864   4.169   2.682   2.960  1.2364  0.1426 -0.8550
17506SOL    HW258865   4.144   2.780   3.073  2.2188 -0.8827  0.2755
17507SOL     OW58866   7.624   4.301   0.749 -0.3207 -0.2600 -0.4088
17507SOL    HW158867   7.696   4.239   0.735 -2.1077 -3.1110  1.9752
17507SOL    HW258868   7.640   4.338   0.836 -1.8479 -1.2451  0.3366
17508SOL     OW58869   0.692   3.713   8.792  0.1760  0.4980  0.5196
17508SOL    HW158870   0.743   3.732   8.870 -0.1311  2.7372  0.2290
17508SOL    HW258871   0.745   3.745   8.719  0.7899 -2.2048 -0.3440
17509SOL     OW58872   2.283   3.192   3.166 -1.2969 -0.0177 -0.0168
17509SOL    HW158873   2.351   3.207   3.231 -2.2257  0.0556  0.9585
17509SOL    HW258874   2.221   3.264   3.177 -0.3101  1.3586 -2.5919
17510SOL     OW58875   7.277   8.247   3.431 -0.6445  0.4850  0.3623
17510SOL    HW158876   7.198   8.249   3.484 -0.1642 -0.2269  1.1459
17510SOL    HW258877   7.272   8.164   3.383 -0.9502  1.0033 -0.5128
17511SOL     OW58878   8.787   4.534   4.091  0.4937  0.0432  0.3977
17511SOL    HW158879   8.813   4.485   4.168  1.8880  0.5668  0.2958
17511SOL    HW258880   8.865   4.535   4.035 -0.0194  0.9232 -0.3478
17512SOL     OW58881   3.194   3.946   7.507  0.3793  0.0479  0.3717
17512SOL    HW158882   3.268   3.996   7.473 -0.1977  2.1007  1.9407
17512SOL    HW258883   3.155   3.905   7.429  1.2867  1.5232 -0.9284
17513SOL     OW58884   1.669   4.817   4.542  0.0130  0.7901 -0.0454
17513SOL    HW158885   1.589   4.779   4.578  0.0799  1.3093  0.6742
17513SOL    HW258886   1.732   4.812   4.614  0.4441  0.9519 -0.4045
17514SOL     OW58887   8.877   7.761   3.344 -0.8459  0.4401 -0.4238
17514SOL    HW158888   8.849   7.704   3.271  1.6893 -1.0731 -0.3438
17514SOL    HW258889   8.927   7.830   3.302  0.4448 -0.3204 -0.1969
17515SOL     OW58890   0.607   5.667   6.401 -0.1724  0.0986 -0.4618
17515SOL    HW158891   0.641   5.611   6.470 -0.2050 -0.5823 -0.9924
17515SOL    HW258892   0.681   5.683   6.343  0.0499  1.2987  0.1234
17516SOL     OW58893   0.974   2.604   7.043 -0.1679  0.1794 -0.0423
17516SOL    HW158894   0.930   2.623   7.126 -1.7753 -0.9985 -0.5839
17516SOL    HW258895   0.947   2.675   6.984  1.8487  1.6503  0.6518
17517SOL     OW58896   6.147   0.304   4.165 -0.1160  0.3982  0.1659
17517SOL    HW158897   6.059   0.266   4.165 -0.4068  1.0706  0.5630
17517SOL    HW258898   6.145   0.370   4.096  0.5042 -0.5361 -0.7814
17518SOL     OW58899   8.336   5.298   8.959  0.1129  0.6612 -0.0352
17518SOL    HW158900   8.290   5.332   9.036  0.1422 -1.2426  0.8824
17518SOL    HW258901   8.428   5.309   8.979  0.1213  0.1313  0.2355
17519SOL     OW58902   6.403   5.914   1.138  0.3046 -0.0578 -0.3145
17519SOL    HW158903   6.427   5.885   1.226 -1.4341  1.9507  0.9212
17519SOL    HW258904   6.474   5.972   1.111  0.2571  0.2896  0.2984
17520SOL     OW58905   8.316   6.470   3.796  0.3636 -0.4948  0.1836
17520SOL    HW158906   8.351   6.454   3.883  2.3489 -1.2225 -0.7093
17520SOL    HW258907   8.347   6.558   3.772 -0.5772 -0.0931  0.3620
17521SOL     OW58908   5.928   8.956   2.470  0.4725  0.2255 -0.5596
17521SOL    HW158909   5.988   8.944   2.396 -0.0660  0.8681 -1.1229
17521SOL    HW258910   5.908   9.049   2.469  0.7195  0.2994  0.6230
17522SOL     OW58911   3.314   8.722   0.094 -0.8851  0.1402 -0.0912
17522SOL    HW158912   3.356   8.802   0.125  1.6698 -1.4697  0.8859
17522SOL    HW258913   3.221   8.733   0.116 -0.4847  2.5006  0.6281
17523SOL     OW58914   5.757   0.203   7.899  0.0438 -0.1161 -0.2010
17523SOL    HW158915   5.698   0.141   7.857 -0.1264  1.6521 -2.7390
17523SOL    HW258916   5.837   0.200   7.846 -0.2070  2.2531 -0.8091
17524SOL     OW58917   6.668   2.782   1.015 -0.2103  0.3312 -0.0541
17524SOL    HW158918   6.576   2.771   1.039 -0.8292 -0.5221 -2.4777
17524SOL    HW258919   6.665   2.835   0.935  1.1944 -1.4385 -1.3636
17525SOL     OW58920   0.401   7.186   7.329  0.0710 -0.4554 -0.1829
17525SOL    HW158921   0.496   7.191   7.336  0.0403  0.7640 -0.4397
17525SOL    HW258922   0.385   7.135   7.249  0.5004 -0.9285  0.0299
17526SOL     OW58923   5.617   0.946   7.709 -0.2141  0.0504  0.0333
17526SOL    HW158924   5.695   0.900   7.677  0.7881  2.4841 -1.2502
17526SOL    HW258925   5.614   0.925   7.802  1.0618 -1.3305 -0.1899
17527SOL     OW58926   7.228   7.262   2.830  0.5478  0.0763 -0.3325
17527SOL    HW158927   7.279   7.333   2.789 -0.9596  2.6555  1.9049
17527SOL    HW258928   7.184   7.220   2.757 -0.2482  2.9686 -1.6959
17528SOL     OW58929   5.916   6.168   8.984 -0.2260 -0.6386  0.1784
17528SOL    HW158930   5.929   6.195   9.075 -3.5003 -1.3654  0.9977
17528SOL    HW258931   5.991   6.204   8.937  0.0890  2.2792  2.6318
17529SOL     OW58932   8.814   7.357   2.768  0.2042  0.0623  0.8522
17529SOL    HW158933   8.860   7.279   2.738 -0.8865 -1.0004  1.8303
17529SOL    HW258934   8.868   7.430   2.738  1.0006 -1.0348 -0.5169
17530SOL     OW58935   6.954   6.254   8.399  0.8042  0.1862  0.0315
17530SOL    HW158936   7.009   6.283   8.472  1.5827 -0.1516 -0.4034
17530SOL    HW258937   7.009   6.191   8.351  0.3396  0.4708 -0.8964
17531SOL     OW58938   0.565   4.109   7.539 -0.1490 -0.1805 -0.3472
17531SOL    HW158939   0.484   4.138   7.581  0.6657  0.1167  1.0731
17531SOL    HW258940   0.634   4.129   7.602  0.9725 -1.0224 -1.2531
17532SOL     OW58941   0.024   1.273   2.410  0.1837  0.1969 -0.0029
17532SOL    HW158942   0.072   1.201   2.452  0.4174  0.4578  0.1778
17532SOL    HW258943   0.054   1.271   2.319  0.4364  0.2750  0.0791
17533SOL     OW58944   8.584   0.225   6.269 -0.1166 -0.5653 -0.0659
17533SOL    HW158945   8.576   0.225   6.364 -0.1613 -2.2693 -0.0483
17533SOL    HW258946   8.664   0.274   6.251 -0.0071 -0.3953  0.8451
17534SOL     OW58947   4.819   6.435   4.278 -0.3683 -0.0784 -0.5619
17534SOL    HW158948   4.814   6.340   4.263 -1.2029  0.1149 -1.5958
17534SOL    HW258949   4.767   6.449   4.357 -0.3338 -0.4694 -0.4660
17535SOL     OW58950   0.182   4.188   1.225  0.0671  0.3946 -0.2928
17535SOL    HW158951   0.153   4.272   1.189  0.8199 -0.0320 -1.9898
17535SOL    HW258952   0.265   4.170   1.180 -0.2670 -1.4375 -0.2444
17536SOL     OW58953   8.109   2.048   5.649  0.5538  0.4790  0.5993
17536SOL    HW158954   8.085   1.958   5.670  0.5683  0.4441  0.4682
17536SOL    HW258955   8.152   2.042   5.564 -1.8778  0.9304 -0.7530
17537SOL     OW58956   0.678   8.022   2.459  0.0354 -0.1807 -0.2543
17537SOL    HW158957   0.609   7.957   2.464  0.0319 -0.2107 -0.6823
17537SOL    HW258958   0.740   7.997   2.528 -0.1319 -0.4357 -0.1969
17538SOL     OW58959   4.946   2.634   7.520  0.3263  0.5827 -0.4317
17538SOL    HW158960   4.918   2.717   7.483 -0.3878  0.0475 -1.1133
17538SOL    HW258961   4.872   2.605   7.573  0.8269  0.6932  0.3485
17539SOL     OW58962   9.165   2.696   4.347 -0.0051  0.2105  0.8791
17539SOL    HW158963   9.201   2.676   4.433 -1.0342 -0.8975  1.0726
17539SOL    HW258964   9.242   2.700   4.290  0.7291  1.3178  1.8753
17540SOL     OW58965   5.846   8.716   4.885 -0.1700 -0.1500  0.5924
17540SOL    HW158966   5.872   8.768   4.808 -0.7731  0.2867  0.6772
17540SOL    HW258967   5.821   8.781   4.950 -0.9259 -0.5498  0.7058
17541SOL     OW58968   4.624   6.410   3.078  0.1959 -0.1823  0.4957
17541SOL    HW158969   4.661   6.332   3.119 -1.2761 -1.2456 -0.1173
17541SOL    HW258970   4.664   6.413   2.991  0.4364 -0.1136  0.6088
17542SOL     OW58971   1.791   9.051   0.150  0.5831  0.0375 -0.4249
17542SOL    HW158972   1.712   9.005   0.180 -0.0667  0.1459 -1.8868
17542SOL    HW258973   1.860   9.019   0.207 -0.3230 -0.8651  0.2085
17543SOL     OW58974   5.390   7.836   8.988  0.0146 -0.4264  0.0872
17543SOL    HW158975   5.415   7.910   8.933 -0.5567 -0.8942 -0.8249
17543SOL    HW258976   5.457   7.770   8.971  0.6365 -0.0615  1.0519
17544SOL     OW58977   3.035   6.610   2.946  0.2232  0.1965  0.4095
17544SOL    HW158978   3.058   6.566   2.865  0.8455 -0.0216  0.6967
17544SOL    HW258979   2.993   6.543   3.000  0.4749  0.1472  0.5478
17545SOL     OW58980   6.227   7.201   7.001  0.2002 -0.1237  0.6301
17545SOL    HW158981   6.212   7.230   7.091 -0.3861 -0.3158  0.5998
17545SOL    HW258982   6.163   7.131   6.988 -0.1809  0.3732 -0.1686
17546SOL     OW58983   2.700   5.709   0.861  0.4706  0.2979  0.1357
17546SOL    HW158984   2.734   5.796   0.839 -0.1167  1.1859  2.4311
17546SOL    HW258985   2.762   5.675   0.925  0.6733 -0.9881 -0.7188
17547SOL     OW58986   8.408   1.411   1.141 -0.4742 -0.1478 -0.5672
17547SOL    HW158987   8.321   1.409   1.182 -0.8218  1.0812 -1.1812
17547SOL    HW258988   8.406   1.339   1.077 -0.8650 -0.4253 -0.2483
17548SOL     OW58989   0.717   5.339   2.780 -0.4569 -0.3678 -0.0537
17548SOL    HW158990   0.806   5.374   2.790  0.0146 -1.6467  0.4431
17548SOL    HW258991   0.727   5.245   2.789 -1.7467 -0.6181 -0.9687
17549SOL     OW58992   3.457   7.557   7.329  0.0181 -0.4591  0.0298
17549SOL    HW158993   3.401   7.632   7.306  1.4063  0.2418 -1.2257
17549SOL    HW258994   3.398   7.482   7.327 -1.4346  0.5858  1.3958
17550SOL     OW58995   9.127   8.989   0.411  0.4478 -0.4143  0.4888
17550SOL    HW158996   9.213   8.985   0.454  1.6206 -1.1125 -1.7691
17550SOL    HW258997   9.111   8.899   0.382  1.6695  0.5335 -3.9118
17551SOL     OW58998   7.595   8.906   8.348  0.1506 -0.1872 -0.0568
17551SOL    HW158999   7.601   8.959   8.427 -0.4998 -0.0470 -0.0997
17551SOL    HW259000   7.682   8.867   8.339  0.6187  0.8281  0.0016
17552SOL     OW59001   3.054   2.735   3.429 -0.3185 -0.5938 -0.1061
17552SOL    HW159002   2.991   2.786   3.481 -0.8100 -0.5304 -0.7443
17552SOL    HW259003   2.999   2.682   3.371  0.2315  0.1327 -1.3159
17553SOL     OW59004   2.490   0.694   4.100  0.6472 -0.0816 -0.0048
17553SOL    HW159005   2.495   0.674   4.193 -0.8492  1.8373  0.5516
17553SOL    HW259006   2.454   0.615   4.060 -1.4136  0.0189  1.4953
17554SOL     OW59007   8.541   4.163   6.422 -0.6464 -0.1669  0.3398
17554SOL    HW159008   8.561   4.152   6.515  0.9280 -0.2542  0.0258
17554SOL    HW259009   8.536   4.074   6.388  1.3957 -0.1603 -0.1255
17555SOL     OW59010   3.024   0.853   5.035  0.9339 -0.5665 -0.0005
17555SOL    HW159011   3.022   0.765   5.072  0.2971 -0.6665 -0.2727
17555SOL    HW259012   3.093   0.849   4.968 -0.1798 -1.3145 -1.1362
17556SOL     OW59013   5.398   4.289   8.982 -0.1578  0.2714  0.0710
17556SOL    HW159014   5.398   4.268   9.075  1.4662 -0.9578 -0.1681
17556SOL    HW259015   5.433   4.211   8.939  0.0650  1.1763 -1.4821
17557SOL     OW59016   3.543   1.970   4.522 -0.6657 -0.3285 -0.0341
17557SOL    HW159017   3.611   1.917   4.563  1.0565 -0.4887 -2.7764
17557SOL    HW259018   3.556   1.956   4.428 -1.7458  2.9559 -0.8128
17558SOL     OW59019   3.404   1.258   2.436  0.3925  0.3004 -0.1539
17558SOL    HW159020   3.369   1.194   2.375  0.7157  1.2231 -1.3356
17558SOL    HW259021   3.356   1.243   2.518 -1.9320  0.7513 -1.3677
17559SOL     OW59022   6.088   4.866   7.983  0.6550  1.1173 -0.1090
17559SOL    HW159023   6.007   4.916   7.974  0.0054  0.2329  0.6182
17559SOL    HW259024   6.098   4.853   8.077  1.2748  0.6090 -0.2365
17560SOL     OW59025   3.757   3.291   3.985 -0.3944 -0.4334 -0.0486
17560SOL    HW159026   3.809   3.338   3.920  0.3427 -1.8497 -0.5155
17560SOL    HW259027   3.674   3.275   3.942 -0.1083 -0.8740 -0.4410
17561SOL     OW59028   8.095   4.972   6.043  0.7005 -0.2681 -0.0922
17561SOL    HW159029   8.059   5.045   6.093  0.3156  0.1913 -1.0100
17561SOL    HW259030   8.020   4.915   6.026  1.3229 -2.0534  2.4261
17562SOL     OW59031   3.353   2.763   1.601  0.2965  0.6940 -0.3186
17562SOL    HW159032   3.414   2.689   1.595  0.1386  0.5921 -0.7281
17562SOL    HW259033   3.398   2.828   1.654  0.5364  0.3951 -0.1568
17563SOL     OW59034   2.458   3.685   5.715  0.0380  0.3533  0.4197
17563SOL    HW159035   2.435   3.745   5.643  1.2568 -0.0102 -0.3120
17563SOL    HW259036   2.376   3.640   5.735 -0.4324  0.7843 -0.4379
17564SOL     OW59037   4.496   3.622   8.438  0.1250  0.5127 -0.4031
17564SOL    HW159038   4.543   3.624   8.355  0.4913 -1.3491 -0.2958
17564SOL    HW259039   4.406   3.599   8.414  0.2007  0.1038 -0.3027
17565SOL     OW59040   5.587   6.044   2.227 -0.7868  0.7452  0.0397
17565SOL    HW159041   5.496   6.016   2.218 -0.0903 -2.4040  1.5145
17565SOL    HW259042   5.610   6.022   2.317  1.1187  2.6588  0.0907
17566SOL     OW59043   7.665   1.051   6.852  0.3557  0.4038 -0.0990
17566SOL    HW159044   7.715   1.126   6.818 -1.4313  1.2107 -1.0455
17566SOL    HW259045   7.697   0.976   6.801  1.7267  0.5852  0.4368
17567SOL     OW59046   8.630   8.613   7.928 -0.7743 -0.3972  0.6367
17567SOL    HW159047   8.641   8.552   7.855 -1.8903  1.5514 -1.2638
17567SOL    HW259048   8.712   8.609   7.976 -0.1003 -1.9243 -0.5750
17568SOL     OW59049   2.265   0.029   6.239 -0.2706  0.1150  0.2304
17568SOL    HW159050   2.293   0.076   6.160 -1.7481  1.0653  0.2294
17568SOL    HW259051   2.179  -0.006   6.217  0.5926 -2.2818  0.4032
17569SOL     OW59052   4.157   6.151   5.162 -0.4677  0.2623  0.0539
17569SOL    HW159053   4.228   6.087   5.167 -1.1999 -0.5649  0.1585
17569SOL    HW259054   4.154   6.177   5.070 -0.6057 -0.3785 -0.1269
17570SOL     OW59055   5.342   8.524   3.035 -0.1145 -0.3820  0.3467
17570SOL    HW159056   5.250   8.549   3.030 -1.1123 -2.8690  3.2146
17570SOL    HW259057   5.373   8.560   3.118  1.1840 -0.5533 -0.0321
17571SOL     OW59058   3.992   0.095   3.465  0.3112  0.1546  0.1221
17571SOL    HW159059   4.063   0.052   3.512  0.0853 -0.2784  0.0736
17571SOL    HW259060   3.994   0.057   3.377 -0.2729 -0.2016  0.2601
17572SOL     OW59061   0.932   2.818   6.004 -0.4070 -0.5092 -0.1769
17572SOL    HW159062   0.993   2.822   5.931 -0.3275 -1.3211 -0.1627
17572SOL    HW259063   0.863   2.880   5.981  0.8025  1.0540  0.1800
17573SOL     OW59064   7.709   8.958   9.177 -0.1892 -0.4031  0.1444
17573SOL    HW159065   7.683   8.899   9.106  1.2964  0.1055 -0.8804
17573SOL    HW259066   7.737   8.900   9.248  1.1579 -0.9667 -0.8058
17574SOL     OW59067   7.910   5.808   8.185 -0.2194  0.1615 -0.4972
17574SOL    HW159068   7.943   5.816   8.275 -0.9804  0.8207 -0.2607
17574SOL    HW259069   7.899   5.898   8.156 -0.7586 -0.0501 -0.9632
17575SOL     OW59070   9.066   3.794   5.011 -0.4294 -0.4610 -0.2276
17575SOL    HW159071   9.112   3.723   5.056 -0.7185 -1.1117 -0.9412
17575SOL    HW259072   8.980   3.758   4.992 -0.5913  0.0960 -0.5712
17576SOL     OW59073   0.359   4.499   1.089  0.3032  0.1135  0.2280
17576SOL    HW159074   0.444   4.529   1.056  0.2643 -0.2741 -0.2470
17576SOL    HW259075   0.369   4.404   1.099 -0.3134 -0.0656 -0.6314
17577SOL     OW59076   8.468   7.775   0.725 -0.2173  0.3091  0.5239
17577SOL    HW159077   8.388   7.730   0.697 -0.0711  0.5336 -0.2833
17577SOL    HW259078   8.438   7.862   0.752 -0.1647  0.6554 -0.4903
17578SOL     OW59079   9.154   3.085   1.096  0.3021  0.1299 -0.3921
17578SOL    HW159080   9.245   3.089   1.069  0.4231 -0.2727 -0.0452
17578SOL    HW259081   9.156   3.047   1.183 -0.1357  0.8386 -0.0611
17579SOL     OW59082   2.923   8.286   4.376 -0.2808 -0.1573 -0.3764
17579SOL    HW159083   2.865   8.210   4.378  0.6612 -0.9353 -1.4705
17579SOL    HW259084   2.996   8.262   4.433 -2.0989  1.8163  3.0894
17580SOL     OW59085   2.821   5.251   5.092 -0.0863  0.7977 -0.4287
17580SOL    HW159086   2.798   5.159   5.097  1.4445  0.3554 -1.0121
17580SOL    HW259087   2.763   5.294   5.154 -0.3146 -0.6469  0.3913
17581SOL     OW59088   4.821   2.661   3.754 -0.5918  0.0120  0.1885
17581SOL    HW159089   4.819   2.757   3.746 -0.1788  0.0122  0.0498
17581SOL    HW259090   4.750   2.641   3.816 -2.0355  0.2320 -1.3358
17582SOL     OW59091   0.551   1.139   0.588  0.4205 -0.6449 -0.7645
17582SOL    HW159092   0.645   1.149   0.603  0.1308  0.8300  0.2177
17582SOL    HW259093   0.534   1.191   0.509  0.4528 -1.1391 -1.1067
17583SOL     OW59094   7.186   1.492   8.951  0.3406 -0.2202  0.8821
17583SOL    HW159095   7.091   1.487   8.949  0.3519 -0.2547 -0.4765
17583SOL    HW259096   7.214   1.450   8.870  1.4742  0.6060  0.8175
17584SOL     OW59097   0.443   5.444   1.296  0.1103 -0.4984 -0.5818
17584SOL    HW159098   0.485   5.521   1.258 -0.3240 -1.0506 -2.2526
17584SOL    HW259099   0.353   5.472   1.313  0.0679 -0.5217 -0.7750
17585SOL     OW59100   4.779   0.007   3.462  0.6846 -0.1602  0.5079
17585SOL    HW159101   4.801   0.086   3.413  2.2166 -0.3738  0.7772
17585SOL    HW259102   4.803   0.028   3.552 -0.2712 -0.4443  0.8397
17586SOL     OW59103   0.685   2.067   5.766 -0.0609 -0.2143 -0.3311
17586SOL    HW159104   0.775   2.069   5.732  0.0315 -2.1412 -0.2817
17586SOL    HW259105   0.679   1.984   5.813 -1.7524  0.0939  0.0529
17587SOL     OW59106   6.638   0.034   0.741 -0.3358 -0.1065 -0.0338
17587SOL    HW159107   6.586   0.114   0.730  0.4392  0.2688 -1.2045
17587SOL    HW259108   6.591  -0.032   0.691  0.4338  0.3149 -1.3797
17588SOL     OW59109   2.679   6.185   8.009  0.2826 -0.7071  0.2891
17588SOL    HW159110   2.589   6.181   8.041  0.9636  0.6397  2.5928
17588SOL    HW259111   2.679   6.258   7.947  0.4630  1.8588  3.0902
17589SOL     OW59112   4.360   7.827   8.243  0.6878  0.1930 -0.0909
17589SOL    HW159113   4.326   7.873   8.167  0.2839 -0.3565 -0.2537
17589SOL    HW259114   4.299   7.848   8.313  1.1128  0.7753  0.1082
17590SOL     OW59115   6.483   6.392   3.474 -0.1530  0.1302 -0.3275
17590SOL    HW159116   6.550   6.387   3.541  0.1696 -1.4337 -0.7153
17590SOL    HW259117   6.531   6.387   3.391 -0.6178  0.9877 -0.6653
17591SOL     OW59118   1.636   1.736   4.890 -0.3941 -0.2120  0.3219
17591SOL    HW159119   1.670   1.717   4.802  0.2271 -0.0510  0.5263
17591SOL    HW259120   1.676   1.819   4.914 -1.2850  0.2079  0.3910
17592SOL     OW59121   3.925   5.319   3.453 -0.0194 -0.0923 -0.5647
17592SOL    HW159122   3.872   5.313   3.532  0.3032  0.4614 -0.2967
17592SOL    HW259123   3.870   5.366   3.390  0.0821  0.3331 -0.3419
17593SOL     OW59124   5.563   3.527   6.744 -0.0151  0.0358  0.2427
17593SOL    HW159125   5.654   3.548   6.725  0.3143  1.9039  3.2724
17593SOL    HW259126   5.515   3.608   6.727 -0.9508 -0.6306 -0.3619
17594SOL     OW59127   3.641   0.078   1.940 -0.3428  0.0036  0.2108
17594SOL    HW159128   3.627   0.011   1.872 -1.0808 -0.8311  1.1649
17594SOL    HW259129   3.685   0.031   2.011  0.2984  0.8394  0.3774
17595SOL     OW59130   0.241   3.733   1.180  0.4843  0.2236 -0.1372
17595SOL    HW159131   0.214   3.755   1.269  3.2246 -0.9040  1.0949
17595SOL    HW259132   0.304   3.662   1.191 -1.2461 -2.0385 -3.2338
17596SOL     OW59133   0.450   8.413   5.846 -0.1112 -0.2357 -0.5708
17596SOL    HW159134   0.517   8.478   5.869  0.1406 -0.2023 -1.3860
17596SOL    HW259135   0.405   8.450   5.771  0.7860 -1.4888 -1.7786
17597SOL     OW59136   6.560   6.678   3.643 -0.0158  0.0959 -0.3086
17597SOL    HW159137   6.610   6.651   3.719 -0.5648  0.2359  0.1052
17597SOL    HW259138   6.513   6.756   3.671  0.5538  0.7382 -1.0958
17598SOL     OW59139   2.350   7.746   8.573 -0.8364 -0.0125  0.1451
17598SOL    HW159140   2.392   7.745   8.487 -2.5991 -1.2621 -0.7676
17598SOL    HW259141   2.270   7.798   8.560  0.1422  2.0784  1.7603
17599SOL     OW59142   8.197   4.067   1.348 -0.0135 -0.0515 -0.7445
17599SOL    HW159143   8.206   3.973   1.363  1.1225 -0.0934 -1.5574
17599SOL    HW259144   8.129   4.074   1.281 -1.7416 -0.1340  0.9411
17600SOL     OW59145   8.667   0.962   2.484  0.3625 -0.3472 -0.6082
17600SOL    HW159146   8.687   0.892   2.422 -0.6164 -0.3880 -0.9003
17600SOL    HW259147   8.572   0.955   2.499  0.5268 -0.1547  0.6745
17601SOL     OW59148   3.429   6.550   7.320 -0.4714  0.2203  0.2358
17601SOL    HW159149   3.498   6.486   7.298 -0.1083  0.2351  1.2764
17601SOL    HW259150   3.477   6.625   7.356 -1.0782 -0.7697  3.4529
17602SOL     OW59151   2.350   2.818   8.704  0.3856  0.7486  0.1782
17602SOL    HW159152   2.388   2.802   8.618 -0.2729 -0.3025  0.0763
17602SOL    HW259153   2.424   2.848   8.758  1.1696 -0.3566 -0.2668
17603SOL     OW59154   4.263   2.438   2.921  0.4284  0.1261 -0.6669
17603SOL    HW159155   4.319   2.473   2.851 -0.5271  1.9186 -0.5860
17603SOL    HW259156   4.324   2.421   2.993  1.1873 -0.1372 -1.3528
17604SOL     OW59157   1.482   7.269   5.717 -0.3059  0.1730 -0.0519
17604SOL    HW159158   1.525   7.291   5.800 -0.0797  0.1366 -0.1592
17604SOL    HW259159   1.438   7.186   5.734 -0.1094  0.0746 -0.0207
17605SOL     OW59160   8.539   0.746   5.226 -0.2428  0.7442  0.9566
17605SOL    HW159161   8.518   0.698   5.145 -2.5063  0.1189  1.8580
17605SOL    HW259162   8.529   0.681   5.295  0.6591  1.5450  1.8643
17606SOL     OW59163   3.508   7.148   7.878  0.2439 -0.0021 -0.1738
17606SOL    HW159164   3.601   7.126   7.880  0.3803  0.5979  1.8829
17606SOL    HW259165   3.504   7.239   7.905 -0.9193  0.1256 -0.7066
17607SOL     OW59166   7.591   1.118   2.962  0.0586 -0.6218 -0.2741
17607SOL    HW159167   7.513   1.150   3.007 -0.4221 -1.5352 -0.4263
17607SOL    HW259168   7.662   1.129   3.025 -0.3752 -0.6972  0.2337
17608SOL     OW59169   5.988   5.455   2.009 -0.8876  0.9406  0.6997
17608SOL    HW159170   5.901   5.439   1.973 -0.1773 -0.8362 -0.3806
17608SOL    HW259171   6.048   5.426   1.940  0.5423  0.0963  2.2181
17609SOL     OW59172   4.519   4.024   7.706 -0.1441  0.7996  0.1338
17609SOL    HW159173   4.591   4.071   7.749 -0.0368 -0.9876  2.0873
17609SOL    HW259174   4.441   4.074   7.729  0.2170  1.4533 -0.0277
17610SOL     OW59175   7.206   2.294   7.780  0.5327  0.0921  0.3962
17610SOL    HW159176   7.135   2.357   7.770  0.2722 -0.2543  0.0250
17610SOL    HW259177   7.207   2.246   7.697  0.9377 -0.1724  0.5538
17611SOL     OW59178   2.256   6.407   4.471  0.0222 -0.1810 -0.3189
17611SOL    HW159179   2.294   6.433   4.387  2.2226 -1.8389  0.1050
17611SOL    HW259180   2.200   6.333   4.450  0.5684 -0.5921 -0.3403
17612SOL     OW59181   8.731   1.209   1.582  0.3463 -0.5947 -0.1356
17612SOL    HW159182   8.806   1.258   1.549  0.9290 -1.8369 -0.7515
17612SOL    HW259183   8.677   1.193   1.505 -0.1809 -0.3486  0.1767
17613SOL     OW59184   4.551   1.216   4.790 -0.4545 -0.3410 -0.4359
17613SOL    HW159185   4.541   1.165   4.710  0.1223 -0.3666 -0.4969
17613SOL    HW259186   4.646   1.225   4.801 -0.4870 -1.2887  0.8484
17614SOL     OW59187   7.077   0.113   4.398  0.0369 -0.1212 -0.0492
17614SOL    HW159188   7.143   0.057   4.356 -0.9966 -0.6163 -1.0517
17614SOL    HW259189   7.120   0.198   4.407  1.5027 -0.9417  1.1479
17615SOL     OW59190   4.336   9.198   4.875 -0.3513 -0.3106 -0.1804
17615SOL    HW159191   4.329   9.287   4.908  0.4809 -0.2153 -0.2272
17615SOL    HW259192   4.428   9.189   4.849  0.2972 -2.0090  2.2649
17616SOL     OW59193   2.541   7.319   8.820  0.5262  0.3139  0.2495
17616SOL    HW159194   2.494   7.256   8.764  0.9882 -0.1729  0.3989
17616SOL    HW259195   2.537   7.401   8.773  0.3966  0.0412 -0.2214
17617SOL     OW59196   3.697   4.296   6.230 -0.1705 -0.2944  0.0558
17617SOL    HW159197   3.697   4.390   6.247 -0.8549 -0.0516 -1.1580
17617SOL    HW259198   3.625   4.262   6.283 -0.2544 -0.0590  0.0927
17618SOL     OW59199   3.877   4.956   2.711 -0.2401  0.8548 -0.0849
17618SOL    HW159200   3.801   5.011   2.734  0.4568  1.7222  0.1994
17618SOL    HW259201   3.952   5.013   2.724  0.3850  0.4424 -1.6905
17619SOL     OW59202   8.017   8.063   8.478 -0.2168 -0.2785 -0.0933
17619SOL    HW159203   8.093   8.081   8.532 -0.0734  1.2172 -0.7482
17619SOL    HW259204   8.042   8.091   8.390 -1.5967  0.5406 -0.2631
17620SOL     OW59205   1.351   5.639   8.127  0.5157 -0.3277  0.3741
17620SOL    HW159206   1.301   5.693   8.188  0.4095 -0.8386  0.7462
17620SOL    HW259207   1.286   5.605   8.066  0.4235 -0.8515  0.7528
17621SOL     OW59208   2.833   3.191   7.935 -0.4292  0.2746  0.1033
17621SOL    HW159209   2.781   3.116   7.966 -0.1370  0.2845  0.6171
17621SOL    HW259210   2.853   3.170   7.844  1.6965 -1.4228  0.8954
17622SOL     OW59211   3.864   9.131   1.057  0.3531  0.0546 -0.1193
17622SOL    HW159212   3.954   9.136   1.090 -0.5607 -0.0703  2.6050
17622SOL    HW259213   3.849   9.037   1.043  0.7059  0.1002 -0.8765
17623SOL     OW59214   0.728   2.756   0.451 -0.3798 -0.4205 -0.7579
17623SOL    HW159215   0.785   2.793   0.384  1.1390  0.6153  0.9827
17623SOL    HW259216   0.727   2.823   0.520 -3.0522 -0.7943 -0.3561
17624SOL     OW59217   2.202   6.433   8.864  1.0809 -0.5109 -0.0505
17624SOL    HW159218   2.115   6.413   8.828  0.3970  1.4494  0.3557
17624SOL    HW259219   2.211   6.376   8.940  0.5127 -1.3317 -0.5909
17625SOL     OW59220   0.503   4.662   0.305  0.6586 -0.5107  0.0296
17625SOL    HW159221   0.560   4.704   0.370  1.3588 -0.7300 -0.4427
17625SOL    HW259222   0.559   4.648   0.229 -0.0698 -0.5791 -0.4994
17626SOL     OW59223   4.590   4.522   7.488 -0.0725 -0.4686 -0.0699
17626SOL    HW159224   4.563   4.521   7.397  0.6244 -0.9358 -0.2802
17626SOL    HW259225   4.639   4.604   7.497 -0.0524 -0.4724 -0.1410
17627SOL     OW59226   5.801   3.838   3.836 -0.2549 -0.7365  0.2708
17627SOL    HW159227   5.875   3.779   3.853 -0.3431 -0.7952  0.4587
17627SOL    HW259228   5.807   3.858   3.743  1.3342  1.0435  0.6801
17628SOL     OW59229   7.784   7.785   6.428 -0.0388 -0.5432  0.0451
17628SOL    HW159230   7.718   7.854   6.416  1.0391  0.6324  0.6617
17628SOL    HW259231   7.852   7.826   6.480  0.6539 -2.0981  0.4132
17629SOL     OW59232   5.333   5.801   4.224  0.1126 -0.0877 -0.1879
17629SOL    HW159233   5.313   5.849   4.144 -1.4941 -1.4506 -0.6509
17629SOL    HW259234   5.412   5.752   4.203  0.1515  0.1733 -0.6708
17630SOL     OW59235   4.856   0.174   6.382  0.1208 -0.7645  0.0908
17630SOL    HW159236   4.838   0.108   6.449 -0.2606 -1.1617 -0.4019
17630SOL    HW259237   4.778   0.176   6.327  0.8755 -1.2830 -1.0456
17631SOL     OW59238   8.989   2.825   7.842  0.1766 -0.1014  0.0133
17631SOL    HW159239   8.971   2.807   7.934 -0.3917 -0.9568 -0.2579
17631SOL    HW259240   9.078   2.861   7.842  0.2228 -0.1849  0.8782
17632SOL     OW59241   0.043   7.731   1.128 -0.2302 -0.5320 -0.4252
17632SOL    HW159242   0.064   7.682   1.207 -0.7451  0.7119  0.5233
17632SOL    HW259243   0.128   7.750   1.088  0.3426  1.5343  1.5568
17633SOL     OW59244   0.235   3.868   6.764  0.2803 -0.1395 -0.3861
17633SOL    HW159245   0.251   3.782   6.727  0.5731 -0.7164  1.0255
17633SOL    HW259246   0.168   3.854   6.832  0.3079  0.7444 -0.1536
17634SOL     OW59247   2.379   7.203   4.056  0.1529  0.2777 -0.1299
17634SOL    HW159248   2.360   7.215   3.963 -0.8928 -1.8843 -0.2439
17634SOL    HW259249   2.466   7.242   4.068  0.8793 -0.5359 -2.2765
17635SOL     OW59250   5.643   6.564   3.510  0.3145 -0.2820  0.3172
17635SOL    HW159251   5.726   6.563   3.461 -0.9249  2.0664 -2.0926
17635SOL    HW259252   5.584   6.508   3.460 -0.5939  1.0870 -0.1978
17636SOL     OW59253   2.448   6.340   2.912  0.1529  0.0648  0.0085
17636SOL    HW159254   2.366   6.323   2.960 -1.9864  1.2032 -2.9570
17636SOL    HW259255   2.491   6.254   2.908 -0.4722 -0.4216  2.2531
17637SOL     OW59256   5.750   4.432   0.108 -0.1734 -0.3965  0.1452
17637SOL    HW159257   5.739   4.506   0.049 -1.0410 -0.4036  0.2773
17637SOL    HW259258   5.828   4.386   0.076  0.5720  0.7445  0.2561
17638SOL     OW59259   2.025   6.863   7.654  0.1712  0.1408  0.6090
17638SOL    HW159260   2.074   6.789   7.690  0.8576  0.5241  0.4731
17638SOL    HW259261   2.053   6.869   7.563 -0.0217  0.4578  0.5695
17639SOL     OW59262   0.194   6.559   6.797  0.2806  0.0099  0.7932
17639SOL    HW159263   0.221   6.485   6.742  0.6153  0.0435  0.9103
17639SOL    HW259264   0.216   6.636   6.745 -0.2761  0.0279  0.5752
17640SOL     OW59265   7.794   1.141   0.628 -0.2557 -0.0824  0.3377
17640SOL    HW159266   7.886   1.167   0.633 -0.6342  1.4199  0.0329
17640SOL    HW259267   7.789   1.088   0.548  0.5990 -1.4598  1.1474
17641SOL     OW59268   0.796   8.250   8.171 -0.5460  0.6683  0.0700
17641SOL    HW159269   0.887   8.227   8.151 -0.7260  0.3169 -0.3471
17641SOL    HW259270   0.745   8.209   8.102 -1.1524 -0.3201  1.0608
17642SOL     OW59271   6.881   8.584   8.484  0.2041  0.3428 -0.2490
17642SOL    HW159272   6.844   8.507   8.441  0.5407 -0.8095  1.4283
17642SOL    HW259273   6.966   8.554   8.517  0.2321  1.3556  0.6428
17643SOL     OW59274   2.303   9.210   5.499  0.3156  0.1874  0.7291
17643SOL    HW159275   2.382   9.165   5.467 -0.5191  0.9552 -2.9094
17643SOL    HW259276   2.331   9.299   5.516  0.5204  0.1164  0.7661
17644SOL     OW59277   1.340   5.592   0.680  0.1878 -0.2262  0.0875
17644SOL    HW159278   1.370   5.519   0.626  0.1281 -0.5473  0.4802
17644SOL    HW259279   1.310   5.551   0.762 -0.0024  0.2206  0.2485
17645SOL     OW59280   1.194   5.338   9.139  0.5097  0.0103 -0.3961
17645SOL    HW159281   1.099   5.324   9.139  0.1284  2.1139 -1.1723
17645SOL    HW259282   1.230   5.261   9.096 -0.8910 -0.5773 -0.5701
17646SOL     OW59283   1.155   5.462   2.143 -0.1100 -0.1791  0.0433
17646SOL    HW159284   1.091   5.501   2.203  0.2721  3.0305 -1.4208
17646SOL    HW259285   1.109   5.453   2.060 -0.1526 -3.0030  0.3058
17647SOL     OW59286   5.764   8.376   0.715 -0.2598 -0.2847 -0.3403
17647SOL    HW159287   5.689   8.325   0.744 -0.3798 -0.4883 -0.9976
17647SOL    HW259288   5.832   8.311   0.695  1.0336 -0.0256  2.7171
17648SOL     OW59289   5.211   4.610   8.045  0.6318 -0.3547 -0.6326
17648SOL    HW159290   5.168   4.531   8.078  0.2819  0.3043  0.5889
17648SOL    HW259291   5.291   4.579   8.003  1.1172 -1.2810  0.9037
17649SOL     OW59292   1.648   3.312   1.151 -0.2813 -0.4721 -0.3741
17649SOL    HW159293   1.716   3.250   1.125  1.2683  0.9255  0.2043
17649SOL    HW259294   1.667   3.391   1.101 -0.5440  0.4515  0.9402
17650SOL     OW59295   8.160   3.827   5.783  0.3284  0.6524  0.2516
17650SOL    HW159296   8.116   3.773   5.718 -2.5206  2.0517  0.8611
17650SOL    HW259297   8.212   3.888   5.732  0.8912 -0.4507 -0.5449
17651SOL     OW59298   6.142   0.684   8.975 -0.0361 -0.4232  0.2506
17651SOL    HW159299   6.228   0.689   9.015 -0.4501 -1.3337  1.2986
17651SOL    HW259300   6.101   0.608   9.015 -0.4901 -1.4009 -1.9209
17652SOL     OW59301   2.429   8.711   1.063 -0.0766  0.2870  0.6750
17652SOL    HW159302   2.486   8.650   1.110 -0.7728 -0.5293  0.4835
17652SOL    HW259303   2.414   8.782   1.125 -0.0276 -0.2006  1.2549
17653SOL     OW59304   6.520   1.372   2.812  0.3527 -0.2807  0.3376
17653SOL    HW159305   6.528   1.346   2.903  0.2331  0.5823  0.6030
17653SOL    HW259306   6.438   1.332   2.782  0.2834 -0.3883  0.6751
17654SOL     OW59307   5.596   6.217   8.670 -0.0141 -0.2028  0.1083
17654SOL    HW159308   5.562   6.181   8.589 -1.1924  0.2630  0.3851
17654SOL    HW259309   5.646   6.145   8.709 -1.4041 -1.2049  0.1180
17655SOL     OW59310   8.743   4.943   0.662  0.0117 -0.6230  0.1478
17655SOL    HW159311   8.744   4.998   0.584  0.6468 -2.6033 -1.3145
17655SOL    HW259312   8.673   4.979   0.716 -1.5400 -0.1588 -2.0637
17656SOL     OW59313   3.541   7.744   8.480 -0.0131  0.0291 -0.1302
17656SOL    HW159314   3.631   7.729   8.453  0.3719  0.0820  1.0639
17656SOL    HW259315   3.508   7.656   8.500  0.6510  0.1983  2.0045
17657SOL     OW59316   5.620   2.503   5.763 -0.6958 -0.3887  0.2388
17657SOL    HW159317   5.641   2.426   5.816  2.0072  0.5586  0.7150
17657SOL    HW259318   5.624   2.472   5.673 -3.1292 -1.5180  0.4422
17658SOL     OW59319   0.287   6.174   8.001  0.0861  0.2234  0.5455
17658SOL    HW159320   0.255   6.084   7.999 -1.1925  0.6676 -0.8951
17658SOL    HW259321   0.211   6.226   8.028 -0.2656  1.2003 -2.0101
17659SOL     OW59322   4.205   5.508   1.810 -0.3939 -0.1228 -0.0683
17659SOL    HW159323   4.181   5.420   1.781 -1.4897  0.5527 -1.3263
17659SOL    HW259324   4.122   5.547   1.840  0.0263  0.5954  0.1860
17660SOL     OW59325   7.588   3.954   2.815 -0.2341 -0.6267  0.2947
17660SOL    HW159326   7.564   3.862   2.801 -1.0831 -0.6040  1.4319
17660SOL    HW259327   7.601   3.960   2.910  0.9784  0.1707  0.1046
17661SOL     OW59328   7.314   7.933   5.235 -0.0016  0.1791 -0.4025
17661SOL    HW159329   7.304   7.841   5.210  1.2063 -0.5273  1.4870
17661SOL    HW259330   7.347   7.976   5.156 -0.3454 -1.0408 -1.2467
17662SOL     OW59331   5.172   1.876   3.051 -0.2976 -0.5433 -0.0898
17662SOL    HW159332   5.146   1.813   2.985 -4.0968  0.9079 -0.2104
17662SOL    HW259333   5.126   1.957   3.028 -0.5732  0.4910  3.4155
17663SOL     OW59334   7.414   8.428   3.787  0.3134  0.0838  0.1803
17663SOL    HW159335   7.325   8.450   3.760  0.3527  0.3651  0.2767
17663SOL    HW259336   7.427   8.473   3.870  0.5131 -0.0343  0.2160
17664SOL     OW59337   6.577   5.455   8.153  0.4469 -0.2962 -0.0721
17664SOL    HW159338   6.522   5.379   8.134  2.5761 -1.9303 -0.0565
17664SOL    HW259339   6.543   5.524   8.096 -0.6281 -1.6739 -1.1719
17665SOL     OW59340   4.041   2.110   0.780  0.8408 -0.0904 -0.0903
17665SOL    HW159341   4.024   2.188   0.727  1.1974 -0.5883 -0.9764
17665SOL    HW259342   3.954   2.075   0.800  0.6838 -0.8224 -1.8172
17666SOL     OW59343   7.518   7.705   0.100  0.2554 -0.0550  0.1607
17666SOL    HW159344   7.569   7.720   0.021 -1.6978  0.5787 -1.0729
17666SOL    HW259345   7.545   7.774   0.161 -1.2744  2.2672 -1.6238
17667SOL     OW59346   1.745   2.542   5.459  0.1252  0.6853 -0.3492
17667SOL    HW159347   1.691   2.599   5.513 -0.9420  0.4287 -1.0957
17667SOL    HW259348   1.762   2.466   5.514  2.0745  1.9239  0.8744
17668SOL     OW59349   0.235   5.927   7.194  0.3095 -0.4904 -0.0282
17668SOL    HW159350   0.252   5.834   7.178  1.0542 -0.3250 -0.2138
17668SOL    HW259351   0.250   5.969   7.109  0.6485 -0.1047  0.2253
17669SOL     OW59352   4.164   5.071   0.035 -0.0375  0.3497 -0.0675
17669SOL    HW159353   4.099   5.007   0.064  2.1106 -1.0204  2.1890
17669SOL    HW259354   4.173   5.055  -0.060 -0.3243 -2.0415  0.2411
17670SOL     OW59355   7.851   1.931   3.607  0.0437  0.5035  0.0269
17670SOL    HW159356   7.868   1.970   3.693 -0.8680  1.9103 -0.3987
17670SOL    HW259357   7.772   1.878   3.621 -0.5916  1.4020 -0.1300
17671SOL     OW59358   3.224   5.381   3.348  0.1877 -0.6109  0.2838
17671SOL    HW159359   3.146   5.436   3.349  1.1620  0.8255  0.2351
17671SOL    HW259360   3.190   5.291   3.352 -1.4710 -0.0473 -0.1859
17672SOL     OW59361   2.441   8.440   7.200 -0.1093 -0.3094 -0.2627
17672SOL    HW159362   2.440   8.524   7.155 -0.7791 -0.3600 -0.3502
17672SOL    HW259363   2.406   8.378   7.136  0.3386 -0.6482 -0.1852
17673SOL     OW59364   4.804   7.521   6.952  0.2865 -0.1804 -0.0601
17673SOL    HW159365   4.864   7.531   6.878 -0.8564  1.4604 -0.8305
17673SOL    HW259366   4.860   7.524   7.029  1.4536 -1.4260 -0.8124
17674SOL     OW59367   3.385   3.761   7.260 -0.2434 -0.1822 -0.1387
17674SOL    HW159368   3.404   3.855   7.269  0.9263 -0.3685 -0.5729
17674SOL    HW259369   3.446   3.730   7.194  0.0506 -1.4671  0.7007
17675SOL     OW59370   5.772   7.649   5.962 -0.5473 -0.1840  0.0771
17675SOL    HW159371   5.796   7.657   5.870  1.6667 -1.8731  0.4193
17675SOL    HW259372   5.843   7.693   6.009 -1.9522  1.2000  1.0089
17676SOL     OW59373   2.291   5.629   7.696 -0.1176  0.1725  0.5915
17676SOL    HW159374   2.344   5.632   7.617 -1.6282  1.0500 -0.4248
17676SOL    HW259375   2.354   5.641   7.767  1.1651  0.1895 -0.5072
17677SOL     OW59376   0.480   3.789   0.843  0.4924 -0.2244  0.2161
17677SOL    HW159377   0.531   3.869   0.855  1.5278 -0.8206 -0.0982
17677SOL    HW259378   0.545   3.721   0.825 -0.3421 -1.2074  0.7825
17678SOL     OW59379   2.109   4.671   3.383  0.2589 -0.4851 -0.2520
17678SOL    HW159380   2.092   4.656   3.290 -0.4196  0.1069 -0.2273
17678SOL    HW259381   2.045   4.616   3.428  0.0732 -0.1738 -0.1387
17679SOL     OW59382   0.263   2.185   3.873 -0.1164  0.1207 -0.0106
17679SOL    HW159383   0.352   2.159   3.849  0.4869  2.2347 -0.2831
17679SOL    HW259384   0.206   2.129   3.820  1.0866  0.0817 -1.3221
17680SOL     OW59385   5.824   3.130   5.209  0.4300 -0.4650 -0.1577
17680SOL    HW159386   5.785   3.118   5.123  0.4431 -0.1821 -0.2046
17680SOL    HW259387   5.872   3.213   5.203  0.1098 -0.2461  0.2405
17681SOL     OW59388   2.528   6.848   5.547 -0.6440 -0.0122  0.0560
17681SOL    HW159389   2.469   6.902   5.599 -1.9450 -1.4552  0.1487
17681SOL    HW259390   2.565   6.909   5.483 -3.3693  0.7440 -0.9701
17682SOL     OW59391   5.873   2.772   6.293 -0.6076  0.3154 -0.1364
17682SOL    HW159392   5.852   2.754   6.385 -0.7258  0.6768 -0.0891
17682SOL    HW259393   5.810   2.839   6.268  0.6897  1.6709  0.1061
17683SOL     OW59394   3.452   3.018   6.787 -0.3387 -0.3584  0.2046
17683SOL    HW159395   3.427   2.946   6.729 -1.8539  1.6686 -1.8750
17683SOL    HW259396   3.390   3.014   6.859 -0.6925 -0.8895 -0.1249
17684SOL     OW59397   6.396   5.811   4.164 -0.1729  0.2571  0.1380
17684SOL    HW159398   6.423   5.855   4.083  0.4867  0.5975  0.5302
17684SOL    HW259399   6.368   5.882   4.222  0.5207  0.1415  0.6325
17685SOL     OW59400   5.756   2.533   7.215  0.7166 -0.0279  0.0631
17685SOL    HW159401   5.844   2.562   7.190  0.1908  2.7958  1.1524
17685SOL    HW259402   5.721   2.492   7.136  2.0355  1.2583 -1.2534
17686SOL     OW59403   0.852   4.144   6.139  0.1624 -0.2032 -0.2469
17686SOL    HW159404   0.817   4.210   6.199 -0.0551 -0.2466 -0.3280
17686SOL    HW259405   0.784   4.077   6.134  0.9531 -1.1312  0.9365
17687SOL     OW59406   1.275   0.594   6.092 -0.1281 -0.4122 -0.1486
17687SOL    HW159407   1.327   0.514   6.088 -2.2332 -1.9158  0.5866
17687SOL    HW259408   1.217   0.588   6.016  0.6674  1.2192 -0.9483
17688SOL     OW59409   7.241   5.728   6.898 -0.1428  0.4848 -0.5284
17688SOL    HW159410   7.236   5.731   6.993  1.2915  0.5624 -0.4373
17688SOL    HW259411   7.203   5.812   6.869 -0.7089  0.4000 -0.0467
17689SOL     OW59412   6.697   8.385   0.188 -0.0780  0.1103  0.6039
17689SOL    HW159413   6.744   8.304   0.168 -1.1812 -0.0013 -1.9298
17689SOL    HW259414   6.711   8.398   0.282 -0.1617 -3.1867  1.1939
17690SOL     OW59415   7.418   6.985   7.870 -0.0324 -0.5951  0.1290
17690SOL    HW159416   7.494   7.041   7.853  1.3518 -2.0597  1.2332
17690SOL    HW259417   7.383   7.018   7.953 -2.3095  1.7724 -1.5922
17691SOL     OW59418   8.333   3.015   3.245 -0.2054  0.1007 -0.2706
17691SOL    HW159419   8.263   3.078   3.230 -0.0294  0.2294 -0.5507
17691SOL    HW259420   8.398   3.062   3.296 -0.2824  0.0080 -0.0865
17692SOL     OW59421   2.978   2.171   3.517 -0.1092 -0.5572 -0.1145
17692SOL    HW159422   2.967   2.260   3.552  0.9924 -0.6499  0.5212
17692SOL    HW259423   2.889   2.142   3.498 -0.5752  0.3006  0.6417
17693SOL     OW59424   8.630   1.650   6.555 -0.0420  0.1205 -0.3953
17693SOL    HW159425   8.713   1.637   6.508  1.1008  1.9613  0.9459
17693SOL    HW259426   8.624   1.745   6.567 -1.3662 -0.1212  1.2385
17694SOL     OW59427   7.530   3.717   7.496  0.0929  0.6066 -0.1438
17694SOL    HW159428   7.611   3.724   7.445  0.9114  2.0420  1.2550
17694SOL    HW259429   7.544   3.775   7.571 -1.7102 -0.1765  0.8590
17695SOL     OW59430   6.002   8.906   6.636 -0.3667  0.4113 -0.0764
17695SOL    HW159431   6.006   8.829   6.578  1.3204  0.2126  0.2534
17695SOL    HW259432   6.094   8.927   6.653 -0.8283  1.4432  1.2489
17696SOL     OW59433   6.219   6.739   1.634  0.3764  0.6876  0.3151
17696SOL    HW159434   6.181   6.656   1.662  1.3988 -0.7023 -2.1411
17696SOL    HW259435   6.145   6.787   1.597 -0.1826  0.8321  1.5604
17697SOL     OW59436   1.705   5.600   5.658 -0.0370 -0.1505 -0.0440
17697SOL    HW159437   1.672   5.682   5.695  0.3457 -1.2931  3.1143
17697SOL    HW259438   1.783   5.625   5.609 -0.6475  1.4915 -0.2232
17698SOL     OW59439   5.659   2.401   8.012  0.0200  0.0758  0.1685
17698SOL    HW159440   5.569   2.433   8.017 -1.6122 -4.0043  1.3069
17698SOL    HW259441   5.693   2.410   8.101  0.0943  0.0041  0.1477
17699SOL     OW59442   8.914   4.779   8.401 -0.4757 -0.3819 -0.2953
17699SOL    HW159443   8.944   4.689   8.408  0.8406  0.1447  1.8930
17699SOL    HW259444   8.979   4.821   8.344  0.2900 -0.3090  0.6111
17700SOL     OW59445   3.861   8.871   0.662  0.1116 -0.1298 -0.1897
17700SOL    HW159446   3.869   8.779   0.637  2.0068 -0.1010  0.1485
17700SOL    HW259447   3.885   8.919   0.583 -1.4964  0.1341 -0.5627
17701SOL     OW59448   5.997   5.403   3.065  0.5456 -0.3890  0.1807
17701SOL    HW159449   6.069   5.373   3.121  0.2603 -2.0279 -0.2660
17701SOL    HW259450   5.988   5.334   2.999 -2.1712 -0.8335  0.8715
17702SOL     OW59451   7.959   8.420   0.204  0.4886 -0.3302 -0.3897
17702SOL    HW159452   7.980   8.456   0.290  1.5079  1.0499 -1.1861
17702SOL    HW259453   8.039   8.429   0.153 -0.1958 -0.8063 -1.6018
17703SOL     OW59454   4.984   4.702   1.755 -0.3501  0.0606 -0.0494
17703SOL    HW159455   5.003   4.610   1.775 -0.5334  0.1955  0.7897
17703SOL    HW259456   5.071   4.742   1.749 -0.2758  0.2881  1.8968
17704SOL     OW59457   1.699   6.780   4.858 -0.5686  0.2593 -0.0967
17704SOL    HW159458   1.636   6.843   4.824 -0.9156 -0.3688 -0.6474
17704SOL    HW259459   1.645   6.706   4.888 -0.1478  0.0694  0.1996
17705SOL     OW59460   0.444   3.015   5.662 -0.4787 -0.4816  0.1224
17705SOL    HW159461   0.380   3.083   5.681 -0.0423  0.5098 -1.7068
17705SOL    HW259462   0.410   2.970   5.584  1.4193  0.7264 -1.5323
17706SOL     OW59463   5.271   2.131   1.293 -0.3206 -0.5722  0.1695
17706SOL    HW159464   5.190   2.160   1.252 -0.2147  0.5471  0.7188
17706SOL    HW259465   5.243   2.071   1.362 -0.8481  1.2806  1.6314
17707SOL     OW59466   7.174   3.164   7.493 -0.3471 -0.1078 -0.1954
17707SOL    HW159467   7.102   3.140   7.435 -0.0090  0.4337 -0.8587
17707SOL    HW259468   7.233   3.215   7.438  0.4174 -0.3215  0.4049
17708SOL     OW59469   3.834   2.873   3.198 -0.8194  0.7014  0.4364
17708SOL    HW159470   3.817   2.825   3.117 -1.7663  0.7420  0.6035
17708SOL    HW259471   3.764   2.847   3.257  0.5987 -0.3655  1.7347
17709SOL     OW59472   1.331   8.662   0.290 -0.0368  0.5985  0.1949
17709SOL    HW159473   1.267   8.728   0.261 -0.4228  0.2003  0.1345
17709SOL    HW259474   1.391   8.653   0.216 -1.8511 -1.4826 -1.1420
17710SOL     OW59475   1.054   3.463   4.415  0.1233  0.4941 -0.1076
17710SOL    HW159476   1.024   3.499   4.331 -1.1561 -0.6364 -0.1611
17710SOL    HW259477   1.089   3.377   4.393 -1.5199 -0.4163  0.6763
17711SOL     OW59478   5.652   0.610   8.492  0.6525  0.4309 -0.3960
17711SOL    HW159479   5.660   0.706   8.490  2.0858  0.5134 -5.4649
17711SOL    HW259480   5.729   0.581   8.541 -0.6607  1.7101  2.6879
17712SOL     OW59481   4.196   5.646   5.986  0.6127 -0.1830  0.5092
17712SOL    HW159482   4.272   5.615   6.036  1.3877  0.7264 -0.0555
17712SOL    HW259483   4.188   5.583   5.914 -1.2583 -2.2143  2.3287
17713SOL     OW59484   7.391   1.200   3.430 -0.2419  0.7412  0.2329
17713SOL    HW159485   7.306   1.223   3.391 -0.5865  0.6323  0.9144
17713SOL    HW259486   7.449   1.271   3.403 -0.5509  0.8257 -0.2256
17714SOL     OW59487   5.658   4.398   4.182 -0.5964 -0.3336 -0.2373
17714SOL    HW159488   5.622   4.311   4.165  1.1845 -1.3034  0.6889
17714SOL    HW259489   5.752   4.385   4.186 -0.4000  1.0174  2.9081
17715SOL     OW59490   3.378   0.844   3.799 -0.5563  0.1885 -0.6312
17715SOL    HW159491   3.317   0.784   3.757 -0.1353 -1.3411  0.8371
17715SOL    HW259492   3.328   0.883   3.871 -0.0247 -0.5576  0.1589
17716SOL     OW59493   2.451   3.315   5.403 -0.2258 -0.5478 -0.1119
17716SOL    HW159494   2.362   3.316   5.437  0.1583  1.5367  1.0214
17716SOL    HW259495   2.459   3.231   5.357 -1.8649 -1.9870  2.0628
17717SOL     OW59496   5.372   8.211   1.930  0.6397  0.0966 -0.8989
17717SOL    HW159497   5.325   8.167   2.001  2.1237  1.8104  1.2649
17717SOL    HW259498   5.328   8.181   1.850 -1.2265 -1.7720  0.7184
17718SOL     OW59499   0.801   1.654   5.867  0.0580 -0.5645 -0.2541
17718SOL    HW159500   0.821   1.574   5.917  0.4728  0.0453  0.5837
17718SOL    HW259501   0.753   1.623   5.791 -1.4501 -1.4555  0.9963
17719SOL     OW59502   2.020   7.378   3.299 -0.1748 -0.2469 -0.0941
17719SOL    HW159503   2.079   7.371   3.374 -0.6064 -1.5210  0.1418
17719SOL    HW259504   1.932   7.375   3.337 -0.3953 -0.3506 -0.6089
17720SOL     OW59505   6.386   3.489   0.818  0.0083 -0.0834  0.0919
17720SOL    HW159506   6.380   3.475   0.913 -0.0480 -1.2724 -0.0653
17720SOL    HW259507   6.300   3.463   0.785 -0.1101  0.7199 -0.2521
17721SOL     OW59508   8.305   8.261   1.391  0.2945  0.3136  0.3417
17721SOL    HW159509   8.281   8.277   1.300 -3.2963 -0.6284  0.9621
17721SOL    HW259510   8.397   8.235   1.388  0.4051  0.7310 -2.9442
17722SOL     OW59511   2.654   1.140   5.254  0.5479  1.1914 -0.1851
17722SOL    HW159512   2.719   1.166   5.319  1.0530  0.5291 -0.4214
17722SOL    HW259513   2.703   1.091   5.188  0.1682  2.4119 -1.4276
17723SOL     OW59514   2.786   6.187   5.182 -0.0229 -0.4210 -0.9021
17723SOL    HW159515   2.792   6.103   5.137 -1.0158 -1.2992  0.5440
17723SOL    HW259516   2.709   6.179   5.238  0.5186  1.0373  0.1027
17724SOL     OW59517   2.425   3.791   2.958  0.0727  0.5915 -0.1522
17724SOL    HW159518   2.398   3.882   2.943 -1.1983  0.4160  0.8573
17724SOL    HW259519   2.343   3.744   2.973  0.7734 -0.5498  0.2382
17725SOL     OW59520   1.646   0.788   7.881 -0.1074  0.6558 -0.4522
17725SOL    HW159521   1.716   0.775   7.816  0.6706  0.2042  0.4529
17725SOL    HW259522   1.664   0.874   7.919  0.0323  0.4836 -0.1276
17726SOL     OW59523   2.355   3.864   0.525 -0.2740  0.0461  0.4244
17726SOL    HW159524   2.425   3.814   0.566 -0.7737 -2.1113 -1.2061
17726SOL    HW259525   2.279   3.848   0.581 -0.4596 -1.1863 -0.1468
17727SOL     OW59526   9.003   0.070   0.792  0.0349 -1.0076  0.7478
17727SOL    HW159527   9.007  -0.014   0.838 -2.5665 -2.8272 -1.9690
17727SOL    HW259528   8.982   0.047   0.702 -0.6779  2.5794 -0.1574
17728SOL     OW59529   3.342   4.246   5.549  0.3536  0.1591 -0.1498
17728SOL    HW159530   3.317   4.319   5.605 -0.3543 -1.3376  1.6000
17728SOL    HW259531   3.437   4.240   5.559  0.5725  1.5065 -1.2156
17729SOL     OW59532   1.328   5.541   3.146  0.4396 -0.0442  0.3738
17729SOL    HW159533   1.405   5.555   3.090  1.5274 -1.2894  1.4936
17729SOL    HW259534   1.339   5.604   3.217  1.3376 -1.3167  1.4063
17730SOL     OW59535   2.305   5.540   3.525 -0.0449  0.0757 -0.0145
17730SOL    HW159536   2.309   5.491   3.607  0.6400  0.3865  0.1502
17730SOL    HW259537   2.354   5.621   3.543  0.4887 -0.0466 -0.8556
17731SOL     OW59538   1.582   4.109   7.831  0.2535 -0.1815 -0.1833
17731SOL    HW159539   1.593   4.030   7.885 -1.4010 -0.4570 -0.1858
17731SOL    HW259540   1.571   4.075   7.742 -1.6081 -0.0732 -0.0340
17732SOL     OW59541   5.783   1.713   9.233 -0.4315 -0.6394 -0.7213
17732SOL    HW159542   5.833   1.633   9.249  0.0761 -0.5471 -1.7621
17732SOL    HW259543   5.761   1.745   9.321  2.3918 -0.0535 -0.1140
17733SOL     OW59544   0.060   4.256   7.550  0.6872  0.2175  0.3158
17733SOL    HW159545   0.053   4.229   7.458 -2.3382 -1.0051  0.7849
17733SOL    HW259546   0.066   4.351   7.547 -1.5928  0.3954 -1.1816
17734SOL     OW59547   2.413   8.263   2.014 -0.1950  0.4892 -0.0832
17734SOL    HW159548   2.452   8.248   2.100  1.6775 -0.2779 -1.0104
17734SOL    HW259549   2.392   8.357   2.013  0.1991  0.5947  1.0303
17735SOL     OW59550   4.762   5.848   7.883  0.0292 -0.3579 -0.0276
17735SOL    HW159551   4.700   5.783   7.916  0.3158 -0.3786  0.4904
17735SOL    HW259552   4.707   5.915   7.843 -0.2955 -0.6747 -0.1240
17736SOL     OW59553   2.690   4.957   2.132  0.7921 -0.4667 -0.3086
17736SOL    HW159554   2.776   4.929   2.099  0.9694  1.0539 -1.2576
17736SOL    HW259555   2.711   5.022   2.199  0.3768 -0.9507  0.2983
17737SOL     OW59556   6.210   5.923   4.374  1.1290  0.4545  0.5561
17737SOL    HW159557   6.175   5.991   4.315  1.4799  1.2641  1.2518
17737SOL    HW259558   6.135   5.896   4.427  0.5155 -1.1823 -1.0603
17738SOL     OW59559   0.425   0.843   3.767 -0.2034  0.3641  0.4738
17738SOL    HW159560   0.372   0.791   3.828 -1.5047  0.3760 -0.6004
17738SOL    HW259561   0.488   0.889   3.823  0.1777 -1.4002  1.5779
17739SOL     OW59562   0.124   5.244   7.766  0.3477  0.0424 -0.2128
17739SOL    HW159563   0.137   5.165   7.713 -2.0937  0.9951 -2.4624
17739SOL    HW259564   0.159   5.315   7.713 -3.3172  1.1928 -1.3865
17740SOL     OW59565   8.799   1.481   3.672 -0.2199 -0.2594 -0.4112
17740SOL    HW159566   8.877   1.479   3.727 -0.6756  0.9785  0.3342
17740SOL    HW259567   8.775   1.574   3.667 -3.0510 -0.7688  1.4540
17741SOL     OW59568   1.862   1.578   3.310  0.3742 -0.0592  0.5432
17741SOL    HW159569   1.865   1.644   3.379  0.4964  1.0247 -0.4720
17741SOL    HW259570   1.809   1.507   3.347 -1.1636  1.3041  1.0600
17742SOL     OW59571   3.893   3.899   2.110 -0.7762 -0.6176  0.3626
17742SOL    HW159572   3.838   3.852   2.047  2.4093 -0.9756 -2.4702
17742SOL    HW259573   3.838   3.971   2.141 -2.6621 -0.5524 -2.7224
17743SOL     OW59574   4.807   5.343   1.654 -0.0772 -0.4271 -0.3007
17743SOL    HW159575   4.725   5.297   1.673 -0.3760  1.0769  2.5721
17743SOL    HW259576   4.875   5.285   1.688 -0.1642 -0.4077 -0.0930
17744SOL     OW59577   3.671   3.135   5.849  0.1140 -0.3675 -0.7828
17744SOL    HW159578   3.659   3.110   5.757 -0.9216  0.0898 -0.7895
17744SOL    HW259579   3.663   3.231   5.849  0.0703 -0.3669 -0.2071
17745SOL     OW59580   6.434   8.274   0.485 -0.0093  0.3776 -0.1756
17745SOL    HW159581   6.459   8.240   0.399 -0.5311  0.2331 -0.2723
17745SOL    HW259582   6.341   8.296   0.476 -0.3072 -0.4931  0.6158
17746SOL     OW59583   4.054   6.847   8.823  0.2196  0.5583  0.2672
17746SOL    HW159584   4.033   6.766   8.777  1.2890 -0.4598  1.4874
17746SOL    HW259585   3.987   6.910   8.793  0.2579 -0.3214 -1.8231
17747SOL     OW59586   6.381   6.864   8.523  0.6458  0.2910  0.3966
17747SOL    HW159587   6.442   6.905   8.462 -0.3555 -0.1623 -0.9505
17747SOL    HW259588   6.429   6.788   8.558  0.6822 -0.4074 -1.0906
17748SOL     OW59589   8.780   9.142   1.977 -0.0631 -0.4393 -0.5563
17748SOL    HW159590   8.853   9.153   2.038 -0.8125 -1.1208  0.5052
17748SOL    HW259591   8.759   9.048   1.982 -0.3440 -0.4471 -1.6367
17749SOL     OW59592   0.400   7.478   3.106 -0.1632 -0.2697 -0.4688
17749SOL    HW159593   0.472   7.415   3.105 -1.2978 -1.6175 -1.3732
17749SOL    HW259594   0.335   7.440   3.164  0.2600  1.5096  1.3095
17750SOL     OW59595   7.794   2.633   8.936  0.3230 -0.0063 -0.1533
17750SOL    HW159596   7.795   2.603   8.845 -0.7597 -0.4565 -0.0210
17750SOL    HW259597   7.715   2.596   8.973  0.9455 -0.1270  1.0903
17751SOL     OW59598   8.422   1.809   2.153  0.5642  0.0174  0.5498
17751SOL    HW159599   8.431   1.839   2.062 -0.0668 -1.2496  0.0433
17751SOL    HW259600   8.344   1.753   2.151  1.1100 -0.7988  1.6772
17752SOL     OW59601   4.636   0.424   8.481  0.3524 -0.3038  0.1312
17752SOL    HW159602   4.677   0.511   8.471  1.4612 -0.8606 -0.3783
17752SOL    HW259603   4.681   0.385   8.555  0.4775 -0.7797 -0.1911
17753SOL     OW59604   0.542   2.344   3.758 -0.2719 -0.0074  0.1002
17753SOL    HW159605   0.565   2.251   3.748 -0.5498  0.0147 -0.9205
17753SOL    HW259606   0.620   2.391   3.730 -0.6951  0.0603 -1.0023
17754SOL     OW59607   7.618   4.226   1.038  0.0155 -0.3781  0.0634
17754SOL    HW159608   7.689   4.261   1.092  0.9798 -3.3701  0.9022
17754SOL    HW259609   7.661   4.173   0.972 -1.3686 -0.1332 -1.1005
17755SOL     OW59610   2.203   1.041   2.314 -0.2650 -0.6033 -0.1117
17755SOL    HW159611   2.167   1.112   2.260 -1.5707 -0.1710  1.2436
17755SOL    HW259612   2.151   0.964   2.291  0.2349 -0.8106 -0.5825
17756SOL     OW59613   8.759   7.083   0.469 -0.1163  0.0446  0.9189
17756SOL    HW159614   8.666   7.105   0.465 -0.0306  0.6815  1.9493
17756SOL    HW259615   8.785   7.106   0.558  0.7678 -1.1960  1.0169
17757SOL     OW59616   6.785   8.954   5.914  0.3309  0.1249  0.0464
17757SOL    HW159617   6.730   8.940   5.991  0.0871  0.4121 -0.0761
17757SOL    HW259618   6.724   8.970   5.843  0.5661  0.1669 -0.1491
17758SOL     OW59619   4.442   3.017   1.948  0.4319  0.0712  0.3516
17758SOL    HW159620   4.379   2.967   1.896  0.9059 -0.9953  0.7680
17758SOL    HW259621   4.389   3.076   2.001 -0.3419 -1.5985  1.5435
17759SOL     OW59622   0.278   1.979   3.135  0.1081  0.4606 -0.3779
17759SOL    HW159623   0.207   2.043   3.125 -0.1784  0.2069  0.0204
17759SOL    HW259624   0.272   1.925   3.056  0.7975  1.3545 -1.0602
17760SOL     OW59625   1.674   2.970   6.119  0.0572  0.0050 -0.4312
17760SOL    HW159626   1.737   3.037   6.095 -0.6744  0.5984 -0.7557
17760SOL    HW259627   1.721   2.887   6.111  0.2015  0.2518 -2.7709
17761SOL     OW59628   0.712   3.313   5.298 -0.1241  0.4843  0.6836
17761SOL    HW159629   0.642   3.247   5.299  0.5000 -0.2336 -0.5144
17761SOL    HW259630   0.668   3.393   5.269 -0.5479  0.1599  0.4073
17762SOL     OW59631   2.996   0.069   5.947  0.5480  0.0101 -0.6977
17762SOL    HW159632   3.037   0.088   5.862 -1.1646  2.1853 -1.1045
17762SOL    HW259633   3.030   0.137   6.005 -1.7520  1.3791 -0.8535
17763SOL     OW59634   8.431   2.962   5.117  0.2798  0.7393  0.2959
17763SOL    HW159635   8.487   2.895   5.078 -0.8833  0.7233 -1.4275
17763SOL    HW259636   8.486   3.040   5.122  0.9742  0.2559  0.2625
17764SOL     OW59637   2.016   2.852   2.043 -0.3564  0.1834  0.2764
17764SOL    HW159638   1.979   2.885   1.961  0.6763  0.1487 -0.2135
17764SOL    HW259639   1.980   2.909   2.110  2.0648  2.9997 -0.5953
17765SOL     OW59640   5.046   6.838   6.519  0.1107  0.2230  0.7775
17765SOL    HW159641   5.051   6.745   6.543  0.9415 -0.7180 -2.5208
17765SOL    HW259642   4.962   6.867   6.554 -0.8379 -2.1700  0.7072
17766SOL     OW59643   4.035   3.238   7.669  0.3644 -0.4332  0.3280
17766SOL    HW159644   4.085   3.250   7.749  1.9510  0.9975 -0.8248
17766SOL    HW259645   4.063   3.152   7.636  0.7224 -0.4158  0.5864
17767SOL     OW59646   8.120   2.780   1.504 -0.2254 -1.0148 -0.1164
17767SOL    HW159647   8.108   2.796   1.410  1.1467  0.6172 -0.0774
17767SOL    HW259648   8.080   2.856   1.546  0.3744 -1.0567  0.5413
17768SOL     OW59649   5.434   0.322   2.037  0.0614  0.2548 -0.1655
17768SOL    HW159650   5.350   0.305   1.994 -0.3102 -0.2110  0.7321
17768SOL    HW259651   5.437   0.417   2.046  0.3193  0.3978 -1.5539
17769SOL     OW59652   3.749   8.650   4.950  0.0160  0.7096 -0.5602
17769SOL    HW159653   3.665   8.687   4.926 -0.0909  2.3986  2.0212
17769SOL    HW259654   3.728   8.577   5.008  0.3355 -1.3078 -2.8121
17770SOL     OW59655   4.650   5.490   0.789  0.3994  0.4613  0.7159
17770SOL    HW159656   4.633   5.552   0.860  1.4263  0.9613  0.5403
17770SOL    HW259657   4.670   5.545   0.713 -2.2094 -0.0146 -0.4250
17771SOL     OW59658   3.935   3.798   4.831  0.4586 -0.0674 -0.9051
17771SOL    HW159659   3.910   3.749   4.753 -0.3074  0.1015 -0.7697
17771SOL    HW259660   3.853   3.810   4.879  0.5732  1.5999 -1.0760
17772SOL     OW59661   3.206   1.842   0.466  0.0377 -0.1963  0.5114
17772SOL    HW159662   3.207   1.840   0.562 -1.2948  0.2214  0.5553
17772SOL    HW259663   3.277   1.902   0.442  0.0120  0.1475  1.2666
17773SOL     OW59664   7.969   0.110   0.709  0.3529  0.0979  0.0310
17773SOL    HW159665   7.934   0.055   0.639 -1.7162 -0.8088  1.6631
17773SOL    HW259666   8.054   0.072   0.729 -0.1608 -1.2609 -0.2627
17774SOL     OW59667   8.856   1.436   0.514 -0.0463 -0.0678  0.6866
17774SOL    HW159668   8.928   1.380   0.485 -0.0552  0.1672  0.1971
17774SOL    HW259669   8.796   1.377   0.558  0.8409 -0.1417  1.8477
17775SOL     OW59670   3.732   8.949   5.033 -0.1951 -0.4098 -0.3744
17775SOL    HW159671   3.645   8.988   5.021 -1.1052 -2.5275 -1.0305
17775SOL    HW259672   3.769   8.943   4.945 -0.0745 -1.0065 -0.2889
17776SOL     OW59673   5.100   3.437   6.577 -0.2988  0.6721 -0.2305
17776SOL    HW159674   5.143   3.438   6.663  0.0405  0.9348 -0.4013
17776SOL    HW259675   5.170   3.414   6.516 -0.7466 -0.4758 -0.3287
17777SOL     OW59676   6.491   3.764   5.973  0.5435 -0.1203  0.5673
17777SOL    HW159677   6.585   3.781   5.969  0.0139  3.3831 -1.1974
17777SOL    HW259678   6.461   3.811   6.051  0.0574  0.2672  0.1589
17778SOL     OW59679   4.204   8.964   4.634  0.0610  0.4840 -0.4368
17778SOL    HW159680   4.236   8.998   4.718 -0.1896  0.3912 -0.3016
17778SOL    HW259681   4.231   9.030   4.570  0.3261  0.5166 -0.2960
17779SOL     OW59682   3.608   5.354   5.563 -0.7811 -0.2343  0.1452
17779SOL    HW159683   3.656   5.319   5.488 -0.2737 -1.8144  1.1485
17779SOL    HW259684   3.584   5.276   5.614  0.1030  0.8611  2.3432
17780SOL     OW59685   3.342   0.222   0.817 -0.0110 -0.2689 -0.0068
17780SOL    HW159686   3.299   0.147   0.776 -0.1858 -0.9261  1.3408
17780SOL    HW259687   3.430   0.190   0.839 -0.0199 -0.0198  0.3988
17781SOL     OW59688   3.126   3.388   8.640 -0.1687  0.5278  0.1743
17781SOL    HW159689   3.188   3.362   8.572 -0.1726  2.0101 -0.4125
17781SOL    HW259690   3.046   3.412   8.594 -0.3867  0.9311  0.7421
17782SOL     OW59691   0.007   5.886   4.236 -0.4320  0.1740  0.6636
17782SOL    HW159692  -0.052   5.910   4.308 -2.1697 -1.1017 -0.2879
17782SOL    HW259693   0.087   5.856   4.280 -0.3613  2.0661  1.9720
17783SOL     OW59694   4.864   0.783   7.441  0.0099 -0.4767  0.5734
17783SOL    HW159695   4.788   0.819   7.396  0.8178  1.8463  0.9493
17783SOL    HW259696   4.840   0.784   7.534 -0.3523 -1.9855  0.5211
17784SOL     OW59697   6.959   1.349   0.334  0.1412  0.5797  0.4278
17784SOL    HW159698   7.022   1.278   0.343  1.4190  1.2090 -2.3584
17784SOL    HW259699   6.897   1.319   0.268  0.6994  1.9433 -0.7995
17785SOL     OW59700   4.685   6.289   0.635  0.2227  0.8900  0.0089
17785SOL    HW159701   4.697   6.259   0.545 -0.0261 -0.8661  0.5217
17785SOL    HW259702   4.629   6.366   0.627 -2.5874 -1.1137 -1.1875
17786SOL     OW59703   6.095   8.397   7.218  0.0253  0.5591  0.3525
17786SOL    HW159704   6.026   8.407   7.283 -0.0514 -0.2381  0.4125
17786SOL    HW259705   6.171   8.440   7.256 -0.1583  0.5440  0.7449
17787SOL     OW59706   4.604   1.470   5.503  0.1691  0.0832 -0.3136
17787SOL    HW159707   4.647   1.456   5.419 -1.2792 -0.7435 -0.9562
17787SOL    HW259708   4.537   1.536   5.485  0.6731  0.8320  0.4965
17788SOL     OW59709   2.840   4.918   1.087 -0.1859 -0.0094 -0.6949
17788SOL    HW159710   2.881   4.994   1.045 -0.3600  0.4842  0.0068
17788SOL    HW259711   2.748   4.924   1.063 -0.9066  1.9445  2.0266
17789SOL     OW59712   8.551   2.798   1.202 -0.2272  0.6145 -0.3857
17789SOL    HW159713   8.480   2.819   1.142  0.0334  1.3127 -0.4628
17789SOL    HW259714   8.510   2.794   1.288 -0.2409  1.7336 -0.3335
17790SOL     OW59715   6.645   3.138   3.997 -0.1126 -0.4371  0.4159
17790SOL    HW159716   6.576   3.155   3.933 -0.5708  0.4012  1.1076
17790SOL    HW259717   6.660   3.223   4.040  2.7290 -0.1077 -1.0138
17791SOL     OW59718   7.686   1.784   6.815 -0.3303  0.2192  0.8849
17791SOL    HW159719   7.714   1.728   6.742 -0.8160 -0.5121  1.2440
17791SOL    HW259720   7.628   1.848   6.775  0.3939  0.6026  0.4320
17792SOL     OW59721   8.899   2.674   7.648  0.5828  0.5367 -0.1679
17792SOL    HW159722   8.935   2.744   7.702 -1.1199  0.4115  1.2287
17792SOL    HW259723   8.961   2.602   7.657  1.5925  1.3556 -0.4227
17793SOL     OW59724   9.231   4.237   2.931  0.3185  0.5967  0.0453
17793SOL    HW159725   9.179   4.275   3.002  2.0635  0.7250  1.3256
17793SOL    HW259726   9.308   4.293   2.925  0.3795  0.3865 -1.7650
17794SOL     OW59727   9.092   5.807   8.949 -0.2535 -0.5172 -0.1093
17794SOL    HW159728   9.128   5.838   9.032 -1.5891 -0.8969  0.6465
17794SOL    HW259729   9.163   5.819   8.886  0.4229  0.8122  0.8549
17795SOL     OW59730   8.026   6.682   4.178 -0.2350  0.2814  0.6594
17795SOL    HW159731   8.043   6.703   4.087  1.5403 -0.1870  0.8406
17795SOL    HW259732   7.932   6.660   4.181 -0.9249  2.7464 -0.5200
17796SOL     OW59733   7.164   2.574   4.501 -0.5408 -0.1978  0.1140
17796SOL    HW159734   7.083   2.551   4.546 -0.5435  1.1908  0.8788
17796SOL    HW259735   7.216   2.621   4.566  0.6074 -0.4847 -0.5573
17797SOL     OW59736   5.476   0.762   4.873  0.0596  0.1959 -0.3859
17797SOL    HW159737   5.472   0.711   4.793 -1.3411  0.9042 -0.8126
17797SOL    HW259738   5.535   0.714   4.930 -1.8021 -2.3636 -0.4448
17798SOL     OW59739   8.697   3.988   4.725  0.6902  0.8649 -0.0903
17798SOL    HW159740   8.657   3.903   4.744  1.7256 -0.0068 -1.6109
17798SOL    HW259741   8.652   4.018   4.646  2.0873  0.4776 -1.0704
17799SOL     OW59742   7.942   6.941   8.718  0.4218  0.1991  0.0537
17799SOL    HW159743   7.938   7.009   8.785 -1.8034 -0.1430  0.3500
17799SOL    HW259744   7.914   6.986   8.638  0.5597  0.0021 -0.1059
17800SOL     OW59745   8.386   5.406   7.575  0.0946  0.3234  0.0056
17800SOL    HW159746   8.433   5.417   7.493 -0.5932 -0.7030 -0.5418
17800SOL    HW259747   8.392   5.312   7.594 -1.0961  0.2883  0.2945
17801SOL     OW59748   4.039   0.295   1.352  0.3085  0.4061 -0.5965
17801SOL    HW159749   3.997   0.307   1.267 -0.9826  0.9599  0.1001
17801SOL    HW259750   4.131   0.278   1.331  0.1298  1.1390 -2.0779
17802SOL     OW59751   1.360   3.897   0.525  0.1078 -0.1403  0.4665
17802SOL    HW159752   1.306   3.976   0.534  1.9246  1.1173  0.8523
17802SOL    HW259753   1.438   3.915   0.576 -0.1640 -2.9618  2.0661
17803SOL     OW59754   8.786   7.431   3.550  0.4767  0.1752  0.3427
17803SOL    HW159755   8.719   7.399   3.490  1.0607 -0.4324 -0.0048
17803SOL    HW259756   8.846   7.480   3.495  1.1197 -0.5435  0.3845
17804SOL     OW59757   6.776   1.797   8.490 -0.3204 -0.1784  0.4481
17804SOL    HW159758   6.680   1.803   8.482 -0.5133 -0.1639  2.3956
17804SOL    HW259759   6.796   1.710   8.455 -0.9165  0.1144 -0.7151
17805SOL     OW59760   8.525   8.285   8.116  0.6378 -0.4237 -0.5516
17805SOL    HW159761   8.576   8.248   8.188  2.1594 -0.2949 -1.5179
17805SOL    HW259762   8.447   8.323   8.158  1.1318 -0.9833  0.9229
17806SOL     OW59763   6.333   4.743   8.235 -0.1430  0.0481 -0.1469
17806SOL    HW159764   6.412   4.798   8.228 -0.5509  0.4664 -1.9000
17806SOL    HW259765   6.353   4.666   8.181 -1.3166  0.6840 -1.5588
17807SOL     OW59766   8.997   2.023   0.506  0.1710  0.4790  0.7780
17807SOL    HW159767   9.007   1.974   0.588 -0.0249 -2.3637 -0.7714
17807SOL    HW259768   9.080   2.012   0.460 -0.7902 -0.7892 -0.7637
17808SOL     OW59769   2.121   1.687   1.958  0.0921 -0.0127 -0.9748
17808SOL    HW159770   2.113   1.763   2.016 -3.4050  0.0566 -1.3763
17808SOL    HW259771   2.139   1.725   1.872  0.2010  0.2024 -0.8590
17809SOL     OW59772   7.129   0.091   3.316 -0.6618  0.3240 -0.3431
17809SOL    HW159773   7.142   0.011   3.266 -0.6784 -0.3796  0.7453
17809SOL    HW259774   7.167   0.160   3.261  0.9541 -0.6707 -0.5291
17810SOL     OW59775   6.819   6.493   8.862 -0.0618  0.1415 -0.9603
17810SOL    HW159776   6.901   6.531   8.893 -0.0910  0.1797 -0.9308
17810SOL    HW259777   6.753   6.560   8.879 -0.4720 -0.6801  0.9376
17811SOL     OW59778   4.159   9.046   1.831 -0.0306 -0.2770  0.4987
17811SOL    HW159779   4.092   8.995   1.877 -0.1499  0.3428  1.0382
17811SOL    HW259780   4.117   9.131   1.816  0.2516 -0.2532 -0.1577
17812SOL     OW59781   0.676   8.445   6.466  0.0987  0.1076  0.5955
17812SOL    HW159782   0.619   8.445   6.543 -1.1030 -1.2083 -0.2386
17812SOL    HW259783   0.761   8.415   6.498  0.2405  1.6148  1.7677
17813SOL     OW59784   6.557   7.644   2.926  0.0190  0.9406  0.7045
17813SOL    HW159785   6.480   7.671   2.876 -0.6373  0.0501  1.1940
17813SOL    HW259786   6.614   7.602   2.861 -0.6779  0.0913  0.6185
17814SOL     OW59787   2.110   7.867   8.440  0.4567  0.1486  0.0929
17814SOL    HW159788   2.127   7.922   8.364  0.2439  0.9520  0.6157
17814SOL    HW259789   2.053   7.798   8.406  0.6163  0.3174 -0.5437
17815SOL     OW59790   2.615   6.549   2.828 -0.3935 -0.5024 -0.3971
17815SOL    HW159791   2.543   6.493   2.860 -0.4061 -0.2317  0.0552
17815SOL    HW259792   2.642   6.598   2.905  1.0971 -1.4721 -0.2691
17816SOL     OW59793   8.551   2.786   7.161 -0.2532 -0.0300 -0.0492
17816SOL    HW159794   8.624   2.846   7.176 -0.9516  0.7875  0.1802
17816SOL    HW259795   8.546   2.734   7.241 -0.5438  0.5962  0.3484
17817SOL     OW59796   7.541   7.154   4.492 -0.3986 -0.1204  0.1225
17817SOL    HW159797   7.566   7.080   4.547 -1.7026 -0.4192  0.3492
17817SOL    HW259798   7.473   7.199   4.542 -2.3185 -0.9347 -1.5852
17818SOL     OW59799   3.453   4.750   8.656 -0.3530 -0.3421  0.0406
17818SOL    HW159800   3.383   4.786   8.601  0.8407  0.9907 -0.6773
17818SOL    HW259801   3.478   4.822   8.714  0.8790 -0.5515 -0.1959
17819SOL     OW59802   4.585   1.137   7.073 -0.2434  0.0190 -0.0681
17819SOL    HW159803   4.569   1.048   7.041  1.7152 -0.7912  1.0316
17819SOL    HW259804   4.576   1.130   7.168  0.0235  0.9688  0.0313
17820SOL     OW59805   0.849   9.212   6.481 -0.7705 -0.3025 -0.2272
17820SOL    HW159806   0.765   9.168   6.496 -0.4087 -0.4893  1.4799
17820SOL    HW259807   0.911   9.164   6.536  0.4623 -0.1208 -1.3976
17821SOL     OW59808   6.189   7.744   0.549 -0.1868  0.0989 -0.1083
17821SOL    HW159809   6.279   7.716   0.566 -0.6855 -0.8914  1.0469
17821SOL    HW259810   6.191   7.839   0.561  0.6409  0.0477  0.2208
17822SOL     OW59811   6.345   1.264   5.690 -0.3615  0.2364 -0.0597
17822SOL    HW159812   6.259   1.301   5.712 -0.8878 -1.2409  0.5180
17822SOL    HW259813   6.324   1.186   5.638  0.7078  0.7211 -1.2705
17823SOL     OW59814   6.304   1.406   2.485  0.1290  0.4724  0.3740
17823SOL    HW159815   6.209   1.394   2.482  0.3026 -1.0389 -0.0411
17823SOL    HW259816   6.340   1.321   2.457  1.5882  1.4080 -0.7446
17824SOL     OW59817   8.756   5.171   2.466  0.1837 -0.2203  0.4680
17824SOL    HW159818   8.728   5.127   2.386  2.0427  1.3271 -1.1501
17824SOL    HW259819   8.844   5.139   2.482  0.1296  0.0906  1.4538
17825SOL     OW59820   3.338   6.166   6.541  0.0210  0.1967  0.0153
17825SOL    HW159821   3.374   6.215   6.467  0.5904 -0.1285  0.0702
17825SOL    HW259822   3.336   6.228   6.613 -1.5769  0.8416 -0.5428
17826SOL     OW59823   2.006   7.587   2.157 -0.4663 -0.1264 -0.1472
17826SOL    HW159824   2.025   7.544   2.241  0.2459 -0.6449 -0.5583
17826SOL    HW259825   1.910   7.591   2.153 -0.5046 -0.0602  0.7043
17827SOL     OW59826   8.545   1.974   3.830 -0.0361 -0.2393 -0.0897
17827SOL    HW159827   8.573   1.884   3.819 -1.1923 -0.4638 -1.6645
17827SOL    HW259828   8.464   1.968   3.881 -0.2838 -0.1327 -0.4647
17828SOL     OW59829   5.389   0.003   0.126 -0.0088  0.3656 -0.5157
17828SOL    HW159830   5.480   0.020   0.100  0.9666  0.8534  2.8127
17828SOL    HW259831   5.395  -0.029   0.215 -3.0483 -1.5031 -0.8561
17829SOL     OW59832   3.817   0.225   7.317  0.1243 -0.0387  0.1464
17829SOL    HW159833   3.783   0.280   7.247  1.2830 -0.7210 -0.9953
17829SOL    HW259834   3.909   0.249   7.325  0.4055 -1.0983  0.3040
17830SOL     OW59835   6.534   6.624   4.703 -0.6408  0.0142 -0.5864
17830SOL    HW159836   6.598   6.650   4.768 -0.2826 -0.4131 -0.7626
17830SOL    HW259837   6.449   6.635   4.746 -0.3994 -0.4292  0.0100
17831SOL     OW59838   8.967   1.833   2.769 -0.6683  0.7529 -0.1165
17831SOL    HW159839   8.997   1.834   2.860  1.0964  1.1013 -0.6637
17831SOL    HW259840   8.911   1.756   2.764 -0.2323  0.3244  1.1041
17832SOL     OW59841   0.877   7.396   5.704  0.6035 -0.1568 -0.0163
17832SOL    HW159842   0.878   7.300   5.699  0.3015 -0.1076 -1.4613
17832SOL    HW259843   0.858   7.424   5.614 -0.6494  1.2316  0.6359
17833SOL     OW59844   3.223   7.375   5.288  0.1610  0.2045  0.1684
17833SOL    HW159845   3.142   7.381   5.338  2.1744  2.8925  3.5018
17833SOL    HW259846   3.249   7.466   5.274  1.2690 -0.4934 -3.4008
17834SOL     OW59847   3.806   5.546   4.586 -0.0739 -0.3361  0.3894
17834SOL    HW159848   3.832   5.599   4.510 -1.7668 -2.2286 -1.6545
17834SOL    HW259849   3.795   5.609   4.657 -2.1861  2.1787 -1.9438
17835SOL     OW59850   3.286   1.534   0.633 -0.5929  0.2778  0.0323
17835SOL    HW159851   3.258   1.598   0.699 -0.4757 -0.4647  0.8239
17835SOL    HW259852   3.207   1.485   0.613 -0.4902  0.0836  0.0997
17836SOL     OW59853   7.910   7.267   5.991  0.7410  0.2474 -0.2309
17836SOL    HW159854   7.867   7.290   5.909  0.4761 -0.3246 -0.2604
17836SOL    HW259855   7.974   7.337   6.005  1.2544  0.0270 -1.2753
17837SOL     OW59856   7.461   3.784   0.374 -0.2911  0.2902  0.1499
17837SOL    HW159857   7.463   3.879   0.388 -0.8684  0.7417 -2.2816
17837SOL    HW259858   7.507   3.772   0.291  1.5358 -1.8330  1.3704
17838SOL     OW59859   1.395   8.994   7.659  0.3123  0.4679 -0.2482
17838SOL    HW159860   1.482   8.981   7.620 -0.0056 -0.8673 -0.5910
17838SOL    HW259861   1.412   9.023   7.748  1.0943  0.9002 -0.5283
17839SOL     OW59862   4.705   8.224   8.991 -0.3161  0.1764 -0.1850
17839SOL    HW159863   4.689   8.130   8.994 -0.4111  0.1984 -0.0089
17839SOL    HW259864   4.672   8.251   8.905 -0.8900  0.1627  0.0316
17840SOL     OW59865   3.383   1.251   2.022 -0.3818  0.4736  0.4637
17840SOL    HW159866   3.388   1.341   2.054 -1.7090  0.4159  0.8815
17840SOL    HW259867   3.290   1.229   2.026 -0.2838 -0.3811 -1.1325
17841SOL     OW59868   3.857   8.591   3.408  0.0001 -0.2607 -0.1918
17841SOL    HW159869   3.929   8.570   3.348 -0.3739 -1.2019 -0.3153
17841SOL    HW259870   3.887   8.670   3.453  2.3683 -2.0982  1.7463
17842SOL     OW59871   6.065   6.842   8.826  0.0958 -0.0828  0.4237
17842SOL    HW159872   6.106   6.919   8.865 -2.6234  0.6775  2.0987
17842SOL    HW259873   6.128   6.772   8.840  1.9166  1.4611  0.4201
17843SOL     OW59874   0.852   3.515   1.423  0.5841 -0.7023 -0.5208
17843SOL    HW159875   0.808   3.580   1.368  0.4286 -1.3246 -1.1478
17843SOL    HW259876   0.880   3.447   1.362 -0.5141 -1.9187  0.2805
17844SOL     OW59877   4.821   7.729   6.101  0.3050  0.4088  0.0091
17844SOL    HW159878   4.776   7.648   6.122  0.7082  0.2889  0.4240
17844SOL    HW259879   4.758   7.798   6.122  0.3711  0.2500  0.7399
17845SOL     OW59880   1.575   2.125   4.736 -0.5980 -0.1784  0.2046
17845SOL    HW159881   1.570   2.219   4.721 -1.0643 -0.2185  0.1014
17845SOL    HW259882   1.542   2.114   4.826 -0.2998 -0.2175  0.3107
17846SOL     OW59883   2.271   7.840   3.272  0.3266  0.6495  0.4212
17846SOL    HW159884   2.187   7.865   3.313 -0.6375 -1.5254 -0.0920
17846SOL    HW259885   2.274   7.891   3.191 -1.0520 -0.0034 -0.0793
17847SOL     OW59886   0.086   8.594   6.101  0.0286 -0.4339  0.0625
17847SOL    HW159887   0.146   8.524   6.128  0.6771 -0.3970 -1.1838
17847SOL    HW259888   0.137   8.645   6.038 -1.2176 -0.2109 -0.7874
17848SOL     OW59889   8.008   5.775   8.893  0.3380 -0.3273  0.7807
17848SOL    HW159890   8.021   5.721   8.971  0.5357 -0.2740  0.7833
17848SOL    HW259891   8.093   5.776   8.849 -0.0925 -1.4468 -0.1335
17849SOL     OW59892   5.922   6.335   8.429  0.2711 -0.7092 -0.3553
17849SOL    HW159893   6.000   6.361   8.380 -0.8647  1.3578 -1.1986
17849SOL    HW259894   5.913   6.402   8.498 -1.2264 -0.3561 -0.8425
17850SOL     OW59895   3.691   3.957   8.632  0.1560  0.5851 -0.3582
17850SOL    HW159896   3.779   3.926   8.610  0.5672  0.2869  1.5979
17850SOL    HW259897   3.705   4.030   8.691 -0.9204  0.6538 -0.1745
17851SOL     OW59898   3.277   4.214   1.076  0.1179 -0.1626  0.2848
17851SOL    HW159899   3.313   4.173   0.998  2.2777  2.4907 -0.2701
17851SOL    HW259900   3.185   4.231   1.053  0.8667  1.2365 -2.0907
17852SOL     OW59901   0.411   6.001   7.663  0.5840  0.2607  0.5067
17852SOL    HW159902   0.480   6.059   7.630  0.7642 -0.9547 -1.3914
17852SOL    HW259903   0.412   5.926   7.603 -0.6294 -1.0233  2.0112
17853SOL     OW59904   0.319   8.730   5.994  0.0764 -0.0568 -0.7469
17853SOL    HW159905   0.318   8.737   5.898  0.5058 -1.2262 -0.8558
17853SOL    HW259906   0.405   8.693   6.014  0.4647  1.2607  0.1996
17854SOL     OW59907   0.553   2.639   3.384  0.3211 -0.0962 -0.0765
17854SOL    HW159908   0.552   2.735   3.375  0.6266  0.0954  1.5219
17854SOL    HW259909   0.463   2.617   3.406  0.5227  0.0106  0.9184
17855SOL     OW59910   0.095   3.545   6.949 -0.2562 -0.9587 -0.5687
17855SOL    HW159911   0.154   3.601   7.000 -0.3573 -1.6194  0.3103
17855SOL    HW259912   0.133   3.544   6.861 -0.6707  1.0632 -0.8113
17856SOL     OW59913   1.758   6.838   7.716  0.1049  0.2864  0.0210
17856SOL    HW159914   1.848   6.834   7.685 -0.2811  2.0269 -1.5495
17856SOL    HW259915   1.765   6.842   7.811  1.8081  1.7609 -0.1090
17857SOL     OW59916   4.349   2.223   0.532 -0.7795  0.4500  0.0194
17857SOL    HW159917   4.272   2.231   0.589 -0.6460  1.5511  0.0698
17857SOL    HW259918   4.415   2.182   0.588 -1.4210 -0.8486 -0.1320
17858SOL     OW59919   3.712   5.859   6.982 -0.2661  0.0042 -0.0589
17858SOL    HW159920   3.714   5.937   7.037  0.7831 -0.4363  0.5631
17858SOL    HW259921   3.733   5.787   7.042 -1.9626 -0.8760 -0.4566
17859SOL     OW59922   7.545   3.168   0.531  0.3991  0.2056 -0.3073
17859SOL    HW159923   7.451   3.188   0.532  0.6210  1.4524 -1.3645
17859SOL    HW259924   7.570   3.177   0.439  1.5019 -0.3948 -0.0764
17860SOL     OW59925   9.187   6.187   4.117  0.3540 -0.3367  0.3369
17860SOL    HW159926   9.258   6.241   4.082 -0.6474  2.2375  1.9911
17860SOL    HW259927   9.225   6.142   4.193  1.0606 -1.6986 -0.7709
17861SOL     OW59928   4.697   6.040   6.848 -0.3360  0.7644  0.2215
17861SOL    HW159929   4.636   6.084   6.789  0.9084  1.4056 -0.6326
17861SOL    HW259930   4.672   5.947   6.844  0.1063  0.6791 -1.8469
17862SOL     OW59931   1.256   8.311   2.202  0.1672 -0.2903  0.1251
17862SOL    HW159932   1.196   8.240   2.225  0.5443 -0.2594  1.2699
17862SOL    HW259933   1.199   8.380   2.168 -0.2884 -0.8208 -0.2077
17863SOL     OW59934   0.858   1.534   1.431  0.7597 -0.2650 -0.0882
17863SOL    HW159935   0.896   1.588   1.501  1.4897 -0.1857 -0.5385
17863SOL    HW259936   0.835   1.452   1.474 -2.6621  1.1978  1.1991
17864SOL     OW59937   3.730   0.300   0.130  0.0889 -0.2460 -0.6544
17864SOL    HW159938   3.648   0.341   0.102 -1.1700 -1.4652  1.0333
17864SOL    HW259939   3.776   0.369   0.177 -1.4045 -0.3131  1.0204
17865SOL     OW59940   0.501   1.453   2.360 -0.5659  0.3197 -0.4526
17865SOL    HW159941   0.417   1.500   2.353 -1.5136 -1.1998  0.1799
17865SOL    HW259942   0.476   1.360   2.366  1.2196 -0.2879 -1.4987
17866SOL     OW59943   7.138   8.379   2.016  0.4414  0.3226  0.6919
17866SOL    HW159944   7.101   8.394   2.103  2.9004 -1.3405  2.1417
17866SOL    HW259945   7.153   8.467   1.980 -1.6307  1.0273  1.4317
17867SOL     OW59946   0.067   8.488   8.095  0.1251 -0.1562 -0.8264
17867SOL    HW159947   0.046   8.498   8.188 -0.7240  0.4821 -1.0809
17867SOL    HW259948   0.015   8.554   8.051  1.0416  0.0154 -1.7009
17868SOL     OW59949   1.812   2.634   4.354 -0.8195 -0.2960  0.1768
17868SOL    HW159950   1.889   2.684   4.327 -0.5845 -0.5241  0.4158
17868SOL    HW259951   1.757   2.630   4.275 -0.5281 -0.2394 -0.0317
17869SOL     OW59952   6.093   7.855   5.505  0.1204 -0.0772  0.2783
17869SOL    HW159953   6.116   7.823   5.418 -0.4930  1.1501 -0.3448
17869SOL    HW259954   6.171   7.903   5.534  0.0685  0.1034  0.1184
17870SOL     OW59955   8.413   5.840   4.286  0.3193  0.3640 -0.2361
17870SOL    HW159956   8.320   5.822   4.299  0.5393 -1.1220 -0.5319
17870SOL    HW259957   8.419   5.880   4.199  0.0190 -0.2045 -0.5231
17871SOL     OW59958   3.967   1.333   3.027 -0.0226  0.3182  0.1905
17871SOL    HW159959   3.872   1.325   3.023 -0.1505  1.7984 -0.2299
17871SOL    HW259960   3.996   1.252   3.069 -1.3582 -0.7252 -0.8233
17872SOL     OW59961   2.933   8.672   7.798  0.0258 -0.5274  0.1817
17872SOL    HW159962   3.027   8.663   7.788  0.1078  1.1848 -0.9047
17872SOL    HW259963   2.897   8.592   7.759  0.9952 -1.0702  0.3607
17873SOL     OW59964   7.111   6.255   4.155  0.1177 -0.1698 -0.0787
17873SOL    HW159965   7.168   6.317   4.111 -1.0934 -0.0597 -1.5804
17873SOL    HW259966   7.022   6.286   4.135 -0.4814 -1.2500  0.8114
17874SOL     OW59967   0.931   6.471   5.525  0.0245  0.2021  0.0075
17874SOL    HW159968   1.022   6.479   5.496 -0.5091 -0.6977 -2.0879
17874SOL    HW259969   0.937   6.429   5.611  1.5520 -0.7090 -0.5099
17875SOL     OW59970   5.894   4.610   6.333  0.0755 -0.3874  0.0380
17875SOL    HW159971   5.893   4.705   6.324  0.0371 -0.4755 -1.0329
17875SOL    HW259972   5.905   4.578   6.244  0.8488 -1.3780  0.4719
17876SOL     OW59973   9.117   0.333   1.607 -0.0660  0.1714  0.6834
17876SOL    HW159974   9.140   0.271   1.538  2.9159 -2.2166  3.5317
17876SOL    HW259975   9.033   0.302   1.640 -0.1073 -0.4084  0.0561
17877SOL     OW59976   4.145   0.758   0.224  0.3469  0.5689 -0.3884
17877SOL    HW159977   4.084   0.734   0.155 -1.4606  0.6080  1.1069
17877SOL    HW259978   4.122   0.849   0.245  0.7226  0.4925  0.3767
17878SOL     OW59979   5.847   8.170   0.054 -0.3652  0.0827  0.0886
17878SOL    HW159980   5.889   8.134   0.132  0.7203  0.8568 -0.1216
17878SOL    HW259981   5.878   8.261   0.049 -0.6869  0.1486 -1.0587
17879SOL     OW59982   5.638   2.185   6.220 -0.5143  0.4067 -0.2579
17879SOL    HW159983   5.640   2.225   6.307 -0.2090  0.0019 -0.0712
17879SOL    HW259984   5.558   2.133   6.219 -0.4421  0.2918 -0.1582
17880SOL     OW59985   5.130   4.866   8.954 -0.6316 -0.0477 -0.5679
17880SOL    HW159986   5.174   4.945   8.923  1.3650 -1.0362 -0.3862
17880SOL    HW259987   5.072   4.841   8.882  0.8181  0.0289 -1.8159
17881SOL     OW59988   2.945   7.480   2.954  0.6379 -0.2457  0.5903
17881SOL    HW159989   2.929   7.560   3.005  2.0835 -0.1578  0.9457
17881SOL    HW259990   2.940   7.410   3.019 -1.0116 -0.5144  0.2125
17882SOL     OW59991   1.773   2.314   0.221 -0.2646 -0.1147  0.1284
17882SOL    HW159992   1.706   2.362   0.268  0.5916  1.8151 -0.5385
17882SOL    HW259993   1.734   2.227   0.206 -2.7807  1.0331 -0.5627
17883SOL     OW59994   6.138   0.795   5.236 -0.1953  0.0424  0.2527
17883SOL    HW159995   6.228   0.762   5.241 -0.0590  0.3457 -0.1725
17883SOL    HW259996   6.145   0.876   5.186 -0.7888 -0.2278 -0.2768
17884SOL     OW59997   6.777   1.798   0.482  0.8397 -0.0883  0.4569
17884SOL    HW159998   6.726   1.787   0.402  0.3888 -1.5425  0.8987
17884SOL    HW259999   6.859   1.751   0.466  1.4680  1.0249  0.2722
17885SOL     OW60000   7.093   6.130   7.662 -0.0451 -0.2759 -0.0578
17885SOL    HW160001   7.135   6.068   7.602 -0.0158 -1.1823  0.8699
17885SOL    HW260002   7.028   6.078   7.709  0.3833  0.2375  1.1573
17886SOL     OW60003   1.734   6.255   6.584  0.2029  0.3232  0.6240
17886SOL    HW160004   1.829   6.257   6.580  0.2420 -0.7033  0.7108
17886SOL    HW260005   1.712   6.162   6.585 -0.7464  0.5314  1.6363
17887SOL     OW60006   8.949   2.765   8.111 -0.5292 -0.0779 -0.3414
17887SOL    HW160007   8.986   2.802   8.191  0.2186  0.0011 -0.7129
17887SOL    HW260008   8.998   2.684   8.098 -1.8921 -1.0390  0.2627
17888SOL     OW60009   3.658   1.896   7.930 -0.7892  0.0601  0.0924
17888SOL    HW160010   3.744   1.869   7.963 -0.3909  2.9781  1.7689
17888SOL    HW260011   3.675   1.923   7.840  0.2087  1.0709  0.5510
17889SOL     OW60012   4.410   7.016   8.456 -0.1512  0.0314  0.2350
17889SOL    HW160013   4.489   6.976   8.490 -0.3258 -0.1115  0.4784
17889SOL    HW260014   4.353   6.943   8.434 -1.0406  0.1225  2.0317
17890SOL     OW60015   6.044   3.610   8.458 -0.1476 -0.5422 -0.6464
17890SOL    HW160016   6.019   3.525   8.423 -1.7916 -0.1868 -0.4341
17890SOL    HW260017   6.134   3.599   8.489  0.8636 -1.2908 -3.5313
17891SOL     OW60018   2.486   8.952   7.174 -0.3019  0.0163 -0.4063
17891SOL    HW160019   2.562   8.998   7.211  0.8175 -0.0036 -2.5534
17891SOL    HW260020   2.416   8.969   7.237  1.0034  1.5434  0.7478
17892SOL     OW60021   8.882   7.850   6.296  0.1277  0.2248 -0.1164
17892SOL    HW160022   8.937   7.798   6.355  0.7474  1.3039  0.3016
17892SOL    HW260023   8.902   7.941   6.319  1.1131  0.7236 -2.6039
17893SOL     OW60024   2.547   3.137   1.993  0.3025 -0.5644 -0.0328
17893SOL    HW160025   2.572   3.093   2.074 -0.6202  0.3111  0.7604
17893SOL    HW260026   2.453   3.152   2.003  0.2586 -0.0745 -1.0866
17894SOL     OW60027   9.231   0.529   5.968 -0.0516 -0.0755  0.0101
17894SOL    HW160028   9.301   0.467   5.988  1.0871  0.0650 -2.9619
17894SOL    HW260029   9.176   0.483   5.904 -0.1981  1.2998 -0.9051
17895SOL     OW60030   1.029   5.481   3.789 -0.2826  0.2255 -0.2256
17895SOL    HW160031   1.116   5.458   3.820 -0.0656  3.2532  1.8033
17895SOL    HW260032   1.044   5.547   3.721 -0.9942 -1.1778 -1.8183
17896SOL     OW60033   4.205   9.241   3.638 -0.3151  0.1866  0.3282
17896SOL    HW160034   4.168   9.283   3.716  1.6663  0.5481  1.1305
17896SOL    HW260035   4.233   9.155   3.669  1.0121  0.5519  0.1875
17897SOL     OW60036   2.083   5.501   3.078 -0.3848  0.4187  0.4914
17897SOL    HW160037   2.058   5.414   3.050  1.1801 -0.1350  0.6836
17897SOL    HW260038   2.162   5.487   3.131  0.4832  2.0109 -0.2909
17898SOL     OW60039   2.094   1.424   6.527  0.0093  0.4003 -0.0179
17898SOL    HW160040   2.043   1.414   6.447  0.5358  1.0095 -0.4332
17898SOL    HW260041   2.155   1.350   6.527 -0.0477  0.3541 -0.1301
17899SOL     OW60042   3.237   5.219   1.298  0.0445  0.4893  0.3500
17899SOL    HW160043   3.298   5.260   1.236 -2.2289 -0.5148 -2.8150
17899SOL    HW260044   3.177   5.290   1.322  0.6518  0.7661  1.1052
17900SOL     OW60045   6.544   2.430   3.710 -0.2259 -0.0593  0.3671
17900SOL    HW160046   6.629   2.471   3.718 -0.8117  1.2351  0.1590
17900SOL    HW260047   6.563   2.338   3.691  1.1679  0.7597 -2.9023
17901SOL     OW60048   6.051   1.460   4.150 -0.4976 -0.0474  0.2006
17901SOL    HW160049   6.128   1.515   4.159 -1.8879  1.9912  0.3187
17901SOL    HW260050   6.028   1.465   4.057 -1.3138  0.5931  0.4229
17902SOL     OW60051   6.902   2.754   2.192 -0.0890 -0.3822 -0.1856
17902SOL    HW160052   6.810   2.773   2.211 -0.1265  0.1919 -0.8867
17902SOL    HW260053   6.909   2.659   2.197 -0.5538 -0.3760  0.5970
17903SOL     OW60054   5.690   3.118   8.488 -0.8708 -0.1876  0.1397
17903SOL    HW160055   5.759   3.056   8.511  0.4943  1.2735  0.1352
17903SOL    HW260056   5.721   3.202   8.522 -2.1443  0.7063 -0.8226
17904SOL     OW60057   1.781   3.891   0.100  0.7042  0.4192  0.2031
17904SOL    HW160058   1.837   3.934   0.035  0.1977 -0.0582 -0.5698
17904SOL    HW260059   1.731   3.962   0.139  1.2675  0.7544  0.3193
17905SOL     OW60060   1.424   8.905   2.126 -0.1942  0.2951  0.4064
17905SOL    HW160061   1.505   8.936   2.168 -0.4390  0.1230  1.0256
17905SOL    HW260062   1.435   8.810   2.121 -1.0440  0.0746  2.0357
17906SOL     OW60063   0.863   2.160   0.087 -0.6591  0.3237  0.0312
17906SOL    HW160064   0.948   2.200   0.073 -0.4396 -0.1483 -0.0155
17906SOL    HW260065   0.881   2.084   0.143 -1.2792  1.1897  1.4530
17907SOL     OW60066   2.828   0.547   7.549  0.3378 -0.3164 -0.0971
17907SOL    HW160067   2.873   0.575   7.470 -0.6578  1.1981 -0.1699
17907SOL    HW260068   2.740   0.585   7.542 -0.4274 -1.8311  0.7937
17908SOL     OW60069   2.990   7.101   3.370 -0.3677  0.2451  0.5156
17908SOL    HW160070   3.063   7.111   3.431  0.3065 -3.6854  0.6198
17908SOL    HW260071   3.000   7.012   3.335 -3.0005  0.8906 -2.3437
17909SOL     OW60072   7.015   0.848   4.022  0.3411 -0.0807  0.9695
17909SOL    HW160073   7.037   0.815   4.109  0.7619 -0.7923  0.6064
17909SOL    HW260074   7.071   0.925   4.010  3.2783 -2.2287 -0.2009
17910SOL     OW60075   2.548   8.827   6.723 -0.2908 -0.1558  0.7081
17910SOL    HW160076   2.560   8.748   6.775  0.0111  0.8536  2.2059
17910SOL    HW260077   2.626   8.832   6.668 -0.4054 -0.9788  0.4473
17911SOL     OW60078   3.929   5.414   5.919  0.1497  0.3974 -0.1002
17911SOL    HW160079   3.858   5.350   5.913  0.1065  0.5343 -1.3875
17911SOL    HW260080   3.894   5.484   5.975 -0.3912  0.0391  0.0150
17912SOL     OW60081   0.929   2.308   4.952 -0.3282  0.0093 -0.1288
17912SOL    HW160082   1.013   2.267   4.929  0.7498  1.0101  1.7322
17912SOL    HW260083   0.863   2.254   4.910  0.9097 -4.0360  2.5678
17913SOL     OW60084   0.289   1.674   4.996 -0.6504 -0.1742 -0.1389
17913SOL    HW160085   0.278   1.635   5.082  0.8466  0.1245  0.2087
17913SOL    HW260086   0.219   1.740   4.990 -0.5896 -0.0059  0.9464
17914SOL     OW60087   0.195   2.359   3.665  0.2217  0.0214 -0.5083
17914SOL    HW160088   0.251   2.435   3.679  3.1930 -1.4952 -2.8771
17914SOL    HW260089   0.213   2.302   3.740 -0.3282  0.6879  0.1453
17915SOL     OW60090   7.672   7.767   5.936 -0.8455  0.5804  0.3343
17915SOL    HW160091   7.625   7.792   6.016 -0.2816 -0.7115  1.1068
17915SOL    HW260092   7.764   7.767   5.962 -0.5951  0.8521 -0.5281
17916SOL     OW60093   7.712   0.625   4.617  0.0710 -0.1705 -0.0137
17916SOL    HW160094   7.683   0.700   4.669 -0.5289  0.6412 -1.4539
17916SOL    HW260095   7.793   0.596   4.659 -0.2651  0.5968  1.2067
17917SOL     OW60096   5.559   3.768   1.237  0.3072 -0.9622 -0.0187
17917SOL    HW160097   5.587   3.854   1.270 -1.6605  0.5718 -2.0113
17917SOL    HW260098   5.618   3.706   1.279  1.4324  1.2872  1.9981
17918SOL     OW60099   0.868   4.866   8.663 -0.3712 -0.3231  0.4074
17918SOL    HW160100   0.914   4.930   8.716  0.0313 -0.3801  0.1279
17918SOL    HW260101   0.790   4.912   8.632 -0.1797 -0.0252  0.3634
17919SOL     OW60102   4.426   7.333   6.129 -0.5194  0.0532 -0.1462
17919SOL    HW160103   4.387   7.267   6.187 -1.8775  0.8945 -0.0505
17919SOL    HW260104   4.364   7.406   6.131 -0.7508  0.0185 -2.8752
17920SOL     OW60105   4.518   3.837   0.716 -0.0456  0.0501 -0.6173
17920SOL    HW160106   4.425   3.858   0.728 -0.5540 -1.2603 -1.9536
17920SOL    HW260107   4.540   3.780   0.789 -0.0405  1.0050  0.1561
17921SOL     OW60108   1.148   7.711   2.759  0.2235 -0.5730 -0.4168
17921SOL    HW160109   1.243   7.719   2.761  0.2758 -1.0464 -0.7117
17921SOL    HW260110   1.122   7.699   2.850  0.1987  2.0042 -0.0012
17922SOL     OW60111   0.101   1.878   7.207  0.2210 -0.1055  0.0325
17922SOL    HW160112   0.087   1.903   7.298  0.0440  0.1032 -0.0502
17922SOL    HW260113   0.095   1.782   7.207  1.4188 -0.1959  0.4371
17923SOL     OW60114   8.870   0.928   5.506 -0.1525  0.0101  0.4569
17923SOL    HW160115   8.808   0.867   5.548 -0.4383  1.4463  2.2843
17923SOL    HW260116   8.956   0.900   5.538 -0.1245 -0.3178  0.1055
17924SOL     OW60117   3.460   0.458   7.913 -0.1630 -0.2784  0.3557
17924SOL    HW160118   3.416   0.377   7.886 -1.2019  0.9036 -1.6605
17924SOL    HW260119   3.510   0.432   7.991 -1.5587 -2.5201  0.6065
17925SOL     OW60120   8.797   4.541   3.247 -0.3594  0.0212 -0.2621
17925SOL    HW160121   8.878   4.577   3.283  0.3081 -0.7860 -0.9116
17925SOL    HW260122   8.774   4.469   3.305 -0.8122  0.4593  0.1147
17926SOL     OW60123   4.889   5.828   4.421 -0.6351  0.3734 -0.4689
17926SOL    HW160124   4.906   5.901   4.361 -0.7820  1.8319  1.1749
17926SOL    HW260125   4.934   5.853   4.502  0.9410 -2.2883 -0.4042
17927SOL     OW60126   5.378   1.641   2.849 -0.0953 -0.4002 -0.4512
17927SOL    HW160127   5.350   1.732   2.839 -1.4857 -0.8374 -0.7057
17927SOL    HW260128   5.301   1.595   2.880  0.5352 -1.5394 -0.5111
17928SOL     OW60129   4.860   1.058   6.066  0.5434  0.3911 -0.3837
17928SOL    HW160130   4.809   1.075   5.986 -0.2915  0.2923  0.1132
17928SOL    HW260131   4.796   1.023   6.128  1.4680 -0.9881 -0.1573
17929SOL     OW60132   3.543   6.445   3.088  0.1572 -0.3929 -0.2972
17929SOL    HW160133   3.603   6.462   3.161  0.2534  0.2309 -0.5110
17929SOL    HW260134   3.559   6.517   3.027 -0.2056 -0.6905 -0.7515
17930SOL     OW60135   7.367   2.647   2.947 -0.7392 -0.0793  0.2017
17930SOL    HW160136   7.342   2.631   2.856  0.4381  2.0692 -0.5723
17930SOL    HW260137   7.322   2.579   2.996 -2.9022 -0.2041 -1.7698
17931SOL     OW60138   0.288   0.311   1.499 -0.1318  0.3582  0.0726
17931SOL    HW160139   0.293   0.221   1.466  0.6443  0.5983 -0.4892
17931SOL    HW260140   0.238   0.357   1.431 -1.6057  0.1096  0.9389
17932SOL     OW60141   7.518   4.075   7.859  0.3358  0.1008  0.0536
17932SOL    HW160142   7.443   4.123   7.824  0.7139  0.9804  0.4362
17932SOL    HW260143   7.500   4.067   7.952  0.6193  0.1270  0.1107
17933SOL     OW60144   6.936   6.853   1.846  0.4588 -0.1906 -0.2939
17933SOL    HW160145   6.911   6.934   1.802  1.0439 -0.2447 -0.7469
17933SOL    HW260146   7.003   6.879   1.909 -0.3087 -0.1298  0.5090
17934SOL     OW60147   7.306   3.008   4.600  0.0912 -0.2326  0.1148
17934SOL    HW160148   7.317   3.082   4.660 -0.7302 -1.1930  1.4950
17934SOL    HW260149   7.394   2.995   4.563 -0.1188  2.5701 -1.6043
17935SOL     OW60150   8.338   2.537   6.881  0.0983 -0.1046 -0.3343
17935SOL    HW160151   8.370   2.505   6.965 -0.5162 -0.4460 -0.2214
17935SOL    HW260152   8.411   2.587   6.845  0.1285  0.6362  0.7152
17936SOL     OW60153   8.969   2.421   5.304  0.0731  0.3329  0.3636
17936SOL    HW160154   8.936   2.415   5.393  0.4627  1.4405  0.6032
17936SOL    HW260155   8.891   2.423   5.249 -0.1627 -0.6838  0.6470
17937SOL     OW60156   6.781   1.887   2.658 -0.0518 -0.1546  0.7851
17937SOL    HW160157   6.755   1.978   2.644  1.7939  0.3367  0.2896
17937SOL    HW260158   6.805   1.883   2.751 -1.3049 -0.4886  1.1220
17938SOL     OW60159   5.327   3.776   8.413 -0.0110  0.0260  0.0604
17938SOL    HW160160   5.374   3.762   8.332  1.0321  3.2340 -0.0220
17938SOL    HW260161   5.235   3.778   8.387  0.3050  0.9757 -1.1038
17939SOL     OW60162   5.429   9.031   6.144  0.9509 -0.0199 -0.4231
17939SOL    HW160163   5.460   9.090   6.075  0.0868  0.4809 -0.3945
17939SOL    HW260164   5.480   9.054   6.221  2.4907 -1.1180 -1.0650
17940SOL     OW60165   7.788   3.542   1.829  0.1776  0.5765  0.4774
17940SOL    HW160166   7.817   3.451   1.828 -1.9692 -0.1766 -1.1196
17940SOL    HW260167   7.837   3.585   1.758 -1.4105 -0.3142 -1.2327
17941SOL     OW60168   0.319   1.737   3.254  0.8146 -0.3034 -0.9440
17941SOL    HW160169   0.322   1.798   3.328  0.3258  0.1579 -1.2984
17941SOL    HW260170   0.286   1.789   3.181  0.0176 -1.0748 -1.1566
17942SOL     OW60171   1.118   1.909   4.978 -0.3096  0.1072 -0.0482
17942SOL    HW160172   1.110   2.005   4.973 -1.3017  0.0339  0.0006
17942SOL    HW260173   1.187   1.887   4.915 -1.1139  0.7142 -1.1620
17943SOL     OW60174   1.988   4.786   8.466 -0.1883  0.2421  0.2987
17943SOL    HW160175   1.917   4.737   8.507  0.1984 -0.7506 -0.1803
17943SOL    HW260176   1.945   4.861   8.424 -1.1537 -1.0663 -1.1544
17944SOL     OW60177   0.256   2.303   2.888  0.6963  0.3014  0.0022
17944SOL    HW160178   0.161   2.294   2.890  0.6882  0.3087  2.0003
17944SOL    HW260179   0.279   2.329   2.978  2.2724  3.5986 -1.2002
17945SOL     OW60180   1.091   4.126   4.151 -0.3899 -0.3982 -0.0352
17945SOL    HW160181   1.125   4.215   4.137  1.1783 -0.6607  1.7513
17945SOL    HW260182   1.043   4.131   4.234 -0.2752 -1.2261  0.0911
17946SOL     OW60183   6.070   1.453   0.887 -0.2211 -0.1706 -0.5412
17946SOL    HW160184   6.039   1.500   0.809 -0.0417  0.1525 -0.4213
17946SOL    HW260185   6.062   1.517   0.958  0.2688 -0.2363 -0.4238
17947SOL     OW60186   0.646   5.616   8.006  0.3408  0.4705 -0.0759
17947SOL    HW160187   0.641   5.529   7.967 -1.2306 -0.5369  2.1292
17947SOL    HW260188   0.658   5.675   7.932  1.0600 -1.5736 -1.6755
17948SOL     OW60189   5.408   1.687   6.880  0.3531 -0.0683 -0.1523
17948SOL    HW160190   5.439   1.774   6.855 -0.5460  0.1498 -0.5478
17948SOL    HW260191   5.335   1.703   6.940 -1.7127 -0.4382 -2.4126
17949SOL     OW60192   1.544   8.666   2.045  0.4723  0.2896 -0.5117
17949SOL    HW160193   1.477   8.603   2.019  0.5183  0.0587 -0.0778
17949SOL    HW260194   1.584   8.628   2.123  0.5468  0.8240 -0.2835
17950SOL     OW60195   6.977   1.741   4.109 -0.2653  0.2562 -0.1348
17950SOL    HW160196   6.974   1.830   4.073 -0.1003 -0.6901 -2.7153
17950SOL    HW260197   7.040   1.695   4.053 -0.5585 -1.5640  0.9650
17951SOL     OW60198   2.969   2.990   2.123  0.1863 -0.0374  0.3791
17951SOL    HW160199   3.021   2.926   2.171 -1.0752 -0.1565  1.6734
17951SOL    HW260200   2.947   3.057   2.188 -0.0146  0.7857 -0.5106
17952SOL     OW60201   3.416   5.362   3.825 -0.0018  0.2755  0.3358
17952SOL    HW160202   3.447   5.273   3.838 -0.9979  0.0872  1.6959
17952SOL    HW260203   3.342   5.354   3.765  1.5959  0.5498 -1.7425
17953SOL     OW60204   0.982   1.213   0.720  0.1338  0.4228 -0.0929
17953SOL    HW160205   1.060   1.268   0.712 -1.4310  3.2799  2.3128
17953SOL    HW260206   0.972   1.198   0.814 -2.3560  0.4163 -0.2793
17954SOL     OW60207   6.957   3.576   6.275 -0.1413 -0.6263  0.1513
17954SOL    HW160208   6.864   3.591   6.289 -0.1635 -0.1807 -0.4543
17954SOL    HW260209   6.980   3.507   6.338 -0.7070 -0.2026  0.8324
17955SOL     OW60210   0.639   2.117   8.777  0.2281  0.1793  0.6263
17955SOL    HW160211   0.638   2.061   8.700  2.7405  0.3256  0.3919
17955SOL    HW260212   0.613   2.060   8.849 -1.0167 -0.2521 -0.1460
17956SOL     OW60213   1.077   8.260   8.423  0.1393  0.1909 -0.3825
17956SOL    HW160214   1.139   8.206   8.375  0.7773 -1.1504  1.8214
17956SOL    HW260215   1.125   8.288   8.501 -1.9810 -0.9899  1.4773
17957SOL     OW60216   6.316   8.689   8.699 -0.1294  0.2768 -0.7567
17957SOL    HW160217   6.346   8.740   8.625 -0.2686 -0.1109 -1.0836
17957SOL    HW260218   6.224   8.714   8.710 -0.9129 -1.5953 -2.4087
17958SOL     OW60219   4.964   5.965   5.467 -0.1942  0.0302 -0.3450
17958SOL    HW160220   4.967   6.034   5.533 -1.9805 -0.9370  0.8314
17958SOL    HW260221   4.894   5.906   5.497 -0.5179 -0.8791 -2.6959
17959SOL     OW60222   1.361   6.088   6.671  0.3270 -0.1007  0.0836
17959SOL    HW160223   1.411   6.092   6.753  1.8830 -1.3594 -0.7523
17959SOL    HW260224   1.418   6.131   6.606 -0.4829  0.0650 -0.5356
17960SOL     OW60225   4.346   6.533   3.078 -0.0606 -0.0375  0.1299
17960SOL    HW160226   4.414   6.572   3.024  0.1589 -0.3598  0.1667
17960SOL    HW260227   4.388   6.456   3.116  0.3478  1.0948  2.1105
17961SOL     OW60228   7.766   8.362   6.987 -0.0972  0.3926 -0.1945
17961SOL    HW160229   7.860   8.368   6.969  0.1687  0.8794  1.1794
17961SOL    HW260230   7.734   8.297   6.925  1.2121 -0.0422 -0.4612
17962SOL     OW60231   7.139   6.939   6.582  0.1739 -0.0653 -0.0937
17962SOL    HW160232   7.045   6.926   6.573  0.2772 -0.3614 -0.8088
17962SOL    HW260233   7.153   6.950   6.676 -0.7775  1.6844 -0.1172
17963SOL     OW60234   1.453   4.697   4.645  0.8401 -0.9457  0.3100
17963SOL    HW160235   1.445   4.620   4.702 -0.7124 -1.3306 -0.3959
17963SOL    HW260236   1.377   4.750   4.666  1.8895  0.4320  0.7820
17964SOL     OW60237   7.474   6.461   1.144  0.1959 -0.0873 -0.0566
17964SOL    HW160238   7.488   6.371   1.115 -2.9178 -1.0478  1.0512
17964SOL    HW260239   7.530   6.470   1.221  0.0621 -1.3193  0.2125
17965SOL     OW60240   5.057   6.427   6.265  0.3927  0.2320 -0.7507
17965SOL    HW160241   5.094   6.454   6.349 -1.0732  1.5923 -0.4881
17965SOL    HW260242   5.113   6.470   6.200 -0.0109  1.3739 -0.3805
17966SOL     OW60243   2.775   8.747   2.248 -0.1992 -0.0731  0.1747
17966SOL    HW160244   2.858   8.724   2.206 -0.8328 -1.0183 -0.6066
17966SOL    HW260245   2.792   8.832   2.288  1.0708 -0.1287 -0.1807
17967SOL     OW60246   4.019   3.037   5.763  0.2952  0.1324  0.1010
17967SOL    HW160247   3.964   3.006   5.835 -0.0877 -1.4120 -0.8124
17967SOL    HW260248   3.965   3.101   5.717  0.9645  2.0441  1.8087
17968SOL     OW60249   6.905   3.070   7.375 -0.0806 -0.0730  0.3510
17968SOL    HW160250   6.820   3.053   7.333 -0.9661  2.0713  1.1413
17968SOL    HW260251   6.968   3.024   7.320 -1.4454  0.5316 -1.8610
17969SOL     OW60252   2.795   4.534   1.949 -0.0995  0.4671 -0.1359
17969SOL    HW160253   2.870   4.583   1.915  1.0220 -0.1838  1.3062
17969SOL    HW260254   2.719   4.583   1.918  0.7416 -0.3979 -4.0150
17970SOL     OW60255   7.875   5.049   2.773 -0.0564 -0.2411 -0.1996
17970SOL    HW160256   7.968   5.048   2.749 -0.5784  0.1603 -2.3860
17970SOL    HW260257   7.843   5.133   2.741 -0.7244  0.6704  2.5943
17971SOL     OW60258   8.995   3.900   7.043  0.4916  0.2328  0.0383
17971SOL    HW160259   8.973   3.870   7.132 -0.2855 -1.1768 -0.6082
17971SOL    HW260260   8.926   3.963   7.021  1.0428  1.0796  0.6535
17972SOL     OW60261   3.302   4.094   3.227  0.0499  0.2999 -0.7327
17972SOL    HW160262   3.242   4.020   3.227  0.7476 -0.3030  0.7276
17972SOL    HW260263   3.323   4.109   3.134 -2.4370  0.6487 -1.2976
17973SOL     OW60264   0.366   0.772   2.837 -0.3323 -0.0964 -0.6757
17973SOL    HW160265   0.347   0.814   2.921 -2.5582  1.1654 -1.7298
17973SOL    HW260266   0.460   0.787   2.824 -0.1217  0.4697  1.1442
17974SOL     OW60267   1.784   0.825   8.240 -0.2153 -0.1417 -0.2525
17974SOL    HW160268   1.701   0.869   8.261  0.4887  0.7425  0.8211
17974SOL    HW260269   1.766   0.732   8.252 -1.3736 -0.0687 -1.2334
17975SOL     OW60270   7.089   1.113   5.250 -0.1288  0.0485  0.2276
17975SOL    HW160271   7.004   1.074   5.270 -0.9575  0.6795 -1.7768
17975SOL    HW260272   7.122   1.145   5.334 -1.2926 -1.3018  1.2357
17976SOL     OW60273   3.516   8.464   8.023  0.2760 -0.7471 -0.0171
17976SOL    HW160274   3.597   8.444   7.976 -1.4564  0.9366 -4.2094
17976SOL    HW260275   3.447   8.420   7.972 -1.8121  1.3343  0.8260
17977SOL     OW60276   3.377   4.097   8.173 -0.5086 -0.2174  0.3384
17977SOL    HW160277   3.342   4.109   8.084  1.1049 -0.4908 -0.3642
17977SOL    HW260278   3.307   4.052   8.220 -1.8709  1.0085 -0.4315
17978SOL     OW60279   8.052   7.092   7.378 -0.1710  0.4772 -0.2990
17978SOL    HW160280   8.015   7.113   7.292 -0.1748 -0.8433 -0.6436
17978SOL    HW260281   8.110   7.165   7.398  1.4175 -0.1444 -2.3710
17979SOL     OW60282   6.503   1.405   3.887 -0.1926  0.6978  0.5238
17979SOL    HW160283   6.512   1.326   3.940 -1.3274  0.7650  0.8591
17979SOL    HW260284   6.574   1.400   3.823  0.6503  0.1621  1.4790
17980SOL     OW60285   0.152   7.001   0.828  0.4091 -0.4694 -0.1522
17980SOL    HW160286   0.160   7.068   0.897  0.0194  0.6451 -1.1467
17980SOL    HW260287   0.232   7.010   0.777 -0.1532  0.0346 -0.9640
17981SOL     OW60288   7.299   8.527   3.343 -0.2783  0.1826  0.3442
17981SOL    HW160289   7.220   8.548   3.394  0.3426 -0.1945  1.4932
17981SOL    HW260290   7.328   8.443   3.378 -0.2511 -0.4727 -1.1753
17982SOL     OW60291   3.326   2.200   6.834 -0.0729  0.3420 -0.3141
17982SOL    HW160292   3.293   2.205   6.924 -0.2318 -0.0143 -0.3504
17982SOL    HW260293   3.286   2.274   6.789 -0.0843  0.4539 -0.1198
17983SOL     OW60294   2.663   2.717   2.282 -0.2348 -0.3007 -0.3118
17983SOL    HW160295   2.742   2.696   2.331  0.5992 -0.4424 -1.6794
17983SOL    HW260296   2.645   2.640   2.229 -0.7441  0.0902 -0.7277
17984SOL     OW60297   6.044   0.444   4.410 -0.3170  0.3647 -0.4225
17984SOL    HW160298   6.093   0.393   4.345 -0.8942  0.3293 -0.8341
17984SOL    HW260299   5.984   0.381   4.448 -0.0999  0.4284  0.0304
17985SOL     OW60300   5.409   1.008   5.208  0.4237  0.2564  0.2570
17985SOL    HW160301   5.363   0.929   5.179 -0.0727 -0.1922  2.1284
17985SOL    HW260302   5.462   1.034   5.133 -1.7514 -0.0506 -1.4730
17986SOL     OW60303   0.686   2.667   1.319  0.0966 -0.0839 -0.0833
17986SOL    HW160304   0.621   2.600   1.299  0.6361 -0.8759  0.7229
17986SOL    HW260305   0.733   2.633   1.395 -0.6393  1.8929  1.3669
17987SOL     OW60306   6.788   1.230   6.647  0.3151  0.4276 -0.5935
17987SOL    HW160307   6.753   1.144   6.670  0.5739  0.4371 -0.1592
17987SOL    HW260308   6.737   1.292   6.699  1.9376  0.3424  1.2035
17988SOL     OW60309   5.861   7.985   8.134  0.8185 -0.9396 -0.2484
17988SOL    HW160310   5.792   7.930   8.098 -0.4201 -1.4526  2.6411
17988SOL    HW260311   5.941   7.933   8.124  0.0089 -2.3943  0.5221
17989SOL     OW60312   4.245   3.040   4.868  0.2819  0.5272 -0.4636
17989SOL    HW160313   4.201   2.956   4.879 -1.7510  1.5948  0.0094
17989SOL    HW260314   4.261   3.047   4.774 -0.1767 -0.0761 -0.5875
17990SOL     OW60315   5.085   8.196   3.166 -0.1252  0.1577  0.1418
17990SOL    HW160316   5.053   8.280   3.198 -3.8213 -0.7717 -0.6420
17990SOL    HW260317   5.095   8.143   3.244 -0.1297  0.6132  0.4558
17991SOL     OW60318   2.910   4.758   4.761  1.2467 -0.4721 -0.1532
17991SOL    HW160319   2.884   4.800   4.843  1.4435 -1.3907  0.3956
17991SOL    HW260320   2.880   4.818   4.692  0.2867 -0.1171  0.5600
17992SOL     OW60321   7.549   6.606   8.018 -0.3886 -0.0808 -0.0969
17992SOL    HW160322   7.456   6.584   8.025 -0.3692 -0.2280 -0.2884
17992SOL    HW260323   7.583   6.592   8.106  0.0107 -2.6252 -0.5512
17993SOL     OW60324   1.911   0.019   3.302  0.3175  0.0060  0.0116
17993SOL    HW160325   1.896   0.059   3.388  2.3198  0.5731  0.1488
17993SOL    HW260326   1.913  -0.075   3.320 -1.8533 -0.0655  0.1144
17994SOL     OW60327   7.793   1.790   0.536 -0.0114  0.3085  0.2635
17994SOL    HW160328   7.794   1.863   0.475  2.0626  0.1920  0.0978
17994SOL    HW260329   7.866   1.806   0.595 -1.5871  0.0955  2.3833
17995SOL     OW60330   6.275   6.344   5.431 -0.9125 -0.2737 -0.3756
17995SOL    HW160331   6.299   6.296   5.352  0.5799 -2.7213  1.4269
17995SOL    HW260332   6.303   6.434   5.413 -0.7299 -0.7269 -2.6429
17996SOL     OW60333   8.046   0.274   2.121  0.1508 -0.4629 -0.1455
17996SOL    HW160334   8.032   0.278   2.215  1.0417  1.5398 -0.0481
17996SOL    HW260335   8.037   0.364   2.091 -2.8204 -1.3597 -2.4674
17997SOL     OW60336   6.647   7.911   4.630 -0.2441  0.0598  0.4864
17997SOL    HW160337   6.639   7.963   4.550  0.4167  0.2050  0.5084
17997SOL    HW260338   6.681   7.827   4.601 -0.3951 -0.0310  0.5689
17998SOL     OW60339   1.942   6.513   2.403  0.6542  0.1874  0.6148
17998SOL    HW160340   1.941   6.607   2.420 -0.7099 -0.0766  2.3535
17998SOL    HW260341   1.907   6.503   2.315 -0.3872  1.2652  0.8879
17999SOL     OW60342   3.475   8.027   7.381  0.3617  0.3492 -0.3586
17999SOL    HW160343   3.526   7.995   7.456  1.1216  1.9999 -0.1384
17999SOL    HW260344   3.413   8.089   7.419  0.4344  0.8504 -1.0486
18000SOL     OW60345   5.147   7.246   2.846 -0.5479 -0.0299  0.2339
18000SOL    HW160346   5.141   7.294   2.928 -0.0495  2.9429 -1.3469
18000SOL    HW260347   5.056   7.221   2.827 -0.7716 -0.0717  1.2855
18001SOL     OW60348   6.930   3.907   4.751  0.0843 -0.4928 -0.5423
18001SOL    HW160349   7.009   3.867   4.787 -0.1737  0.4557  1.1431
18001SOL    HW260350   6.949   3.917   4.658  2.3262  0.5163 -0.0474
18002SOL     OW60351   4.047   1.418   4.424 -0.2146  0.2229 -0.0092
18002SOL    HW160352   4.033   1.399   4.331 -0.8518  0.3983  0.0470
18002SOL    HW260353   3.965   1.392   4.466 -0.7958  2.2644  0.2006
18003SOL     OW60354   0.206   1.284   5.334 -0.5235  0.0472  0.0097
18003SOL    HW160355   0.135   1.274   5.397  0.0165  0.4429  0.6919
18003SOL    HW260356   0.280   1.315   5.386 -0.2595  1.0284 -0.9154
18004SOL     OW60357   7.282   0.178   0.854  0.1027  0.1437 -0.0450
18004SOL    HW160358   7.216   0.114   0.827  1.3185 -0.9336 -0.5964
18004SOL    HW260359   7.332   0.133   0.922  1.6779  0.0244 -1.2139
18005SOL     OW60360   3.525   4.668   3.166  0.0529  0.1613 -0.3625
18005SOL    HW160361   3.554   4.704   3.082 -0.4416 -0.7977 -0.9584
18005SOL    HW260362   3.432   4.690   3.172 -0.0105 -0.1317 -0.2544
18006SOL     OW60363   5.941   4.463   6.538 -0.0830  0.3884 -0.1032
18006SOL    HW160364   5.922   4.521   6.464 -1.0684  0.6852  0.3805
18006SOL    HW260365   5.874   4.395   6.533  1.3813 -1.0858 -1.0074
18007SOL     OW60366   5.175   5.859   0.671 -0.4385 -0.2861 -0.0245
18007SOL    HW160367   5.109   5.928   0.664  0.9888  1.2011  0.3780
18007SOL    HW260368   5.222   5.862   0.587  1.4776  1.2967  1.0039
18008SOL     OW60369   0.680   5.379   3.132  0.2199 -0.2062  0.0547
18008SOL    HW160370   0.728   5.376   3.049  0.6443 -1.3166  0.3324
18008SOL    HW260371   0.747   5.382   3.199 -0.1232  0.6431  0.3749
18009SOL     OW60372   2.038   3.806   6.240  0.1260  0.2845 -0.0801
18009SOL    HW160373   2.108   3.802   6.176  0.8271  0.1340  0.6757
18009SOL    HW260374   2.044   3.723   6.288 -0.8894  0.0483 -0.3312
18010SOL     OW60375   4.068   7.004   8.150  0.4645 -0.2733  0.0044
18010SOL    HW160376   4.149   6.953   8.143  0.1927 -0.8052  0.6810
18010SOL    HW260377   4.052   7.036   8.061  1.1359 -0.5929 -0.2355
18011SOL     OW60378   7.663   1.893   2.765  0.0086  0.3363 -0.0420
18011SOL    HW160379   7.669   1.828   2.835 -0.8228 -0.0827 -0.3473
18011SOL    HW260380   7.748   1.888   2.721  0.5936  0.6994  1.0004
18012SOL     OW60381   5.676   8.247   5.392  0.2045 -0.4390  0.0752
18012SOL    HW160382   5.605   8.190   5.365 -1.8954  1.5620  0.9581
18012SOL    HW260383   5.675   8.319   5.329  1.2078 -0.1851  0.3253
18013SOL     OW60384   4.482   4.994   4.708 -0.3718 -0.5729  0.1211
18013SOL    HW160385   4.415   4.926   4.711  0.1082 -1.0516  0.2875
18013SOL    HW260386   4.534   4.980   4.788  0.5752 -0.9014 -0.5253
18014SOL     OW60387   0.718   4.917   6.059 -0.1680 -0.4310 -0.7384
18014SOL    HW160388   0.721   5.012   6.052 -0.2900 -0.2367  1.2427
18014SOL    HW260389   0.627   4.897   6.081  0.1195 -0.8823  0.0846
18015SOL     OW60390   2.936   3.169   2.320  0.1887  0.1426 -0.1358
18015SOL    HW160391   2.863   3.228   2.303  0.2140  1.3160  3.1748
18015SOL    HW260392   2.916   3.129   2.405  2.1642 -1.4915 -0.3487
18016SOL     OW60393   1.450   1.449   6.117  0.0826 -0.4579  0.0670
18016SOL    HW160394   1.455   1.539   6.084  0.2341 -0.4630  0.0734
18016SOL    HW260395   1.520   1.403   6.071  0.4178 -0.4204  0.5356
18017SOL     OW60396   1.824   3.190   8.628 -0.0306  0.1208  0.0138
18017SOL    HW160397   1.864   3.227   8.549  1.8289 -1.1016  0.3087
18017SOL    HW260398   1.812   3.097   8.607  0.2527 -0.1609  1.0676
18018SOL     OW60399   6.717   8.702   1.125  0.1227  0.4537  0.4290
18018SOL    HW160400   6.679   8.669   1.206 -0.4073  1.1433  0.4696
18018SOL    HW260401   6.789   8.758   1.153 -0.3086  1.0074  0.4458
18019SOL     OW60402   3.352   8.029   8.131 -0.2569 -0.4402 -0.0121
18019SOL    HW160403   3.320   8.041   8.041 -0.0895 -2.7783 -0.4561
18019SOL    HW260404   3.433   8.079   8.134 -0.0352 -0.6746 -1.3302
18020SOL     OW60405   2.843   1.973   5.802  0.8364 -0.0998 -0.2606
18020SOL    HW160406   2.848   1.934   5.714  1.8938  0.7674 -0.6042
18020SOL    HW260407   2.777   1.921   5.847  1.3640 -1.5542 -1.0837
18021SOL     OW60408   2.560   0.448   1.084  0.1607 -0.1267 -0.3205
18021SOL    HW160409   2.652   0.467   1.063  0.9239  1.2033  3.3739
18021SOL    HW260410   2.539   0.509   1.156 -2.6134 -2.5116  1.1011
18022SOL     OW60411   2.351   2.737   7.605  0.0743 -0.0603  0.1056
18022SOL    HW160412   2.300   2.818   7.610 -0.5094 -0.3784 -0.4944
18022SOL    HW260413   2.357   2.707   7.695 -0.6982  0.0515  0.2022
18023SOL     OW60414   7.568   6.014   8.202 -0.2989  0.6192  0.4633
18023SOL    HW160415   7.602   6.041   8.287  0.6535  0.1032  0.2555
18023SOL    HW260416   7.639   6.031   8.141 -1.7593  3.1452 -0.6501
18024SOL     OW60417   6.914   8.570   9.042  0.0919  0.1546  0.0805
18024SOL    HW160418   6.863   8.560   8.962 -1.3254  1.1901  0.8107
18024SOL    HW260419   6.851   8.559   9.112  1.1272  0.2431  1.0545
18025SOL     OW60420   7.388   1.470   8.499 -0.1645 -0.1531  0.8080
18025SOL    HW160421   7.473   1.508   8.480 -0.7522  1.4880  1.2710
18025SOL    HW260422   7.366   1.418   8.421  0.4296  0.9263 -0.0940
18026SOL     OW60423   8.072   6.271   0.261 -0.4804 -0.1180  1.0496
18026SOL    HW160424   7.988   6.303   0.295 -0.3635 -2.0493  3.3960
18026SOL    HW260425   8.137   6.307   0.320  0.2053 -0.0699  0.2827
18027SOL     OW60426   4.882   7.873   3.875 -0.3533 -0.5420 -0.4533
18027SOL    HW160427   4.975   7.856   3.858  0.2763  0.6273  1.5455
18027SOL    HW260428   4.875   7.969   3.878 -1.4964 -0.6258  0.0846
18028SOL     OW60429   6.092   2.222   6.958 -0.3533 -0.1942  0.1504
18028SOL    HW160430   6.035   2.205   7.033  0.4969 -1.4180  0.5581
18028SOL    HW260431   6.083   2.143   6.904  0.1948  0.0337 -0.2800
18029SOL     OW60432   1.745   7.215   6.208  0.2335 -0.7294  0.0702
18029SOL    HW160433   1.741   7.120   6.219 -1.3571 -0.7390 -0.4102
18029SOL    HW260434   1.711   7.250   6.291 -0.2522 -0.6129 -0.1718
18030SOL     OW60435   1.221   1.395   5.766 -0.4669 -0.2664  0.4076
18030SOL    HW160436   1.299   1.445   5.788 -1.3402  1.4963 -0.3180
18030SOL    HW260437   1.177   1.380   5.849  0.6539 -1.3523  0.8332
18031SOL     OW60438   0.699   1.995   6.105  0.3473 -0.9933  0.0471
18031SOL    HW160439   0.779   2.003   6.157  0.7082  0.8965 -0.7223
18031SOL    HW260440   0.629   1.984   6.169  1.0102 -0.7495  0.8216
18032SOL     OW60441   3.169   8.487   5.460 -0.2363  0.2659 -0.1452
18032SOL    HW160442   3.143   8.405   5.420 -0.1036  0.0529  0.2055
18032SOL    HW260443   3.264   8.491   5.446 -0.1485  0.0614  0.3864
18033SOL     OW60444   5.309   7.615   1.285  0.6587  0.4155  0.3822
18033SOL    HW160445   5.230   7.573   1.254  1.1200 -1.2202  1.3063
18033SOL    HW260446   5.278   7.695   1.329 -0.3161  0.5822 -0.5758
18034SOL     OW60447   1.101   6.573   8.081 -0.9500  0.5131  0.0219
18034SOL    HW160448   1.080   6.655   8.036 -2.4282  0.1745  0.0474
18034SOL    HW260449   1.115   6.510   8.011 -2.0037  0.2867 -0.0072
18035SOL     OW60450   5.986   0.298   8.346 -0.5877  0.3412 -0.1505
18035SOL    HW160451   6.053   0.246   8.302 -0.4877 -0.9666  1.4376
18035SOL    HW260452   5.905   0.278   8.299 -0.3177 -0.2054 -0.3943
18036SOL     OW60453   0.355   2.045   8.000  0.4180  0.3634  0.1603
18036SOL    HW160454   0.348   2.138   7.979  0.5107 -0.0570 -1.9360
18036SOL    HW260455   0.448   2.030   8.013  0.5176  0.3947 -0.4712
18037SOL     OW60456   4.259   6.214   5.603 -0.4590 -0.4213  0.5165
18037SOL    HW160457   4.276   6.134   5.553  2.0502 -0.4301  1.2470
18037SOL    HW260458   4.222   6.184   5.685  2.2448 -1.0968  1.5801
18038SOL     OW60459   6.587   8.021   4.377 -0.0149 -0.1337 -0.3067
18038SOL    HW160460   6.513   8.076   4.351 -0.3674 -0.9153 -1.0243
18038SOL    HW260461   6.555   7.931   4.363  0.3586 -0.5476  1.3293
18039SOL     OW60462   8.660   1.431   1.742 -0.3635 -0.2666  0.3196
18039SOL    HW160463   8.694   1.357   1.692 -0.4700  0.6157 -1.1175
18039SOL    HW260464   8.687   1.414   1.832 -1.2798 -2.5600  0.2123
18040SOL     OW60465   1.077   6.225   8.501 -0.3163 -0.4758  0.1963
18040SOL    HW160466   1.154   6.198   8.550  0.2836 -0.3966 -0.6861
18040SOL    HW260467   1.080   6.321   8.503 -0.3593 -0.4726  0.1139
18041SOL     OW60468   6.769   1.290   5.912 -0.2333  0.5075 -0.2854
18041SOL    HW160469   6.800   1.379   5.929  0.9769 -0.2836  2.0641
18041SOL    HW260470   6.693   1.279   5.969  0.5404 -0.4185  0.6158
18042SOL     OW60471   4.625   7.560   6.023  0.1585 -0.0068 -0.0360
18042SOL    HW160472   4.586   7.481   6.061 -0.3352  0.7262  1.0402
18042SOL    HW260473   4.558   7.628   6.034  0.4038  0.4769 -1.3428
18043SOL     OW60474   8.470   6.334   7.656  0.1308 -0.3563  0.6970
18043SOL    HW160475   8.456   6.240   7.663 -1.8331 -0.1543  0.2144
18043SOL    HW260476   8.518   6.346   7.574 -3.4331 -0.7536 -1.6734
18044SOL     OW60477   3.985   1.679   7.396 -0.3281  0.3792  0.1724
18044SOL    HW160478   3.993   1.631   7.479 -2.1932  0.3356  0.3628
18044SOL    HW260479   3.965   1.769   7.421 -0.4281  0.4742 -0.2355
18045SOL     OW60480   2.755   7.651   2.077 -0.0213  0.0749 -0.2289
18045SOL    HW160481   2.741   7.729   2.130  1.1451  0.5301 -0.5603
18045SOL    HW260482   2.715   7.672   1.993  0.2045  0.2855 -0.2854
18046SOL     OW60483   3.938   0.909   3.228  0.1565 -0.2927  0.0434
18046SOL    HW160484   3.862   0.900   3.170  0.5641  0.2762 -0.5868
18046SOL    HW260485   3.961   0.819   3.251  0.9497 -0.6367 -1.9465
18047SOL     OW60486   5.653   1.348   9.150 -0.5295  0.3820 -0.3125
18047SOL    HW160487   5.595   1.284   9.107 -2.1147  1.2626  0.4480
18047SOL    HW260488   5.595   1.416   9.182  1.1398  2.4173 -1.3547
18048SOL     OW60489   1.360   8.429   4.671  0.0202  0.0578 -0.1811
18048SOL    HW160490   1.288   8.376   4.703 -0.1603  0.6512  0.4173
18048SOL    HW260491   1.320   8.490   4.609  0.0628  0.1460 -0.1231
18049SOL     OW60492   0.194   4.412   0.440 -0.0032  0.2384 -0.2047
18049SOL    HW160493   0.244   4.335   0.467  0.7150  1.2531  1.5595
18049SOL    HW260494   0.158   4.447   0.522  0.4161  2.2689 -0.8250
18050SOL     OW60495   8.962   1.483   4.541 -0.4761 -0.1460  0.5568
18050SOL    HW160496   9.022   1.456   4.472 -0.4819 -2.4697  1.3931
18050SOL    HW260497   8.952   1.406   4.597 -2.3038  0.9299  1.8421
18051SOL     OW60498   2.167   4.625   0.726  0.2970 -0.2057  0.2725
18051SOL    HW160499   2.226   4.700   0.734 -1.0892  0.9729 -0.1620
18051SOL    HW260500   2.193   4.583   0.644 -0.5695  1.3337 -0.8360
18052SOL     OW60501   6.989   4.631   6.091 -0.4246 -0.2999 -0.0437
18052SOL    HW160502   7.064   4.683   6.063 -0.7324 -0.7201 -1.7293
18052SOL    HW260503   7.006   4.613   6.184 -0.2280  2.6096  0.5846
18053SOL     OW60504   0.511   3.826   7.359  0.3592  0.0395  0.0396
18053SOL    HW160505   0.525   3.811   7.265 -0.2323 -0.5279  0.0386
18053SOL    HW260506   0.545   3.748   7.402 -0.3141 -0.1691  0.2168
18054SOL     OW60507   7.723   5.052   9.191 -0.1854 -0.3194 -0.4918
18054SOL    HW160508   7.632   5.056   9.222 -0.6014 -0.3842 -1.6710
18054SOL    HW260509   7.716   5.021   9.101  1.1307 -2.0696 -0.0397
18055SOL     OW60510   1.649   1.407   6.720 -0.6738 -0.0935  0.1864
18055SOL    HW160511   1.665   1.465   6.646 -1.7502 -0.5988 -0.4615
18055SOL    HW260512   1.604   1.331   6.683 -0.2390 -0.8685  1.1863
18056SOL     OW60513   9.146   5.018   6.751  0.2017 -0.0465  0.2262
18056SOL    HW160514   9.055   5.028   6.725  0.2194  0.9923  0.5121
18056SOL    HW260515   9.172   5.105   6.782  1.7195  0.0709 -1.2422
18057SOL     OW60516   2.753   4.555   5.234 -0.1283  0.1867 -0.0614
18057SOL    HW160517   2.829   4.498   5.220 -0.0173  0.3792 -0.2422
18057SOL    HW260518   2.791   4.642   5.246 -0.4234  0.8057 -2.8537
18058SOL     OW60519   8.527   1.866   6.874 -0.1224 -0.0696  0.0254
18058SOL    HW160520   8.458   1.842   6.812  1.3771 -2.7123 -0.7432
18058SOL    HW260521   8.484   1.862   6.960 -1.0059 -1.4892 -0.4426
18059SOL     OW60522   3.530   8.564   1.110  0.0900  0.6191  0.0940
18059SOL    HW160523   3.595   8.505   1.148 -0.9070 -0.2588  0.5051
18059SOL    HW260524   3.580   8.623   1.054  1.4651  1.1483  1.7788
18060SOL     OW60525   5.938   5.592   3.246  0.1403  0.4597  0.3890
18060SOL    HW160526   6.009   5.606   3.308  1.1740 -2.3034 -0.0283
18060SOL    HW260527   5.981   5.568   3.164 -1.2389 -0.9249  0.0143
18061SOL     OW60528   5.761   4.216   0.630 -0.0921  0.5431  0.1461
18061SOL    HW160529   5.786   4.282   0.694  3.0253  0.1204 -0.4688
18061SOL    HW260530   5.763   4.263   0.546 -1.6532  0.5039  0.0609
18062SOL     OW60531   5.251   0.789   5.712  0.2451  0.4022 -0.2649
18062SOL    HW160532   5.172   0.843   5.720  0.3842  0.4853  0.5721
18062SOL    HW260533   5.224   0.717   5.656 -0.3643  0.5489 -0.1735
18063SOL     OW60534   3.389   4.319   0.775  0.0916  0.5403 -0.3643
18063SOL    HW160535   3.484   4.309   0.785 -0.1221 -0.2756  1.2087
18063SOL    HW260536   3.373   4.298   0.683  1.5496  1.8868 -0.9823
18064SOL     OW60537   7.844   9.199   0.532  0.1307  0.8318  0.3636
18064SOL    HW160538   7.899   9.129   0.495  1.8999  2.4237 -0.1792
18064SOL    HW260539   7.772   9.153   0.574  0.7247 -1.2771 -0.7826
18065SOL     OW60540   4.955   0.947   2.583 -0.6415 -0.0361 -0.1627
18065SOL    HW160541   4.936   0.890   2.657 -0.0785 -0.6729 -0.5016
18065SOL    HW260542   4.904   1.026   2.600  0.4796  0.3569  1.5598
18066SOL     OW60543   3.443   6.740   1.871 -0.2146  0.0136  0.8066
18066SOL    HW160544   3.488   6.731   1.787  1.0514  0.3926  1.4277
18066SOL    HW260545   3.388   6.818   1.861 -0.9008 -0.5592 -0.0168
18067SOL     OW60546   0.326   8.110   4.565 -0.0704  0.6327  0.3269
18067SOL    HW160547   0.350   8.169   4.494 -0.3246  0.0572 -0.2475
18067SOL    HW260548   0.334   8.023   4.527  0.4769  0.2861  1.2158
18068SOL     OW60549   3.571   4.507   4.730  0.0091  0.4901 -0.1834
18068SOL    HW160550   3.497   4.503   4.670 -0.1248 -1.3905  0.0337
18068SOL    HW260551   3.645   4.476   4.679  0.1465  0.0640  0.2627
18069SOL     OW60552   4.495   6.660   1.586  0.4226 -0.7973 -0.0198
18069SOL    HW160553   4.429   6.676   1.518 -1.6210 -0.2138  2.0033
18069SOL    HW260554   4.460   6.589   1.639  1.1107 -0.0987  1.4469
18070SOL     OW60555   2.050   7.479   2.404  0.1268 -0.1631  0.3114
18070SOL    HW160556   2.005   7.485   2.489 -2.1105  0.7070 -0.8388
18070SOL    HW260557   2.054   7.386   2.385  1.0716 -0.4001  1.5485
18071SOL     OW60558   3.891   8.832   8.413 -0.1218  0.2175  0.2060
18071SOL    HW160559   3.942   8.814   8.492 -0.0930  1.1444  0.4113
18071SOL    HW260560   3.950   8.882   8.357  0.2575 -1.4449 -0.9187
18072SOL     OW60561   1.199   2.731   7.215 -0.8381 -0.4776  0.5926
18072SOL    HW160562   1.128   2.794   7.208 -0.8661 -0.4619  0.9695
18072SOL    HW260563   1.212   2.698   7.126  1.0032  2.0152 -0.1629
18073SOL     OW60564   6.543   5.710   0.165 -0.2877  0.5513 -0.2445
18073SOL    HW160565   6.544   5.803   0.142  1.0884  0.7551  0.5275
18073SOL    HW260566   6.476   5.671   0.108  0.1413  1.7447 -1.6024
18074SOL     OW60567   1.505   2.800   2.652  0.1224 -0.0989 -0.0074
18074SOL    HW160568   1.544   2.714   2.668 -1.6479 -0.9920 -0.1577
18074SOL    HW260569   1.412   2.787   2.671 -0.4215  1.3958 -1.4395
18075SOL     OW60570   4.841   9.020   8.780  0.1464 -0.3144  0.1903
18075SOL    HW160571   4.908   8.966   8.738 -0.4855 -1.2940  0.4022
18075SOL    HW260572   4.789   8.957   8.831  0.3972  0.7118  1.7771
18076SOL     OW60573   1.878   5.118   8.721  0.9312 -0.1460  0.0209
18076SOL    HW160574   1.818   5.168   8.666  1.1867 -0.0318 -0.1557
18076SOL    HW260575   1.963   5.161   8.710  0.7894  0.4939  1.2888
18077SOL     OW60576   9.053   1.912   5.666  0.0369  0.2742  0.2162
18077SOL    HW160577   9.127   1.882   5.614 -0.5825  1.8642 -1.7003
18077SOL    HW260578   9.080   1.997   5.701 -1.1252  1.3129 -1.2571
18078SOL     OW60579   8.051   4.866   2.166 -0.4643  0.3444  0.2443
18078SOL    HW160580   8.098   4.882   2.248 -1.2786 -0.6569  0.9308
18078SOL    HW260581   8.080   4.779   2.139 -1.0326  0.2115  0.0557
18079SOL     OW60582   6.898   1.835   5.611 -0.2742  0.8871  0.2546
18079SOL    HW160583   6.818   1.823   5.663  0.7905 -0.7245  1.6385
18079SOL    HW260584   6.921   1.746   5.583  3.2265  0.5363  3.4380
18080SOL     OW60585   3.375   2.844   5.857  0.3755 -0.2689  0.6030
18080SOL    HW160586   3.380   2.930   5.814  1.3980 -0.3145  0.6084
18080SOL    HW260587   3.321   2.860   5.934 -1.3380 -0.1440 -0.5693
18081SOL     OW60588   5.143   8.218   1.428 -0.2153 -0.6735 -0.1872
18081SOL    HW160589   5.178   8.292   1.378  0.3405 -1.0335 -0.3354
18081SOL    HW260590   5.073   8.183   1.373 -0.6238 -0.1305 -0.0225
18082SOL     OW60591   7.771   7.132   3.397 -0.1832 -0.1368  0.4464
18082SOL    HW160592   7.814   7.053   3.430 -1.1929 -0.4498  1.0761
18082SOL    HW260593   7.842   7.195   3.385  0.7332 -1.3108 -0.6404
18083SOL     OW60594   8.264   8.022   1.181  0.1906  0.1668 -0.6511
18083SOL    HW160595   8.345   8.059   1.146 -0.5049  1.4851 -0.9166
18083SOL    HW260596   8.205   8.097   1.190 -0.9309 -0.7346 -0.2498
18084SOL     OW60597   0.933   6.224   4.584  0.5447  0.1544 -0.3368
18084SOL    HW160598   0.940   6.138   4.541  0.5317 -0.3785  0.7045
18084SOL    HW260599   1.000   6.222   4.652  1.3916  1.4646 -1.1043
18085SOL     OW60600   2.743   0.120   0.998 -0.7550  0.4566 -0.1997
18085SOL    HW160601   2.652   0.144   0.984 -0.7145  0.3746 -0.6357
18085SOL    HW260602   2.740   0.026   1.016 -0.8524  0.6517  0.8537
18086SOL     OW60603   2.075   0.769   2.675 -0.3142 -0.0514  0.2957
18086SOL    HW160604   2.090   0.675   2.668 -0.1663 -0.1488  1.6476
18086SOL    HW260605   2.006   0.777   2.740 -1.1898  0.7388 -0.6989
18087SOL     OW60606   3.558   6.788   8.958 -0.1891 -1.4555 -0.1893
18087SOL    HW160607   3.595   6.831   9.035 -1.9103 -0.5877  0.1990
18087SOL    HW260608   3.632   6.777   8.899  0.5855  0.7839  0.2736
18088SOL     OW60609   8.291   1.023   0.352  0.1826 -0.4848 -0.2366
18088SOL    HW160610   8.241   0.957   0.401  0.7661  0.7325  2.1328
18088SOL    HW260611   8.258   1.016   0.262 -2.9287 -0.9902  0.8228
18089SOL     OW60612   3.966   4.495   4.440  0.1536  0.3066 -0.5066
18089SOL    HW160613   3.962   4.504   4.345  0.7226 -1.8420 -0.8069
18089SOL    HW260614   4.056   4.465   4.458 -0.5417 -1.4191  0.4252
18090SOL     OW60615   7.175   5.447   4.610 -0.3503 -0.0761  0.2801
18090SOL    HW160616   7.092   5.490   4.633  0.2129  1.6508 -0.7727
18090SOL    HW260617   7.238   5.481   4.674  0.5002  2.2202 -1.6415
18091SOL     OW60618   2.874   3.581   4.033 -0.3729  0.1310  0.0992
18091SOL    HW160619   2.846   3.591   4.124 -2.8496 -0.3121 -0.5296
18091SOL    HW260620   2.926   3.501   4.032 -2.0827 -1.0470  0.8213
18092SOL     OW60621   4.069   3.242   8.680 -0.2162 -0.0867  0.3122
18092SOL    HW160622   4.101   3.225   8.769  0.9003 -0.7154 -0.1940
18092SOL    HW260623   4.039   3.157   8.648  1.7436 -0.4274 -0.8001
18093SOL     OW60624   2.130   5.503   5.066  0.3081 -0.2289 -0.1458
18093SOL    HW160625   2.188   5.523   5.140  0.5001  0.9824 -0.5971
18093SOL    HW260626   2.162   5.558   4.995  0.2350 -1.5046 -1.2010
18094SOL     OW60627   3.032   5.210   0.302 -0.0302 -0.1716 -0.6059
18094SOL    HW160628   3.086   5.141   0.341  1.0206  1.1708  0.4307
18094SOL    HW260629   2.950   5.208   0.351  0.9057  0.8373  1.0905
18095SOL     OW60630   3.275   4.239   0.529  0.1522 -0.7972  0.1785
18095SOL    HW160631   3.324   4.169   0.486  0.3372  1.0196 -2.7868
18095SOL    HW260632   3.229   4.284   0.459 -0.8749  1.3944  2.1017
18096SOL     OW60633   4.133   5.831   1.149 -0.5749 -0.0333  0.0005
18096SOL    HW160634   4.158   5.831   1.056 -1.1163  2.0659 -0.1995
18096SOL    HW260635   4.189   5.764   1.188  0.2558 -0.4008 -1.6922
18097SOL     OW60636   9.131   6.203   2.625 -0.0180  0.1636  0.1116
18097SOL    HW160637   9.078   6.251   2.561  1.0636  0.3672 -0.6528
18097SOL    HW260638   9.113   6.247   2.708  0.0028  1.1077 -0.3702
18098SOL     OW60639   3.836   0.415   8.316 -0.0592  0.2761  0.1787
18098SOL    HW160640   3.858   0.402   8.223 -0.5054  2.1793 -0.2393
18098SOL    HW260641   3.899   0.481   8.346  0.5149 -0.8067  1.4444
18099SOL     OW60642   8.765   0.805   5.091  0.4473 -0.0173  0.2198
18099SOL    HW160643   8.828   0.863   5.134 -0.6390  0.6138  1.0163
18099SOL    HW260644   8.688   0.807   5.148  0.1235 -1.7146 -0.1012
18100SOL     OW60645   4.076   7.029   1.446 -0.5144  0.2496 -0.4197
18100SOL    HW160646   4.128   7.081   1.508 -1.6521  0.7389  0.1616
18100SOL    HW260647   3.986   7.038   1.477 -0.9542 -0.6026 -1.3806
18101SOL     OW60648   4.263   0.108   7.764 -0.8699  0.6137 -0.3124
18101SOL    HW160649   4.222   0.090   7.680 -0.1835  1.2489 -0.7974
18101SOL    HW260650   4.287   0.201   7.760 -0.7163  0.6198  0.5324
18102SOL     OW60651   6.126   5.329   4.026 -0.0385  0.0796  0.7522
18102SOL    HW160652   6.180   5.319   3.947 -1.3412  4.6767 -1.0032
18102SOL    HW260653   6.188   5.317   4.099  2.2582  0.3104 -1.0477
18103SOL     OW60654   1.251   3.394   6.631  0.1474  0.1587 -0.3183
18103SOL    HW160655   1.249   3.375   6.538 -0.5496 -1.9551  0.0834
18103SOL    HW260656   1.305   3.325   6.669  0.9428  1.3351  0.8013
18104SOL     OW60657   3.556   8.616   4.586  0.4385 -0.0259  0.3553
18104SOL    HW160658   3.502   8.656   4.518  1.4443  1.1310  0.2030
18104SOL    HW260659   3.638   8.594   4.542  0.4262 -0.9738  0.7794
18105SOL     OW60660   0.670   9.223   5.631  0.0368 -0.6673 -0.4191
18105SOL    HW160661   0.595   9.182   5.589 -0.0074 -2.3330  1.1610
18105SOL    HW260662   0.668   9.190   5.721  1.1711  1.3132  0.3866
18106SOL     OW60663   7.513   0.036   8.287  0.0041 -0.1512 -0.7811
18106SOL    HW160664   7.595   0.073   8.256  0.2037  0.7982  0.7583
18106SOL    HW260665   7.538  -0.022   8.359 -0.5393 -1.2124 -1.4350
18107SOL     OW60666   9.079   3.242   3.906  0.0101 -0.2200 -0.3416
18107SOL    HW160667   9.081   3.282   3.818 -1.6379 -2.3189 -1.4271
18107SOL    HW260668   8.993   3.265   3.941 -0.3063 -1.3706 -0.3127
18108SOL     OW60669   4.590   2.039   1.873  0.1473  0.1547  0.1859
18108SOL    HW160670   4.572   1.998   1.957  1.8863  0.9858  1.0177
18108SOL    HW260671   4.559   1.975   1.808 -0.2398 -0.9778  1.4389
18109SOL     OW60672   8.601   1.555   4.532 -0.4112  0.2462  0.7979
18109SOL    HW160673   8.618   1.550   4.626 -0.7406  2.0746  0.9811
18109SOL    HW260674   8.527   1.496   4.517 -1.1501  0.8702  1.9016
18110SOL     OW60675   4.666   2.157   2.887  0.1593  0.5828 -0.3662
18110SOL    HW160676   4.650   2.222   2.819  1.7281  1.3062 -0.1048
18110SOL    HW260677   4.708   2.207   2.957 -0.2176 -0.3979  0.5744
18111SOL     OW60678   7.545   5.862   2.470  0.5111 -0.2763 -0.3316
18111SOL    HW160679   7.509   5.779   2.439 -1.1731  0.2588  0.0943
18111SOL    HW260680   7.526   5.924   2.400 -1.5260  0.5016  0.8153
18112SOL     OW60681   1.520   0.191   8.043 -0.4104 -0.5084  0.0653
18112SOL    HW160682   1.597   0.211   7.989  0.5980 -0.1743  1.5508
18112SOL    HW260683   1.451   0.169   7.980  0.3481  1.0775 -1.3848
18113SOL     OW60684   3.198   4.505   2.953 -0.7515 -0.2051 -0.1964
18113SOL    HW160685   3.148   4.441   2.902 -1.6203  0.1298  0.2157
18113SOL    HW260686   3.183   4.588   2.909 -0.8428 -0.0464  0.1330
18114SOL     OW60687   2.715   3.998   7.625 -0.5405  0.7005  0.1508
18114SOL    HW160688   2.804   3.962   7.625 -1.0359 -0.6346 -1.1143
18114SOL    HW260689   2.726   4.090   7.600  0.6488  1.1718  2.1738
18115SOL     OW60690   4.330   2.989   0.306 -0.2812  0.0985  0.2099
18115SOL    HW160691   4.263   2.929   0.276  0.3842  0.0213 -1.2124
18115SOL    HW260692   4.311   3.071   0.261  1.1978 -0.2377 -1.1107
18116SOL     OW60693   8.738   4.215   5.447 -0.5066  0.1139  0.2759
18116SOL    HW160694   8.780   4.144   5.495 -1.2785 -0.2828  0.3862
18116SOL    HW260695   8.795   4.291   5.461 -0.2724 -0.2052  1.0993
18117SOL     OW60696   1.105   4.733   8.646  0.0172 -0.0482  0.0104
18117SOL    HW160697   1.117   4.653   8.697  0.4695  2.0124  3.5175
18117SOL    HW260698   1.010   4.746   8.644 -0.0152 -0.2638  0.0848
18118SOL     OW60699   1.029   2.207   3.864 -0.2710  0.3479  0.5443
18118SOL    HW160700   1.124   2.199   3.853 -0.3852 -0.6933  0.1891
18118SOL    HW260701   0.996   2.216   3.774 -0.3872  2.4752  0.7578
18119SOL     OW60702   8.380   1.700   2.713  0.6940  0.1435 -0.4906
18119SOL    HW160703   8.324   1.777   2.718  1.8591  0.9849  0.0607
18119SOL    HW260704   8.331   1.631   2.758  0.9194  1.3895  1.8074
18120SOL     OW60705   0.377   4.765   3.608  0.2407  0.3348  0.0547
18120SOL    HW160706   0.436   4.695   3.635 -0.5610 -0.6735 -0.7343
18120SOL    HW260707   0.434   4.828   3.563  1.0473  0.4748  1.2082
18121SOL     OW60708   1.238   4.982   5.724 -0.3797 -0.0871 -0.4611
18121SOL    HW160709   1.264   4.900   5.765  1.4060  1.0808  0.9041
18121SOL    HW260710   1.160   5.009   5.773  0.8545  0.5339  1.2788
18122SOL     OW60711   0.587   5.436   6.020  0.4295  0.5799  0.6658
18122SOL    HW160712   0.632   5.352   6.013 -1.7423 -0.5322 -2.5362
18122SOL    HW260713   0.535   5.430   6.100 -0.5304 -1.6852 -0.0456
18123SOL     OW60714   4.647   5.567   1.318  0.2761 -0.0256 -0.1320
18123SOL    HW160715   4.616   5.476   1.322 -0.7507  0.2846 -0.5888
18123SOL    HW260716   4.610   5.601   1.237 -1.3601  1.4978  1.1670
18124SOL     OW60717   8.085   1.352   0.151  0.1530 -0.1191  0.1260
18124SOL    HW160718   8.120   1.299   0.080 -1.1218 -0.7930 -0.0355
18124SOL    HW260719   8.006   1.305   0.179  0.4930  0.2600  1.8215
18125SOL     OW60720   1.750   5.443   3.164 -0.5574 -0.1282 -0.2907
18125SOL    HW160721   1.800   5.524   3.152 -1.2629  0.3758  0.0829
18125SOL    HW260722   1.727   5.443   3.257 -1.4542 -0.2236 -0.5017
18126SOL     OW60723   1.159   5.136   4.603  0.3869  0.7116 -0.3823
18126SOL    HW160724   1.171   5.116   4.510  1.1396 -2.3109  0.2536
18126SOL    HW260725   1.244   5.120   4.643 -0.4959 -0.4702  1.1505
18127SOL     OW60726   3.389   9.024   5.547  0.5232  0.6322 -0.1026
18127SOL    HW160727   3.334   9.032   5.624  0.6765 -0.5492  0.1371
18127SOL    HW260728   3.471   9.068   5.572  0.6291  0.1165  0.4620
18128SOL     OW60729   6.819   4.250   0.526 -0.5567 -0.2402 -0.0921
18128SOL    HW160730   6.772   4.257   0.442  1.2587  3.2295 -1.0026
18128SOL    HW260731   6.911   4.252   0.501  0.1424 -3.0666  1.8753
18129SOL     OW60732   3.232   3.091   1.945  0.7438  0.1307 -0.3641
18129SOL    HW160733   3.200   3.163   1.999  0.2681 -0.9959  0.9177
18129SOL    HW260734   3.161   3.026   1.948  0.2557  0.4007 -3.1667
18130SOL     OW60735   1.153   2.037   4.068  0.4457  0.0996  0.2490
18130SOL    HW160736   1.136   1.947   4.097  1.0758  0.0818  0.5637
18130SOL    HW260737   1.072   2.084   4.089  0.0411 -0.4326 -0.0930
18131SOL     OW60738   6.980   2.119   5.974 -0.3355  0.9517  0.0474
18131SOL    HW160739   7.071   2.098   5.957 -0.1778 -0.0372  1.8388
18131SOL    HW260740   6.933   2.037   5.960 -0.7110  1.0670  0.5695
18132SOL     OW60741   2.880   4.434   5.647  0.3750 -0.8212  0.1202
18132SOL    HW160742   2.912   4.399   5.564 -1.2661 -1.1272 -0.4288
18132SOL    HW260743   2.932   4.512   5.662  1.5193 -1.4244 -0.5783
18133SOL     OW60744   7.147   2.059   6.546  0.2890 -0.2398 -0.1668
18133SOL    HW160745   7.149   2.153   6.564 -0.6207  0.3253 -2.6220
18133SOL    HW260746   7.054   2.037   6.544  0.5071 -1.4447  1.3084
18134SOL     OW60747   4.885   0.157   0.664 -0.2237  0.5380  0.1219
18134SOL    HW160748   4.852   0.113   0.586  1.4487 -0.3395 -0.1432
18134SOL    HW260749   4.809   0.201   0.701 -1.3399 -0.1712 -1.2377
18135SOL     OW60750   3.013   7.617   6.497 -0.0586 -0.0670 -0.2172
18135SOL    HW160751   2.948   7.687   6.501 -0.0842 -0.1446  1.5241
18135SOL    HW260752   3.005   7.572   6.582  0.5403 -1.6551 -0.9526
18136SOL     OW60753   9.205   2.139   5.433  0.3281  0.1252 -0.1350
18136SOL    HW160754   9.236   2.049   5.442 -0.4251 -0.2156 -0.8046
18136SOL    HW260755   9.172   2.162   5.520  2.2360  0.4468  0.5542
18137SOL     OW60756   2.147   1.188   0.807 -0.4909 -0.2076 -0.0670
18137SOL    HW160757   2.193   1.270   0.829 -0.4409 -0.6289  1.5149
18137SOL    HW260758   2.122   1.199   0.715 -1.0146  1.8457  0.2641
18138SOL     OW60759   1.629   6.662   5.313 -0.3630  0.1785  1.1046
18138SOL    HW160760   1.598   6.694   5.228 -1.2545 -0.8812  1.0074
18138SOL    HW260761   1.623   6.567   5.306  0.6473  0.0416  1.9663
18139SOL     OW60762   2.577   2.928   6.338  0.5768  0.2853 -0.3007
18139SOL    HW160763   2.589   2.875   6.259  0.3787 -0.3359  0.0782
18139SOL    HW260764   2.486   2.956   6.335  0.9286  1.4338 -0.9952
18140SOL     OW60765   7.112   1.235   7.642 -0.6005  0.5436 -0.2334
18140SOL    HW160766   7.054   1.226   7.567 -1.2070 -1.4587  0.3936
18140SOL    HW260767   7.198   1.208   7.609 -0.3732  1.8055 -0.7234
18141SOL     OW60768   0.072   6.130   3.710  0.3697 -0.1324  0.2027
18141SOL    HW160769   0.121   6.160   3.634  1.0327  0.3699  0.8033
18141SOL    HW260770   0.090   6.196   3.777  0.8563 -1.2080  1.1829
18142SOL     OW60771   2.564   4.622   1.190  0.0427 -0.5049  0.0378
18142SOL    HW160772   2.558   4.707   1.234  0.0554 -0.8114  0.6453
18142SOL    HW260773   2.495   4.625   1.123  1.3566  0.7576 -1.3436
18143SOL     OW60774   3.566   3.706   7.060  0.0728  0.2972 -0.0656
18143SOL    HW160775   3.497   3.730   6.998  0.2956  0.2868 -0.3202
18143SOL    HW260776   3.644   3.752   7.027  0.0468  0.8152  0.5688
18144SOL     OW60777   6.657   5.996   4.230  0.2705  0.5150  0.1344
18144SOL    HW160778   6.752   5.990   4.233  0.3228  0.8751 -0.5219
18144SOL    HW260779   6.629   5.993   4.321  0.8107 -1.0096  0.2756
18145SOL     OW60780   3.389   7.283   4.840  0.3553  0.7137  0.1449
18145SOL    HW160781   3.398   7.371   4.802  1.2536  0.8069  0.5479
18145SOL    HW260782   3.331   7.295   4.916  0.5744  0.9823  0.2706
18146SOL     OW60783   3.915   9.230   2.778  0.6552  0.8421  0.1018
18146SOL    HW160784   3.999   9.190   2.800  0.6369 -0.3327 -1.7550
18146SOL    HW260785   3.853   9.194   2.842  0.9274 -1.0114 -0.6252
18147SOL     OW60786   1.141   7.832   2.480  0.0342 -0.0229 -0.0861
18147SOL    HW160787   1.219   7.880   2.453 -0.4806  2.1800  2.0030
18147SOL    HW260788   1.126   7.859   2.571 -2.3598 -1.4377  0.0298
18148SOL     OW60789   3.619   2.824   7.846 -0.2411 -0.0491  0.5561
18148SOL    HW160790   3.618   2.730   7.831 -0.7139  0.0081  0.2172
18148SOL    HW260791   3.692   2.856   7.793 -0.7619 -0.0874 -0.1977
18149SOL     OW60792   8.556   4.441   9.007 -0.1147  0.2066  0.1032
18149SOL    HW160793   8.615   4.451   8.933 -2.5866  1.5139 -1.8613
18149SOL    HW260794   8.538   4.347   9.011  0.5433  0.0434 -0.5183
18150SOL     OW60795   8.964   7.075   5.816 -0.2338 -0.3121 -0.3511
18150SOL    HW160796   8.960   7.003   5.753  1.5167 -0.0550 -0.7990
18150SOL    HW260797   8.953   7.033   5.901  0.6857 -1.1207 -0.6139
18151SOL     OW60798   7.423   3.211   4.736  0.0204  0.1612  0.6281
18151SOL    HW160799   7.437   3.306   4.741 -0.5920  0.6365 -3.5083
18151SOL    HW260800   7.509   3.175   4.717 -0.2418  0.3547 -1.1065
18152SOL     OW60801   4.480   1.503   6.848 -0.1987 -0.1380  0.4996
18152SOL    HW160802   4.494   1.411   6.867 -0.1720 -0.2077  0.1626
18152SOL    HW260803   4.387   1.518   6.868 -0.4031 -0.4324 -0.1638
18153SOL     OW60804   7.958   1.779   4.673  0.0193  0.4039 -0.3533
18153SOL    HW160805   7.921   1.795   4.587  0.7750 -1.9438 -1.1757
18153SOL    HW260806   7.910   1.703   4.706  0.3610  0.7164  0.9276
18154SOL     OW60807   6.413   0.107   1.419  0.0274 -0.0308 -0.7082
18154SOL    HW160808   6.455   0.186   1.382 -0.3692  0.9344  0.8189
18154SOL    HW260809   6.323   0.134   1.437 -1.0505 -1.7636 -2.9389
18155SOL     OW60810   2.765   0.384   2.508 -0.0506  0.3366 -0.7906
18155SOL    HW160811   2.753   0.478   2.491 -0.2072  0.7385  1.2672
18155SOL    HW260812   2.800   0.380   2.597  0.9172 -1.5338 -1.2048
18156SOL     OW60813   8.087   3.029   7.775  0.0467  0.8182 -0.1120
18156SOL    HW160814   8.100   3.064   7.863  0.7704  1.4682 -0.4576
18156SOL    HW260815   7.996   3.000   7.773 -0.1227  1.2714  0.6851
18157SOL     OW60816   7.023   8.101   8.802 -0.3156 -0.2879  0.1876
18157SOL    HW160817   6.929   8.095   8.818 -0.4833 -3.2478 -1.2535
18157SOL    HW260818   7.062   8.037   8.861  1.0723  1.9068  1.8302
18158SOL     OW60819   5.483   3.942   4.312  0.2707  0.3707  0.0844
18158SOL    HW160820   5.519   3.865   4.269  0.1441  0.1296  0.4051
18158SOL    HW260821   5.540   4.014   4.284 -0.0726  0.3033 -0.8319
18159SOL     OW60822   7.235   3.193   1.706 -0.0268  0.1509 -0.0821
18159SOL    HW160823   7.284   3.239   1.638 -1.7686 -0.1662 -1.6231
18159SOL    HW260824   7.176   3.259   1.742  0.7362  0.2624  1.0423
18160SOL     OW60825   4.044   4.729   5.280  0.2471  0.4440 -0.1836
18160SOL    HW160826   4.088   4.814   5.269 -2.3490  1.9677  0.2462
18160SOL    HW260827   3.984   4.724   5.205  0.3955 -1.0668 -0.2207
18161SOL     OW60828   3.148   0.973   5.259 -0.0057  0.2199  0.4447
18161SOL    HW160829   3.222   0.921   5.229  0.3414 -0.3479  2.1585
18161SOL    HW260830   3.091   0.981   5.183  0.8815 -1.0074 -0.3765
18162SOL     OW60831   2.479   3.895   0.138 -0.4104 -0.2815 -0.8649
18162SOL    HW160832   2.406   3.846   0.177  0.0406 -1.2648 -1.2285
18162SOL    HW260833   2.438   3.973   0.101 -0.8910  0.6176  1.3754
18163SOL     OW60834   4.339   6.950   1.385  0.4059 -0.0166  0.3227
18163SOL    HW160835   4.256   6.994   1.401 -0.2369 -1.1917  0.2827
18163SOL    HW260836   4.317   6.873   1.334  1.4695 -0.5509  0.6316
18164SOL     OW60837   3.382   6.394   6.719  0.4543  0.3100  0.1185
18164SOL    HW160838   3.320   6.431   6.783 -1.6429 -2.0373 -0.4082
18164SOL    HW260839   3.440   6.467   6.697 -1.0081  2.1591  1.9949
18165SOL     OW60840   3.044   6.368   7.243  0.1267  0.1732  0.7646
18165SOL    HW160841   3.050   6.311   7.319 -0.1756 -0.2451  0.4799
18165SOL    HW260842   2.976   6.431   7.266  0.0113  0.0267  0.8288
18166SOL     OW60843   3.734   6.827   8.724 -0.7904  0.5831  0.0132
18166SOL    HW160844   3.775   6.912   8.741  0.4320 -0.0740  0.4316
18166SOL    HW260845   3.705   6.832   8.632  2.1445  0.3397 -1.0261
18167SOL     OW60846   9.097   3.583   4.328 -0.1472 -0.6363 -0.1763
18167SOL    HW160847   9.088   3.624   4.414  0.4416  1.9487 -1.2690
18167SOL    HW260848   9.187   3.550   4.326 -0.3056 -1.1160  0.3375
18168SOL     OW60849   3.774   5.866   3.253 -0.4320  0.3505  0.1933
18168SOL    HW160850   3.687   5.830   3.236  0.0660 -0.8219  0.0407
18168SOL    HW260851   3.759   5.960   3.263 -1.7192  0.1645  0.2220
18169SOL     OW60852   3.754   8.792   1.448 -0.5599  0.1334  0.1978
18169SOL    HW160853   3.786   8.875   1.412  0.5701 -0.4633 -0.2256
18169SOL    HW260854   3.723   8.743   1.373 -1.6802  0.3326  0.5028
18170SOL     OW60855   0.806   4.994   0.263 -0.3448 -0.4330 -0.4145
18170SOL    HW160856   0.768   4.991   0.176 -0.9496  1.2626 -0.2437
18170SOL    HW260857   0.768   5.072   0.303  0.5351 -0.7338  1.0823
18171SOL     OW60858   7.230   4.404   6.167 -0.4630 -0.1326 -0.0383
18171SOL    HW160859   7.240   4.309   6.174 -0.9480 -0.1636  0.3174
18171SOL    HW260860   7.233   4.435   6.257 -1.1998  0.0850 -0.0780
18172SOL     OW60861   1.383   5.811   2.032 -0.3648 -0.1518  0.2187
18172SOL    HW160862   1.468   5.796   1.991 -1.0616 -1.1361 -0.9351
18172SOL    HW260863   1.396   5.788   2.124  0.6234 -0.2266  0.0694
18173SOL     OW60864   0.903   8.419   3.005 -0.7858 -0.2964  0.0481
18173SOL    HW160865   0.852   8.445   3.082 -0.3258 -1.2125  0.6709
18173SOL    HW260866   0.993   8.443   3.026 -0.8799  1.1389 -0.9731
18174SOL     OW60867   0.463   8.786   6.652  0.1685 -0.0161 -0.2691
18174SOL    HW160868   0.426   8.874   6.657  1.0015  0.5688 -2.6955
18174SOL    HW260869   0.393   8.733   6.615 -0.1100 -0.2345  0.5574
18175SOL     OW60870   2.916   9.078   8.642 -0.1087  0.0759 -0.6543
18175SOL    HW160871   3.009   9.101   8.652 -0.2231  0.1999  0.2127
18175SOL    HW260872   2.880   9.086   8.730 -0.5382 -1.7777 -0.6248
18176SOL     OW60873   6.812   7.202   2.855 -0.4541  0.3867 -0.0501
18176SOL    HW160874   6.864   7.168   2.783 -1.9662  1.3056 -1.6525
18176SOL    HW260875   6.722   7.197   2.824 -1.1497  0.9389  1.7343
18177SOL     OW60876   0.053   7.321   1.306  0.3587 -0.5311  0.0492
18177SOL    HW160877   0.055   7.255   1.375 -0.3938  0.4824  1.0632
18177SOL    HW260878   0.115   7.388   1.334 -0.9058  0.5154  0.4126
18178SOL     OW60879   0.234   8.707   9.105  0.5457 -0.2796 -0.0914
18178SOL    HW160880   0.274   8.690   9.191  2.0732 -1.2781 -0.9584
18178SOL    HW260881   0.298   8.675   9.042 -0.3829  0.7836 -1.6383
18179SOL     OW60882   2.969   3.189   6.359  0.3933 -0.0387  0.5812
18179SOL    HW160883   2.982   3.256   6.292 -0.6531  0.5926  0.9783
18179SOL    HW260884   3.056   3.177   6.398  0.3841  2.0419  1.3687
18180SOL     OW60885   4.672   5.135   2.315 -0.2101  0.3872 -0.2048
18180SOL    HW160886   4.597   5.125   2.373 -0.2643 -2.3939 -0.6221
18180SOL    HW260887   4.748   5.131   2.373 -0.2797  2.2264  0.0998
18181SOL     OW60888   4.021   4.686   1.778 -0.2496  0.7494 -0.2229
18181SOL    HW160889   3.955   4.754   1.789 -1.2847 -0.4554  1.5350
18181SOL    HW260890   3.980   4.606   1.811  1.7704 -0.2384  0.0953
18182SOL     OW60891   2.429   4.511   7.478  0.0761 -0.2041 -0.1554
18182SOL    HW160892   2.431   4.577   7.409  0.5589 -0.5120 -0.4396
18182SOL    HW260893   2.495   4.540   7.541  0.4139 -0.5065 -0.3674
18183SOL     OW60894   3.123   3.553   7.983  0.5476 -0.2390 -0.2690
18183SOL    HW160895   3.046   3.507   8.015 -0.7751  2.2077  0.3043
18183SOL    HW260896   3.176   3.568   8.062  1.5472 -1.6654 -0.6185
18184SOL     OW60897   5.012   6.292   1.121 -0.3520  0.6545  0.3202
18184SOL    HW160898   4.919   6.270   1.122 -0.2354 -0.0502 -1.0362
18184SOL    HW260899   5.017   6.376   1.075 -0.2461  0.0530 -0.8261
18185SOL     OW60900   0.250   1.547   0.659 -0.0543  0.1217  0.2054
18185SOL    HW160901   0.168   1.575   0.617 -1.6185 -0.8904  2.3754
18185SOL    HW260902   0.236   1.454   0.678  1.8244 -0.1942  0.2340
18186SOL     OW60903   3.965   1.929   7.471  0.0896  0.1227 -0.1065
18186SOL    HW160904   3.972   1.913   7.566 -0.6818 -0.0062 -0.0676
18186SOL    HW260905   3.927   2.017   7.465 -2.0278 -0.7598 -0.2635
18187SOL     OW60906   0.550   0.524   4.048  0.1972 -0.1997 -0.4019
18187SOL    HW160907   0.632   0.549   4.091  0.5203  0.6279 -1.4751
18187SOL    HW260908   0.578   0.479   3.968 -0.3972  0.4361 -0.9716
18188SOL     OW60909   0.851   2.651   7.970  0.6815  0.7955 -0.0051
18188SOL    HW160910   0.883   2.683   8.054  1.2158  0.7951 -0.2018
18188SOL    HW260911   0.869   2.722   7.908  1.6032  0.2562 -0.3853
18189SOL     OW60912   4.070   6.627   3.886  0.1105 -0.1024  0.1525
18189SOL    HW160913   4.046   6.631   3.979  1.0724 -2.3546  0.5520
18189SOL    HW260914   4.165   6.636   3.885 -0.0493  2.4604 -0.9075
18190SOL     OW60915   4.383   0.614   0.348 -0.0496  0.4432 -0.0152
18190SOL    HW160916   4.301   0.656   0.325  0.0835  0.7757  0.1051
18190SOL    HW260917   4.378   0.526   0.309 -0.1753  0.6996 -0.5812
18191SOL     OW60918   5.363   8.779   3.622  0.2516 -0.3897 -0.5020
18191SOL    HW160919   5.375   8.870   3.647 -1.5121 -0.4532  0.7228
18191SOL    HW260920   5.309   8.783   3.543 -1.7149 -0.3831  0.7926
18192SOL     OW60921   4.729   0.315   3.248 -0.5373 -0.2321 -0.3132
18192SOL    HW160922   4.700   0.246   3.188 -1.8954 -0.8839  1.0203
18192SOL    HW260923   4.781   0.270   3.314 -1.3008  0.0180  0.4826
18193SOL     OW60924   9.198   5.811   8.627 -0.5751 -0.0089 -0.0102
18193SOL    HW160925   9.239   5.784   8.545 -1.0000 -0.8475  0.0407
18193SOL    HW260926   9.265   5.799   8.694 -0.9627 -1.6747  0.1218
18194SOL     OW60927   4.856   2.980   1.439  0.0447 -0.0267  0.3890
18194SOL    HW160928   4.789   2.988   1.371 -0.5042 -0.2611  0.8896
18194SOL    HW260929   4.901   2.898   1.419 -0.7396 -0.5846  0.8317
18195SOL     OW60930   4.109   0.292   8.867 -0.2368 -0.3099 -0.0118
18195SOL    HW160931   4.062   0.355   8.812 -1.0286  0.0908  1.0994
18195SOL    HW260932   4.199   0.295   8.835 -0.6292  0.0698 -1.1349
18196SOL     OW60933   1.742   3.188   6.785 -0.0735 -0.1637  1.0251
18196SOL    HW160934   1.788   3.106   6.764 -1.4702 -0.5364 -0.8079
18196SOL    HW260935   1.654   3.159   6.809 -1.2566  0.8745 -1.7660
18197SOL     OW60936   6.550   3.851   0.449  0.1114  0.0015 -0.0434
18197SOL    HW160937   6.485   3.918   0.429  0.1014  0.0694  0.2178
18197SOL    HW260938   6.504   3.789   0.506  0.7185  0.8539  1.4060
18198SOL     OW60939   2.620   8.113   5.504 -0.2160 -0.5581  0.3278
18198SOL    HW160940   2.706   8.155   5.515 -1.7411  3.2224 -0.7898
18198SOL    HW260941   2.637   8.040   5.444  2.1071  0.6855 -0.6726
18199SOL     OW60942   0.944   2.747   1.721  0.6415 -0.5130  0.3496
18199SOL    HW160943   0.875   2.687   1.750  0.4780 -0.1110  0.8068
18199SOL    HW260944   1.015   2.689   1.692  0.9066 -0.9465  1.7713
18200SOL     OW60945   3.169   1.396   6.182  0.0583  0.1022 -0.0525
18200SOL    HW160946   3.202   1.339   6.113  0.2973  1.0636 -0.7466
18200SOL    HW260947   3.237   1.394   6.250 -0.1721 -0.8340  0.1538
18201SOL     OW60948   4.109   3.031   1.636  0.1227 -0.2820 -0.0014
18201SOL    HW160949   4.079   2.951   1.594 -0.7427  0.6773 -1.3087
18201SOL    HW260950   4.138   3.087   1.563  1.2795  0.3787  0.9182
18202SOL     OW60951   8.134   2.707   5.016 -0.0549 -0.2433  0.4814
18202SOL    HW160952   8.125   2.613   5.024  0.9951 -0.3368  0.8659
18202SOL    HW260953   8.183   2.720   4.935 -0.1088 -0.0422  0.4806
18203SOL     OW60954   2.748   1.650   8.445  0.2578 -0.0394  0.3687
18203SOL    HW160955   2.820   1.613   8.394 -0.6131 -1.0673 -0.1515
18203SOL    HW260956   2.717   1.723   8.392 -0.0817 -0.5615 -0.1609
18204SOL     OW60957   4.013   0.922   2.892 -0.3375 -0.5318 -0.4268
18204SOL    HW160958   4.087   0.892   2.839 -2.0172 -2.8932 -1.6018
18204SOL    HW260959   4.054   0.962   2.969  2.2036  1.8716 -2.7823
18205SOL     OW60960   1.604   9.052   1.841  0.4211 -0.4504 -0.3050
18205SOL    HW160961   1.638   8.989   1.777  0.4219 -0.9989  0.2295
18205SOL    HW260962   1.538   9.003   1.890 -0.7622  0.4347 -0.9493
18206SOL     OW60963   1.081   5.990   4.409 -0.2414  0.3294 -0.1849
18206SOL    HW160964   1.144   6.061   4.423  0.8608 -0.5096 -0.7874
18206SOL    HW260965   1.119   5.937   4.339 -1.9800  0.1988 -1.0818
18207SOL     OW60966   7.924   1.129   0.249  0.4791 -0.2919  0.1727
18207SOL    HW160967   8.008   1.093   0.221  0.2148 -1.0227  0.3138
18207SOL    HW260968   7.859   1.083   0.195  0.1913  0.6181 -0.2890
18208SOL     OW60969   1.933   6.534   1.383 -0.0572 -0.6901 -0.4642
18208SOL    HW160970   1.858   6.593   1.382 -0.2603 -0.9158  0.7827
18208SOL    HW260971   1.904   6.457   1.430  0.6307 -1.2435 -0.9080
18209SOL     OW60972   0.650   2.682   8.791 -0.5009 -0.6275 -0.1194
18209SOL    HW160973   0.619   2.630   8.864  1.1406 -0.5313  0.7053
18209SOL    HW260974   0.668   2.618   8.721 -1.4261 -0.7979 -0.2028
18210SOL     OW60975   1.986   3.793   5.005  0.1377 -0.0913  0.5539
18210SOL    HW160976   1.968   3.837   5.088  0.9156 -0.0857  0.7273
18210SOL    HW260977   1.903   3.795   4.958 -0.6903 -1.3250  1.8981
18211SOL     OW60978   8.801   4.534   0.336 -0.0808 -0.1859  0.1734
18211SOL    HW160979   8.726   4.479   0.312 -0.0529 -0.7339  1.3094
18211SOL    HW260980   8.876   4.474   0.336  0.2576  0.2276 -0.3165
18212SOL     OW60981   7.917   4.549   2.004  0.0998  0.0510 -0.1779
18212SOL    HW160982   7.893   4.637   2.033 -2.2446 -0.8405  0.8284
18212SOL    HW260983   8.003   4.534   2.043 -0.3094  1.1899  1.2497
18213SOL     OW60984   7.393   4.695   3.056 -0.0356  0.4143  0.4224
18213SOL    HW160985   7.445   4.682   3.136  0.4123 -2.6133 -0.2326
18213SOL    HW260986   7.352   4.610   3.040 -0.4562  1.0365 -2.3359
18214SOL     OW60987   9.194   3.984   3.068  0.2826  0.4477  0.1082
18214SOL    HW160988   9.138   3.971   3.144  1.0914  0.8105  0.7742
18214SOL    HW260989   9.192   4.078   3.052  0.1825  0.3841 -0.2779
18215SOL     OW60990   7.952   9.086   3.406 -0.2426 -0.1560 -0.0256
18215SOL    HW160991   7.863   9.118   3.391 -0.5418 -0.1425  1.5613
18215SOL    HW260992   8.003   9.165   3.423 -1.0360 -0.2998  4.1710
18216SOL     OW60993   6.866   3.151   8.467  0.2379 -0.0551 -0.0336
18216SOL    HW160994   6.797   3.094   8.502 -0.7243 -0.2721 -2.1188
18216SOL    HW260995   6.864   3.134   8.372  1.8841  1.3559 -0.3520
18217SOL     OW60996   8.955   3.608   0.192 -0.2303 -0.1583  0.0912
18217SOL    HW160997   8.955   3.646   0.279 -0.8355  0.5652 -0.2119
18217SOL    HW260998   8.936   3.681   0.133 -1.3067 -0.8867 -0.5157
18218SOL     OW60999   3.228   3.044   4.084  0.6837 -0.7355  0.2471
18218SOL    HW161000   3.137   3.058   4.110  0.5424 -1.1293 -0.0198
18218SOL    HW261001   3.266   2.992   4.155  1.1846  0.8572  1.1947
18219SOL     OW61002   1.287   7.849   5.425  0.3602 -0.3720 -0.4298
18219SOL    HW161003   1.309   7.757   5.413  0.8867 -0.1184 -1.6155
18219SOL    HW261004   1.263   7.879   5.337  1.3496  0.8925 -0.2918
18220SOL     OW61005   1.083   7.444   6.260  0.3109  0.1990  0.5791
18220SOL    HW161006   1.112   7.387   6.332  1.7474  1.9994  1.5180
18220SOL    HW261007   1.108   7.532   6.288  0.1388  1.0650 -1.7883
18221SOL     OW61008   1.578   2.882   8.304  0.2369 -0.5355  0.1864
18221SOL    HW161009   1.621   2.896   8.220  1.8540 -0.3704  0.9878
18221SOL    HW261010   1.572   2.969   8.343 -0.7830 -0.5700  0.1150
18222SOL     OW61011   2.067   9.001   7.542  0.6477  0.1774  0.3197
18222SOL    HW161012   1.994   8.974   7.486 -0.1664 -3.2143  2.6806
18222SOL    HW261013   2.026   9.056   7.609  0.9734  1.3380 -0.4229
18223SOL     OW61014   3.294   5.197   8.322 -0.3949  0.2366  0.1763
18223SOL    HW161015   3.234   5.154   8.383 -0.6262 -0.3855 -0.4798
18223SOL    HW261016   3.270   5.162   8.236 -0.7854  1.8837 -0.4292
18224SOL     OW61017   5.975   2.763   4.063  0.6468  0.2304  0.0517
18224SOL    HW161018   6.016   2.831   4.117  0.6744  0.8607 -0.7362
18224SOL    HW261019   5.884   2.760   4.093  1.1105 -0.7703  1.4168
18225SOL     OW61020   3.614   5.680   2.524 -0.2174  0.2090 -0.4708
18225SOL    HW161021   3.575   5.727   2.597  0.4873  1.0161 -0.5916
18225SOL    HW261022   3.667   5.746   2.479 -0.0728 -0.4478 -1.2879
18226SOL     OW61023   9.010   4.520   2.705  0.0913  0.1169  0.5223
18226SOL    HW161024   9.102   4.494   2.700  0.5219  1.2167  1.9716
18226SOL    HW261025   9.010   4.611   2.676 -0.2985  0.5193  1.7048
18227SOL     OW61026   3.419   4.230   2.403  0.2853 -0.0931 -0.0539
18227SOL    HW161027   3.405   4.148   2.357  0.7077  0.2141 -0.7453
18227SOL    HW261028   3.512   4.230   2.426  0.0399 -0.3374  1.0028
18228SOL     OW61029   0.159   3.108   1.521 -0.7660  0.2249  0.0383
18228SOL    HW161030   0.243   3.154   1.530 -0.4223 -0.4834  0.4887
18228SOL    HW261031   0.181   3.026   1.477 -0.8608 -0.9605  2.0884
18229SOL     OW61032   1.314   2.839   3.779  0.2356  0.1631  0.0680
18229SOL    HW161033   1.267   2.777   3.835  1.5278 -1.0491 -0.1283
18229SOL    HW261034   1.395   2.793   3.756  0.9784  1.7241 -0.5470
18230SOL     OW61035   3.151   1.549   4.377  0.1558 -0.0039 -0.1713
18230SOL    HW161036   3.231   1.555   4.326  0.4902  2.7631  0.4781
18230SOL    HW261037   3.083   1.582   4.319 -0.1839 -0.5719 -0.1030
18231SOL     OW61038   7.342   0.424   1.490 -0.3405  0.5448 -0.6128
18231SOL    HW161039   7.297   0.492   1.439 -3.0584 -1.3263 -0.9171
18231SOL    HW261040   7.377   0.364   1.424 -1.4510 -0.4163 -0.3554
18232SOL     OW61041   3.286   5.240   6.582 -0.4820  0.3272 -0.0720
18232SOL    HW161042   3.239   5.322   6.599  0.4704  0.7207  0.7980
18232SOL    HW261043   3.363   5.245   6.639 -0.8318 -1.5437  0.6459
18233SOL     OW61044   3.154   1.812   8.726 -0.3009  0.0136  0.0995
18233SOL    HW161045   3.245   1.797   8.698  0.1585 -0.8276  1.9146
18233SOL    HW261046   3.131   1.734   8.776 -2.5172 -0.3894 -1.3978
18234SOL     OW61047   0.150   3.496   3.559  0.1646 -0.0018  0.5453
18234SOL    HW161048   0.191   3.450   3.486 -0.5282 -0.1618  0.2497
18234SOL    HW261049   0.212   3.487   3.631  0.0280 -1.4410  0.5037
18235SOL     OW61050   5.155   3.850   0.710  0.4136  0.3803 -0.1151
18235SOL    HW161051   5.212   3.877   0.638  2.6904  0.5432  1.6374
18235SOL    HW261052   5.127   3.761   0.687 -0.7557  1.2152 -2.1982
18236SOL     OW61053   2.983   2.984   4.178  0.4872  0.5166  0.0962
18236SOL    HW161054   2.962   2.961   4.269  0.1103 -1.2401 -0.4066
18236SOL    HW261055   2.898   2.997   4.136  0.6621  1.3317 -0.0225
18237SOL     OW61056   2.662   2.311   0.325 -0.6263  0.0881 -0.7029
18237SOL    HW161057   2.601   2.238   0.310  1.2817 -1.6574 -0.4649
18237SOL    HW261058   2.716   2.313   0.246 -0.2240  0.8130 -0.4135
18238SOL     OW61059   4.549   7.926   0.593  0.4761 -0.0204  0.1907
18238SOL    HW161060   4.488   7.925   0.666  0.0822 -0.3587 -0.1364
18238SOL    HW261061   4.629   7.965   0.628  0.7824 -1.4855  1.2060
18239SOL     OW61062   2.961   1.232   1.859 -0.1680  0.1269  0.8674
18239SOL    HW161063   2.948   1.317   1.817  1.0408  0.2082  0.6365
18239SOL    HW261064   2.979   1.172   1.787  0.3053 -0.0512  1.1287
18240SOL     OW61065   7.523   5.355   7.681 -0.3689  0.3566 -0.6308
18240SOL    HW161066   7.526   5.336   7.775  1.8448  0.0361 -0.6983
18240SOL    HW261067   7.451   5.417   7.671  0.2587  1.5523  1.5166
18241SOL     OW61068   4.053   9.194   5.802 -0.4177 -0.1230  0.7471
18241SOL    HW161069   3.987   9.264   5.800 -0.0518  0.2418 -1.0042
18241SOL    HW261070   4.006   9.118   5.835 -1.5413  0.3197  0.2574
18242SOL     OW61071   1.014   3.863   2.636 -0.3737  0.0750  0.3219
18242SOL    HW161072   0.927   3.826   2.652 -0.3859 -0.3957 -0.7593
18242SOL    HW261073   1.008   3.902   2.549  0.3081  0.6390  0.5151
18243SOL     OW61074   0.642   4.628   4.986 -0.4524 -0.3698 -0.2892
18243SOL    HW161075   0.650   4.545   5.032  2.3762 -1.3071 -2.2172
18243SOL    HW261076   0.547   4.642   4.978 -1.0073 -2.1796  2.0831
18244SOL     OW61077   3.865   1.432   7.784 -0.0329  0.1045  0.8531
18244SOL    HW161078   3.869   1.342   7.816 -1.2219  0.5193  2.2844
18244SOL    HW261079   3.772   1.447   7.767  0.3811  0.3909 -1.5161
18245SOL     OW61080   5.645   8.449   4.180  0.2055  0.2611  0.4542
18245SOL    HW161081   5.698   8.388   4.130 -0.9586 -0.1488 -0.3145
18245SOL    HW261082   5.607   8.396   4.250  0.1824  0.3766  0.5293
18246SOL     OW61083   7.298   0.303   7.610 -0.1241 -0.2568  0.1475
18246SOL    HW161084   7.392   0.303   7.591 -0.0434 -0.6540  0.5290
18246SOL    HW261085   7.260   0.360   7.543 -0.1914 -3.4686 -2.8464
18247SOL     OW61086   2.490   4.220   2.616  0.0141 -0.6333  0.0645
18247SOL    HW161087   2.549   4.247   2.687  0.6281 -0.6071 -0.4454
18247SOL    HW261088   2.521   4.269   2.539  0.9116 -2.4605 -0.7912
18248SOL     OW61089   0.896   0.458   9.077  0.0307 -0.3875 -0.1699
18248SOL    HW161090   0.887   0.502   8.992  1.7225  0.9627  0.2916
18248SOL    HW261091   0.851   0.515   9.139  1.2625  0.1586  0.2540
18249SOL     OW61092   5.990   8.738   3.640  0.3496 -0.5751  0.2231
18249SOL    HW161093   5.951   8.671   3.583  0.9201 -0.8993  0.2121
18249SOL    HW261094   6.082   8.741   3.614  0.7045 -0.9886  1.3701
18250SOL     OW61095   3.723   2.009   8.344  0.2880  1.0988 -0.4329
18250SOL    HW161096   3.803   2.060   8.343  0.1214  1.4861 -3.5351
18250SOL    HW261097   3.742   1.933   8.289 -0.4110 -0.7715  1.6944
18251SOL     OW61098   3.667   3.807   4.901  0.0356 -0.1456  0.2595
18251SOL    HW161099   3.622   3.869   4.957 -0.0109 -0.1163  0.1900
18251SOL    HW261100   3.612   3.728   4.903 -0.8504  0.3926 -1.0393
18252SOL     OW61101   7.632   2.759   0.521  0.2037 -0.2511 -0.4852
18252SOL    HW161102   7.650   2.666   0.533  1.2141 -0.1130 -0.8395
18252SOL    HW261103   7.671   2.780   0.436  0.5949  0.6370 -0.0953
18253SOL     OW61104   2.946   6.921   6.526 -0.0113 -0.5416  0.2381
18253SOL    HW161105   2.858   6.929   6.562 -0.5121 -3.2363 -0.1953
18253SOL    HW261106   2.962   6.826   6.521  1.7244 -0.2139 -2.5416
18254SOL     OW61107   6.003   5.688   1.037 -0.3080  0.2998  0.6795
18254SOL    HW161108   6.046   5.607   1.066  0.4023 -0.0758 -1.2766
18254SOL    HW261109   6.019   5.750   1.108 -0.5299 -1.1285  2.0522
18255SOL     OW61110   2.785   2.512   5.840  0.2525 -0.2050  0.4000
18255SOL    HW161111   2.859   2.506   5.780  0.8691  1.6620  0.8935
18255SOL    HW261112   2.794   2.437   5.898  1.4480 -0.2997  0.1146
18256SOL     OW61113   8.023   0.840   8.192  0.1197  0.0934  0.5162
18256SOL    HW161114   8.075   0.780   8.139 -1.6209  0.4353 -1.7607
18256SOL    HW261115   7.955   0.785   8.231 -0.1221  0.2015  0.2592
18257SOL     OW61116   4.587   3.565   5.724 -0.0569 -0.2276  0.3051
18257SOL    HW161117   4.555   3.491   5.673  0.4335 -0.6318  0.5763
18257SOL    HW261118   4.539   3.561   5.806  2.6270 -2.5906  1.9582
18258SOL     OW61119   1.649   3.728   2.822  0.2241 -0.2813 -0.5809
18258SOL    HW161120   1.571   3.677   2.846  0.4543 -0.8735 -1.0696
18258SOL    HW261121   1.703   3.728   2.901  0.9009 -2.0655 -1.0216
18259SOL     OW61122   6.979   4.840   3.400 -0.1519  0.2758 -0.1159
18259SOL    HW161123   7.019   4.766   3.354 -2.8245 -1.8034  0.6142
18259SOL    HW261124   6.887   4.815   3.409 -0.8598  3.0621  1.5290
18260SOL     OW61125   5.683   5.249   8.876  0.0791 -0.0052  0.1170
18260SOL    HW161126   5.680   5.280   8.966 -0.5407 -1.8444  0.7598
18260SOL    HW261127   5.776   5.239   8.856  0.2006  0.0080  0.6786
18261SOL     OW61128   6.320   4.237   2.834 -0.6908 -0.1310 -0.2085
18261SOL    HW161129   6.334   4.328   2.863 -0.2417 -0.0124 -0.7684
18261SOL    HW261130   6.381   4.186   2.887 -1.1274 -0.1460  0.2917
18262SOL     OW61131   3.397   8.212   1.826 -0.0514  0.2404  0.0923
18262SOL    HW161132   3.415   8.288   1.771  1.9138 -0.1506  0.1117
18262SOL    HW261133   3.374   8.142   1.765 -2.6137  0.9806  0.1169
18263SOL     OW61134   4.275   0.459   1.511 -0.2031  0.3763  0.5792
18263SOL    HW161135   4.317   0.544   1.507 -0.4029  0.4859  0.8235
18263SOL    HW261136   4.319   0.407   1.443  0.9824  0.1850  1.4821
18264SOL     OW61137   2.912   0.192   5.311  0.0430  0.6590  0.2684
18264SOL    HW161138   2.877   0.263   5.257 -2.4186  0.2840  1.2613
18264SOL    HW261139   3.001   0.179   5.278 -0.5188  2.0693 -2.0286
18265SOL     OW61140   4.400   3.457   6.897  0.0301 -0.1649  0.2200
18265SOL    HW161141   4.325   3.400   6.911 -1.3270  1.6860  0.8711
18265SOL    HW261142   4.391   3.487   6.807 -0.0088  0.0531  0.2964
18266SOL     OW61143   3.706   7.099   0.196 -0.1660 -0.0891 -0.0955
18266SOL    HW161144   3.665   7.174   0.239  1.0770  1.1922 -1.0511
18266SOL    HW261145   3.648   7.079   0.122 -0.4720 -0.0535  0.1322
18267SOL     OW61146   3.278   7.433   0.654  0.0749 -0.0797 -0.0763
18267SOL    HW161147   3.302   7.396   0.739  3.4623  1.1833 -0.3587
18267SOL    HW261148   3.293   7.362   0.592  1.9776  0.2734 -0.0724
18268SOL     OW61149   0.085   8.136   6.673  0.1235  0.7371  0.3376
18268SOL    HW161150   0.022   8.133   6.601 -0.3318  1.4674  0.6890
18268SOL    HW261151   0.054   8.208   6.729 -0.0648 -0.3980  1.7564
18269SOL     OW61152   0.277   3.739   9.096  0.7087 -0.3970 -0.2722
18269SOL    HW161153   0.345   3.732   9.164 -0.6374 -1.2776  1.0523
18269SOL    HW261154   0.303   3.815   9.044  2.6165 -0.6150  0.2690
18270SOL     OW61155   4.701   2.810   1.594  0.2683 -0.2153 -0.1280
18270SOL    HW161156   4.767   2.777   1.654  0.9536 -1.8006 -1.6706
18270SOL    HW261157   4.745   2.877   1.543  0.6282 -1.0452 -0.9354
18271SOL     OW61158   1.277   0.518   2.201  0.1044 -0.0009  0.1584
18271SOL    HW161159   1.285   0.422   2.202  2.0531  0.0346 -2.3421
18271SOL    HW261160   1.339   0.548   2.267  0.8658 -0.4695 -0.3168
18272SOL     OW61161   0.872   8.385   3.514  0.3636  0.0333 -0.3642
18272SOL    HW161162   0.877   8.481   3.507  0.4877 -0.1222 -3.2399
18272SOL    HW261163   0.778   8.366   3.514  0.3316  0.1270  0.4798
18273SOL     OW61164   3.864   3.283   5.625 -0.5710  0.3641  0.6237
18273SOL    HW161165   3.927   3.271   5.553 -0.4975  4.9644 -0.3935
18273SOL    HW261166   3.796   3.219   5.607  1.6388 -1.7889 -0.7987
18274SOL     OW61167   2.545   5.475   2.609  0.1353  0.3321 -0.1823
18274SOL    HW161168   2.499   5.521   2.679  0.8454  0.7671  0.0119
18274SOL    HW261169   2.638   5.493   2.625  0.4005 -0.7089 -0.4289
18275SOL     OW61170   7.446   3.843   3.751  0.8344  0.4303 -0.2644
18275SOL    HW161171   7.426   3.881   3.665 -2.9942  0.2883  0.3771
18275SOL    HW261172   7.467   3.752   3.732  0.0382  0.3988 -1.0883
18276SOL     OW61173   0.691   2.211   6.914 -0.7313 -0.2491 -0.3497
18276SOL    HW161174   0.717   2.246   6.829 -0.6861  0.5495 -0.0167
18276SOL    HW261175   0.597   2.228   6.919 -0.2667  2.4691  0.9760
18277SOL     OW61176   7.623   0.308   2.337 -0.0766 -0.4363 -0.7913
18277SOL    HW161177   7.626   0.289   2.243 -1.0495 -0.1483 -0.8942
18277SOL    HW261178   7.541   0.357   2.348  0.3556  0.0909  0.1061
18278SOL     OW61179   0.675   3.267   9.199 -0.1957 -0.2273  0.0953
18278SOL    HW161180   0.580   3.275   9.208 -0.5064 -0.6069 -2.1309
18278SOL    HW261181   0.694   3.177   9.224 -0.4715 -0.2434  0.2532
18279SOL     OW61182   3.465   6.445   1.427  0.1789  0.4307 -0.1197
18279SOL    HW161183   3.372   6.455   1.445  0.0541 -0.6759 -0.0464
18279SOL    HW261184   3.495   6.532   1.400 -0.7531  0.9111  0.3760
18280SOL     OW61185   6.552   3.490   9.132 -0.4013 -0.3021  0.0438
18280SOL    HW161186   6.604   3.515   9.055  2.0040  0.7239  1.8680
18280SOL    HW261187   6.466   3.527   9.116  0.1373  0.1842 -2.0039
18281SOL     OW61188   9.137   1.543   8.050 -0.1295  0.3078  0.0088
18281SOL    HW161189   9.082   1.605   8.098 -0.3055  1.5171 -1.6841
18281SOL    HW261190   9.193   1.598   7.995  0.5185 -1.0077 -0.6865
18282SOL     OW61191   0.959   6.015   3.224 -0.4278  0.2067  0.4250
18282SOL    HW161192   0.981   5.977   3.309  0.4215  0.0400  0.1490
18282SOL    HW261193   0.977   5.944   3.161 -0.9655  0.3531  0.1012
18283SOL     OW61194   7.194   2.735   0.560  0.0828  0.2610 -0.4610
18283SOL    HW161195   7.267   2.796   0.564  2.6966 -2.6013 -0.9467
18283SOL    HW261196   7.218   2.672   0.493 -2.1940 -1.6317  0.3311
18284SOL     OW61197   5.651   2.902   7.035 -0.1532 -0.2184  0.3497
18284SOL    HW161198   5.563   2.875   7.007 -0.6064  0.5169  1.0224
18284SOL    HW261199   5.669   2.980   6.984 -0.6961  0.7275  1.5409
18285SOL     OW61200   7.534   5.356   1.033  0.7041  0.8138  0.1159
18285SOL    HW161201   7.441   5.343   1.015  0.8716 -1.6298  0.6364
18285SOL    HW261202   7.575   5.356   0.947  0.3915 -0.0068 -0.0448
18286SOL     OW61203   6.891   2.446   8.758 -0.0282 -0.0416 -0.0698
18286SOL    HW161204   6.983   2.430   8.741  0.0960 -0.9923  1.3460
18286SOL    HW261205   6.883   2.444   8.854 -1.2917  1.3353 -0.0926
18287SOL     OW61206   5.140   2.325   5.955  0.2878 -0.3688  0.0659
18287SOL    HW161207   5.049   2.299   5.944  0.5379 -1.0110 -0.5694
18287SOL    HW261208   5.155   2.390   5.885  0.0497  0.4778  0.7862
18288SOL     OW61209   0.005   6.092   1.513 -0.1532 -0.9058  0.5061
18288SOL    HW161210  -0.025   6.157   1.576  1.5788 -0.1914  0.6411
18288SOL    HW261211   0.003   6.009   1.561  0.1952 -0.5229  1.1904
18289SOL     OW61212   1.306   2.384   4.678 -0.4438  0.4442 -0.1167
18289SOL    HW161213   1.301   2.472   4.716  2.4594  0.2283  0.9960
18289SOL    HW261214   1.351   2.396   4.595 -1.1081  0.1264 -0.5320
18290SOL     OW61215   4.242   9.219   8.866 -0.4760 -0.2888  0.8249
18290SOL    HW161216   4.187   9.277   8.919  1.2861  1.0314  1.3010
18290SOL    HW261217   4.182   9.183   8.801 -1.5158  3.0275 -0.2935
18291SOL     OW61218   4.877   7.384   6.430  0.2174 -0.0516  0.5364
18291SOL    HW161219   4.909   7.472   6.447  1.6784 -0.5221  0.3525
18291SOL    HW261220   4.956   7.332   6.414 -0.6674 -1.1832 -0.3469
18292SOL     OW61221   6.113   5.793   8.283 -0.0665  0.4415 -0.1648
18292SOL    HW161222   6.100   5.794   8.188  0.3967 -0.0188 -0.2387
18292SOL    HW261223   6.206   5.814   8.294  0.0279 -0.1336  0.1545
18293SOL     OW61224   5.508   7.602   6.068  0.0635 -0.1565 -0.5893
18293SOL    HW161225   5.485   7.678   6.121 -0.4063  1.3270 -2.8035
18293SOL    HW261226   5.594   7.623   6.032  1.3060 -2.0346  1.0641
18294SOL     OW61227   4.451   0.820   7.476 -0.6055 -1.0251 -0.4417
18294SOL    HW161228   4.405   0.901   7.457  0.0546 -0.6201 -0.3380
18294SOL    HW261229   4.534   0.827   7.429  0.3115 -0.7590  1.1326
18295SOL     OW61230   1.149   9.084   3.275 -0.1578 -0.2171 -0.0087
18295SOL    HW161231   1.188   8.997   3.280 -0.8535 -0.6071 -1.1280
18295SOL    HW261232   1.222   9.142   3.251  0.1517 -0.6079 -0.0207
18296SOL     OW61233   1.833   2.384   3.612  0.1086  0.5135  0.5886
18296SOL    HW161234   1.766   2.339   3.560  2.2825 -1.9470 -0.2897
18296SOL    HW261235   1.808   2.476   3.609 -1.2366  0.1690 -2.7562
18297SOL     OW61236   2.288   6.508   4.167 -0.0253  0.3516  0.2278
18297SOL    HW161237   2.258   6.592   4.132 -0.2455  0.7125  1.2462
18297SOL    HW261238   2.238   6.443   4.118 -1.6751  0.9117  1.1054
18298SOL     OW61239   4.458   7.964   3.630 -0.2555  0.0574  0.1258
18298SOL    HW161240   4.413   7.889   3.592  1.2197 -0.3825 -0.8637
18298SOL    HW261241   4.442   8.036   3.569 -2.4314  0.8736  1.5291
18299SOL     OW61242   5.671   3.097   6.207 -0.9354 -0.2904  0.1196
18299SOL    HW161243   5.663   3.023   6.146 -0.8601  1.9409 -2.8033
18299SOL    HW261244   5.764   3.101   6.229 -0.6873 -0.1997 -0.9066
18300SOL     OW61245   7.792   0.448   0.655  0.3126  0.2144  0.0642
18300SOL    HW161246   7.881   0.465   0.622  0.2730 -0.8735 -0.6617
18300SOL    HW261247   7.782   0.353   0.647 -0.9148  0.3299  0.1414
18301SOL     OW61248   5.316   8.669   1.132 -0.3161  0.5788  0.0300
18301SOL    HW161249   5.316   8.764   1.141  1.7283  0.5711  0.6800
18301SOL    HW261250   5.384   8.651   1.067 -0.0971 -0.4762  0.5280
18302SOL     OW61251   1.037   2.636   1.233 -0.2012  0.1764 -0.0659
18302SOL    HW161252   0.982   2.665   1.160  2.3631 -0.0986 -2.2798
18302SOL    HW261253   1.065   2.548   1.208  2.1733  0.7497  0.2778
18303SOL     OW61254   6.364   2.898   6.234 -0.0661  0.1127  0.0880
18303SOL    HW161255   6.439   2.850   6.198 -0.7462 -0.1820 -0.9971
18303SOL    HW261256   6.393   2.928   6.320  0.6331 -1.5950  0.4728
18304SOL     OW61257   7.434   6.934   1.553  0.6566  1.0241 -0.5921
18304SOL    HW161258   7.451   6.968   1.641 -1.2625 -0.2958  0.3569
18304SOL    HW261259   7.391   7.007   1.507 -1.1546  0.7887  0.6125
18305SOL     OW61260   5.354   7.353   6.463  0.1709  0.4141  0.6720
18305SOL    HW161261   5.327   7.428   6.411  1.1454 -0.8557 -1.7967
18305SOL    HW261262   5.418   7.308   6.410 -0.2706 -2.1308  2.1075
18306SOL     OW61263   5.269   6.057   4.363 -0.5009  0.6267 -0.2013
18306SOL    HW161264   5.183   6.022   4.342 -1.5775  2.7379  0.4015
18306SOL    HW261265   5.314   5.985   4.408 -1.6510 -0.7487 -1.1866
18307SOL     OW61266   8.186   8.907   4.036  0.2245 -0.9066  0.4174
18307SOL    HW161267   8.233   8.920   4.118  0.1320  1.3760  0.1594
18307SOL    HW261268   8.250   8.927   3.968 -0.7572  1.2867  0.0496
18308SOL     OW61269   2.334   8.584   8.835  0.0421  0.0872 -0.2968
18308SOL    HW161270   2.323   8.647   8.906 -1.4006 -1.5319  1.0055
18308SOL    HW261271   2.403   8.526   8.865  0.1555  0.0131 -0.6962
18309SOL     OW61272   4.343   0.815   4.099 -0.5226  0.3360 -0.1231
18309SOL    HW161273   4.281   0.763   4.048  0.0726 -0.3684 -0.1371
18309SOL    HW261274   4.395   0.862   4.034  0.0025 -0.2928 -0.1696
18310SOL     OW61275   8.940   9.089   0.576 -0.0958 -0.0889 -0.0908
18310SOL    HW161276   9.002   9.056   0.511 -0.6085 -1.4106  0.0756
18310SOL    HW261277   8.873   9.135   0.524 -0.6460 -1.3598 -0.5400
18311SOL     OW61278   0.054   6.652   4.046  0.2738  0.0601  0.1621
18311SOL    HW161279  -0.016   6.703   4.006  0.0638 -0.1832  0.2173
18311SOL    HW261280   0.129   6.665   3.989 -0.2818 -1.0986 -0.8996
18312SOL     OW61281   7.288   7.713   5.798  0.0664  0.5870 -0.3122
18312SOL    HW161282   7.359   7.702   5.861 -1.1910 -1.0459  0.9323
18312SOL    HW261283   7.219   7.757   5.847 -0.2342  1.0481 -1.1333
18313SOL     OW61284   1.537   2.432   1.267  0.5143  0.6452 -0.3366
18313SOL    HW161285   1.589   2.427   1.347  1.1940 -0.1440 -0.8220
18313SOL    HW261286   1.586   2.382   1.202  0.2214  1.6800 -1.3935
18314SOL     OW61287   8.398   0.279   6.068  0.3129  0.7891  0.0018
18314SOL    HW161288   8.437   0.345   6.011 -1.0789  3.2622  1.7233
18314SOL    HW261289   8.454   0.279   6.146  0.3520 -0.1838 -0.0125
18315SOL     OW61290   7.528   3.348   7.167 -0.2958 -0.1253 -0.0875
18315SOL    HW161291   7.473   3.425   7.182  0.9927  1.1428 -1.4852
18315SOL    HW261292   7.611   3.384   7.135  1.2149 -1.9822  1.5116
18316SOL     OW61293   2.359   6.307   8.649  0.3609  0.4265  0.0096
18316SOL    HW161294   2.378   6.385   8.596  1.9216 -0.2550 -0.5188
18316SOL    HW261295   2.272   6.322   8.685  0.2652  2.0069 -0.8055
18317SOL     OW61296   8.766   1.061   7.946  0.3291  0.1955  0.7570
18317SOL    HW161297   8.810   1.127   7.893  2.0558 -0.0683  1.7724
18317SOL    HW261298   8.787   1.085   8.036  0.6871 -1.5027  1.1552
18318SOL     OW61299   5.079   5.608   6.269  0.1143 -0.2736  1.0230
18318SOL    HW161300   4.993   5.650   6.279  0.0196  0.0506 -0.7865
18318SOL    HW261301   5.136   5.679   6.238  0.2990 -1.1069 -0.6666
18319SOL     OW61302   7.055   7.076   5.481  0.2357  0.1516  0.1065
18319SOL    HW161303   6.986   7.131   5.520  0.6113  0.3489  0.4952
18319SOL    HW261304   7.060   7.105   5.390  0.7405  1.0720  0.4219
18320SOL     OW61305   4.526   3.266   0.509  0.3443 -0.1239  0.0602
18320SOL    HW161306   4.527   3.229   0.421 -0.1459 -1.6674  0.6735
18320SOL    HW261307   4.481   3.350   0.499 -1.3664 -1.0914 -0.8850
18321SOL     OW61308   2.585   8.629   2.622  0.2586 -0.1774  0.7895
18321SOL    HW161309   2.571   8.663   2.710 -1.0677  0.4835  0.3453
18321SOL    HW261310   2.648   8.689   2.582 -0.8838  0.8980  0.5386
18322SOL     OW61311   2.136   7.492   1.743 -0.0136  0.4105 -0.0184
18322SOL    HW161312   2.105   7.411   1.703 -0.4719 -0.1918  1.4732
18322SOL    HW261313   2.230   7.494   1.724  0.2652 -1.1687  1.0113
18323SOL     OW61314   2.767   3.535   7.833 -0.1065  0.1371 -0.2841
18323SOL    HW161315   2.803   3.503   7.916  0.5497 -0.9672 -0.9623
18323SOL    HW261316   2.803   3.475   7.767 -0.0842  1.3891 -1.4506
18324SOL     OW61317   0.350   0.083   0.908  0.5144 -0.0065 -0.3227
18324SOL    HW161318   0.281   0.026   0.943 -0.7658 -0.0110 -2.6570
18324SOL    HW261319   0.429   0.055   0.954 -0.6624 -1.3893  0.9841
18325SOL     OW61320   7.953   0.327   0.232 -0.2942  0.3601 -0.2499
18325SOL    HW161321   7.875   0.278   0.203  0.6903 -1.2247 -0.3122
18325SOL    HW261322   7.958   0.400   0.171 -0.3588 -0.8894 -1.8395
18326SOL     OW61323   4.773   7.578   2.337  0.1232  0.1466  0.5893
18326SOL    HW161324   4.771   7.673   2.347 -0.6953 -0.0140  2.3393
18326SOL    HW261325   4.719   7.561   2.259 -1.0468  1.0479  1.1675
18327SOL     OW61326   7.532   7.758   5.059  0.5719 -0.3956 -0.5319
18327SOL    HW161327   7.482   7.729   5.136 -0.0119 -0.8081 -1.0585
18327SOL    HW261328   7.522   7.854   5.060 -0.0462 -0.4573 -0.5048
18328SOL     OW61329   2.429   0.660   5.028  0.2104 -0.3044 -0.0937
18328SOL    HW161330   2.456   0.657   4.936 -0.1547 -1.7485 -0.1734
18328SOL    HW261331   2.452   0.749   5.056  2.9545 -0.7261 -0.7555
18329SOL     OW61332   3.232   7.695   6.952  0.4118 -0.0048  0.2652
18329SOL    HW161333   3.297   7.626   6.969  1.3708  1.0522  1.0455
18329SOL    HW261334   3.193   7.670   6.868  1.8930 -0.6377 -0.2783
18330SOL     OW61335   2.640   7.738   4.137  0.1381  0.2694  0.3103
18330SOL    HW161336   2.562   7.791   4.122 -0.6098 -0.0956  2.4833
18330SOL    HW261337   2.674   7.768   4.222  3.5110  1.6925 -1.3493
18331SOL     OW61338   7.716   5.212   6.699  0.0866  0.0455  0.0244
18331SOL    HW161339   7.766   5.187   6.777  0.4299  0.6953  0.0224
18331SOL    HW261340   7.665   5.289   6.726 -0.9756 -0.6474  0.0412
18332SOL     OW61341   0.422   5.680   2.679  0.3724 -0.6392  0.1531
18332SOL    HW161342   0.447   5.593   2.710 -0.4057 -0.5498  1.0861
18332SOL    HW261343   0.329   5.686   2.697  0.1785 -0.0243 -0.9531
18333SOL     OW61344   0.862   5.407   1.304 -0.1673 -0.3479  0.2000
18333SOL    HW161345   0.957   5.406   1.302 -0.1589 -1.4016  0.5118
18333SOL    HW261346   0.836   5.426   1.213  0.3316  0.0497  0.1392
18334SOL     OW61347   0.489   7.297   0.854  0.3310 -0.1009  0.7131
18334SOL    HW161348   0.468   7.357   0.925  0.4984 -0.1959  0.8454
18334SOL    HW261349   0.574   7.326   0.822  0.7896 -0.7419  1.3034
18335SOL     OW61350   3.574   9.222   5.634  0.9275 -0.2440  0.2002
18335SOL    HW161351   3.588   9.219   5.728  1.7991 -1.4624  0.0438
18335SOL    HW261352   3.661   9.230   5.596  0.5286  1.2685 -0.4989
18336SOL     OW61353   4.594   6.007   8.967 -0.2255 -0.1924 -0.2453
18336SOL    HW161354   4.672   5.991   8.915  0.0750 -1.4111  0.5541
18336SOL    HW261355   4.522   6.001   8.904  0.0900 -2.1542 -0.4768
18337SOL     OW61356   4.940   1.574   1.247  0.5289 -0.0265 -0.0471
18337SOL    HW161357   4.885   1.649   1.227  0.2843 -0.3705 -0.6764
18337SOL    HW261358   4.927   1.514   1.174  0.2905 -0.9239  0.7146
18338SOL     OW61359   8.268   5.246   0.967 -0.4333 -0.0515 -0.3194
18338SOL    HW161360   8.296   5.179   0.904 -0.9869  0.2372 -0.8785
18338SOL    HW261361   8.345   5.259   1.023 -0.3468 -1.2364 -0.1282
18339SOL     OW61362   7.725   2.383   7.932  0.6274 -0.2001  0.0003
18339SOL    HW161363   7.724   2.444   8.005 -1.4054 -0.4533  0.2496
18339SOL    HW261364   7.700   2.299   7.971 -0.1700 -0.4064 -0.9022
18340SOL     OW61365   2.983   5.246   1.829  0.4145 -0.1825 -0.1573
18340SOL    HW161366   2.929   5.169   1.813  1.2702 -0.6677 -0.8063
18340SOL    HW261367   3.045   5.218   1.896 -2.0906  1.3325  3.0755
18341SOL     OW61368   3.015   5.653   2.575  0.2419  0.1643  0.6775
18341SOL    HW161369   2.998   5.743   2.548 -0.4369 -0.3725 -0.8548
18341SOL    HW261370   3.110   5.646   2.579  0.3496  0.5641 -0.7084
18342SOL     OW61371   2.900   3.126   7.042  0.3324 -0.3134  0.8201
18342SOL    HW161372   2.810   3.106   7.067 -0.2510  1.5259  0.3246
18342SOL    HW261373   2.953   3.087   7.112 -0.8741 -0.8799  1.4565
18343SOL     OW61374   6.580   1.756   1.368  0.5750  0.3981 -0.4887
18343SOL    HW161375   6.644   1.737   1.437  0.8410 -0.2487 -0.9000
18343SOL    HW261376   6.574   1.674   1.318 -0.7452  0.3670 -0.3204
18344SOL     OW61377   3.618   2.852   4.455  0.4107 -0.2503 -0.3426
18344SOL    HW161378   3.600   2.846   4.549 -1.1015 -0.6042 -0.6286
18344SOL    HW261379   3.655   2.766   4.433  0.5751 -0.2399 -0.1153
18345SOL     OW61380   1.510   9.197   3.062  0.0411 -0.0941 -0.1067
18345SOL    HW161381   1.468   9.243   3.134  0.5079 -0.7360  0.5830
18345SOL    HW261382   1.599   9.232   3.059 -0.7803  2.1283 -2.3140
18346SOL     OW61383   3.969   7.097   4.798  0.2526  0.2452 -0.5709
18346SOL    HW161384   4.025   7.025   4.829  0.9323  1.5911  1.5471
18346SOL    HW261385   3.905   7.108   4.869  0.0726  1.6192 -0.9395
18347SOL     OW61386   2.511   6.707   2.404  0.2553  0.2950 -0.7162
18347SOL    HW161387   2.498   6.719   2.310  0.7257 -1.2677 -1.0216
18347SOL    HW261388   2.447   6.764   2.446 -1.5016 -0.6517 -2.0317
18348SOL     OW61389   0.315   4.051   3.844 -0.2741 -0.0466  0.6574
18348SOL    HW161390   0.293   4.008   3.927 -0.6051 -0.5665  0.3128
18348SOL    HW261391   0.264   4.132   3.844 -0.7764 -0.3574  0.6826
18349SOL     OW61392   8.338   2.553   4.342  0.4101 -0.1406  0.0106
18349SOL    HW161393   8.365   2.566   4.433 -3.1922  2.1921  0.9556
18349SOL    HW261394   8.307   2.463   4.339  1.0166 -0.3968  0.9378
18350SOL     OW61395   1.121   8.779   9.032  0.6541 -0.1919 -0.3825
18350SOL    HW161396   1.036   8.746   9.061  0.4533  0.5703 -0.0757
18350SOL    HW261397   1.112   8.874   9.035  2.2375 -0.0339  1.8580
18351SOL     OW61398   5.677   2.765   9.223 -0.6446  0.5559 -0.4893
18351SOL    HW161399   5.760   2.813   9.232  0.0439 -0.7420  0.4577
18351SOL    HW261400   5.657   2.735   9.312 -2.3622  1.1818 -0.6198
18352SOL     OW61401   3.778   6.577   9.114 -0.7830 -0.0915 -0.6498
18352SOL    HW161402   3.712   6.576   9.183 -0.0375  0.6874  0.1018
18352SOL    HW261403   3.826   6.495   9.126 -2.6025 -1.4845 -2.2471
18353SOL     OW61404   8.235   2.088   0.183 -0.0260 -0.0815  0.2434
18353SOL    HW161405   8.187   2.102   0.265  0.6151 -0.9329  0.7767
18353SOL    HW261406   8.300   2.158   0.181 -0.0781 -0.0265  0.4230
18354SOL     OW61407   1.217   8.464   5.346 -0.0916  1.0972 -0.3933
18354SOL    HW161408   1.284   8.508   5.295  0.6357  0.7911  0.2814
18354SOL    HW261409   1.265   8.419   5.416 -0.8390 -0.5015 -0.8731
18355SOL     OW61410   6.080   1.836   5.788 -0.2573 -0.5878 -0.2921
18355SOL    HW161411   6.127   1.865   5.867  0.9329  1.0296 -1.5190
18355SOL    HW261412   5.992   1.872   5.798  0.0248  0.0098  0.0980
18356SOL     OW61413   6.734   4.745   6.128 -0.0444 -0.2116  0.6844
18356SOL    HW161414   6.745   4.780   6.217  1.6607  1.2584 -0.0499
18356SOL    HW261415   6.820   4.709   6.106  0.4243  1.9183 -1.3420
18357SOL     OW61416   6.436   4.712   2.231  0.3909  0.2195 -0.0109
18357SOL    HW161417   6.419   4.805   2.247 -0.5509  0.1887 -0.7092
18357SOL    HW261418   6.429   4.672   2.317 -1.0339  0.5529  0.0570
18358SOL     OW61419   6.208   2.006   7.651  0.2836 -0.3203 -1.0069
18358SOL    HW161420   6.147   2.073   7.682  1.2489  0.6779 -1.1747
18358SOL    HW261421   6.257   2.049   7.581  0.8067 -1.2683 -1.2427
18359SOL     OW61422   5.493   7.778   0.525 -0.5136 -0.2634 -0.0985
18359SOL    HW161423   5.459   7.689   0.523 -0.5490 -0.2905  1.3447
18359SOL    HW261424   5.578   7.773   0.482  0.1488 -1.2884  1.2814
18360SOL     OW61425   6.995   5.169   6.721 -0.0649 -0.0308 -0.0306
18360SOL    HW161426   7.065   5.134   6.776 -1.0787 -1.6400  0.3290
18360SOL    HW261427   6.986   5.260   6.748  1.1490 -0.1001  0.6758
18361SOL     OW61428   9.021   5.917   7.028 -0.2035 -0.4833 -0.0346
18361SOL    HW161429   8.993   6.009   7.035 -0.2060 -0.5057  0.3128
18361SOL    HW261430   8.950   5.868   7.072 -0.9257 -0.7915 -1.4870
18362SOL     OW61431   4.594   7.675   6.880  0.3524 -0.1402 -0.2027
18362SOL    HW161432   4.669   7.615   6.891  0.5746  0.3937  1.5359
18362SOL    HW261433   4.522   7.632   6.926 -0.2847 -0.3861 -1.3967
18363SOL     OW61434   7.066   2.640   6.099  0.0017 -0.0789  0.1042
18363SOL    HW161435   6.997   2.603   6.044  0.6522 -0.4906 -0.4449
18363SOL    HW261436   7.019   2.676   6.175 -1.0625  1.6806 -1.3063
18364SOL     OW61437   3.247   7.760   6.605 -0.7072  0.0558 -0.2893
18364SOL    HW161438   3.221   7.688   6.548 -1.1954  0.0260 -0.0319
18364SOL    HW261439   3.328   7.730   6.646  0.3103  0.5451 -1.8322
18365SOL     OW61440   4.672   1.381   5.795 -0.2036  0.0011  0.1572
18365SOL    HW161441   4.593   1.396   5.846 -1.5203 -0.7021 -1.5818
18365SOL    HW261442   4.700   1.469   5.767 -1.0564  0.1771 -0.1756
18366SOL     OW61443   2.937   8.420   2.652  0.8042  0.4982 -0.1923
18366SOL    HW161444   2.986   8.340   2.633 -1.9288 -1.2068 -0.5040
18366SOL    HW261445   2.909   8.452   2.565  1.6775  1.7252 -0.0569
18367SOL     OW61446   5.433   3.414   9.130 -0.2940 -0.7904  0.4838
18367SOL    HW161447   5.433   3.509   9.138 -1.3033 -0.8208  1.0717
18367SOL    HW261448   5.347   3.393   9.093  0.1627 -1.4380 -0.2281
18368SOL     OW61449   5.667   0.749   2.133 -0.7058 -0.4154  0.0686
18368SOL    HW161450   5.690   0.796   2.213  0.6636  0.3681 -0.7376
18368SOL    HW261451   5.733   0.778   2.069 -0.9459 -2.0529 -0.9648
18369SOL     OW61452   7.572   2.138   3.794  0.0653 -0.3499 -0.0300
18369SOL    HW161453   7.518   2.142   3.716  0.3301  2.2244 -0.1594
18369SOL    HW261454   7.660   2.163   3.764  0.9566 -2.5694  0.5309
18370SOL     OW61455   5.256   5.671   8.706 -0.2782  0.7766 -0.2640
18370SOL    HW161456   5.233   5.634   8.791  0.3048  1.2008  0.0897
18370SOL    HW261457   5.223   5.608   8.642  0.1891 -0.0619  0.3028
18371SOL     OW61458   4.871   9.069   2.140 -0.3991 -0.2423  0.0128
18371SOL    HW161459   4.948   9.120   2.165 -0.3303 -0.8622  1.1384
18371SOL    HW261460   4.907   8.993   2.094 -0.1242 -1.6264  2.3627
18372SOL     OW61461   5.077   2.434   8.055 -0.1685 -0.0290  0.3739
18372SOL    HW161462   5.015   2.362   8.042  1.0054 -0.8780 -0.7304
18372SOL    HW261463   5.064   2.461   8.146 -0.9269 -1.3594  0.6848
18373SOL     OW61464   5.182   2.516   7.469  0.3756 -0.2388  0.4047
18373SOL    HW161465   5.104   2.558   7.505  0.5389  1.7231 -1.3454
18373SOL    HW261466   5.192   2.436   7.521 -1.6169  0.4551  2.0016
18374SOL     OW61467   0.837   6.354   2.153  0.0485 -0.4232 -0.2647
18374SOL    HW161468   0.838   6.276   2.209  0.6318 -1.1193 -1.2096
18374SOL    HW261469   0.849   6.320   2.065  0.2380  0.7430 -0.7062
18375SOL     OW61470   3.519   1.764   6.737  0.5522  0.0697  0.2654
18375SOL    HW161471   3.485   1.786   6.823  0.1295 -1.6402  0.5731
18375SOL    HW261472   3.441   1.739   6.686  1.1075 -2.9975  0.7004
18376SOL     OW61473   8.516   2.193   6.569 -0.5961 -0.3680  0.4480
18376SOL    HW161474   8.452   2.152   6.510 -0.9703 -2.2220  2.0423
18376SOL    HW261475   8.476   2.187   6.655  1.6754 -1.5995  1.5133
18377SOL     OW61476   0.782   7.487   6.307  0.2502  0.0513 -0.3881
18377SOL    HW161477   0.805   7.578   6.290 -0.0850  0.1900 -0.1285
18377SOL    HW261478   0.697   7.492   6.352 -0.5756 -0.4670 -1.8383
18378SOL     OW61479   7.445   5.936   3.870 -0.1469  0.3134  0.1147
18378SOL    HW161480   7.537   5.962   3.869  0.0236 -0.1774 -1.7637
18378SOL    HW261481   7.421   5.935   3.962  1.2098  2.1975  0.5516
18379SOL     OW61482   1.973   7.017   7.111 -0.0031 -0.0005  0.1356
18379SOL    HW161483   1.973   7.083   7.181  0.6781  0.2632 -0.0998
18379SOL    HW261484   2.066   7.004   7.091  0.0104 -2.2725  1.3180
18380SOL     OW61485   5.734   0.532   5.624 -0.0863  0.3339  0.1567
18380SOL    HW161486   5.659   0.520   5.566 -0.7234 -2.0279  1.3357
18380SOL    HW261487   5.810   0.523   5.567 -0.6942  0.6105 -0.7135
18381SOL     OW61488   4.478   1.069   2.249 -0.2488  0.0172  0.2945
18381SOL    HW161489   4.478   1.158   2.285 -0.8440  0.5368 -0.9389
18381SOL    HW261490   4.570   1.041   2.254 -0.1463  0.4612  1.2081
18382SOL     OW61491   3.595   6.447   5.325  0.3260  0.3587 -0.2567
18382SOL    HW161492   3.511   6.401   5.328 -0.3624  1.4041 -1.9259
18382SOL    HW261493   3.642   6.417   5.403 -1.4503 -0.5075  0.5358
18383SOL     OW61494   6.114   2.506   4.100 -0.4259  0.3884 -0.1965
18383SOL    HW161495   6.086   2.595   4.121  0.1504  0.7105 -0.7343
18383SOL    HW261496   6.063   2.483   4.022 -1.0303  0.0058  0.3110
18384SOL     OW61497   6.066   5.851   8.924 -0.2669 -0.4302 -0.3659
18384SOL    HW161498   6.075   5.759   8.949 -0.8225 -0.7641 -1.3757
18384SOL    HW261499   6.034   5.849   8.834  1.8674  0.7561 -1.2035
18385SOL     OW61500   7.948   3.995   4.555 -0.3579  0.8355  0.4191
18385SOL    HW161501   7.878   4.040   4.508  0.1187 -0.0706 -1.2236
18385SOL    HW261502   8.028   4.042   4.530 -0.0190 -0.0701 -0.2711
18386SOL     OW61503   0.533   2.976   3.848 -0.0615 -0.4930 -0.3264
18386SOL    HW161504   0.536   2.917   3.924  1.7085 -0.6503 -0.4572
18386SOL    HW261505   0.596   2.937   3.787  0.9213  1.3526 -0.5415
18387SOL     OW61506   5.673   6.149   6.909  0.0142 -0.5029  0.5267
18387SOL    HW161507   5.601   6.086   6.904 -0.0237 -0.6371  2.2083
18387SOL    HW261508   5.738   6.107   6.965  0.8245  0.1639  0.1001
18388SOL     OW61509   1.489   0.590   2.361 -0.4046 -0.0638 -0.2034
18388SOL    HW161510   1.500   0.667   2.417 -1.1799 -0.3305  0.3423
18388SOL    HW261511   1.514   0.516   2.417 -0.7055 -0.2930 -0.3649
18389SOL     OW61512   2.155   8.488   7.669 -0.2391  0.1740 -0.1443
18389SOL    HW161513   2.139   8.496   7.763 -1.0780 -1.5696 -0.0967
18389SOL    HW261514   2.090   8.425   7.639 -1.1298  1.9479 -2.2409
18390SOL     OW61515   2.107   0.189   3.397  0.2910 -0.5206  0.3181
18390SOL    HW161516   2.015   0.186   3.423 -0.2477 -0.2836 -1.3967
18390SOL    HW261517   2.115   0.269   3.346  0.4674 -2.2631 -2.6811
18391SOL     OW61518   2.634   3.474   3.679 -0.0072  0.0015 -0.2846
18391SOL    HW161519   2.676   3.414   3.617  0.5082  1.1270 -1.0589
18391SOL    HW261520   2.703   3.500   3.739  0.3285  1.4282 -1.2299
18392SOL     OW61521   8.166   2.185   4.908  0.2134 -0.1386 -0.0836
18392SOL    HW161522   8.145   2.262   4.960 -0.0162 -0.0940 -0.2406
18392SOL    HW261523   8.219   2.131   4.966  0.9292  0.4324 -0.1916
18393SOL     OW61524   8.293   1.696   7.062  0.1284  0.4648 -0.4212
18393SOL    HW161525   8.321   1.609   7.091 -0.5973  0.1807 -0.5650
18393SOL    HW261526   8.368   1.752   7.083 -0.0762  0.1478  1.3402
18394SOL     OW61527   7.324   2.283   4.270  0.2048 -0.1416  0.0119
18394SOL    HW161528   7.334   2.377   4.258 -0.0125 -0.0893  0.2406
18394SOL    HW261529   7.384   2.244   4.206 -0.1331  0.1449 -0.4859
18395SOL     OW61530   0.031   0.330   3.762  0.0666 -0.1673 -0.3645
18395SOL    HW161531   0.078   0.368   3.836 -1.3333  1.2535 -0.1652
18395SOL    HW261532   0.050   0.388   3.688  0.1219 -0.6424 -0.7290
18396SOL     OW61533   2.360   9.038   6.814  0.0083  0.0678  0.0287
18396SOL    HW161534   2.375   9.081   6.730  1.7801  3.9840  2.0971
18396SOL    HW261535   2.437   8.983   6.827  0.5149  0.7169 -0.1946
18397SOL     OW61536   2.751   0.772   8.128 -0.4363 -0.1000  0.4759
18397SOL    HW161537   2.664   0.759   8.090 -0.9273  3.6542 -0.0764
18397SOL    HW261538   2.740   0.848   8.186  2.2041 -0.4043  1.4969
18398SOL     OW61539   4.263   4.913   5.240  0.2731  0.1238  0.4230
18398SOL    HW161540   4.337   4.966   5.271  0.7747 -0.4861  0.2971
18398SOL    HW261541   4.304   4.843   5.189 -0.4505  0.2889 -0.4113
18399SOL     OW61542   0.623   2.985   0.010 -0.8415  0.4615  0.4107
18399SOL    HW161543   0.542   3.000   0.059 -1.9021 -1.6817 -0.5463
18399SOL    HW261544   0.597   2.929  -0.063  1.4250  0.1711 -0.2553
18400SOL     OW61545   4.398   6.063   7.588  0.5267  0.3366  0.2430
18400SOL    HW161546   4.382   5.978   7.629  1.9045  1.2721  2.9976
18400SOL    HW261547   4.476   6.049   7.534 -0.4159 -0.5686 -0.9401
18401SOL     OW61548   3.420   4.609   3.456  0.1457  0.4647 -0.0553
18401SOL    HW161549   3.342   4.654   3.489 -0.0757 -0.1423  0.2791
18401SOL    HW261550   3.439   4.650   3.372  0.1291  1.3813  0.3808
18402SOL     OW61551   2.884   6.682   0.931 -0.1046  0.4866 -0.5583
18402SOL    HW161552   2.865   6.605   0.878  1.5641 -0.1010 -0.3638
18402SOL    HW261553   2.976   6.701   0.913  0.2604  0.8030  1.4290
18403SOL     OW61554   2.414   6.541   0.801  0.2910 -0.3899 -0.4286
18403SOL    HW161555   2.484   6.558   0.739 -1.4589 -1.1491 -2.7517
18403SOL    HW261556   2.340   6.513   0.747 -2.1962  1.4433  1.7288
18404SOL     OW61557   8.150   7.541   3.069  0.1645  0.0150  0.2152
18404SOL    HW161558   8.145   7.616   3.009  1.6127 -0.5978 -0.7296
18404SOL    HW261559   8.150   7.581   3.156 -0.6513  1.0111 -0.2185
18405SOL     OW61560   4.581   1.979   7.842  0.0518 -0.0753  0.8715
18405SOL    HW161561   4.511   2.035   7.810  1.2310  0.7002 -0.4592
18405SOL    HW261562   4.563   1.970   7.936 -2.9232 -1.5605  0.2735
18406SOL     OW61563   8.153   0.667   2.687  0.7606  0.2258 -0.3120
18406SOL    HW161564   8.203   0.623   2.618 -0.2746 -0.5279 -0.5939
18406SOL    HW261565   8.066   0.630   2.681  0.2492  1.2628  0.4222
18407SOL     OW61566   7.312   7.072   7.310  0.1830  0.0444  0.2191
18407SOL    HW161567   7.220   7.080   7.283  0.5892  0.9062 -0.9502
18407SOL    HW261568   7.314   7.107   7.399 -0.4233  1.0820 -0.1586
18408SOL     OW61569   6.327   6.067   0.170  0.1252 -0.2809 -0.1769
18408SOL    HW161570   6.297   6.092   0.257  0.7557 -0.5453  0.1284
18408SOL    HW261571   6.355   6.149   0.130  0.7587 -0.2794  0.2463
18409SOL     OW61572   5.566   2.076   1.799  0.1390 -0.3678  0.0704
18409SOL    HW161573   5.604   2.147   1.850 -1.1632  1.1907 -1.0448
18409SOL    HW261574   5.490   2.047   1.850  1.2077 -1.6668  0.9922
18410SOL     OW61575   7.420   3.797   8.411 -0.1353 -0.2857  0.2129
18410SOL    HW161576   7.468   3.730   8.459  0.6816 -0.8480 -1.3008
18410SOL    HW261577   7.485   3.865   8.392 -0.6230  0.2780  0.5588
18411SOL     OW61578   1.373   6.138   0.567 -0.5388  0.3597 -0.2317
18411SOL    HW161579   1.345   6.139   0.476 -0.0327  0.0207 -0.3938
18411SOL    HW261580   1.292   6.125   0.617 -1.1967  3.0512 -0.4567
18412SOL     OW61581   7.975   7.041   6.551 -0.0879 -0.0006  0.0643
18412SOL    HW161582   7.992   6.959   6.504 -2.9886 -1.0214  0.5357
18412SOL    HW261583   7.898   7.078   6.508 -1.7798 -0.0856  2.7587
18413SOL     OW61584   0.559   7.422   8.954 -0.4495 -0.0890 -0.2108
18413SOL    HW161585   0.540   7.408   9.047 -1.9906 -1.6438 -0.7018
18413SOL    HW261586   0.573   7.334   8.920 -0.1733  0.4463 -1.5126
18414SOL     OW61587   5.846   7.887   2.568  0.4014 -0.3272 -0.0623
18414SOL    HW161588   5.789   7.853   2.499  1.1430 -2.5665  0.3208
18414SOL    HW261589   5.787   7.931   2.629 -1.0851 -2.9418  0.5466
18415SOL     OW61590   8.057   1.700   1.774 -0.2945 -0.1537 -0.4377
18415SOL    HW161591   8.128   1.636   1.775  0.3935  0.5844 -0.7777
18415SOL    HW261592   8.101   1.785   1.774 -1.1898  0.3351  0.3513
18416SOL     OW61593   2.906   5.527   0.202 -0.5490  0.1056 -0.5343
18416SOL    HW161594   2.951   5.587   0.142  1.8117  0.1672  1.1140
18416SOL    HW261595   2.955   5.445   0.195 -0.2894  0.0726  1.1302
18417SOL     OW61596   3.954   1.850   7.974  0.2142  0.4740 -0.5084
18417SOL    HW161597   3.927   1.831   8.064 -0.7481  1.4946 -0.5736
18417SOL    HW261598   4.041   1.811   7.967 -0.2942 -0.8948  0.4064
18418SOL     OW61599   0.792   0.215   7.868 -0.5137 -0.5343 -0.3738
18418SOL    HW161600   0.829   0.271   7.799  0.1302  0.3738  0.6828
18418SOL    HW261601   0.826   0.252   7.949 -0.7983 -1.9442  0.4063
18419SOL     OW61602   6.977   7.600   7.817  0.3482  0.3023  0.6344
18419SOL    HW161603   7.023   7.677   7.849 -0.1436 -0.3482  3.1213
18419SOL    HW261604   7.028   7.571   7.741  1.6983  1.8794  0.8900
18420SOL     OW61605   4.180   4.935   1.686  0.6221  0.0221  0.1078
18420SOL    HW161606   4.133   4.852   1.695 -0.0156  0.2531 -0.8784
18420SOL    HW261607   4.213   4.935   1.596  2.6933 -0.1921  0.8217
18421SOL     OW61608   0.720   2.388   6.680  0.4258  0.4751  0.0807
18421SOL    HW161609   0.717   2.439   6.599  1.0543  1.5395  0.6927
18421SOL    HW261610   0.808   2.404   6.714  0.4851 -0.6893  0.5252
18422SOL     OW61611   3.412   3.583   1.903 -0.0110  0.0030  0.3501
18422SOL    HW161612   3.413   3.677   1.885  0.1843  0.3277  1.9008
18422SOL    HW261613   3.349   3.573   1.974 -1.1873 -1.2678 -0.8200
18423SOL     OW61614   8.624   3.432   2.865 -0.1686 -0.3325  0.3561
18423SOL    HW161615   8.584   3.507   2.820 -0.9029 -0.7562  0.2888
18423SOL    HW261616   8.699   3.469   2.911 -0.3999  0.4091  0.1512
18424SOL     OW61617   3.024   7.903   7.657 -1.0426 -0.0066 -0.0045
18424SOL    HW161618   2.970   7.853   7.595  0.2663  0.1143 -1.2792
18424SOL    HW261619   3.054   7.837   7.720 -0.4498 -0.6004 -0.8861
18425SOL     OW61620   4.788   3.533   0.161  0.3929  0.9629  0.6727
18425SOL    HW161621   4.726   3.491   0.102 -0.4925  1.3640  1.2870
18425SOL    HW261622   4.820   3.609   0.112 -2.1949  2.7382  1.5018
18426SOL     OW61623   6.880   9.071   0.917  0.1936  0.3611 -0.4754
18426SOL    HW161624   6.787   9.053   0.933  0.0783  0.7346 -0.7225
18426SOL    HW261625   6.882   9.160   0.883  0.6635  0.4214 -0.2922
18427SOL     OW61626   5.737   7.318   5.653  0.1301 -0.1171 -0.5218
18427SOL    HW161627   5.716   7.253   5.721 -0.3876  0.5372 -0.0489
18427SOL    HW261628   5.778   7.390   5.701  0.3080  0.0959 -0.9916
18428SOL     OW61629   3.718   7.514   8.692  0.0354  0.3904 -0.5287
18428SOL    HW161630   3.786   7.528   8.626  1.2972 -3.4786 -0.3140
18428SOL    HW261631   3.766   7.509   8.775 -0.9202  0.5827  0.0435
18429SOL     OW61632   5.707   4.362   6.974 -0.4042  0.0145 -0.0566
18429SOL    HW161633   5.753   4.278   6.974 -1.5476 -0.6460  0.2916
18429SOL    HW261634   5.767   4.423   6.932  0.2528 -1.0941 -0.7709
18430SOL     OW61635   0.050   7.462   4.582  0.5860  0.2009 -0.7034
18430SOL    HW161636   0.126   7.517   4.561  2.2726 -1.9731 -0.6328
18430SOL    HW261637   0.083   7.400   4.647 -1.5022 -0.3022 -0.0683
18431SOL     OW61638   7.281   8.962   0.576 -0.1338 -0.0877 -0.1131
18431SOL    HW161639   7.243   9.050   0.574  0.6082  0.2376 -0.0911
18431SOL    HW261640   7.212   8.906   0.540 -1.7212  0.0730  2.4479
18432SOL     OW61641   2.724   1.982   4.930 -0.4074  0.1404  0.1165
18432SOL    HW161642   2.633   1.970   4.957 -0.6057 -1.4622 -1.1191
18432SOL    HW261643   2.750   1.896   4.896  1.4494  0.6771  0.1098
18433SOL     OW61644   1.325   5.013   3.002  0.0906 -0.2610  0.0874
18433SOL    HW161645   1.267   4.958   3.055  0.7725 -0.6009  0.5083
18433SOL    HW261646   1.313   5.101   3.037 -1.2293 -0.0776 -0.7874
18434SOL     OW61647   8.382   6.540   6.542 -0.3691 -0.2810 -0.7309
18434SOL    HW161648   8.384   6.478   6.469 -0.4437  0.8696 -1.7410
18434SOL    HW261649   8.425   6.493   6.614  0.6968 -1.0591 -1.8315
18435SOL     OW61650   2.789   6.507   0.312  0.1984 -0.3906  0.0127
18435SOL    HW161651   2.702   6.471   0.296 -0.4719  1.3103 -0.3667
18435SOL    HW261652   2.849   6.445   0.271 -1.0002 -0.3620 -1.8951
18436SOL     OW61653   7.593   8.648   1.594  0.1231  0.1999  0.4497
18436SOL    HW161654   7.677   8.674   1.555 -0.8490  0.9198 -1.3048
18436SOL    HW261655   7.588   8.698   1.676  1.3851  0.1656  0.5628
18437SOL     OW61656   6.203   4.110   7.689  0.1914 -0.5484  0.2675
18437SOL    HW161657   6.156   4.052   7.629  0.9066 -2.3425  1.3426
18437SOL    HW261658   6.137   4.137   7.753 -0.2810  0.3372 -0.5740
18438SOL     OW61659   3.799   7.721   8.420  0.1691  0.0086  0.0679
18438SOL    HW161660   3.804   7.804   8.372  1.1426 -1.0058 -1.6718
18438SOL    HW261661   3.890   7.696   8.434 -0.1017 -1.3548 -0.4990
18439SOL     OW61662   5.119   8.388   6.270 -0.1230  0.0166  0.0241
18439SOL    HW161663   5.099   8.407   6.178  0.8684 -1.5019 -0.5356
18439SOL    HW261664   5.061   8.447   6.319  0.7118  2.2891 -1.5393
18440SOL     OW61665   0.435   8.311   4.398 -0.3626  0.1233 -0.6288
18440SOL    HW161666   0.398   8.383   4.450  0.5866  0.9843 -1.1161
18440SOL    HW261667   0.501   8.353   4.343 -0.9632 -0.8617 -2.1529
18441SOL     OW61668   5.972   3.967   3.306 -0.0384 -0.1889 -0.2442
18441SOL    HW161669   6.047   3.907   3.301  0.9738  1.0478 -0.4851
18441SOL    HW261670   5.963   4.002   3.218  0.1665  0.9233  0.1682
18442SOL     OW61671   7.376   4.631   5.557 -0.1709  0.1310 -0.4350
18442SOL    HW161672   7.471   4.631   5.541 -0.2332  0.8566 -0.8597
18442SOL    HW261673   7.364   4.572   5.632  0.7585  1.0104  0.4408
18443SOL     OW61674   4.745   6.913   0.331 -0.3113 -0.0621 -0.1565
18443SOL    HW161675   4.827   6.903   0.379  0.9463  0.6985 -1.9952
18443SOL    HW261676   4.720   6.824   0.307 -0.0926 -0.3133  0.5305
18444SOL     OW61677   1.439   8.740   3.971  0.1836  0.1688  0.4284
18444SOL    HW161678   1.348   8.712   3.972  0.0737  0.5064  0.0912
18444SOL    HW261679   1.483   8.680   4.031  0.1068 -1.2372 -0.8449
18445SOL     OW61680   5.773   5.212   4.313 -0.2155  0.2907  0.2827
18445SOL    HW161681   5.682   5.213   4.343  0.1053 -0.5897  1.3772
18445SOL    HW261682   5.815   5.282   4.363 -0.0862  0.0474  0.5185
18446SOL     OW61683   0.239   2.278   8.207  0.2802 -0.2403 -0.1103
18446SOL    HW161684   0.235   2.373   8.220  0.7930 -0.4495  1.8102
18446SOL    HW261685   0.279   2.268   8.121 -0.2351  1.2876 -0.5626
18447SOL     OW61686   4.574   1.477   6.163  0.4475 -0.2784  0.6211
18447SOL    HW161687   4.565   1.542   6.093  1.3074  1.4273  2.0297
18447SOL    HW261688   4.651   1.427   6.139  1.4922  1.1190  0.9348
18448SOL     OW61689   4.604   7.258   7.447 -0.1519  0.6687 -0.0881
18448SOL    HW161690   4.563   7.246   7.361 -0.1991  3.1254 -0.4682
18448SOL    HW261691   4.662   7.182   7.456  0.1599  0.5376 -2.4753
18449SOL     OW61692   5.038   0.008   8.888  0.4788  0.2728 -0.2115
18449SOL    HW161693   4.999  -0.066   8.934  3.3553 -0.2573  1.6564
18449SOL    HW261694   5.083  -0.031   8.813 -0.1660  0.5056 -0.7295
18450SOL     OW61695   8.136   8.792   5.445 -0.3415 -0.3207 -0.4709
18450SOL    HW161696   8.068   8.724   5.440  1.4243 -2.4064  1.5741
18450SOL    HW261697   8.139   8.814   5.538  0.7999  0.7885 -0.7592
18451SOL     OW61698   4.712   7.808   1.726  0.3228 -0.0754  0.0606
18451SOL    HW161699   4.708   7.864   1.648  2.9287  1.1293  0.6764
18451SOL    HW261700   4.721   7.719   1.691 -0.7952  0.1736 -0.9544
18452SOL     OW61701   0.111   3.985   0.499 -0.4650 -0.2295  0.0733
18452SOL    HW161702   0.190   4.028   0.465 -0.2544 -0.0637  0.7636
18452SOL    HW261703   0.142   3.930   0.571 -0.5082 -2.6252 -1.5987
18453SOL     OW61704   1.205   3.842   5.431  0.3884 -0.1630  0.2650
18453SOL    HW161705   1.202   3.859   5.337  0.9709 -0.7301  0.1445
18453SOL    HW261706   1.182   3.749   5.440 -2.5893  0.5035  0.9060
18454SOL     OW61707   8.009   5.906   6.923 -0.1423  0.0143 -0.1565
18454SOL    HW161708   8.081   5.915   6.985 -0.7173 -1.6136  0.7891
18454SOL    HW261709   8.011   5.814   6.896 -0.3606  0.5090 -2.0277
18455SOL     OW61710   5.640   1.160   3.708 -0.5003 -0.2623  0.5436
18455SOL    HW161711   5.595   1.164   3.624 -0.7070  0.8476  0.6915
18455SOL    HW261712   5.724   1.120   3.688 -0.6082 -0.1483 -0.1718
18456SOL     OW61713   7.254   4.104   6.024 -0.1576 -0.0161 -0.0531
18456SOL    HW161714   7.171   4.134   6.062 -0.2988 -1.0011  0.4339
18456SOL    HW261715   7.237   4.101   5.930  0.4515  3.2661 -0.4100
18457SOL     OW61716   7.001   0.300   3.124  0.0341 -0.2119 -0.3037
18457SOL    HW161717   7.028   0.304   3.033  2.5541 -2.7497  0.1774
18457SOL    HW261718   7.083   0.300   3.173 -1.2358  2.6465  2.1868
18458SOL     OW61719   1.748   7.057   0.833  0.5185 -0.3079  0.1894
18458SOL    HW161720   1.807   7.128   0.807  0.0841 -0.5961 -1.7530
18458SOL    HW261721   1.684   7.052   0.761  0.7619 -2.9147  0.0770
18459SOL     OW61722   1.631   5.856   7.323 -0.0260  0.1809  0.6789
18459SOL    HW161723   1.609   5.805   7.402 -0.0032 -1.7954 -0.5128
18459SOL    HW261724   1.723   5.836   7.307  0.1881  1.2028  0.5705
18460SOL     OW61725   5.346   5.331   6.420  0.0828  0.6096  0.4918
18460SOL    HW161726   5.342   5.272   6.495  0.5619 -0.6788 -0.4452
18460SOL    HW261727   5.414   5.293   6.363 -1.0942  0.8362 -1.1522
18461SOL     OW61728   1.863   7.227   2.724  0.4039  0.1308 -0.5265
18461SOL    HW161729   1.835   7.294   2.786 -1.0756 -0.3218 -0.6738
18461SOL    HW261730   1.947   7.197   2.757 -0.7619 -0.7666  1.8218
18462SOL     OW61731   1.805   0.683   5.051  0.4077  0.2355  0.6137
18462SOL    HW161732   1.845   0.630   4.982  0.0070 -1.1542  1.4024
18462SOL    HW261733   1.796   0.770   5.013 -0.7889 -0.7344 -1.4868
18463SOL     OW61734   4.756   7.944   0.815  0.0814  0.0923  0.2069
18463SOL    HW161735   4.756   8.011   0.883 -0.1149 -0.3734  0.6709
18463SOL    HW261736   4.824   7.882   0.842 -1.1557 -1.0176  0.9100
18464SOL     OW61737   2.717   8.242   8.155 -0.6111 -0.2493  0.4421
18464SOL    HW161738   2.795   8.273   8.109 -1.3807  0.4881 -0.4095
18464SOL    HW261739   2.739   8.251   8.248 -0.2068  1.3325  0.2169
18465SOL     OW61740   0.257   5.081   6.964  0.3754  0.0870  0.7461
18465SOL    HW161741   0.182   5.140   6.971  0.0540 -0.2510  0.2646
18465SOL    HW261742   0.323   5.119   7.021  0.1087  0.8063  0.5872
18466SOL     OW61743   1.616   2.998   4.878  0.0697  0.3295  0.3426
18466SOL    HW161744   1.527   3.004   4.911  0.2102  1.5108  0.5393
18466SOL    HW261745   1.637   2.904   4.884 -0.6994  0.2092  1.5160
18467SOL     OW61746   4.728   8.501   4.517  0.0283  0.0159  0.0920
18467SOL    HW161747   4.806   8.520   4.466 -0.4407  1.7721 -0.0162
18467SOL    HW261748   4.723   8.572   4.581 -0.0890 -1.4470  1.8035
18468SOL     OW61749   7.916   0.291   4.747  0.4938 -0.1900 -0.8011
18468SOL    HW161750   7.914   0.371   4.800 -0.8427 -1.5276  1.3228
18468SOL    HW261751   7.972   0.231   4.796 -2.9063 -2.4090  0.7491
18469SOL     OW61752   4.866   0.316   4.665  0.0547 -0.6509 -0.0859
18469SOL    HW161753   4.897   0.293   4.752  1.9503 -1.4852 -0.9119
18469SOL    HW261754   4.856   0.232   4.620  1.3745 -0.1665 -1.3572
18470SOL     OW61755   8.866   0.551   5.101 -0.7242 -0.2066 -0.0049
18470SOL    HW161756   8.848   0.645   5.092 -1.2493 -0.2997  0.0248
18470SOL    HW261757   8.786   0.509   5.069 -1.3276 -0.6078  1.9243
18471SOL     OW61758   6.998   3.155   0.493  0.1748 -0.0261  0.5985
18471SOL    HW161759   7.030   3.087   0.434  0.9023  0.5062  0.3698
18471SOL    HW261760   6.906   3.133   0.507  0.2583 -0.7313  0.0746
18472SOL     OW61761   8.962   6.157   3.051  0.3552 -0.1436 -0.0536
18472SOL    HW161762   8.957   6.252   3.060 -0.5312 -0.1315 -0.5630
18472SOL    HW261763   9.055   6.139   3.040  0.4812  0.7160 -0.4951
18473SOL     OW61764   1.867   3.323   8.371  0.3007  0.2672  0.1856
18473SOL    HW161765   1.773   3.315   8.388  0.1326 -1.4902 -1.3545
18473SOL    HW261766   1.890   3.409   8.408 -1.6930  0.3348  1.4376
18474SOL     OW61767   5.781   9.097   4.058 -0.5970 -0.2836 -0.1406
18474SOL    HW161768   5.758   9.008   4.032  0.4927 -0.7986  0.5992
18474SOL    HW261769   5.737   9.109   4.142 -0.4508 -0.2498 -0.0697
18475SOL     OW61770   5.611   7.365   8.012  0.0095 -0.5225 -0.1332
18475SOL    HW161771   5.575   7.277   8.028  1.7482 -1.6879 -2.0841
18475SOL    HW261772   5.691   7.368   8.063 -0.8384  0.6158  1.2039
18476SOL     OW61773   1.630   6.866   3.220 -0.1509  0.0988 -0.2371
18476SOL    HW161774   1.665   6.798   3.163 -0.3288 -0.4187  0.2599
18476SOL    HW261775   1.701   6.930   3.228 -0.2634  0.3777 -1.3432
18477SOL     OW61776   0.079   7.585   8.775 -0.5352 -0.8669  0.4407
18477SOL    HW161777   0.074   7.617   8.685 -0.9551  0.6732  0.9898
18477SOL    HW261778   0.170   7.596   8.800 -0.5824 -0.5374  0.4695
18478SOL     OW61779   3.977   6.162   7.012 -0.3196 -0.0060  0.0990
18478SOL    HW161780   3.912   6.233   7.022  0.6492  0.7628  1.2001
18478SOL    HW261781   3.959   6.126   6.925 -0.9702  1.4677 -0.4199
18479SOL     OW61782   4.966   6.865   3.988 -0.7561  0.3922  0.2771
18479SOL    HW161783   4.945   6.776   4.016  1.5794  0.6731  3.5661
18479SOL    HW261784   5.037   6.855   3.925 -0.6362 -0.0965  0.4862
18480SOL     OW61785   2.708   5.357   4.251 -0.3841  0.3779  0.3026
18480SOL    HW161786   2.759   5.280   4.276 -0.9981  0.1949  1.0183
18480SOL    HW261787   2.698   5.407   4.332 -0.0595  1.1777 -0.1356
18481SOL     OW61788   5.004   4.022   1.494  0.5987  0.4040 -0.5745
18481SOL    HW161789   5.062   3.968   1.440  0.0579  0.9641 -1.7325
18481SOL    HW261790   5.036   4.008   1.583  0.7523 -1.4831 -0.8792
18482SOL     OW61791   4.032   4.160   1.095 -0.2666 -0.1620  0.9061
18482SOL    HW161792   4.034   4.070   1.128 -0.1816 -0.8348 -0.8052
18482SOL    HW261793   3.962   4.160   1.030 -0.5035  1.1268  1.1348
18483SOL     OW61794   5.284   6.283   0.970 -0.1483 -0.2527  0.5570
18483SOL    HW161795   5.322   6.275   1.058 -1.2216 -1.4734  0.9287
18483SOL    HW261796   5.208   6.225   0.971  0.2394 -0.8607 -1.4275
18484SOL     OW61797   7.304   6.108   4.531 -0.1036  0.0207  0.9073
18484SOL    HW161798   7.312   6.179   4.468  0.1529 -0.1849  0.7082
18484SOL    HW261799   7.377   6.049   4.512 -1.1118 -1.0282  0.1536
18485SOL     OW61800   8.991   3.756   9.165 -0.8135  0.2708 -0.0804
18485SOL    HW161801   8.968   3.685   9.106  0.8524  0.3528 -0.8683
18485SOL    HW261802   9.026   3.824   9.108  2.1310 -0.1688  1.0567
18486SOL     OW61803   0.085   3.457   7.676  0.0581  0.2217  0.1750
18486SOL    HW161804   0.099   3.500   7.592  1.0479  0.5269  0.4770
18486SOL    HW261805   0.084   3.529   7.739 -1.9673  0.1151  0.3046
18487SOL     OW61806   5.249   7.981   2.182 -0.2891 -0.3453  0.4307
18487SOL    HW161807   5.305   7.903   2.187 -0.7231 -0.7775 -0.9537
18487SOL    HW261808   5.196   7.967   2.104 -0.4535  1.2970  0.2170
18488SOL     OW61809   0.212   7.239   6.250  0.3100 -0.0602  0.1317
18488SOL    HW161810   0.240   7.167   6.193 -1.2757  0.0933 -0.8985
18488SOL    HW261811   0.235   7.210   6.338 -0.0859 -1.7432 -0.2799
18489SOL     OW61812   2.621   8.780   1.683 -0.0902  0.0424  0.0087
18489SOL    HW161813   2.646   8.835   1.609  0.2183 -0.7428 -0.4835
18489SOL    HW261814   2.698   8.777   1.739  0.3015 -0.8100 -0.5462
18490SOL     OW61815   0.803   6.991   8.672  0.4102 -0.0272  0.6282
18490SOL    HW161816   0.715   7.004   8.706  0.2462 -2.0199  1.0869
18490SOL    HW261817   0.794   6.998   8.577 -0.2292 -0.1659  0.6777
18491SOL     OW61818   1.133   6.492   8.518 -0.0715  0.2715 -0.1549
18491SOL    HW161819   1.179   6.484   8.601  0.0226 -2.7785 -0.4055
18491SOL    HW261820   1.182   6.560   8.470  2.2381 -0.5921  0.8314
18492SOL     OW61821   4.843   7.828   6.873  0.0238 -0.1145 -0.3911
18492SOL    HW161822   4.754   7.810   6.841  0.5987 -0.8255 -1.6565
18492SOL    HW261823   4.841   7.921   6.898 -1.1913 -0.2346  0.0021
18493SOL     OW61824   5.685   3.462   1.831  0.3088 -0.2580 -0.1400
18493SOL    HW161825   5.738   3.525   1.783 -0.7488  0.0744 -0.8877
18493SOL    HW261826   5.607   3.449   1.777 -0.5901 -0.4028  1.1452
18494SOL     OW61827   2.619   2.697   2.906 -0.2750 -0.0281 -0.5600
18494SOL    HW161828   2.651   2.781   2.937 -0.6666  0.5045 -1.5547
18494SOL    HW261829   2.665   2.632   2.959 -0.5903  0.8235  0.7837
18495SOL     OW61830   1.134   1.543   3.754  0.2856 -0.3582 -0.0763
18495SOL    HW161831   1.193   1.524   3.826  0.3237  1.3032  0.3683
18495SOL    HW261832   1.189   1.544   3.676  0.7730  0.6235  0.2638
18496SOL     OW61833   1.804   1.879   2.521 -0.0895 -0.2448  0.8428
18496SOL    HW161834   1.804   1.784   2.505  0.6923 -0.0257 -0.6419
18496SOL    HW261835   1.817   1.887   2.616  0.5088 -1.6240  0.9081
18497SOL     OW61836   0.985   5.671   8.939  0.0209  0.6260  0.3200
18497SOL    HW161837   0.924   5.734   8.899 -0.3459  0.4207  0.5505
18497SOL    HW261838   1.064   5.722   8.956 -1.2326  1.8539  3.2095
18498SOL     OW61839   0.896   2.112   6.678  0.6795  0.4737 -0.3718
18498SOL    HW161840   0.978   2.130   6.725  0.3512 -0.4062  0.5700
18498SOL    HW261841   0.891   2.017   6.675 -0.2075  0.5256 -0.6152
18499SOL     OW61842   4.570   1.370   7.973 -0.0681 -0.8713 -0.1334
18499SOL    HW161843   4.574   1.434   7.902  3.8389 -1.0640 -0.2861
18499SOL    HW261844   4.610   1.291   7.937 -3.6609 -3.2128  0.4340
18500SOL     OW61845   1.492   0.693   8.188 -0.0326 -0.7073 -0.2368
18500SOL    HW161846   1.578   0.658   8.163  1.0525  0.5052  1.5582
18500SOL    HW261847   1.449   0.621   8.233  0.9955 -0.6582  0.8635
18501SOL     OW61848   2.910   6.279   8.731 -0.0029  0.3168 -0.5238
18501SOL    HW161849   2.984   6.250   8.677  0.9948  1.6174  0.0668
18501SOL    HW261850   2.931   6.248   8.819 -1.2581 -1.1640 -0.7147
18502SOL     OW61851   4.980   3.247   0.678 -0.3264  0.4765 -0.1391
18502SOL    HW161852   5.034   3.294   0.614  1.6075 -2.4763 -0.8443
18502SOL    HW261853   4.909   3.209   0.627 -0.5020  0.5897  0.0167
18503SOL     OW61854   8.933   5.420   5.562 -0.3564  0.4289 -0.6396
18503SOL    HW161855   8.936   5.329   5.591  0.1294 -0.2082 -2.5611
18503SOL    HW261856   8.925   5.415   5.467  0.2982  2.3905 -0.8444
18504SOL     OW61857   1.138   5.029   1.229  0.3499  0.0096  0.2888
18504SOL    HW161858   1.195   4.952   1.234  0.1406 -0.1789 -0.1310
18504SOL    HW261859   1.192   5.097   1.188  0.9951  0.5384  1.9188
18505SOL     OW61860   1.396   4.452   1.317  0.2128  0.4903  0.4808
18505SOL    HW161861   1.458   4.395   1.363  0.6297 -0.4764 -1.2019
18505SOL    HW261862   1.451   4.505   1.259 -0.2539  2.0797  1.4185
18506SOL     OW61863   5.262   0.956   1.762  0.1464 -0.0530 -0.4667
18506SOL    HW161864   5.170   0.936   1.746 -0.2079  1.9916 -1.2078
18506SOL    HW261865   5.270   0.954   1.858 -0.5306 -0.7483 -0.4124
18507SOL     OW61866   2.487   5.043   8.387  0.2976  0.9820  0.5887
18507SOL    HW161867   2.479   5.081   8.474  1.8794 -0.0724  1.2418
18507SOL    HW261868   2.566   5.082   8.349 -0.2418  1.2552 -0.2861
18508SOL     OW61869   5.150   0.561   6.444  0.4240 -0.2923  0.1479
18508SOL    HW161870   5.105   0.493   6.494  1.1728 -1.3715 -0.6265
18508SOL    HW261871   5.085   0.630   6.434  0.0026 -0.3856  1.9234
18509SOL     OW61872   0.971   2.067   2.874  0.1368 -0.2829 -0.3213
18509SOL    HW161873   1.016   2.093   2.955 -2.1569 -1.9918  1.6468
18509SOL    HW261874   0.976   2.145   2.818  2.3529  0.7567  1.1688
18510SOL     OW61875   5.174   5.972   5.759 -1.0655  0.4022  0.2094
18510SOL    HW161876   5.204   5.901   5.815  1.6937  0.3783 -1.1374
18510SOL    HW261877   5.244   6.037   5.763 -1.5814  1.1638 -1.8504
18511SOL     OW61878   2.442   5.186   4.482  0.3196  0.3023  0.0835
18511SOL    HW161879   2.388   5.192   4.403 -0.1528  1.9965  0.4861
18511SOL    HW261880   2.403   5.249   4.542 -0.5711 -2.3852  2.4826
18512SOL     OW61881   4.396   4.490   0.272 -0.2818  0.5874 -0.4404
18512SOL    HW161882   4.321   4.504   0.330 -1.4881  1.4389 -2.1244
18512SOL    HW261883   4.452   4.429   0.320 -2.3011 -0.5015  0.6637
18513SOL     OW61884   0.352   1.269   1.740  0.0131  0.1063  0.3579
18513SOL    HW161885   0.384   1.224   1.818 -0.1753  1.3353  1.1758
18513SOL    HW261886   0.271   1.223   1.717 -0.4159  0.2904  1.4436
18514SOL     OW61887   0.531   8.206   3.766  0.0369  0.0602  0.2251
18514SOL    HW161888   0.549   8.260   3.843  1.7406 -0.3234  0.1300
18514SOL    HW261889   0.545   8.116   3.796 -1.8645 -0.3075  0.1304
18515SOL     OW61890   8.895   1.096   3.556 -0.1457 -0.4895  0.6905
18515SOL    HW161891   8.929   1.009   3.580 -2.4083 -1.9968 -1.0278
18515SOL    HW261892   8.957   1.128   3.490  0.5828 -0.9205  1.1526
18516SOL     OW61893   2.101   3.132   6.761 -0.0485  0.6891 -0.1669
18516SOL    HW161894   2.025   3.075   6.772 -0.2348  1.2617  1.8741
18516SOL    HW261895   2.176   3.074   6.778  0.0426  0.0970 -2.2920
18517SOL     OW61896   1.907   1.219   0.942 -0.4932 -0.2310 -0.0181
18517SOL    HW161897   1.901   1.159   1.016 -0.0974 -1.0969 -0.6684
18517SOL    HW261898   1.986   1.191   0.895 -0.5072  0.5689 -0.5338
18518SOL     OW61899   5.893   4.216   6.787  0.2893 -0.2637 -0.3969
18518SOL    HW161900   5.906   4.290   6.728  1.5585  0.9894  1.3573
18518SOL    HW261901   5.979   4.200   6.825 -0.4201 -1.2074  0.8991
18519SOL     OW61902   4.092   1.085   3.099  0.1138 -0.0870  0.0106
18519SOL    HW161903   4.039   1.029   3.155  0.0305  0.6789  0.7348
18519SOL    HW261904   4.177   1.089   3.143  0.6372 -0.9423 -0.9000
18520SOL     OW61905   2.359   3.919   4.626 -0.2028 -0.2236 -0.4447
18520SOL    HW161906   2.417   3.882   4.693 -0.2412 -1.4237 -1.0471
18520SOL    HW261907   2.290   3.964   4.675  0.9507  0.8050  0.2869
18521SOL     OW61908   1.160   7.681   7.176 -0.0434  0.3686  0.1181
18521SOL    HW161909   1.159   7.702   7.082 -0.4856  0.6383  0.1820
18521SOL    HW261910   1.156   7.766   7.219  1.0579  0.2942  0.3897
18522SOL     OW61911   8.802   1.970   4.684  0.0959  0.3097 -0.0591
18522SOL    HW161912   8.857   1.894   4.705 -0.9924 -0.2476  0.9324
18522SOL    HW261913   8.730   1.964   4.747 -1.4637  0.6293 -1.7593
18523SOL     OW61914   5.949   3.059   6.251  0.0461  0.8041  0.0534
18523SOL    HW161915   5.971   3.000   6.324 -1.5690  0.0188 -0.0474
18523SOL    HW261916   6.020   3.123   6.250  1.0349 -0.2119  1.1854
18524SOL     OW61917   5.946   6.890   3.812  0.7579  0.2164  0.6695
18524SOL    HW161918   5.963   6.868   3.720  0.3682  0.2861  0.5771
18524SOL    HW261919   5.936   6.985   3.812 -2.7373 -0.0022  0.1407
18525SOL     OW61920   1.139   9.030   5.955  0.0543  0.3976 -0.3080
18525SOL    HW161921   1.209   9.013   5.893  1.8704  1.9931  1.1660
18525SOL    HW261922   1.176   9.006   6.040 -1.3933  0.7543  0.4598
18526SOL     OW61923   6.423   0.933   8.839  0.5222 -0.0541  0.3605
18526SOL    HW161924   6.402   1.026   8.844 -2.8194 -0.7244  1.1370
18526SOL    HW261925   6.508   0.925   8.881  1.2996  2.7247 -0.4976
18527SOL     OW61926   6.086   5.543   0.238  0.2006 -0.4858 -0.2367
18527SOL    HW161927   6.040   5.615   0.194 -0.2539 -0.1187  0.7980
18527SOL    HW261928   6.126   5.493   0.167 -0.1139  0.3527 -1.0275
18528SOL     OW61929   2.500   4.230   6.333 -0.2147  0.3414 -0.6413
18528SOL    HW161930   2.461   4.317   6.321  1.5177  1.2909  0.1207
18528SOL    HW261931   2.477   4.182   6.254 -0.5788  1.7742 -1.4440
18529SOL     OW61932   8.127   0.341   4.008  0.3876 -0.6303  0.2477
18529SOL    HW161933   8.181   0.417   3.988 -0.5569  0.5218  1.9164
18529SOL    HW261934   8.037   0.369   3.990  0.1008 -1.7171 -0.1380
18530SOL     OW61935   5.803   3.908   3.578 -0.2973  0.2256  0.0690
18530SOL    HW161936   5.857   3.941   3.507 -0.8758 -1.6071 -1.3112
18530SOL    HW261937   5.720   3.954   3.568 -0.3224  0.0972 -0.3570
18531SOL     OW61938   9.193   0.786   2.346 -0.2357 -0.1392 -0.1840
18531SOL    HW161939   9.214   0.804   2.254  0.8376  0.8603  0.2364
18531SOL    HW261940   9.116   0.840   2.364 -0.3229 -0.1769 -0.4345
18532SOL     OW61941   4.295   6.866   9.192  0.3720 -0.1474  0.4346
18532SOL    HW161942   4.218   6.863   9.135  0.9538 -0.0867 -0.3753
18532SOL    HW261943   4.353   6.930   9.150  1.1199 -0.6467  0.6879
18533SOL     OW61944   8.278   9.160   6.053  0.0734 -0.3371  0.8779
18533SOL    HW161945   8.354   9.205   6.090  0.4187 -1.7339  1.9307
18533SOL    HW261946   8.314   9.109   5.980 -0.6540  2.6827 -1.8500
18534SOL     OW61947   9.002   7.457   5.665  0.2947 -0.2134  0.3327
18534SOL    HW161948   9.058   7.533   5.680  0.7089 -0.4796  0.1630
18534SOL    HW261949   9.054   7.382   5.694 -0.2378 -0.4028  0.8049
18535SOL     OW61950   0.118   6.419   4.176  0.5200 -0.1173  0.1624
18535SOL    HW161951   0.079   6.505   4.162  2.0265  0.4984 -0.5213
18535SOL    HW261952   0.148   6.420   4.267  1.4500  0.4900 -0.1411
18536SOL     OW61953   4.558   0.285   0.547  0.4663  0.7658  0.0586
18536SOL    HW161954   4.648   0.313   0.564  0.6411  0.4163 -0.2724
18536SOL    HW261955   4.558   0.256   0.456 -0.1328  1.3406 -0.1308
18537SOL     OW61956   0.148   1.367   7.137 -0.4593 -0.0658 -0.3498
18537SOL    HW161957   0.188   1.283   7.116  1.4039  0.7667 -0.2592
18537SOL    HW261958   0.054   1.348   7.140 -0.1774 -1.8801 -1.4858
18538SOL     OW61959   1.944   5.365   3.697  0.4595 -0.4866  0.4383
18538SOL    HW161960   1.961   5.288   3.751  0.1404 -1.7456 -1.1836
18538SOL    HW261961   1.851   5.359   3.676  0.3685  0.5128  0.5177
18539SOL     OW61962   2.387   2.844   6.113  0.2531  0.6255  0.3554
18539SOL    HW161963   2.295   2.828   6.094 -0.0358 -0.6330  2.5001
18539SOL    HW261964   2.427   2.757   6.117  1.3601  1.1088  0.3359
18540SOL     OW61965   0.861   3.015   4.121 -0.2298  0.1682 -0.0151
18540SOL    HW161966   0.910   2.950   4.070  0.3926  1.7379 -1.5059
18540SOL    HW261967   0.843   2.971   4.205  1.9539 -1.1806 -0.1783
18541SOL     OW61968   8.949   8.277   8.228 -0.6516  0.3933  0.2019
18541SOL    HW161969   8.873   8.220   8.214 -1.5956  1.1885  1.8093
18541SOL    HW261970   8.919   8.363   8.199 -0.1176  0.5842  0.2194
18542SOL     OW61971   0.974   2.748   3.579  0.3309  0.2519 -0.5104
18542SOL    HW161972   0.984   2.681   3.647 -0.6989  1.2149  0.6504
18542SOL    HW261973   0.989   2.702   3.497  2.0285 -0.8734  0.3758
18543SOL     OW61974   0.945   0.008   3.437 -0.9885 -0.3707 -0.4527
18543SOL    HW161975   0.951   0.010   3.342  0.2745 -0.9780 -0.4014
18543SOL    HW261976   0.934  -0.085   3.458  2.1902 -0.7206  0.1260
18544SOL     OW61977   7.522   4.822   6.396  0.4070  0.1435  0.5234
18544SOL    HW161978   7.564   4.738   6.414  1.8381 -0.0203 -2.8090
18544SOL    HW261979   7.589   4.887   6.418  0.4050  0.1971  0.3791
18545SOL     OW61980   0.434   2.842   4.839 -0.0655  0.0010  0.2520
18545SOL    HW161981   0.362   2.856   4.779  0.5795 -1.0441 -0.7984
18545SOL    HW261982   0.509   2.887   4.799 -0.1096  1.1122  1.3460
18546SOL     OW61983   3.001   0.391   1.617  0.1866  0.4332  0.3047
18546SOL    HW161984   3.012   0.310   1.666  0.0396  0.0714 -0.2525
18546SOL    HW261985   2.909   0.414   1.629  0.4879  1.1271  1.3861
18547SOL     OW61986   8.411   1.519   1.637 -0.9175  0.3410 -0.4635
18547SOL    HW161987   8.385   1.466   1.562 -0.8381  0.6651 -0.7212
18547SOL    HW261988   8.485   1.473   1.676 -3.3381 -2.0171  1.7996
18548SOL     OW61989   6.469   7.306   0.096  0.5409  0.0002 -0.3783
18548SOL    HW161990   6.393   7.302   0.153 -0.2367  0.9536 -1.2994
18548SOL    HW261991   6.467   7.224   0.047 -0.1101  0.1555 -0.6283
18549SOL     OW61992   8.799   7.167   1.763 -0.3378 -1.1335 -0.3403
18549SOL    HW161993   8.819   7.138   1.674 -0.1325 -1.3238 -0.2314
18549SOL    HW261994   8.869   7.130   1.817 -0.1748 -0.5865 -0.1747
18550SOL     OW61995   8.983   0.617   4.639  0.4202  0.0764 -0.6081
18550SOL    HW161996   9.011   0.708   4.628  0.2809  0.2857  0.5937
18550SOL    HW261997   8.887   0.622   4.643  0.3462 -0.2719 -1.6809
18551SOL     OW61998   5.196   0.669   2.457 -0.0225 -0.3457  0.0442
18551SOL    HW161999   5.137   0.696   2.386  0.6631  0.9515 -0.0731
18551SOL    HW262000   5.268   0.625   2.412  1.2175  1.8965 -0.2843
18552SOL     OW62001   8.567   7.500   7.177 -0.3157  0.3191 -0.1672
18552SOL    HW162002   8.510   7.452   7.117 -0.3349 -0.6050  0.5751
18552SOL    HW262003   8.620   7.433   7.220 -1.1803  0.7859  1.7673
18553SOL     OW62004   2.298   5.172   5.465 -0.3866  0.6012 -0.0616
18553SOL    HW162005   2.326   5.249   5.514 -0.4854  0.8941 -0.4624
18553SOL    HW262006   2.220   5.201   5.418  0.2399  0.5981 -1.1207
18554SOL     OW62007   1.822   4.231   1.694  0.4689 -0.5408  0.4934
18554SOL    HW162008   1.773   4.313   1.693  1.8557  0.3304 -1.4515
18554SOL    HW262009   1.831   4.210   1.787 -0.7413  0.9808  0.9990
18555SOL     OW62010   2.307   8.436   1.751 -0.3392 -0.1936  0.0632
18555SOL    HW162011   2.350   8.417   1.668 -1.7996 -0.4689 -0.6674
18555SOL    HW262012   2.349   8.516   1.782  0.9164 -0.6346 -0.4267
18556SOL     OW62013   1.420   0.210   3.717  0.2823  0.2187 -0.5490
18556SOL    HW162014   1.466   0.294   3.714  1.9953 -0.5291  1.7079
18556SOL    HW262015   1.340   0.229   3.766  0.7987  0.5046  0.2073
18557SOL     OW62016   2.789   7.820   1.198 -0.1219  0.0419 -0.5538
18557SOL    HW162017   2.703   7.792   1.229 -0.1308 -0.9795 -1.4240
18557SOL    HW262018   2.771   7.861   1.113  0.3349 -1.2468 -1.3141
18558SOL     OW62019   5.623   4.310   4.814  0.5288 -0.2701 -0.7246
18558SOL    HW162020   5.657   4.399   4.816 -0.8434  0.4486 -3.6925
18558SOL    HW262021   5.683   4.263   4.756  0.6132 -0.9888 -0.0663
18559SOL     OW62022   6.920   1.407   8.914 -0.3755  0.9602 -0.0696
18559SOL    HW162023   6.892   1.350   8.843  0.2470  1.9541 -1.1576
18559SOL    HW262024   6.874   1.374   8.991 -0.1050 -0.9351 -0.6619
18560SOL     OW62025   5.964   6.790   4.147  0.4808 -0.4175 -0.3445
18560SOL    HW162026   6.016   6.755   4.220  0.2473 -2.1950 -0.9762
18560SOL    HW262027   6.029   6.824   4.085  0.7522 -0.2649  0.0205
18561SOL     OW62028   0.450   3.682   8.653  0.6951 -0.0306  0.5265
18561SOL    HW162029   0.457   3.770   8.616 -0.5533 -0.1612 -0.0713
18561SOL    HW262030   0.516   3.680   8.723  1.7070  0.8899 -0.3706
18562SOL     OW62031   4.392   5.139   0.418  0.0708  0.0473  0.4493
18562SOL    HW162032   4.300   5.153   0.439  0.7112  2.3684  2.0593
18562SOL    HW262033   4.398   5.153   0.324 -1.3093 -0.8256  0.2088
18563SOL     OW62034   0.298   8.774   0.137 -0.1347 -0.0178 -0.0696
18563SOL    HW162035   0.246   8.833   0.191 -0.0062 -0.8558  0.9910
18563SOL    HW262036   0.320   8.701   0.195  0.5078 -0.6531 -1.0845
18564SOL     OW62037   5.749   1.260   6.218  0.0894 -0.0591  0.8911
18564SOL    HW162038   5.696   1.181   6.207 -0.5763  0.4888  0.0072
18564SOL    HW262039   5.834   1.228   6.248 -0.9774 -0.9004  3.2434
18565SOL     OW62040   7.578   8.173   0.218  0.1368 -0.0015 -0.7136
18565SOL    HW162041   7.619   8.254   0.187 -0.3419  0.5333  0.0051
18565SOL    HW262042   7.548   8.129   0.139 -1.1638  1.3810 -1.0445
18566SOL     OW62043   1.044   4.083   1.547 -0.0118 -0.1349 -0.3319
18566SOL    HW162044   0.966   4.136   1.530 -0.0789 -0.3784 -0.7770
18566SOL    HW262045   1.099   4.140   1.601 -1.3762 -0.7034  1.7998
18567SOL     OW62046   7.080   5.490   8.486 -0.0043 -0.3912 -0.4065
18567SOL    HW162047   7.040   5.404   8.472 -0.2901 -0.4851  0.8139
18567SOL    HW262048   7.168   5.470   8.519  0.4099 -0.1963 -1.3715
18568SOL     OW62049   8.026   4.667   8.539 -0.4200  0.7181  0.5322
18568SOL    HW162050   7.933   4.664   8.520 -0.2500  1.3906 -0.5121
18568SOL    HW262051   8.044   4.759   8.558  0.1045  0.6783  0.2588
18569SOL     OW62052   7.381   5.748   2.769  0.4526  0.5559  0.1175
18569SOL    HW162053   7.306   5.701   2.805 -0.0465  2.3750  1.6086
18569SOL    HW262054   7.355   5.771   2.679 -1.1721  1.8829  0.8790
18570SOL     OW62055   5.346   7.194   3.232  0.0821 -0.2346  0.0419
18570SOL    HW162056   5.387   7.224   3.313  0.8608  2.4412 -1.2363
18570SOL    HW262057   5.417   7.190   3.169 -0.8168 -0.4428 -0.9859
18571SOL     OW62058   4.807   6.340   4.933  0.3364 -0.0514 -0.0687
18571SOL    HW162059   4.827   6.306   4.845  0.5547 -0.5431  0.1633
18571SOL    HW262060   4.884   6.392   4.956  0.2777  0.0811 -0.1699
18572SOL     OW62061   1.592   4.057   5.248  0.0604 -0.4093  0.3030
18572SOL    HW162062   1.567   3.974   5.206  2.0437 -1.6885  1.5292
18572SOL    HW262063   1.594   4.120   5.176  0.6370 -1.9166 -1.0563
18573SOL     OW62064   5.797   2.233   0.523  0.4541 -0.2977 -0.0692
18573SOL    HW162065   5.852   2.239   0.445 -0.4912 -0.5938 -0.7723
18573SOL    HW262066   5.721   2.182   0.495 -0.6228  0.8693  0.6147
18574SOL     OW62067   4.387   6.829   5.001  0.4082 -0.6135 -0.1690
18574SOL    HW162068   4.462   6.856   4.948  0.9585 -0.2331  0.7668
18574SOL    HW262069   4.416   6.749   5.045  1.2160  0.7964  2.0454
18575SOL     OW62070   5.588   2.352   1.138 -0.3125  0.7191  0.3094
18575SOL    HW162071   5.552   2.321   1.055  0.7183 -1.2510  0.5186
18575SOL    HW262072   5.576   2.277   1.198  1.5611  1.0110  1.1122
18576SOL     OW62073   1.522   4.399   5.852 -0.0525  0.0200  0.0580
18576SOL    HW162074   1.465   4.360   5.785 -0.7091  0.4169  0.3800
18576SOL    HW262075   1.596   4.435   5.802  0.9970 -2.2645 -0.2084
18577SOL     OW62076   2.373   8.816   8.055  0.2397  0.2036 -0.2859
18577SOL    HW162077   2.379   8.865   7.972  1.8471 -1.2345 -1.0734
18577SOL    HW262078   2.462   8.789   8.074 -0.2729 -0.4600  1.3470
18578SOL     OW62079   9.091   2.720   2.112  0.5916 -0.0902  0.2051
18578SOL    HW162080   9.061   2.631   2.091  1.7957 -0.2239 -1.1519
18578SOL    HW262081   9.169   2.706   2.167 -0.7471  0.2157  2.2736
18579SOL     OW62082   0.716   5.936   2.542 -0.0676 -0.0536 -0.4319
18579SOL    HW162083   0.659   5.952   2.617  1.0460  0.9498  0.2389
18579SOL    HW262084   0.671   5.868   2.491 -0.6917 -1.0135  1.3139
18580SOL     OW62085   6.898   9.037   4.320  0.3763 -0.1898  0.1883
18580SOL    HW162086   6.958   8.972   4.356  2.5218  2.7766  2.4570
18580SOL    HW262087   6.942   9.070   4.242  0.2998 -0.0574  0.2000
18581SOL     OW62088   2.239   4.373   4.691 -0.0250 -0.4104 -0.8515
18581SOL    HW162089   2.197   4.289   4.675 -2.5536  1.0320 -2.4780
18581SOL    HW262090   2.307   4.380   4.624  0.9540 -1.5328 -0.0316
18582SOL     OW62091   1.573   7.833   8.562 -0.0228 -0.1678 -0.5426
18582SOL    HW162092   1.618   7.907   8.521 -1.0919  0.7141 -0.1868
18582SOL    HW262093   1.629   7.807   8.635  0.2411  0.4591 -0.5195
18583SOL     OW62094   3.468   2.767   7.031 -0.1202 -0.7368 -0.3510
18583SOL    HW162095   3.403   2.835   7.013  0.1353 -0.3956  0.0035
18583SOL    HW262096   3.456   2.747   7.124  0.0479 -0.9265 -0.3701
18584SOL     OW62097   4.352   3.810   1.476  0.0755  0.4605  0.2409
18584SOL    HW162098   4.341   3.848   1.389 -0.6102  0.7336  0.4446
18584SOL    HW262099   4.270   3.765   1.494 -0.2480  1.4286  1.2433
18585SOL     OW62100   3.607   5.061   7.134 -0.1606 -0.1521  0.1658
18585SOL    HW162101   3.599   4.967   7.118  1.0229 -0.2612  0.1654
18585SOL    HW262102   3.674   5.090   7.073 -1.1765  0.8851 -0.5124
18586SOL     OW62103   3.374   1.154   7.119 -0.0575  0.0638 -0.6884
18586SOL    HW162104   3.347   1.156   7.210  1.2006 -0.5782 -0.2737
18586SOL    HW262105   3.465   1.183   7.120  0.2765 -0.8611 -1.5929
18587SOL     OW62106   8.223   8.772   0.790 -0.0632 -0.1052  0.3850
18587SOL    HW162107   8.150   8.834   0.797 -0.3452 -0.3694 -0.0869
18587SOL    HW262108   8.182   8.692   0.756  0.0419 -1.0177  2.2768
18588SOL     OW62109   1.616   1.025   5.143  0.2396  0.3221  0.1422
18588SOL    HW162110   1.594   1.104   5.094 -4.9097 -1.0738 -0.3601
18588SOL    HW262111   1.619   0.956   5.076 -1.7773 -0.7928  1.1050
18589SOL     OW62112   8.058   2.519   3.711 -0.7694  0.2817  0.2002
18589SOL    HW162113   8.056   2.439   3.763  1.2471  1.7074  2.6969
18589SOL    HW262114   8.036   2.491   3.622 -0.3501 -2.9835  1.0257
18590SOL     OW62115   6.193   2.254   4.191 -0.2191 -0.3684 -0.0746
18590SOL    HW162116   6.215   2.334   4.144 -3.5776  1.3640  0.9680
18590SOL    HW262117   6.180   2.188   4.122 -1.0386  1.0195 -1.2995
18591SOL     OW62118   8.048   0.689   5.678 -0.5528 -0.4326 -0.2587
18591SOL    HW162119   8.012   0.695   5.590 -1.5528  0.3329  0.1796
18591SOL    HW262120   8.112   0.760   5.683 -0.9969 -0.0320 -0.1575
18592SOL     OW62121   2.791   0.793   4.304  0.2894  0.2499 -0.5052
18592SOL    HW162122   2.730   0.785   4.231 -2.5600 -0.4607  1.7854
18592SOL    HW262123   2.776   0.715   4.358  2.0756  0.8528  1.0090
18593SOL     OW62124   6.365   3.180   1.311  0.5076 -0.5496 -0.1920
18593SOL    HW162125   6.324   3.142   1.389 -1.5857  0.2600 -0.8261
18593SOL    HW262126   6.445   3.221   1.344 -0.0652 -0.6555  1.4603
18594SOL     OW62127   1.342   2.327   0.734  0.1252  0.1157  0.1136
18594SOL    HW162128   1.363   2.259   0.798 -1.5399 -0.5603 -0.0249
18594SOL    HW262129   1.290   2.391   0.782 -1.1034 -0.3734 -0.5184
18595SOL     OW62130   2.687   1.075   7.022 -0.2023  0.3240  0.1174
18595SOL    HW162131   2.660   1.086   6.931  0.7328 -0.3881 -0.2616
18595SOL    HW262132   2.653   0.989   7.048 -0.0716  0.3232  0.2917
18596SOL     OW62133   5.760   2.124   6.674 -0.0877 -0.2533  0.7355
18596SOL    HW162134   5.710   2.169   6.605 -0.4365 -0.0744  1.0983
18596SOL    HW262135   5.763   2.188   6.745 -1.2672 -1.0879  1.5594
18597SOL     OW62136   4.177   0.993   8.266  0.4321  0.0815 -0.5104
18597SOL    HW162137   4.088   0.980   8.297  0.2191 -0.2449 -1.2443
18597SOL    HW262138   4.231   0.938   8.322  0.0356 -0.6095 -0.7984
18598SOL     OW62139   4.179   0.551   2.770 -0.5172 -1.0104 -0.2702
18598SOL    HW162140   4.192   0.558   2.675 -1.0963 -0.4708 -0.3169
18598SOL    HW262141   4.253   0.499   2.801  0.4088 -0.0502 -0.8310
18599SOL     OW62142   6.241   3.842   5.855 -0.1673 -0.2646  0.6622
18599SOL    HW162143   6.322   3.807   5.891 -0.3597 -1.2594  0.1679
18599SOL    HW262144   6.215   3.911   5.917  0.5197 -0.6194  1.3653
18600SOL     OW62145   0.098   2.371   2.475  0.1168  0.0878 -0.0536
18600SOL    HW162146   0.121   2.443   2.534 -2.6761  1.5189 -0.5391
18600SOL    HW262147   0.014   2.340   2.508 -0.5572 -0.3860 -2.1021
18601SOL     OW62148   4.420   0.821   9.185 -0.6391  0.5073  0.4204
18601SOL    HW162149   4.469   0.789   9.110 -0.2669  0.6546  0.5966
18601SOL    HW262150   4.463   0.781   9.261  0.4546  2.1637  0.7154
18602SOL     OW62151   3.285   3.673   3.316  0.2177 -0.0223  0.1508
18602SOL    HW162152   3.220   3.736   3.346  0.4941  0.0562  0.6075
18602SOL    HW262153   3.243   3.627   3.244  0.1200  0.8955 -0.4008
18603SOL     OW62154   1.459   7.957   1.010 -0.2103  0.0842  0.0570
18603SOL    HW162155   1.552   7.981   1.001  0.3596 -2.0342 -0.1883
18603SOL    HW262156   1.428   7.945   0.921 -0.3031 -0.6286  0.1769
18604SOL     OW62157   4.122   3.618   5.670 -0.4728  0.5881  0.6181
18604SOL    HW162158   4.078   3.544   5.713 -0.3893  0.9642  1.3681
18604SOL    HW262159   4.187   3.647   5.733 -1.4510  2.2128  0.9382
18605SOL     OW62160   2.939   1.043   4.430  0.0432 -0.6577 -0.1638
18605SOL    HW162161   2.923   1.093   4.350 -0.9407 -0.8754 -0.1146
18605SOL    HW262162   2.884   0.965   4.421  0.5810 -1.1059  0.3416
18606SOL     OW62163   3.733   0.335   2.649 -0.2215 -0.2302 -0.0427
18606SOL    HW162164   3.671   0.279   2.696 -0.1142 -0.6968 -0.4625
18606SOL    HW262165   3.742   0.412   2.706 -0.3084 -0.6648  0.5671
18607SOL     OW62166   5.467   5.678   6.892  0.5224  0.2110  0.0827
18607SOL    HW162167   5.399   5.632   6.842 -0.1786 -2.1655  2.9260
18607SOL    HW262168   5.476   5.762   6.848 -4.7780  0.9995 -0.1658
18608SOL     OW62169   8.922   4.570   9.192 -0.0876  0.7138  0.4755
18608SOL    HW162170   8.990   4.530   9.246  0.7845  0.2266 -0.9295
18608SOL    HW262171   8.936   4.664   9.201  0.7578  0.6161  0.2429
18609SOL     OW62172   7.481   5.398   2.979 -0.6109  0.1837  0.4762
18609SOL    HW162173   7.532   5.318   2.994 -1.1217  0.1306  2.0362
18609SOL    HW262174   7.456   5.393   2.887 -0.0272 -1.0977  0.3614
18610SOL     OW62175   3.438   2.201   7.866 -0.4685  0.1521  0.9038
18610SOL    HW162176   3.391   2.121   7.842 -3.2563  1.4185  1.7129
18610SOL    HW262177   3.459   2.190   7.958  1.2472 -0.5454  0.4691
18611SOL     OW62178   4.341   0.890   1.178 -0.1608 -0.4701 -0.3049
18611SOL    HW162179   4.347   0.985   1.168  1.2438 -0.4339  0.5014
18611SOL    HW262180   4.367   0.874   1.269  0.0491 -1.6464 -0.5483
18612SOL     OW62181   4.667   8.453   6.610  0.1169 -0.2667  0.0384
18612SOL    HW162182   4.664   8.361   6.583  0.7048 -0.0900 -0.6507
18612SOL    HW262183   4.590   8.493   6.569  0.7145 -0.1178 -0.9793
18613SOL     OW62184   6.304   7.289   3.654 -0.3537 -0.0315 -0.0206
18613SOL    HW162185   6.255   7.301   3.735 -1.0882 -0.6190 -0.3628
18613SOL    HW262186   6.288   7.369   3.604  0.1849  0.3769  0.4393
18614SOL     OW62187   8.785   1.561   8.877  0.6433  0.2266 -0.0346
18614SOL    HW162188   8.849   1.500   8.914  0.5304  0.6566  0.9101
18614SOL    HW262189   8.838   1.628   8.834  0.8400  0.5978  0.7682
18615SOL     OW62190   1.977   4.794   7.539  0.6300 -0.2304  0.3278
18615SOL    HW162191   1.984   4.818   7.447 -0.2352 -0.8389  0.0864
18615SOL    HW262192   2.017   4.707   7.544  0.8331 -0.1261  0.5677
18616SOL     OW62193   4.748   9.029   5.685  0.0616 -0.2317 -0.5718
18616SOL    HW162194   4.684   9.083   5.733  0.5603 -1.1503  1.2223
18616SOL    HW262195   4.717   9.031   5.594 -0.2586  2.5807 -0.5128
18617SOL     OW62196   3.889   5.923   7.965 -0.0537 -0.2664  0.4548
18617SOL    HW162197   3.808   5.876   7.947 -0.4858  0.5744  0.1990
18617SOL    HW262198   3.863   6.000   8.015  0.3920  0.7900 -0.8707
18618SOL     OW62199   2.720   8.053   1.965  0.4996 -0.2716 -0.2881
18618SOL    HW162200   2.798   8.076   1.915  0.4628 -0.2768 -0.3484
18618SOL    HW262201   2.656   8.120   1.941  0.4776 -0.2817 -0.2580
18619SOL     OW62202   3.188   1.330   0.314 -0.5688  0.1798  0.9107
18619SOL    HW162203   3.137   1.361   0.239 -0.8261  0.7188  1.3033
18619SOL    HW262204   3.133   1.350   0.390  0.1673  0.6402  1.3270
18620SOL     OW62205   1.151   2.722   5.215 -0.2694  0.0264 -0.3248
18620SOL    HW162206   1.158   2.627   5.215 -1.0411 -0.1122  2.3813
18620SOL    HW262207   1.076   2.741   5.159 -0.8881 -1.0598  0.1136
18621SOL     OW62208   5.596   5.599   0.170  0.0642  0.2378  0.1952
18621SOL    HW162209   5.605   5.525   0.230  0.1504 -1.2223 -1.5696
18621SOL    HW262210   5.522   5.576   0.114 -1.6322  2.7003  1.2146
18622SOL     OW62211   2.653   4.939   9.009  0.2308 -0.1252  0.0186
18622SOL    HW162212   2.670   4.845   9.010 -0.0399 -0.1735  0.0822
18622SOL    HW262213   2.562   4.947   9.039  0.0855  0.1166 -0.4846
18623SOL     OW62214   4.488   0.345   6.441 -0.2036 -0.7504 -0.4958
18623SOL    HW162215   4.429   0.277   6.474 -1.6528  0.4342 -0.5300
18623SOL    HW262216   4.552   0.358   6.510 -0.3729 -1.6032 -0.1733
18624SOL     OW62217   0.543   7.052   8.680 -0.1287 -0.3196 -0.2318
18624SOL    HW162218   0.511   7.113   8.746  0.9086 -0.5511  0.5137
18624SOL    HW262219   0.504   7.082   8.598  0.3680  1.3588  0.1190
18625SOL     OW62220   3.067   7.679   2.678  0.4221  0.5997 -0.4534
18625SOL    HW162221   3.056   7.738   2.603  0.2987 -0.4107 -1.2523
18625SOL    HW262222   3.000   7.707   2.740 -1.2245 -0.1957 -1.8122
18626SOL     OW62223   3.141   4.095   4.802 -0.3518  0.4809  0.2798
18626SOL    HW162224   3.066   4.075   4.746 -1.0802 -0.5818  1.5518
18626SOL    HW262225   3.216   4.095   4.743 -1.0829 -0.6052 -0.7041
18627SOL     OW62226   8.342   2.824   4.567 -0.2866 -0.3410  0.4635
18627SOL    HW162227   8.251   2.811   4.541 -0.1390 -0.5065  0.0240
18627SOL    HW262228   8.363   2.747   4.620 -0.7218  0.2050  1.4681
18628SOL     OW62229   2.920   7.808   7.400 -0.0154 -0.0951 -0.3031
18628SOL    HW162230   2.832   7.775   7.381 -0.0159 -0.1375 -0.2277
18628SOL    HW262231   2.921   7.897   7.363  0.6448 -0.8827 -2.3571
18629SOL     OW62232   4.352   2.773   5.552  0.1491  0.0724  0.4349
18629SOL    HW162233   4.301   2.799   5.628 -1.5108 -1.2811 -0.1468
18629SOL    HW262234   4.360   2.678   5.559 -1.5610 -0.3462 -1.8937
18630SOL     OW62235   2.111   9.080   9.175 -0.2598 -0.2326  0.1177
18630SOL    HW162236   2.079   9.027   9.248 -2.2265 -1.0866 -1.2650
18630SOL    HW262237   2.173   9.023   9.129  0.7967  0.2196  0.9551
18631SOL     OW62238   5.021   0.707   8.725  0.2133  0.0139  0.1180
18631SOL    HW162239   5.043   0.620   8.691  2.9289  0.8078 -0.3955
18631SOL    HW262240   5.019   0.763   8.648 -1.6276  0.4618  0.4328
18632SOL     OW62241   6.691   0.660   6.236 -0.4073 -0.0868  0.0496
18632SOL    HW162242   6.611   0.708   6.259 -0.2955 -0.2704  0.8556
18632SOL    HW262243   6.673   0.570   6.263 -1.2614 -0.9296 -2.9448
18633SOL     OW62244   8.090   1.214   6.807  0.4227 -0.7320 -0.4760
18633SOL    HW162245   8.097   1.226   6.713  0.8837  0.9577 -0.2573
18633SOL    HW262246   8.000   1.240   6.828  0.1027 -1.7554 -0.5142
18634SOL     OW62247   0.628   0.932   5.559 -0.1451 -0.0385 -0.4627
18634SOL    HW162248   0.656   0.842   5.576  1.0562  0.5065  0.5827
18634SOL    HW262249   0.605   0.932   5.466 -3.3568 -2.2132  0.1822
18635SOL     OW62250   7.466   7.529   7.102 -0.1823  0.0020  0.2869
18635SOL    HW162251   7.384   7.539   7.054  0.5038 -0.6027 -1.0633
18635SOL    HW262252   7.464   7.440   7.137  1.1450 -1.1558 -2.3144
18636SOL     OW62253   2.628   4.321   7.867 -0.7812  0.2627 -0.4294
18636SOL    HW162254   2.575   4.388   7.912  1.0204 -0.2342  2.6978
18636SOL    HW262255   2.675   4.369   7.799 -0.0376  2.0989  1.3015
18637SOL     OW62256   4.764   3.188   1.651 -0.2976 -0.8265  0.0956
18637SOL    HW162257   4.682   3.236   1.646  0.5623  0.6945  0.1260
18637SOL    HW262258   4.779   3.155   1.562  0.1829  0.8618 -0.4834
18638SOL     OW62259   1.992   5.609   1.880 -0.1635  0.2318  0.3590
18638SOL    HW162260   2.061   5.652   1.830  0.5024  1.2765  2.0775
18638SOL    HW262261   1.915   5.613   1.822  0.8113  0.4132 -0.9770
18639SOL     OW62262   7.445   1.635   6.233 -0.1768  0.3421 -0.3450
18639SOL    HW162263   7.407   1.598   6.153 -2.0826 -1.6617  1.3693
18639SOL    HW262264   7.370   1.666   6.284  1.0528  2.3361  0.4020
18640SOL     OW62265   6.838   4.288   6.690 -0.4212  0.3734 -0.0822
18640SOL    HW162266   6.780   4.215   6.669 -0.8481  0.1853  1.6206
18640SOL    HW262267   6.918   4.247   6.724 -0.0317  0.6859 -0.5884
18641SOL     OW62268   6.458   0.770   6.629 -0.4988 -0.0096 -0.3789
18641SOL    HW162269   6.369   0.795   6.605 -0.9344 -0.0568  1.0604
18641SOL    HW262270   6.448   0.684   6.671  0.3073 -0.2676 -0.6978
18642SOL     OW62271   8.892   4.326   8.585 -0.1119  0.3143 -0.4016
18642SOL    HW162272   8.919   4.417   8.569  0.9773  0.0779  0.0049
18642SOL    HW262273   8.971   4.275   8.571 -0.9445 -0.7018 -1.6012
18643SOL     OW62274   0.922   3.843   6.321 -0.1387 -0.0742  0.2265
18643SOL    HW162275   1.002   3.893   6.335 -0.2221  0.5436 -1.2798
18643SOL    HW262276   0.935   3.763   6.372  0.4710  0.9607  1.7710
18644SOL     OW62277   4.642   9.165   1.948 -0.9211  0.3335 -0.6166
18644SOL    HW162278   4.570   9.113   1.912 -1.7408  1.5378 -0.7524
18644SOL    HW262279   4.666   9.119   2.028 -0.4841 -1.1930 -1.5740
18645SOL     OW62280   6.505   8.071   9.031 -0.0785 -0.1647 -0.1933
18645SOL    HW162281   6.453   8.149   9.047  0.7565  0.8221 -1.9041
18645SOL    HW262282   6.549   8.053   9.114  1.6038  2.6912 -0.3242
18646SOL     OW62283   1.589   7.532   7.319  0.2052 -0.1382 -0.6161
18646SOL    HW162284   1.512   7.525   7.263  0.4097  3.5263 -1.6062
18646SOL    HW262285   1.659   7.558   7.260  1.0923  1.0707  0.8819
18647SOL     OW62286   6.489   3.851   4.680 -0.3374  0.0447 -0.7010
18647SOL    HW162287   6.414   3.811   4.724 -0.1759  0.9905  0.4898
18647SOL    HW262288   6.553   3.781   4.673 -0.6684 -0.3263 -0.1122
18648SOL     OW62289   2.091   4.970   5.240  0.2674  0.0611 -0.0424
18648SOL    HW162290   2.063   4.892   5.192 -0.6500 -0.1472  0.7850
18648SOL    HW262291   2.020   5.033   5.226  0.6641  0.4908 -0.1179
18649SOL     OW62292   0.579   4.140   3.709 -0.3834 -0.2891  0.0427
18649SOL    HW162293   0.485   4.146   3.691 -0.5091 -1.6043  0.2072
18649SOL    HW262294   0.588   4.061   3.763  0.8779 -0.4675 -0.4148
18650SOL     OW62295   4.867   5.399   2.735  0.1354  0.0561  0.0783
18650SOL    HW162296   4.783   5.354   2.746  0.1125 -0.7171 -2.6232
18650SOL    HW262297   4.848   5.491   2.755 -0.8718 -0.3944  1.3317
18651SOL     OW62298   7.037   3.235   9.072 -0.3558  0.4522  0.1467
18651SOL    HW162299   7.107   3.178   9.105 -1.9521 -0.7290  1.6665
18651SOL    HW262300   7.039   3.223   8.977  1.1762  0.0727  0.2017
18652SOL     OW62301   2.482   6.900   2.741 -0.3809 -0.1687 -0.6150
18652SOL    HW162302   2.506   6.840   2.812 -0.3895  0.1317 -0.3548
18652SOL    HW262303   2.390   6.921   2.756 -0.0387  0.9258  0.0601
18653SOL     OW62304   4.115   1.537   2.875  0.0178  0.7634 -0.5327
18653SOL    HW162305   4.177   1.572   2.939  0.9362 -0.3620 -0.7660
18653SOL    HW262306   4.086   1.454   2.914 -0.6578  0.8464 -0.8478
18654SOL     OW62307   7.988   6.754   8.134  0.2976 -0.0702 -0.8695
18654SOL    HW162308   7.985   6.757   8.229 -0.8852 -0.3261 -0.8798
18654SOL    HW262309   7.977   6.845   8.107 -3.1962 -0.3380 -0.7696
18655SOL     OW62310   7.810   0.923   8.657 -0.1462 -0.1015  0.0717
18655SOL    HW162311   7.783   0.917   8.565 -0.1241  2.7534 -0.2373
18655SOL    HW262312   7.892   0.972   8.655 -1.2108  1.9055  1.6637
18656SOL     OW62313   4.488   9.073   0.080 -0.0329 -0.0328  0.6416
18656SOL    HW162314   4.415   9.082   0.019 -1.4132 -0.1886  2.1721
18656SOL    HW262315   4.501   8.978   0.087 -0.7272 -0.0835  1.4840
18657SOL     OW62316   7.969   2.874   9.021  0.1740  0.6724 -0.3035
18657SOL    HW162317   7.904   2.813   8.986 -0.3082  1.3760 -0.6645
18657SOL    HW262318   7.918   2.932   9.079  0.2197  2.0184 -1.5516
18658SOL     OW62319   7.700   8.873   6.951  0.2631  0.4394 -0.3904
18658SOL    HW162320   7.765   8.943   6.959  0.2444  0.4206 -0.0457
18658SOL    HW262321   7.675   8.854   7.042  0.4876 -0.2145 -0.4621
18659SOL     OW62322   4.228   2.844   9.085 -1.1369  0.4111  0.0355
18659SOL    HW162323   4.262   2.785   9.153 -1.6884  0.9616  0.7974
18659SOL    HW262324   4.307   2.882   9.045 -0.8151  0.7599  0.9773
18660SOL     OW62325   1.206   3.579   0.738 -0.7620 -0.3493 -0.5689
18660SOL    HW162326   1.246   3.615   0.817 -2.9542  1.7960 -0.3121
18660SOL    HW262327   1.267   3.511   0.709  0.4116 -0.8133  2.6082
18661SOL     OW62328   2.907   8.817   4.465 -0.1314  0.5648 -0.2852
18661SOL    HW162329   2.831   8.797   4.411 -0.3802  2.0591 -0.5361
18661SOL    HW262330   2.974   8.846   4.403  0.5054 -0.2835 -0.0209
18662SOL     OW62331   4.645   2.315   1.572 -0.0657 -0.0897  0.4479
18662SOL    HW162332   4.593   2.395   1.578  0.1978  0.0473  0.9363
18662SOL    HW262333   4.580   2.246   1.555 -0.2076  0.3393 -0.8713
18663SOL     OW62334   0.312   4.536   1.620  0.0602 -0.0598  0.0366
18663SOL    HW162335   0.389   4.592   1.612 -1.4821  2.3056  0.7339
18663SOL    HW262336   0.346   4.452   1.651  2.5876  0.0596 -2.0803
18664SOL     OW62337   4.461   0.529   7.637  0.3032  0.0540  0.1823
18664SOL    HW162338   4.525   0.527   7.708 -0.1034  0.0864  0.5516
18664SOL    HW262339   4.438   0.621   7.627  1.4875  0.2576 -1.0254
18665SOL     OW62340   5.608   7.453   5.079  0.0114 -0.1676  0.0490
18665SOL    HW162341   5.600   7.547   5.067 -1.1037 -0.1570  0.6951
18665SOL    HW262342   5.566   7.415   5.002  1.3487 -0.1624 -0.7120
18666SOL     OW62343   6.915   7.961   7.327 -0.1231  0.1885 -0.1534
18666SOL    HW162344   6.827   7.971   7.289  1.4869 -1.1981 -5.0048
18666SOL    HW262345   6.955   8.048   7.318  0.0872 -0.0154 -1.4355
18667SOL     OW62346   0.906   2.750   1.025  0.0427 -0.4993  1.0232
18667SOL    HW162347   0.872   2.712   0.944 -2.3011 -0.0979  1.7350
18667SOL    HW262348   0.920   2.843   1.005 -0.8373 -0.3334  1.1259
18668SOL     OW62349   0.943   3.750   4.055  0.1486 -0.5854 -0.4941
18668SOL    HW162350   1.006   3.720   3.990  1.7871 -0.3032  0.8990
18668SOL    HW262351   0.903   3.670   4.089  1.8971 -1.0384  0.6481
18669SOL     OW62352   3.854   4.304   5.773  0.3559  0.2456  0.2798
18669SOL    HW162353   3.830   4.392   5.744 -0.3986 -0.9871 -3.4487
18669SOL    HW262354   3.943   4.290   5.738 -0.2852 -1.0779 -0.9376
18670SOL     OW62355   8.679   1.839   7.523  0.2843 -0.2285  0.2495
18670SOL    HW162356   8.636   1.923   7.541  0.3281  0.2425 -1.6838
18670SOL    HW262357   8.771   1.863   7.511  0.2904 -0.5456 -0.3380
18671SOL     OW62358   7.147   5.371   6.979 -0.2427  0.2931  0.2387
18671SOL    HW162359   7.071   5.411   7.021 -0.4156  1.1613 -0.8468
18671SOL    HW262360   7.166   5.429   6.905  0.1331 -1.0981 -0.7887
18672SOL     OW62361   1.425   4.643   7.034 -0.4330  0.3975 -0.1799
18672SOL    HW162362   1.509   4.602   7.054 -0.3448  0.9583  0.6194
18672SOL    HW262363   1.428   4.659   6.940  1.2989  2.4614  0.1551
18673SOL     OW62364   7.541   4.952   6.878 -0.4183  0.0845 -0.2097
18673SOL    HW162365   7.482   5.012   6.832 -0.8849 -0.9260 -0.9999
18673SOL    HW262366   7.493   4.869   6.880  0.0756 -0.1953  1.1250
18674SOL     OW62367   3.184   2.843   5.331 -0.3737  0.3966 -0.6046
18674SOL    HW162368   3.128   2.864   5.257 -0.8630 -0.7875 -0.6051
18674SOL    HW262369   3.124   2.806   5.396  0.2117  0.3901 -0.0582
18675SOL     OW62370   4.902   4.761   8.841  0.5272  0.2754  0.1396
18675SOL    HW162371   4.843   4.747   8.767  0.4882 -1.0274  0.3992
18675SOL    HW262372   4.868   4.841   8.883  0.5717  1.0401 -1.2358
18676SOL     OW62373   3.619   7.225   6.130 -0.2540  0.4440  0.2818
18676SOL    HW162374   3.623   7.260   6.042  1.4786 -0.7660 -0.1645
18676SOL    HW262375   3.578   7.139   6.120  1.6758 -0.5245  0.3267
18677SOL     OW62376   5.546   2.120   1.279 -0.1081 -0.4020 -0.1795
18677SOL    HW162377   5.565   2.027   1.267  0.5119 -0.6476  2.2241
18677SOL    HW262378   5.451   2.126   1.280 -0.1469 -1.0152 -0.1906
18678SOL     OW62379   2.290   6.483   7.893  0.2208 -0.4236 -0.4013
18678SOL    HW162380   2.379   6.457   7.866  0.5428  1.4402 -1.3027
18678SOL    HW262381   2.290   6.473   7.988  0.5349 -2.8698 -0.5934
18679SOL     OW62382   1.543   5.225   6.296  0.0052 -0.4215 -0.2991
18679SOL    HW162383   1.625   5.194   6.256  0.1465 -0.2651 -0.1353
18679SOL    HW262384   1.529   5.167   6.371  1.5480  1.3174  1.4748
18680SOL     OW62385   6.190   6.928   1.002 -0.3182  0.0558 -0.6088
18680SOL    HW162386   6.178   6.974   1.085 -0.9661  0.4861 -0.9206
18680SOL    HW262387   6.101   6.909   0.973 -0.1102  0.0933 -1.2943
18681SOL     OW62388   0.139   3.706   1.825  0.2051 -0.5703  0.1110
18681SOL    HW162389   0.168   3.665   1.744 -1.2253 -0.2644 -0.5835
18681SOL    HW262390   0.136   3.634   1.889 -1.9506 -1.5698 -1.0011
18682SOL     OW62391   8.343   0.668   2.205 -0.3755  0.3861  0.3640
18682SOL    HW162392   8.270   0.608   2.189  2.0489 -2.6410 -0.2059
18682SOL    HW262393   8.397   0.625   2.271  2.0908  1.3430 -0.8861
18683SOL     OW62394   6.756   7.299   4.799 -0.5454 -0.4052  0.4111
18683SOL    HW162395   6.750   7.224   4.858  0.3202 -0.9900 -0.2207
18683SOL    HW262396   6.762   7.261   4.712 -2.5982  0.4677 -0.1591
18684SOL     OW62397   5.381   0.484   8.902 -0.0300 -0.1132  0.3885
18684SOL    HW162398   5.332   0.401   8.900  1.1426 -0.8354 -1.8935
18684SOL    HW262399   5.435   0.482   8.824  0.6075  2.5221  0.6591
18685SOL     OW62400   0.457   7.143   7.035 -0.3381  0.1027 -0.0047
18685SOL    HW162401   0.545   7.161   7.001 -0.4058  0.3336 -0.0588
18685SOL    HW262402   0.414   7.093   6.966 -0.3663  0.2900 -0.1225
18686SOL     OW62403   9.053   1.210   3.329 -0.3086 -0.2950 -0.0497
18686SOL    HW162404   9.058   1.241   3.239  2.6393 -0.3745  0.0049
18686SOL    HW262405   9.140   1.175   3.347 -1.3577 -1.9524  2.2587
18687SOL     OW62406   8.669   0.235   2.750  0.0122 -0.1065 -0.4686
18687SOL    HW162407   8.741   0.293   2.724  1.7974 -0.2002  3.5539
18687SOL    HW262408   8.699   0.147   2.728 -0.2866  0.0723 -1.6251
18688SOL     OW62409   5.123   1.534   3.251 -0.1925  0.7011  0.1675
18688SOL    HW162410   5.157   1.589   3.321  2.2648 -0.9147  0.3450
18688SOL    HW262411   5.181   1.551   3.177 -1.1396  0.4292 -0.6545
18689SOL     OW62412   3.725   0.682   6.285 -0.3400  0.4281  0.0078
18689SOL    HW162413   3.774   0.741   6.342 -0.9204  0.7948  0.1350
18689SOL    HW262414   3.754   0.594   6.310  1.5856  0.6737 -1.1252
18690SOL     OW62415   5.235   3.900   8.831  0.3201 -0.2001  0.1560
18690SOL    HW162416   5.212   3.809   8.811  0.2153 -0.1301 -0.0469
18690SOL    HW262417   5.330   3.897   8.848  0.4832 -0.2122 -0.7032
18691SOL     OW62418   8.522   5.367   5.095  0.2084  0.2949 -0.1175
18691SOL    HW162419   8.570   5.324   5.024  0.2097  0.1452 -0.0255
18691SOL    HW262420   8.550   5.321   5.174  0.5187  0.7306  0.0300
18692SOL     OW62421   1.938   6.433   0.514  0.6055 -0.0018  0.3287
18692SOL    HW162422   2.021   6.433   0.562  1.0949 -0.4432 -0.4938
18692SOL    HW262423   1.926   6.341   0.488  0.3618  0.2310 -0.4044
18693SOL     OW62424   5.602   2.589   0.987  0.1947 -0.0689  0.6192
18693SOL    HW162425   5.588   2.534   1.064 -0.6338  0.7290  1.0630
18693SOL    HW262426   5.647   2.666   1.022 -0.7919  0.6037  0.4321
18694SOL     OW62427   7.298   5.774   4.587  0.6882  0.3681 -0.3095
18694SOL    HW162428   7.322   5.694   4.633  1.6315  0.9886  0.3102
18694SOL    HW262429   7.372   5.790   4.528 -0.3650 -0.2538 -1.8776
18695SOL     OW62430   6.720   2.458   1.833  0.2146 -0.3349 -0.2109
18695SOL    HW162431   6.704   2.470   1.926  0.5350  0.5672 -0.2563
18695SOL    HW262432   6.708   2.364   1.818 -1.0691 -0.3059  0.4924
18696SOL     OW62433   4.176   1.590   3.304 -0.1974  0.3348  0.0735
18696SOL    HW162434   4.250   1.634   3.346 -0.1296  0.5455 -0.2651
18696SOL    HW262435   4.203   1.580   3.213 -0.8088  0.9026 -0.1758
18697SOL     OW62436   3.330   5.890   4.349 -0.0442 -0.0396  0.2787
18697SOL    HW162437   3.262   5.931   4.295  0.3603 -0.7694 -0.8316
18697SOL    HW262438   3.283   5.836   4.411 -0.5386  1.1038  0.9228
18698SOL     OW62439   1.247   2.091   5.301  0.3787 -0.2155 -0.2063
18698SOL    HW162440   1.205   2.010   5.330 -0.1974 -0.2093 -1.0115
18698SOL    HW262441   1.252   2.144   5.381  1.0272 -1.1400  0.3945
18699SOL     OW62442   0.112   4.244   3.892  0.3176  0.5474 -0.2078
18699SOL    HW162443   0.159   4.324   3.917  0.9002 -0.3048  1.6379
18699SOL    HW262444   0.021   4.261   3.917 -0.0238  1.4602 -1.9523
18700SOL     OW62445   7.488   6.059   0.601  0.0045  0.1228  0.3769
18700SOL    HW162446   7.445   5.987   0.647  1.6495 -1.5525 -0.5482
18700SOL    HW262447   7.566   6.079   0.653  1.3019 -1.0572 -1.0013
18701SOL     OW62448   1.446   2.435   5.559  0.1970 -0.3427  0.3408
18701SOL    HW162449   1.447   2.530   5.547  2.8059 -0.4882 -1.3930
18701SOL    HW262450   1.502   2.420   5.635 -0.6984 -0.5165  0.9919
18702SOL     OW62451   5.158   3.617   3.622 -0.1036  0.0026  0.2339
18702SOL    HW162452   5.223   3.687   3.632  1.7554 -1.4378 -0.9534
18702SOL    HW262453   5.193   3.562   3.552 -0.7777 -2.8080  1.9393
18703SOL     OW62454   9.136   6.936   8.643 -0.0669 -0.2795 -0.0165
18703SOL    HW162455   9.054   6.887   8.642 -1.6326  2.1801 -0.2360
18703SOL    HW262456   9.147   6.964   8.734 -1.2290  2.0072 -0.4954
18704SOL     OW62457   9.190   2.570   5.856  0.0203  0.4861  0.7801
18704SOL    HW162458   9.226   2.494   5.811 -1.0982  0.2048  0.3230
18704SOL    HW262459   9.266   2.624   5.877  0.7253 -0.2384  0.1471
18705SOL     OW62460   5.113   1.230   2.380 -0.4214  0.2621  0.4067
18705SOL    HW162461   5.023   1.239   2.411 -1.0146 -2.9208 -0.0389
18705SOL    HW262462   5.145   1.151   2.424  1.7227  0.5797 -0.4599
18706SOL     OW62463   1.714   8.327   3.178  0.0634  0.3602  0.0279
18706SOL    HW162464   1.622   8.313   3.204 -0.0509  0.3469 -0.3790
18706SOL    HW262465   1.720   8.288   3.091  0.2764  0.9803 -0.2391
18707SOL     OW62466   1.243   5.015   8.976 -0.9608 -0.1970 -0.2185
18707SOL    HW162467   1.241   4.943   9.040 -1.7468 -0.9416 -1.0562
18707SOL    HW262468   1.180   4.989   8.909 -0.5654  0.8426 -1.0139
18708SOL     OW62469   0.421   7.190   8.425  0.6714  0.0214 -0.0071
18708SOL    HW162470   0.400   7.147   8.342 -2.4906 -0.8225  1.0890
18708SOL    HW262471   0.405   7.283   8.409 -0.5145 -0.2060 -0.2176
18709SOL     OW62472   4.395   8.256   2.496  0.4484  0.0373  0.6078
18709SOL    HW162473   4.412   8.322   2.428 -1.6335 -0.4481 -0.4708
18709SOL    HW262474   4.454   8.280   2.568  2.0293  1.1618 -0.9680
18710SOL     OW62475   1.734   4.634   7.610  0.5815 -0.1593 -0.2088
18710SOL    HW162476   1.798   4.681   7.557  0.5194  1.2870  0.9370
18710SOL    HW262477   1.786   4.591   7.678  0.6583 -1.9835 -1.3466
18711SOL     OW62478   4.821   0.351   2.038 -0.5716  0.4150  0.6851
18711SOL    HW162479   4.792   0.415   1.973  0.7582  1.7032  1.3125
18711SOL    HW262480   4.849   0.275   1.986 -0.0349  1.2154 -0.2209
18712SOL     OW62481   1.215   7.052   2.443  0.6808  0.3800 -0.2557
18712SOL    HW162482   1.174   7.136   2.426 -1.0242 -0.3942 -0.1897
18712SOL    HW262483   1.243   7.021   2.357 -1.0389 -0.1113 -0.6783
18713SOL     OW62484   5.208   5.622   0.454 -0.9014  0.1236 -0.4699
18713SOL    HW162485   5.137   5.603   0.393 -1.4744 -1.4313  0.6199
18713SOL    HW262486   5.266   5.547   0.447 -1.5931 -0.6974  1.7039
18714SOL     OW62487   2.335   6.211   5.284 -0.1610 -0.0182 -0.2406
18714SOL    HW162488   2.246   6.179   5.297 -0.3157  0.4616 -0.0925
18714SOL    HW262489   2.330   6.263   5.204 -0.4925  1.7170  0.8536
18715SOL     OW62490   4.650   6.645   3.711  0.2742 -0.2315 -0.4531
18715SOL    HW162491   4.657   6.556   3.676  2.5042 -0.1213 -0.4321
18715SOL    HW262492   4.668   6.701   3.636 -1.7729  0.2855 -0.6197
18716SOL     OW62493   6.800   0.183   7.662  0.1940  0.1109  0.2269
18716SOL    HW162494   6.822   0.245   7.593 -1.7668  0.5122 -0.0926
18716SOL    HW262495   6.716   0.212   7.695 -1.6948 -3.3006 -1.0715
18717SOL     OW62496   6.047   0.889   2.529  0.0292  0.2657 -0.0871
18717SOL    HW162497   6.054   0.976   2.490 -0.9164  0.9301  1.1605
18717SOL    HW262498   6.056   0.904   2.623  0.8401 -1.1218  0.0855
18718SOL     OW62499   2.426   4.135   9.215 -0.5900  0.0865  0.2710
18718SOL    HW162500   2.345   4.183   9.230 -1.2765 -0.6300 -0.9622
18718SOL    HW262501   2.435   4.132   9.120  1.0625  0.4261  0.3773
18719SOL     OW62502   8.171   6.220   2.334 -0.5654 -0.2681 -0.4420
18719SOL    HW162503   8.173   6.289   2.400  0.6295  0.2049 -0.9531
18719SOL    HW262504   8.080   6.190   2.334 -0.3991 -1.0126  2.1363
18720SOL     OW62505   8.353   1.981   5.972 -0.2360 -0.8504  0.1421
18720SOL    HW162506   8.425   2.041   5.992 -0.5634 -0.6517  0.7628
18720SOL    HW262507   8.320   1.955   6.058 -1.3416 -0.4112 -0.1369
18721SOL     OW62508   2.386   5.411   4.662  0.1416  0.2609  0.3163
18721SOL    HW162509   2.407   5.369   4.746  0.3801 -3.8233 -1.5289
18721SOL    HW262510   2.290   5.409   4.657  0.1696 -1.0940 -0.1354
18722SOL     OW62511   4.096   9.210   6.253 -0.3664  0.5073  0.5213
18722SOL    HW162512   4.068   9.156   6.326 -0.0718 -1.2630 -0.6145
18722SOL    HW262513   4.015   9.235   6.208 -0.4782  0.7068  0.8304
18723SOL     OW62514   1.039   8.027   6.843 -0.3674 -0.5528 -0.3891
18723SOL    HW162515   0.999   8.023   6.930  1.4047 -0.4676  0.4777
18723SOL    HW262516   0.992   7.962   6.791 -1.5124 -0.5440  0.5965
18724SOL     OW62517   4.746   0.222   7.879 -0.4431 -0.0738 -0.4414
18724SOL    HW162518   4.782   0.133   7.879 -0.2392  0.0069 -0.4760
18724SOL    HW262519   4.818   0.276   7.913 -0.3782  0.1523 -0.9230
18725SOL     OW62520   2.477   9.063   2.660 -0.2377 -0.1240  0.2252
18725SOL    HW162521   2.492   8.995   2.595 -1.4665 -1.3073  1.1247
18725SOL    HW262522   2.392   9.100   2.637  0.2417  0.8600 -0.0223
18726SOL     OW62523   3.946   2.596   7.433 -0.3962 -0.2202 -0.3228
18726SOL    HW162524   4.033   2.582   7.395 -0.2770 -0.3754 -0.0006
18726SOL    HW262525   3.897   2.643   7.365 -0.0909 -0.2174 -0.5430
18727SOL     OW62526   3.237   6.291   4.951  0.1214 -0.6456  0.2304
18727SOL    HW162527   3.157   6.267   4.905  0.4007  0.0317 -0.6391
18727SOL    HW262528   3.227   6.384   4.971 -0.1601 -1.0087  1.9159
18728SOL     OW62529   8.973   0.662   7.939  0.0664 -0.6608 -0.4539
18728SOL    HW162530   9.001   0.724   8.007 -1.9895 -0.0377 -0.1188
18728SOL    HW262531   9.007   0.577   7.969  0.3728 -0.1739  0.6199
18729SOL     OW62532   2.228   5.171   3.543 -0.0085 -0.1645  1.1767
18729SOL    HW162533   2.319   5.201   3.541 -0.3422  0.9013 -0.2596
18729SOL    HW262534   2.235   5.076   3.548  1.2495 -0.2036 -0.2243
18730SOL     OW62535   3.478   4.207   0.176  0.0352  0.8886  0.6325
18730SOL    HW162536   3.453   4.131   0.228  0.7410  0.7443  0.7752
18730SOL    HW262537   3.396   4.252   0.157 -0.3173  0.4487  1.1051
18731SOL     OW62538   9.160   7.626   9.014  0.0709  0.4204 -0.4576
18731SOL    HW162539   9.214   7.610   9.090  0.9171  2.2129 -0.6443
18731SOL    HW262540   9.219   7.617   8.939 -0.4828 -0.1386 -0.8448
18732SOL     OW62541   7.223   2.221   3.819 -0.7434  0.2736  0.3329
18732SOL    HW162542   7.227   2.280   3.893  1.1199 -1.4773  1.7435
18732SOL    HW262543   7.178   2.143   3.852  0.5960 -0.7532 -0.1372
18733SOL     OW62544   8.115   0.176   5.538  0.0043 -0.3518  0.1823
18733SOL    HW162545   8.193   0.171   5.483 -0.5458 -0.4856 -0.6075
18733SOL    HW262546   8.042   0.175   5.476 -0.6200  0.0825  0.8890
18734SOL     OW62547   0.689   2.795   7.227 -0.0834 -0.2756 -0.3005
18734SOL    HW162548   0.781   2.809   7.207  0.1300 -0.4070  0.5360
18734SOL    HW262549   0.672   2.705   7.200  0.3292 -0.6160  0.5029
18735SOL     OW62550   6.593   0.610   3.651  0.1736 -0.0069  0.1994
18735SOL    HW162551   6.634   0.649   3.573 -0.6774  1.0940  0.2759
18735SOL    HW262552   6.590   0.682   3.714  0.9067 -0.9112  1.2869
18736SOL     OW62553   8.159   6.414   8.405  0.0313  0.0733 -0.7356
18736SOL    HW162554   8.206   6.334   8.383 -1.5681 -0.7706 -1.1968
18736SOL    HW262555   8.153   6.462   8.322  0.1459  0.2310 -0.6545
18737SOL     OW62556   6.892   3.700   8.175  0.0931  0.0125 -0.0208
18737SOL    HW162557   6.864   3.677   8.086  0.2124 -0.1015 -0.0299
18737SOL    HW262558   6.935   3.785   8.165  0.8391 -0.3764 -0.2137
18738SOL     OW62559   2.180   1.310   8.195  0.3950  0.4473 -0.0303
18738SOL    HW162560   2.153   1.220   8.214 -1.0071  0.2557 -2.5122
18738SOL    HW262561   2.263   1.320   8.242 -0.6608 -1.2159  2.4672
18739SOL     OW62562   1.728   2.083   1.531  0.2759  0.2268  0.0752
18739SOL    HW162563   1.800   2.145   1.515  0.4201 -0.2174 -1.0526
18739SOL    HW262564   1.715   2.086   1.626  0.2994  1.9563  0.0527
18740SOL     OW62565   0.356   5.510   7.776 -0.3694 -0.2545 -0.6060
18740SOL    HW162566   0.437   5.465   7.798 -0.5058  0.3587  1.3863
18740SOL    HW262567   0.305   5.509   7.857 -2.8273 -1.5120 -2.0549
18741SOL     OW62568   0.038   7.464   2.295 -0.7628  0.3044  0.5711
18741SOL    HW162569   0.110   7.466   2.232 -1.8836 -0.6289 -0.7921
18741SOL    HW262570   0.081   7.448   2.380  0.6422 -0.0484 -0.1740
18742SOL     OW62571   6.294   3.093   9.181  0.1457 -0.0437  0.1565
18742SOL    HW162572   6.248   3.009   9.188  1.2740 -0.6619  0.3114
18742SOL    HW262573   6.224   3.159   9.183 -0.7143 -0.9506  0.5914
18743SOL     OW62574   5.176   0.681   3.415  0.4244 -0.5661 -0.1094
18743SOL    HW162575   5.267   0.661   3.435  0.9239  1.7413  0.0866
18743SOL    HW262576   5.178   0.762   3.365 -1.6037  0.4658  1.3252
18744SOL     OW62577   6.016   8.586   6.170  0.5197 -0.0105  0.5679
18744SOL    HW162578   6.070   8.548   6.100 -0.5195  0.7577 -0.6930
18744SOL    HW262579   5.929   8.593   6.132  0.1785  1.5296  1.5336
18745SOL     OW62580   8.323   6.153   8.299 -0.4216  0.7307  0.0526
18745SOL    HW162581   8.275   6.071   8.313  2.6964 -1.1603  0.4894
18745SOL    HW262582   8.360   6.174   8.385  2.4304  0.0859 -0.9357
18746SOL     OW62583   0.859   7.366   5.085  0.6932  0.0010  0.4577
18746SOL    HW162584   0.831   7.428   5.152 -0.4474 -0.1321  0.1253
18746SOL    HW262585   0.860   7.282   5.130 -1.9517 -0.4163 -0.0878
18747SOL     OW62586   6.898   5.377   2.098  0.5056  0.2460 -0.2452
18747SOL    HW162587   6.990   5.355   2.081  0.2036 -2.1500  0.7799
18747SOL    HW262588   6.849   5.335   2.027  0.0385 -0.8782  0.7029
18748SOL     OW62589   9.161   1.160   0.676 -0.7778  0.1131 -0.3176
18748SOL    HW162590   9.172   1.211   0.596 -0.4582 -1.5016 -1.3464
18748SOL    HW262591   9.235   1.099   0.676 -2.6041 -2.2878 -0.6742
18749SOL     OW62592   8.256   0.101   3.939 -0.1212 -0.5479  0.6227
18749SOL    HW162593   8.321   0.125   3.873  0.6109 -3.2476  0.2176
18749SOL    HW262594   8.216   0.184   3.966  2.0452  0.9853 -0.6099
18750SOL     OW62595   5.824   5.648   2.977 -0.2411  0.2327  0.3810
18750SOL    HW162596   5.896   5.585   2.983 -0.2454  0.3214  1.4521
18750SOL    HW262597   5.762   5.621   3.045 -2.1509 -0.9858 -1.6886
18751SOL     OW62598   7.443   1.005   8.928 -0.2494  0.2431  0.5571
18751SOL    HW162599   7.473   0.915   8.942  1.0711  0.8592  2.1187
18751SOL    HW262600   7.371   1.016   8.991  0.5985  0.6984  1.4843
18752SOL     OW62601   1.537   9.076   7.905  0.0396  0.4194 -0.3426
18752SOL    HW162602   1.620   9.102   7.865 -1.4419  3.9475 -1.5316
18752SOL    HW262603   1.537   9.119   7.991 -0.0898 -0.6030  0.1876
18753SOL     OW62604   2.987   4.279   6.472 -0.5189 -0.3749 -0.2221
18753SOL    HW162605   2.941   4.295   6.390  0.1531 -1.1708 -0.7823
18753SOL    HW262606   2.927   4.224   6.523 -1.0247  0.2976 -0.0842
18754SOL     OW62607   7.931   8.255   8.157 -0.1736  0.2241  0.5234
18754SOL    HW162608   7.995   8.298   8.213  1.0586 -2.2861  1.2222
18754SOL    HW262609   7.858   8.235   8.215  0.5209 -1.1564  0.9747
18755SOL     OW62610   8.175   8.098   4.891  0.3267 -0.2991  0.5819
18755SOL    HW162611   8.111   8.166   4.873  1.7636  0.8616 -0.4565
18755SOL    HW262612   8.252   8.146   4.922  2.2074 -1.1245 -2.4233
18756SOL     OW62613   1.648   2.273   3.456 -0.6801  0.6538 -0.4253
18756SOL    HW162614   1.569   2.284   3.404 -0.8287  0.0424 -0.3332
18756SOL    HW262615   1.716   2.248   3.393 -0.8723 -0.1390 -0.3213
18757SOL     OW62616   1.891   5.643   2.818 -0.1087  0.6813  0.2145
18757SOL    HW162617   1.906   5.637   2.912  0.0548 -0.6975  0.1305
18757SOL    HW262618   1.858   5.556   2.794  2.1955  0.1641 -1.3765
18758SOL     OW62619   4.944   2.606   4.038 -0.5111 -0.1589 -0.1224
18758SOL    HW162620   5.018   2.597   4.098 -1.4369  0.4734  1.1840
18758SOL    HW262621   4.964   2.683   3.986 -0.6093  0.5183  0.8089
18759SOL     OW62622   8.892   1.926   3.378  0.3875 -0.0923  0.0422
18759SOL    HW162623   8.834   1.936   3.302 -1.4139  0.8269  1.4603
18759SOL    HW262624   8.934   2.012   3.387  1.2412 -0.4521 -0.3768
18760SOL     OW62625   1.137   8.829   4.387  0.5467 -0.2671  0.1534
18760SOL    HW162626   1.092   8.876   4.317 -1.6083  2.1124  2.9343
18760SOL    HW262627   1.175   8.897   4.442  1.8331 -2.0303  1.5950
18761SOL     OW62628   8.569   8.516   6.532 -0.1386  0.2685  0.3219
18761SOL    HW162629   8.570   8.443   6.594  0.4355  1.5560  1.8984
18761SOL    HW262630   8.500   8.574   6.564 -1.2554 -0.0123 -1.4799
18762SOL     OW62631   7.626   0.635   4.339 -0.7100  0.1590 -0.6467
18762SOL    HW162632   7.701   0.681   4.302 -0.2657  0.1450  0.2228
18762SOL    HW262633   7.644   0.630   4.433 -0.6069 -2.0190 -0.7235
18763SOL     OW62634   9.012   3.232   0.503 -0.2343 -0.1688  0.2870
18763SOL    HW162635   8.959   3.206   0.428 -0.1856 -1.7467  0.7588
18763SOL    HW262636   9.056   3.312   0.475 -0.7837 -0.3298 -1.0937
18764SOL     OW62637   4.390   1.710   8.133 -0.0396 -0.1494  0.0811
18764SOL    HW162638   4.397   1.688   8.040  0.0565  0.9606 -0.1881
18764SOL    HW262639   4.430   1.796   8.140 -1.9979  0.7545  0.7638
18765SOL     OW62640   8.319   1.401   7.120 -0.9291  0.0988  0.6613
18765SOL    HW162641   8.386   1.400   7.051 -0.5801 -1.0258  1.0075
18765SOL    HW262642   8.368   1.393   7.202 -1.3501  1.3500  1.0603
18766SOL     OW62643   0.945   5.749   2.037  0.0368  0.1224  1.0630
18766SOL    HW162644   0.951   5.681   1.969 -2.0371  1.3516 -0.4580
18766SOL    HW262645   1.022   5.804   2.022 -0.5926  0.6211 -0.6466
18767SOL     OW62646   8.626   8.527   5.675 -0.0497  0.1477  0.3722
18767SOL    HW162647   8.718   8.506   5.689  0.0118  0.5071  0.5047
18767SOL    HW262648   8.626   8.619   5.649 -0.4452  0.3962  1.2287
18768SOL     OW62649   4.433   2.885   7.341  0.1151  0.3433  0.0829
18768SOL    HW162650   4.390   2.945   7.280 -0.6317 -0.7160 -0.4773
18768SOL    HW262651   4.474   2.819   7.285 -0.4805 -0.5804  0.6869
18769SOL     OW62652   7.734   7.527   1.595  0.2821  0.2419 -0.5779
18769SOL    HW162653   7.808   7.586   1.579 -0.3524  1.6273  1.1902
18769SOL    HW262654   7.774   7.440   1.600  1.5669  0.7712 -1.1077
18770SOL     OW62655   5.500   2.136   8.505  0.5427  0.1832 -0.1731
18770SOL    HW162656   5.457   2.052   8.522  0.2243  0.2471 -0.6314
18770SOL    HW262657   5.449   2.175   8.434  0.7052  0.7547  0.0217
18771SOL     OW62658   6.542   6.667   8.665  0.7398 -0.3790  0.4113
18771SOL    HW162659   6.547   6.696   8.755 -0.3727 -0.0513  0.3855
18771SOL    HW262660   6.523   6.573   8.671 -0.1294 -0.2105  0.5484
18772SOL     OW62661   3.051   7.069   4.198 -0.0952 -0.5840 -0.4327
18772SOL    HW162662   3.071   7.157   4.166  0.1124 -0.7562 -0.7831
18772SOL    HW262663   3.113   7.055   4.270  0.6400 -0.8727 -1.1076
18773SOL     OW62664   3.235   8.788   3.277 -0.3509 -0.4568 -0.1239
18773SOL    HW162665   3.302   8.720   3.280  0.8677  0.7255  0.4900
18773SOL    HW262666   3.223   8.814   3.369 -1.5263 -0.5125 -0.2440
18774SOL     OW62667   5.780   3.089   3.238 -0.1272  0.1377  0.0866
18774SOL    HW162668   5.804   3.057   3.151  0.8213  0.2698  0.2840
18774SOL    HW262669   5.829   3.033   3.298  0.0220  0.6910  0.4947
18775SOL     OW62670   8.958   7.546   8.812  0.2814 -0.4014 -0.1068
18775SOL    HW162671   9.000   7.461   8.798 -1.2234 -1.3282  0.7191
18775SOL    HW262672   8.992   7.576   8.896 -1.3070 -1.6071  1.0413
18776SOL     OW62673   5.865   6.078   1.209 -0.2522 -0.0135  0.0916
18776SOL    HW162674   5.902   6.065   1.121 -1.8697  3.1112 -1.2001
18776SOL    HW262675   5.800   6.009   1.218 -0.5329  0.0025 -1.4854
18777SOL     OW62676   7.317   8.202   8.341  0.3911 -0.2546  0.0970
18777SOL    HW162677   7.279   8.194   8.428  0.7061  0.8280  0.3474
18777SOL    HW262678   7.358   8.288   8.340  3.4990 -1.6091  0.0878
18778SOL     OW62679   0.687   3.913   1.208 -0.2579 -0.0690 -0.2308
18778SOL    HW162680   0.751   3.982   1.226 -0.3619  0.0659 -0.3740
18778SOL    HW262681   0.603   3.959   1.202 -0.6239 -0.4394  1.5754
18779SOL     OW62682   5.795   8.633   0.767 -0.4699 -0.1844 -0.1623
18779SOL    HW162683   5.800   8.636   0.862 -1.5775 -2.6256  0.0386
18779SOL    HW262684   5.817   8.543   0.743 -0.1889  0.3663 -2.2341
18780SOL     OW62685   6.947   3.248   6.306  0.2314  0.4506 -0.2392
18780SOL    HW162686   6.957   3.175   6.244 -1.9176 -0.4237  0.3659
18780SOL    HW262687   6.855   3.247   6.330  0.7690  1.4336  2.1833
18781SOL     OW62688   1.564   6.992   1.007  0.2041  0.3155  0.0278
18781SOL    HW162689   1.499   6.984   0.938 -0.3918  0.0181  0.6127
18781SOL    HW262690   1.639   7.034   0.965  0.5062 -1.3564 -1.2373
18782SOL     OW62691   1.729   9.173   1.198  0.3313 -0.2078 -0.4871
18782SOL    HW162692   1.688   9.242   1.146  0.1132  0.4220  0.4995
18782SOL    HW262693   1.660   9.108   1.209  0.3955 -0.3703 -1.0310
18783SOL     OW62694   7.349   6.324   6.153 -0.2432  0.1328 -0.9485
18783SOL    HW162695   7.368   6.307   6.245 -0.3796 -0.4608 -1.0295
18783SOL    HW262696   7.336   6.238   6.115 -1.4896  0.4249 -1.2388
18784SOL     OW62697   1.370   5.923   1.442 -0.2635 -0.1559  0.1188
18784SOL    HW162698   1.427   5.977   1.496  0.0100  1.2836 -1.5143
18784SOL    HW262699   1.400   5.939   1.352 -0.7042 -2.4399 -0.4946
18785SOL     OW62700   4.718   0.578   8.091  0.0197  0.3210  0.2317
18785SOL    HW162701   4.688   0.488   8.102  2.6588 -0.6001  0.7486
18785SOL    HW262702   4.662   0.630   8.149 -0.8274 -1.1600  0.7853
18786SOL     OW62703   5.237   0.316   5.378  0.4841 -0.0658 -0.0887
18786SOL    HW162704   5.304   0.294   5.443  1.0258  1.8425  0.0649
18786SOL    HW262705   5.199   0.397   5.410  0.1525  0.4522 -1.6983
18787SOL     OW62706   8.505   6.076   7.587 -0.4354 -0.0920 -0.3484
18787SOL    HW162707   8.444   6.002   7.587  0.3938 -0.7939  0.4819
18787SOL    HW262708   8.533   6.084   7.496 -0.9795 -0.4300 -0.5503
18788SOL     OW62709   0.154   0.316   9.051  0.3217 -0.1749  0.2532
18788SOL    HW162710   0.192   0.305   8.964  1.8013  0.3373  0.8004
18788SOL    HW262711   0.194   0.396   9.084 -1.9839  0.9263  0.5275
18789SOL     OW62712   4.838   3.294   3.249  0.0871 -0.7128 -0.3864
18789SOL    HW162713   4.874   3.376   3.283 -2.1694  0.5748 -0.9321
18789SOL    HW262714   4.890   3.226   3.292  1.9600  0.9690  0.1573
18790SOL     OW62715   1.303   5.333   1.659 -0.2234 -0.3621 -0.4799
18790SOL    HW162716   1.318   5.259   1.600 -0.2951  0.0010 -0.9618
18790SOL    HW262717   1.218   5.369   1.632 -1.2511 -1.4317  1.1923
18791SOL     OW62718   7.260   4.592   3.478  0.3896  0.1057 -0.2645
18791SOL    HW162719   7.185   4.632   3.433 -0.2600 -0.5331  0.2250
18791SOL    HW262720   7.335   4.612   3.422  0.4215  3.3784  0.6994
18792SOL     OW62721   5.107   8.054   3.653 -0.1740  0.0655  0.2737
18792SOL    HW162722   5.050   8.005   3.594  0.8079  0.2791 -0.8920
18792SOL    HW262723   5.068   8.141   3.660 -0.1000  0.1499 -0.3619
18793SOL     OW62724   0.040   1.228   6.579  0.0680  0.0185  0.2854
18793SOL    HW162725   0.113   1.225   6.517  0.5140 -1.3336  0.8398
18793SOL    HW262726   0.082   1.232   6.665 -0.5022 -0.7781  0.6095
18794SOL     OW62727   1.726   9.043   7.701  0.7349 -0.5995  0.2128
18794SOL    HW162728   1.808   9.076   7.738 -1.0746  1.6375  2.6020
18794SOL    HW262729   1.716   8.956   7.740  0.8443  0.1109  1.9258
18795SOL     OW62730   3.391   5.932   5.024 -0.2443 -0.8823  0.5299
18795SOL    HW162731   3.407   5.942   4.930 -1.3865 -1.6447  0.2384
18795SOL    HW262732   3.477   5.947   5.065  0.1504  0.0096 -0.5824
18796SOL     OW62733   2.452   6.741   3.349 -0.2674  0.1414  0.2471
18796SOL    HW162734   2.360   6.746   3.377 -0.1656 -3.5285  1.7051
18796SOL    HW262735   2.460   6.812   3.285 -4.2881  0.2572 -0.4275
18797SOL     OW62736   6.723   3.185   6.677  0.2688 -0.1187 -0.1170
18797SOL    HW162737   6.819   3.188   6.674  0.3746  0.0888  2.0297
18797SOL    HW262738   6.700   3.233   6.757 -1.6707  0.2608 -0.8466
18798SOL     OW62739   7.803   0.924   1.847  0.2845  0.2426 -0.4012
18798SOL    HW162740   7.881   0.965   1.884  0.7973 -0.1700 -1.0245
18798SOL    HW262741   7.794   0.842   1.896  0.6886 -0.0759 -0.8542
18799SOL     OW62742   4.340   6.255   3.876 -0.2922 -0.4680 -0.2575
18799SOL    HW162743   4.331   6.325   3.942 -0.5746 -1.2182  0.5171
18799SOL    HW262744   4.409   6.287   3.818  0.9532 -0.3849  1.1986
18800SOL     OW62745   4.897   1.337   5.586 -0.1666 -0.4002  0.5078
18800SOL    HW162746   4.863   1.385   5.662 -0.5846 -0.1022  0.1355
18800SOL    HW262747   4.820   1.324   5.530  0.1948 -0.3790  0.0040
18801SOL     OW62748   2.330   2.987   3.496  0.1794 -0.2463  0.0738
18801SOL    HW162749   2.235   2.990   3.495  0.1952  0.3196 -0.6966
18801SOL    HW262750   2.353   2.943   3.414  0.5843 -0.3436  0.2372
18802SOL     OW62751   2.361   0.465   1.667  0.3096 -0.3374 -0.0605
18802SOL    HW162752   2.401   0.378   1.661 -1.2019 -1.0474 -0.2657
18802SOL    HW262753   2.300   0.458   1.740 -0.3337  0.3417 -0.5229
18803SOL     OW62754   5.720   1.494   6.531  0.4912  0.4500  0.0076
18803SOL    HW162755   5.808   1.524   6.553  0.6320  1.2679 -1.4972
18803SOL    HW262756   5.664   1.568   6.556  0.2037 -0.0903  1.0136
18804SOL     OW62757   7.166   4.327   6.860  0.7632  0.4059  0.3228
18804SOL    HW162758   7.113   4.390   6.811  0.9838  1.9747  1.9996
18804SOL    HW262759   7.223   4.381   6.915  1.4467 -1.2618  1.3303
18805SOL     OW62760   5.612   6.266   0.930  0.5469  0.2069  0.2075
18805SOL    HW162761   5.576   6.245   1.017  2.0073 -2.1805  0.3378
18805SOL    HW262762   5.661   6.346   0.944 -0.5531  0.7495  1.1923
18806SOL     OW62763   0.104   6.354   2.752  0.0101  0.4108 -0.1818
18806SOL    HW162764   0.112   6.446   2.726  2.0028 -0.2419 -2.1491
18806SOL    HW262765   0.173   6.309   2.703 -0.0435 -1.9528  1.7442
18807SOL     OW62766   7.084   7.659   5.617 -0.1323  0.4285  0.2761
18807SOL    HW162767   7.128   7.669   5.702 -1.5265  1.8931  0.8624
18807SOL    HW262768   7.108   7.737   5.568 -0.0862  0.0337 -0.3385
18808SOL     OW62769   4.084   2.817   4.270 -0.4448  0.5629 -0.2205
18808SOL    HW162770   4.010   2.755   4.270 -0.0046  0.0057  1.1870
18808SOL    HW262771   4.105   2.829   4.177 -0.6800 -1.2447 -0.5393
18809SOL     OW62772   0.132   3.324   8.341 -0.4135  0.0528  0.2482
18809SOL    HW162773   0.074   3.381   8.392 -0.9092 -0.3530  0.1448
18809SOL    HW262774   0.220   3.347   8.371 -0.4563  2.0136 -0.9357
18810SOL     OW62775   6.774   1.504   8.413  0.0709  0.1270  0.3256
18810SOL    HW162776   6.744   1.417   8.439 -0.8290  0.8618  1.8803
18810SOL    HW262777   6.726   1.523   8.332 -1.6780  0.1851  1.3460
18811SOL     OW62778   3.985   4.728   2.270 -0.1358  0.5949  0.1944
18811SOL    HW162779   3.955   4.736   2.360  0.0911  0.3986  0.2886
18811SOL    HW262780   3.909   4.754   2.217 -0.7943 -0.8610  0.3968
18812SOL     OW62781   6.943   4.238   0.784 -0.0979 -0.8428 -0.1748
18812SOL    HW162782   6.900   4.240   0.698  1.5271 -1.2606 -1.0242
18812SOL    HW262783   6.917   4.154   0.822 -1.6253 -0.2422  0.2212
18813SOL     OW62784   4.415   9.106   1.181 -0.1534  0.4419 -0.2771
18813SOL    HW162785   4.421   9.031   1.240 -2.3890  0.1183 -0.3612
18813SOL    HW262786   4.440   9.072   1.096  1.1292  0.4126  0.0855
18814SOL     OW62787   5.560   1.379   7.478  0.5425  0.9353 -0.0299
18814SOL    HW162788   5.472   1.398   7.443  0.5061 -0.6336 -0.8869
18814SOL    HW262789   5.619   1.412   7.411  0.7309  3.3703  1.2177
18815SOL     OW62790   5.932   5.579   2.458 -0.1871 -0.2008  0.2855
18815SOL    HW162791   5.919   5.489   2.429 -1.5633 -0.2130  0.8498
18815SOL    HW262792   6.026   5.586   2.475  0.1506 -1.1267 -1.0276
18816SOL     OW62793   2.054   3.291   4.579  0.2716 -0.2634  0.0793
18816SOL    HW162794   2.071   3.224   4.645 -0.2658 -0.5522 -0.0642
18816SOL    HW262795   2.111   3.364   4.602  1.7320 -1.2000 -0.4185
18817SOL     OW62796   0.938   6.045   3.682 -0.1403 -0.0402  0.2876
18817SOL    HW162797   0.887   5.973   3.718 -0.4968 -0.5137 -1.1401
18817SOL    HW262798   0.875   6.115   3.669 -0.2411 -0.2807 -0.5336
18818SOL     OW62799   7.142   5.973   6.282  0.1706  0.5334  0.1314
18818SOL    HW162800   7.157   5.923   6.362  1.4573 -1.0265 -1.0336
18818SOL    HW262801   7.215   6.036   6.280  1.0628 -0.4769 -0.5556
18819SOL     OW62802   3.638   3.767   8.429 -0.1123  0.3253  0.0890
18819SOL    HW162803   3.673   3.684   8.460 -1.7011  0.2586  1.9325
18819SOL    HW262804   3.649   3.827   8.502 -0.0171  1.4391 -0.8097
18820SOL     OW62805   7.729   8.423   8.037 -0.1790  0.1638  0.0371
18820SOL    HW162806   7.774   8.507   8.037 -0.9485  0.5834 -0.3633
18820SOL    HW262807   7.792   8.362   8.075  0.7121  0.7380 -0.5033
18821SOL     OW62808   1.030   4.931   0.135  0.2084  0.0760  0.0060
18821SOL    HW162809   0.976   4.983   0.195 -0.1892 -1.3163  0.9174
18821SOL    HW262810   0.980   4.928   0.054 -0.8195 -0.6592  0.6350
18822SOL     OW62811   1.627   5.230   7.392  0.4256 -0.0704  0.2325
18822SOL    HW162812   1.535   5.244   7.375  0.7354  1.9039  0.0425
18822SOL    HW262813   1.628   5.170   7.468 -0.9620 -0.9823 -0.4297
18823SOL     OW62814   8.125   4.988   7.549 -0.2881 -0.0093  0.2310
18823SOL    HW162815   8.177   5.060   7.514  0.7525  0.0390  1.7495
18823SOL    HW262816   8.049   4.982   7.491  1.0332  0.3995 -1.6496
18824SOL     OW62817   8.222   3.728   4.071 -0.1121  0.2830  0.3670
18824SOL    HW162818   8.290   3.695   4.129 -0.1395 -0.6283 -0.0897
18824SOL    HW262819   8.140   3.700   4.111 -0.1394 -0.1283  0.0404
18825SOL     OW62820   9.237   6.827   0.933  0.3243  0.2310  0.6566
18825SOL    HW162821   9.186   6.886   0.988 -0.1175  0.6250 -0.1515
18825SOL    HW262822   9.305   6.882   0.895  1.9102 -0.4627  2.3631
18826SOL     OW62823   0.982   6.893   2.412 -0.1729  0.2548  0.2326
18826SOL    HW162824   1.010   6.817   2.361 -0.3798  0.7399 -0.6398
18826SOL    HW262825   1.063   6.942   2.429 -0.2428  0.7389 -0.7450
18827SOL     OW62826   5.248   2.524   0.843 -0.4684 -0.0909 -0.4762
18827SOL    HW162827   5.297   2.589   0.793 -1.7873  0.1671 -1.4901
18827SOL    HW262828   5.156   2.541   0.822 -1.1543  0.2878  2.3785
18828SOL     OW62829   7.327   8.252   5.511 -0.5294  0.3979 -0.7411
18828SOL    HW162830   7.415   8.231   5.542 -0.4894  1.3623 -0.1709
18828SOL    HW262831   7.268   8.210   5.574 -0.4639  0.6871 -0.4855
18829SOL     OW62832   0.528   2.387   5.794 -0.2273  0.2568  0.2050
18829SOL    HW162833   0.570   2.357   5.874  1.3824  2.7343  0.3828
18829SOL    HW262834   0.512   2.307   5.744  0.6235 -1.1614  2.1008
18830SOL     OW62835   0.624   5.739   7.268  0.4102  0.1596  0.0782
18830SOL    HW162836   0.556   5.672   7.275  0.5078  0.1531  1.1403
18830SOL    HW262837   0.700   5.693   7.232 -0.5635  0.5052 -2.6694
18831SOL     OW62838   6.130   0.720   1.180 -0.8973 -0.1146  0.1008
18831SOL    HW162839   6.211   0.692   1.136 -0.3898 -0.3566  1.1633
18831SOL    HW262840   6.127   0.815   1.164 -0.5977 -0.1611 -0.2622
18832SOL     OW62841   6.588   1.364   4.896  0.0463  0.7800  0.5546
18832SOL    HW162842   6.628   1.433   4.948  1.3699 -0.6269  1.5108
18832SOL    HW262843   6.653   1.343   4.829 -0.1166  0.1372  0.5876
18833SOL     OW62844   6.685   3.834   5.013 -0.3652  0.0299 -0.7247
18833SOL    HW162845   6.679   3.881   4.930  0.5851  1.3466 -0.0777
18833SOL    HW262846   6.771   3.856   5.048 -1.6922  1.7365  1.8737
18834SOL     OW62847   6.060   5.112   3.154 -0.1982  0.1781  0.1266
18834SOL    HW162848   6.084   5.200   3.182  0.5851  0.2401 -0.6961
18834SOL    HW262849   6.026   5.122   3.065  2.0662 -0.5896 -0.8954
18835SOL     OW62850   7.584   4.318   6.085  0.5617  0.6676  0.5695
18835SOL    HW162851   7.611   4.229   6.106  0.8355  0.7082  0.3957
18835SOL    HW262852   7.598   4.326   5.991 -0.7458  0.4554  0.3400
18836SOL     OW62853   6.076   5.059   0.481  0.4420  0.0312  0.3538
18836SOL    HW162854   6.003   5.074   0.421  1.5617 -0.6666 -1.2469
18836SOL    HW262855   6.112   5.146   0.497  0.2712  0.1990 -0.1584
18837SOL     OW62856   7.052   4.034   6.533  0.0393 -0.2981  0.5301
18837SOL    HW162857   7.034   3.941   6.522  2.9285 -0.9650  0.6428
18837SOL    HW262858   7.042   4.050   6.627 -3.4106  0.3398  0.2090
18838SOL     OW62859   8.951   2.860   4.019  0.0407  0.0857  0.1389
18838SOL    HW162860   8.908   2.910   4.088 -1.1025  2.5699 -2.1876
18838SOL    HW262861   9.044   2.882   4.027  0.0199 -0.1970  1.2568
18839SOL     OW62862   2.531   6.885   1.653 -0.3513 -0.7364 -0.1020
18839SOL    HW162863   2.539   6.933   1.735  1.0585 -3.6777  1.6064
18839SOL    HW262864   2.621   6.880   1.620 -0.7690 -0.4868 -1.3501
18840SOL     OW62865   8.183   5.601   7.654 -0.5559 -0.2751  0.2308
18840SOL    HW162866   8.228   5.683   7.673 -1.7631 -0.0503  2.4544
18840SOL    HW262867   8.249   5.547   7.610  1.0992  0.9116  1.1455
18841SOL     OW62868   1.629   7.374   0.017 -0.2651 -0.5789  1.0725
18841SOL    HW162869   1.644   7.293   0.065  0.4166 -0.9338  0.2974
18841SOL    HW262870   1.537   7.371  -0.008 -0.4167 -0.7715  1.6475
18842SOL     OW62871   5.715   0.106   5.767  0.3562 -0.1368 -0.0840
18842SOL    HW162872   5.741   0.085   5.677 -1.0295  0.3009 -0.6203
18842SOL    HW262873   5.759   0.041   5.821  0.3651 -1.0833 -1.1879
18843SOL     OW62874   3.014   6.421   6.307 -0.1615 -0.1871 -0.4137
18843SOL    HW162875   2.940   6.370   6.340 -1.0797 -0.0173 -2.1017
18843SOL    HW262876   2.984   6.512   6.312  0.3671 -0.0316 -0.0680
18844SOL     OW62877   1.013   2.252   5.732 -0.3977 -0.0439 -0.4158
18844SOL    HW162878   0.970   2.178   5.689 -1.6409  0.0804  0.5427
18844SOL    HW262879   1.005   2.233   5.825  1.1154  0.3081 -0.1982
18845SOL     OW62880   5.505   3.800   7.931 -0.1352 -0.1884  0.6275
18845SOL    HW162881   5.520   3.893   7.914 -2.0500  0.7835  3.5629
18845SOL    HW262882   5.585   3.770   7.975 -0.0485  0.4326  0.9007
18846SOL     OW62883   3.885   6.004   6.798  0.1211 -0.0933 -0.4538
18846SOL    HW162884   3.837   5.939   6.848  0.8140  0.2778  0.7257
18846SOL    HW262885   3.935   5.953   6.734 -1.8308 -0.4783 -1.7433
18847SOL     OW62886   3.799   2.798   5.730  0.6023  0.7122  0.2639
18847SOL    HW162887   3.858   2.791   5.805  1.4019 -0.0435 -0.4130
18847SOL    HW262888   3.802   2.712   5.689 -0.3412  0.9148 -0.2614
18848SOL     OW62889   8.623   4.163   1.382  0.3248  0.2688 -0.2957
18848SOL    HW162890   8.708   4.194   1.411  1.5014 -2.0906 -0.9481
18848SOL    HW262891   8.627   4.068   1.393 -1.7412 -0.0349 -1.5498
18849SOL     OW62892   5.646   4.610   3.992 -0.0466 -0.4328  0.9638
18849SOL    HW162893   5.657   4.542   4.058  0.3668 -1.7579 -0.4131
18849SOL    HW262894   5.635   4.562   3.909  0.0575  1.1647 -0.0191
18850SOL     OW62895   7.465   2.027   5.470  0.7856  0.5393 -0.6356
18850SOL    HW162896   7.444   1.954   5.411 -0.7249 -0.2273  0.7476
18850SOL    HW262897   7.497   1.984   5.549  0.3248  1.3828  0.0246
18851SOL     OW62898   8.074   1.254   5.737  0.2640 -0.3337 -0.2919
18851SOL    HW162899   8.076   1.309   5.659  0.5517 -0.3442 -0.2934
18851SOL    HW262900   8.165   1.256   5.770 -0.0281  0.3795  0.5286
18852SOL     OW62901   3.512   2.035   6.120  0.5207 -0.3966 -0.0624
18852SOL    HW162902   3.568   2.024   6.197  0.7542  1.3786  0.0675
18852SOL    HW262903   3.564   2.088   6.060  0.1194 -1.2736 -1.2267
18853SOL     OW62904   5.485   9.139   4.133  0.0086 -0.3617  0.0853
18853SOL    HW162905   5.479   9.072   4.065 -0.6759 -0.1346 -0.0854
18853SOL    HW262906   5.400   9.136   4.177  0.5742 -0.7638  1.1854
18854SOL     OW62907   1.955   7.976   7.475 -0.0312 -0.4469  0.0041
18854SOL    HW162908   1.940   7.987   7.569  1.3555  0.9977  0.1046
18854SOL    HW262909   1.910   8.051   7.435 -2.8273 -2.3812 -0.8185
18855SOL     OW62910   0.485   7.909   3.489 -0.2373  0.4286 -0.7187
18855SOL    HW162911   0.559   7.955   3.450 -0.7634  1.0925 -0.9538
18855SOL    HW262912   0.524   7.835   3.535  0.5411  0.5940 -1.1005
18856SOL     OW62913   2.567   1.730   1.892  0.0487 -0.8759 -0.4736
18856SOL    HW162914   2.562   1.825   1.881  0.1805 -0.7500  0.4820
18856SOL    HW262915   2.590   1.697   1.805  3.7957  0.2691 -0.1303
18857SOL     OW62916   6.078   4.278   2.944  0.5165  0.0840 -0.0769
18857SOL    HW162917   6.161   4.289   2.898  0.0412  1.0655 -0.7488
18857SOL    HW262918   6.015   4.327   2.890 -0.2807  0.2896  1.0156
18858SOL     OW62919   2.274   8.664   1.493  0.2055 -0.1263 -0.2667
18858SOL    HW162920   2.355   8.626   1.527 -0.0465 -0.9236 -0.5547
18858SOL    HW262921   2.301   8.750   1.459  0.2885  1.2706  2.9224
18859SOL     OW62922   6.432   1.589   8.300 -1.0172  0.3743  0.4594
18859SOL    HW162923   6.425   1.644   8.378 -2.3589  1.3856 -0.3314
18859SOL    HW262924   6.443   1.651   8.228 -0.5125 -0.5087 -0.2458
18860SOL     OW62925   0.518   5.945   7.119 -0.1329  0.1431 -0.0463
18860SOL    HW162926   0.517   6.019   7.180  0.9630  0.0037  0.1768
18860SOL    HW262927   0.505   5.868   7.175  0.7185  0.0271  0.0045
18861SOL     OW62928   5.099   0.642   6.045 -0.0054  0.1961  0.1013
18861SOL    HW162929   5.042   0.573   6.009 -1.4021  1.0446  0.5913
18861SOL    HW262930   5.185   0.623   6.009 -0.6253 -1.0468 -0.8214
18862SOL     OW62931   0.593   5.417   0.139 -0.2010 -0.0500 -0.2289
18862SOL    HW162932   0.571   5.510   0.147  0.4102 -0.0134  1.3875
18862SOL    HW262933   0.686   5.415   0.118  0.0054 -0.2741  0.6256
18863SOL     OW62934   0.467   7.305   3.414 -1.0415  0.2338  0.5850
18863SOL    HW162935   0.480   7.396   3.388  1.5811  0.3807  2.0790
18863SOL    HW262936   0.515   7.297   3.497 -2.2325 -2.2146  1.1163
18864SOL     OW62937   1.192   2.835   5.827 -0.2913 -0.2591  0.2244
18864SOL    HW162938   1.196   2.843   5.732 -0.6440 -0.4640  0.1879
18864SOL    HW262939   1.151   2.749   5.842 -1.3170  0.2704  0.5474
18865SOL     OW62940   0.993   3.233   4.243 -0.3852 -0.5263 -0.5554
18865SOL    HW162941   0.954   3.163   4.191 -1.0485 -0.3490 -0.3166
18865SOL    HW262942   0.919   3.268   4.295 -0.5501  1.6646 -2.1259
18866SOL     OW62943   0.545   2.941   0.618  0.1064 -0.2034  0.0904
18866SOL    HW162944   0.532   2.846   0.618  2.5972 -0.6348 -2.1350
18866SOL    HW262945   0.635   2.954   0.648 -0.6688  1.6444  1.9260
18867SOL     OW62946   1.871   6.842   1.031  0.3934 -0.2444 -0.9005
18867SOL    HW162947   1.906   6.768   1.080 -2.0313 -1.1595 -0.4240
18867SOL    HW262948   1.893   6.823   0.940 -0.5158 -1.7882 -0.8315
18868SOL     OW62949   0.096   1.902   0.682  0.2528 -0.1718 -0.2261
18868SOL    HW162950   0.054   1.918   0.598 -1.1620  2.3257  0.8412
18868SOL    HW262951   0.185   1.873   0.660 -0.3498 -0.4401 -2.5415
18869SOL     OW62952   2.968   0.875   9.160 -0.2074  0.5812 -0.2560
18869SOL    HW162953   2.916   0.819   9.218  0.7209  0.9553  0.9646
18869SOL    HW262954   2.903   0.914   9.101 -1.2071  0.3527  0.6582
18870SOL     OW62955   2.835   3.751   5.706  0.2970  0.2153 -0.2802
18870SOL    HW162956   2.762   3.764   5.767  0.1724 -1.3026 -0.0638
18870SOL    HW262957   2.866   3.839   5.686  0.6153  0.7668  2.3278
18871SOL     OW62958   7.363   0.788   7.459  0.4751 -0.8105 -0.2540
18871SOL    HW162959   7.391   0.796   7.368  0.3566 -0.5893 -0.2729
18871SOL    HW262960   7.442   0.763   7.507  0.4572 -1.2878 -0.4694
18872SOL     OW62961   5.281   7.091   8.654 -0.3153 -0.2363  0.0706
18872SOL    HW162962   5.348   7.119   8.716  0.2446 -0.0183 -0.6244
18872SOL    HW262963   5.204   7.074   8.708  0.0867  0.2021  0.7901
18873SOL     OW62964   2.024   4.859   4.088  0.2560 -0.1336  0.0466
18873SOL    HW162965   2.049   4.788   4.148  2.4311 -1.5809 -2.3103
18873SOL    HW262966   2.058   4.938   4.129 -0.3045 -0.7324  1.7441
18874SOL     OW62967   8.563   5.138   4.323  0.4496 -0.4038 -0.0980
18874SOL    HW162968   8.563   5.085   4.243  1.0020 -1.2813  0.4668
18874SOL    HW262969   8.640   5.109   4.372  1.0833  1.2938  0.0027
18875SOL     OW62970   0.588   7.210   2.004 -0.1392 -0.3690  0.3529
18875SOL    HW162971   0.676   7.182   2.030 -0.1050  0.1239  0.7734
18875SOL    HW262972   0.600   7.250   1.918 -0.1761 -1.5530 -0.2267
18876SOL     OW62973   0.100   5.759   6.379 -0.5834 -0.0057  1.2618
18876SOL    HW162974   0.083   5.853   6.373  1.1496  0.3996  2.0146
18876SOL    HW262975   0.063   5.722   6.299 -0.1083  1.5085  0.3095
18877SOL     OW62976   0.334   1.364   8.030  0.1374  0.5801 -0.8280
18877SOL    HW162977   0.253   1.369   7.979  0.0794  1.4077 -0.6684
18877SOL    HW262978   0.355   1.271   8.034 -0.5731  0.4019 -1.2402
18878SOL     OW62979   1.100   0.315   7.713 -0.7097  0.6837  0.3827
18878SOL    HW162980   1.189   0.349   7.702  0.2849 -1.9558 -0.7460
18878SOL    HW262981   1.088   0.310   7.807  0.7685  0.1682  0.5775
18879SOL     OW62982   0.211   6.873   8.038 -0.2268 -0.5860 -0.4508
18879SOL    HW162983   0.305   6.867   8.051 -0.2292  0.2399 -0.0259
18879SOL    HW262984   0.194   6.965   8.019 -0.8642 -0.8547 -1.2686
18880SOL     OW62985   8.334   0.980   7.476 -0.1714  0.2858  0.1493
18880SOL    HW162986   8.406   1.026   7.519 -0.4897  0.7176  0.2173
18880SOL    HW262987   8.313   0.909   7.536  0.4077 -0.0416 -0.0202
18881SOL     OW62988   5.572   4.136   8.740  0.0533 -0.1813 -0.3572
18881SOL    HW162989   5.525   4.088   8.672 -2.0705  1.9022 -0.4809
18881SOL    HW262990   5.551   4.228   8.723  1.6259  0.5914  1.5541
18882SOL     OW62991   9.192   2.920   7.633 -0.2587 -0.1169 -0.3297
18882SOL    HW162992   9.161   2.918   7.542  3.1250 -0.3574 -1.6286
18882SOL    HW262993   9.226   3.009   7.644 -0.0774 -0.2867  0.4895
18883SOL     OW62994   5.792   7.709   1.429  0.3702  0.0687  0.5227
18883SOL    HW162995   5.788   7.738   1.338  1.0738  0.3073  0.5605
18883SOL    HW262996   5.751   7.623   1.428  1.6494 -0.5675 -0.2958
18884SOL     OW62997   1.975   2.549   7.322 -0.1330  0.4096  0.0470
18884SOL    HW162998   1.910   2.532   7.254  0.2992 -1.2761  0.0101
18884SOL    HW262999   1.951   2.634   7.358 -0.7603  1.0412 -1.7615
18885SOL     OW63000   4.143   9.157   1.114 -0.1865  0.1042 -0.3565
18885SOL    HW163001   4.128   9.234   1.059  0.3890  0.3173 -0.2188
18885SOL    HW263002   4.234   9.134   1.099 -0.5769 -1.0787 -1.0511
18886SOL     OW63003   0.926   0.542   6.809 -0.2665  0.4001 -0.1019
18886SOL    HW163004   0.920   0.522   6.715 -1.3652  2.9378 -0.6560
18886SOL    HW263005   0.837   0.526   6.842 -0.5550  1.9373 -0.0749
18887SOL     OW63006   4.692   0.694   6.390  0.0114  0.4033 -0.1865
18887SOL    HW163007   4.655   0.654   6.312  0.0534 -2.0684  0.9536
18887SOL    HW263008   4.787   0.691   6.375  0.0289 -0.2651  0.0193
18888SOL     OW63009   4.718   8.620   1.103 -0.8629  0.3052  0.2068
18888SOL    HW163010   4.717   8.713   1.123 -1.2061  0.7999 -1.8404
18888SOL    HW263011   4.635   8.604   1.057  0.0856 -0.5317 -1.2949
18889SOL     OW63012   2.082   2.064   3.696  0.3860 -0.1950  0.2470
18889SOL    HW163013   2.050   2.100   3.614 -0.5000 -1.7793 -0.1499
18889SOL    HW263014   2.015   2.086   3.760  0.2051 -0.4877  0.1603
18890SOL     OW63015   5.834   3.437   2.084 -0.6448 -0.6221  0.1877
18890SOL    HW163016   5.784   3.427   2.004  2.0955  1.0505 -1.9361
18890SOL    HW263017   5.833   3.350   2.124 -2.4112 -1.4219 -1.4384
18891SOL     OW63018   0.230   2.813   8.340 -0.6409  0.0394  0.4915
18891SOL    HW163019   0.187   2.893   8.369  1.0864  1.0313  0.4171
18891SOL    HW263020   0.270   2.836   8.256 -1.8452 -1.5136 -0.5742
18892SOL     OW63021   7.307   7.020   1.265 -0.5839 -0.2211 -0.5648
18892SOL    HW163022   7.311   7.072   1.346  1.4964 -1.5890  0.2973
18892SOL    HW263023   7.235   6.958   1.279 -0.5980 -0.0819 -0.0034
18893SOL     OW63024   4.556   3.429   1.137  0.0394 -0.2631  0.3173
18893SOL    HW163025   4.478   3.395   1.096 -1.1084  1.4451  0.9656
18893SOL    HW263026   4.552   3.398   1.228 -0.8973  1.2834  0.8510
18894SOL     OW63027   2.075   6.124   5.155  0.1692 -0.3362 -0.1969
18894SOL    HW163028   2.069   6.140   5.061  0.7611  0.4264 -0.1138
18894SOL    HW263029   2.021   6.046   5.169  1.2376 -1.3370 -1.3869
18895SOL     OW63030   6.330   2.889   5.546 -0.0658 -0.5375 -0.2533
18895SOL    HW163031   6.366   2.802   5.529 -0.2704 -1.0612  1.7393
18895SOL    HW263032   6.248   2.872   5.594  1.1289  0.7206  2.4443
18896SOL     OW63033   5.706   2.377   4.660 -0.5530 -0.1368 -0.6339
18896SOL    HW163034   5.729   2.328   4.581  1.3840  1.3059 -1.0249
18896SOL    HW263035   5.706   2.469   4.633  0.4387  0.4039  1.0887
18897SOL     OW63036   5.034   1.520   5.919  0.0265 -0.2055  0.6435
18897SOL    HW163037   5.013   1.432   5.949  0.3318 -0.2618  0.6945
18897SOL    HW263038   4.953   1.551   5.877 -0.0389 -0.5621  0.5011
18898SOL     OW63039   1.083   3.297   0.938  0.4137  0.1316  0.3037
18898SOL    HW163040   1.165   3.335   0.908  0.5822 -0.3081  0.2087
18898SOL    HW263041   1.016   3.359   0.910  0.5338 -0.3876 -1.1959
18899SOL     OW63042   7.988   6.679   8.671 -0.5962  0.5275 -0.5381
18899SOL    HW163043   7.983   6.774   8.683  0.9239  0.4070  1.6345
18899SOL    HW263044   7.905   6.647   8.707  0.3294  0.8513  2.0909
18900SOL     OW63045   5.775   5.928   7.879 -0.3162 -0.4028  0.1987
18900SOL    HW163046   5.808   5.998   7.935  0.9797 -0.3147 -0.6303
18900SOL    HW263047   5.785   5.849   7.931 -1.1815 -0.0877  0.8927
18901SOL     OW63048   1.077   0.987   4.373  0.1196  0.4609 -0.0763
18901SOL    HW163049   1.075   0.984   4.278  1.2243  0.4225 -0.1074
18901SOL    HW263050   1.068   0.895   4.400 -0.5284  0.5049 -0.1262
18902SOL     OW63051   1.592   0.852   0.728  0.0389 -0.4237 -0.0631
18902SOL    HW163052   1.522   0.900   0.772 -1.2530 -0.7593 -1.6803
18902SOL    HW263053   1.562   0.761   0.726  1.0907 -0.8054  0.2869
18903SOL     OW63054   1.528   4.285   7.299 -0.2746 -0.0011  0.1476
18903SOL    HW163055   1.435   4.277   7.282 -0.4494 -1.5495  1.5673
18903SOL    HW263056   1.537   4.359   7.358 -0.5923  0.1677 -0.0182
18904SOL     OW63057   4.203   7.632   6.881  0.3864 -0.7182 -0.1459
18904SOL    HW163058   4.153   7.603   6.957 -0.6079 -0.6253 -0.7436
18904SOL    HW263059   4.258   7.557   6.859 -0.9046 -1.5695 -0.6305
18905SOL     OW63060   8.557   7.309   1.798  0.1497 -0.8529  0.1810
18905SOL    HW163061   8.575   7.348   1.712 -2.2056 -0.6812 -0.3022
18905SOL    HW263062   8.617   7.235   1.804  0.9457 -0.3607 -1.2235
18906SOL     OW63063   4.605   3.249   6.484  0.6866 -0.2369 -0.0836
18906SOL    HW163064   4.638   3.171   6.439  0.1212 -0.1709 -0.6319
18906SOL    HW263065   4.563   3.215   6.563  0.8030 -0.4500 -0.1112
18907SOL     OW63066   1.915   2.765   8.326  0.6033  0.1541 -0.3591
18907SOL    HW163067   1.882   2.678   8.305  1.5061 -0.0305 -1.0700
18907SOL    HW263068   1.859   2.796   8.397  0.8198 -1.3599  0.5102
18908SOL     OW63069   6.911   3.207   7.942  0.8323 -0.2548 -0.3535
18908SOL    HW163070   6.839   3.269   7.953  0.6785 -0.4727 -0.1321
18908SOL    HW263071   6.952   3.232   7.859 -0.5907 -1.2595 -1.3878
18909SOL     OW63072   2.957   8.294   0.835  0.2449 -0.0152  0.5188
18909SOL    HW163073   2.919   8.306   0.922 -0.4351 -0.5933  0.3055
18909SOL    HW263074   3.027   8.360   0.830  1.1058 -0.7690  1.9622
18910SOL     OW63075   5.335   8.407   5.708 -0.4081  0.0467  0.2413
18910SOL    HW163076   5.272   8.383   5.641 -2.0778  1.2662  1.3027
18910SOL    HW263077   5.407   8.345   5.697 -1.0671 -0.3845 -2.0206
18911SOL     OW63078   3.740   2.155   0.449  0.4003  0.0734 -0.2662
18911SOL    HW163079   3.831   2.171   0.473  0.4747  1.1145 -1.1110
18911SOL    HW263080   3.689   2.193   0.521  0.6215 -1.1703  0.5663
18912SOL     OW63081   4.832   1.002   3.142  0.3484 -0.5980  0.0849
18912SOL    HW163082   4.781   0.964   3.070  0.3058 -0.4507  0.0368
18912SOL    HW263083   4.870   1.082   3.105  0.1087 -0.3808  0.3043
18913SOL     OW63084   0.598   8.403   1.265 -0.0836  0.1449  0.2754
18913SOL    HW163085   0.691   8.402   1.243 -0.1518  1.3418 -0.1464
18913SOL    HW263086   0.590   8.472   1.332 -0.6850  0.1828  0.1718
18914SOL     OW63087   5.724   0.529   1.382  0.0588  0.3912 -0.2442
18914SOL    HW163088   5.629   0.520   1.379  0.1598 -1.9705  1.1740
18914SOL    HW263089   5.741   0.583   1.459 -0.1208 -1.0502  0.8534
18915SOL     OW63090   4.915   0.318   6.862  0.5369 -0.2220  0.5217
18915SOL    HW163091   4.824   0.326   6.889  0.0963  0.3201 -1.0110
18915SOL    HW263092   4.960   0.391   6.905  0.0600  0.0618  0.5372
18916SOL     OW63093   1.926   8.120   6.300 -0.2558 -0.3205  0.2428
18916SOL    HW163094   1.865   8.192   6.312 -0.7759 -0.4390 -1.4954
18916SOL    HW263095   2.010   8.154   6.330 -0.6118  0.8140 -0.0228
18917SOL     OW63096   6.131   0.677   6.133  0.3523  0.3544 -0.2590
18917SOL    HW163097   6.204   0.711   6.080 -0.3198 -1.1693 -2.2895
18917SOL    HW263098   6.115   0.746   6.197  1.3750  2.2716 -1.9146
18918SOL     OW63099   7.390   1.692   9.106  0.1638 -0.3949  0.0641
18918SOL    HW163100   7.387   1.698   9.202  1.7849  3.0870  0.0136
18918SOL    HW263101   7.476   1.726   9.082  0.3596 -2.4521 -2.6541
18919SOL     OW63102   2.548   1.789   0.048  0.4367 -0.0077  0.4447
18919SOL    HW163103   2.455   1.792   0.073  0.3064 -0.3251  0.0191
18919SOL    HW263104   2.551   1.832  -0.037  1.0289  1.9192  1.3960
18920SOL     OW63105   0.910   7.400   8.775  0.5031 -0.3513  0.2666
18920SOL    HW163106   0.915   7.345   8.697 -1.7543 -0.0008 -0.1951
18920SOL    HW263107   0.998   7.396   8.813  0.8786 -2.9406 -0.6471
18921SOL     OW63108   2.395   3.037   0.954 -0.0424 -0.4422  0.3487
18921SOL    HW163109   2.434   2.952   0.931  0.5813  0.2105 -1.1438
18921SOL    HW263110   2.467   3.099   0.945 -0.5115  0.2556  1.3904
18922SOL     OW63111   6.290   6.143   2.170 -0.0239 -0.0529 -0.7892
18922SOL    HW163112   6.376   6.162   2.133  0.0028 -1.5479 -1.5353
18922SOL    HW263113   6.294   6.051   2.196 -0.7955  0.3426  0.9257
18923SOL     OW63114   6.140   5.326   4.978  0.2660  0.2237  0.5154
18923SOL    HW163115   6.122   5.412   5.018  2.7572  0.7553  0.6579
18923SOL    HW263116   6.154   5.346   4.886 -0.4767 -0.2581  0.2911
18924SOL     OW63117   0.137   1.164   8.857  0.5627  0.0218 -0.1082
18924SOL    HW163118   0.199   1.090   8.851  0.1158 -0.5113  1.3828
18924SOL    HW263119   0.129   1.181   8.950  0.1716  1.5853 -0.3965
18925SOL     OW63120   1.431   4.662   6.656  0.0523  0.0064  0.4415
18925SOL    HW163121   1.523   4.688   6.669 -0.2233  0.3996  1.7962
18925SOL    HW263122   1.389   4.741   6.623  0.0592  0.0439  0.5208
18926SOL     OW63123   2.656   2.951   2.726 -0.2401 -0.3970 -0.5071
18926SOL    HW163124   2.596   2.921   2.658 -0.8631 -2.1954  0.7501
18926SOL    HW263125   2.713   3.013   2.682 -1.1202 -0.8917 -2.4683
18927SOL     OW63126   9.217   8.401   7.352 -0.5412  0.4519 -0.4425
18927SOL    HW163127   9.184   8.341   7.417 -0.1404  0.6707 -0.0317
18927SOL    HW263128   9.297   8.438   7.390 -0.8528  1.3516 -0.6167
18928SOL     OW63129   9.135   3.451   0.008 -0.5444  0.0038 -0.0362
18928SOL    HW163130   9.110   3.501   0.086 -1.1304 -0.0395 -0.1919
18928SOL    HW263131   9.071   3.475  -0.058 -1.1877 -1.3552  0.0456
18929SOL     OW63132   5.918   1.238   1.388  0.5638 -0.3713  0.0939
18929SOL    HW163133   5.959   1.275   1.466  0.2244 -0.4459  0.3086
18929SOL    HW263134   5.991   1.205   1.335  0.9632  1.3682 -0.5034
18930SOL     OW63135   1.518   6.572   7.604  0.1309  0.4859 -0.4909
18930SOL    HW163136   1.434   6.536   7.633 -0.2236  1.4815 -0.2381
18930SOL    HW263137   1.570   6.496   7.579 -1.1282 -0.0934 -1.4138
18931SOL     OW63138   3.490   5.537   4.938 -0.1319  0.0269  0.1017
18931SOL    HW163139   3.567   5.575   4.897  0.7941 -1.2613  0.5917
18931SOL    HW263140   3.476   5.454   4.891 -0.9863  0.0568  0.2787
18932SOL     OW63141   5.940   5.433   8.199 -0.1378 -0.1122  0.0403
18932SOL    HW163142   6.016   5.491   8.205 -1.0162  0.8935  2.4628
18932SOL    HW263143   5.978   5.345   8.188  1.3123  0.5156 -0.2548
18933SOL     OW63144   5.075   6.550   0.875  0.4785  0.4405  0.3183
18933SOL    HW163145   5.106   6.502   0.798  1.3768 -0.0774  0.9805
18933SOL    HW263146   4.982   6.528   0.881  0.2954  0.8316 -0.8616
18934SOL     OW63147   3.588   6.507   8.424  0.4611  0.0149 -0.3992
18934SOL    HW163148   3.642   6.466   8.356  0.1591 -0.5917 -0.2774
18934SOL    HW263149   3.498   6.483   8.401 -0.0403  2.8670 -1.9040
18935SOL     OW63150   9.233   8.439   0.223  0.5579  0.5262 -0.2657
18935SOL    HW163151   9.284   8.417   0.145  1.4970  0.4009  0.3624
18935SOL    HW263152   9.143   8.416   0.201  1.1344 -1.6938 -0.4893
18936SOL     OW63153   2.661   7.410   0.277 -0.1032  0.1191 -0.4997
18936SOL    HW163154   2.712   7.336   0.308 -1.1524 -0.1593  0.6594
18936SOL    HW263155   2.685   7.419   0.185  2.7511  0.6409  0.2052
18937SOL     OW63156   8.245   2.263   8.799 -0.3298 -0.7128  0.2555
18937SOL    HW163157   8.312   2.201   8.770  1.0757  0.0050  1.7977
18937SOL    HW263158   8.183   2.210   8.850  1.1549 -0.8193  2.0222
18938SOL     OW63159   4.719   3.955   1.591 -0.0180  0.1208  0.0457
18938SOL    HW163160   4.687   3.867   1.573  0.3520  0.3025 -1.6732
18938SOL    HW263161   4.802   3.961   1.544  0.3447  1.1512  0.7604
18939SOL     OW63162   7.096   6.017   8.779  0.0743 -0.7657  0.0984
18939SOL    HW163163   7.077   6.105   8.747 -0.6119 -0.5416  1.0757
18939SOL    HW263164   7.158   5.981   8.715 -0.1900  0.1571 -0.7005
18940SOL     OW63165   8.055   3.391   8.250  0.1342 -0.4773 -0.7292
18940SOL    HW163166   8.039   3.450   8.323  0.6053  1.3600 -2.0376
18940SOL    HW263167   7.967   3.365   8.221 -0.2159  1.4205 -1.5240
18941SOL     OW63168   3.193   8.813   4.908  0.6602  0.2879 -0.1108
18941SOL    HW163169   3.251   8.873   4.860 -0.2900 -0.5264 -2.4000
18941SOL    HW263170   3.105   8.837   4.879  0.2448 -2.1489 -1.1166
18942SOL     OW63171   6.972   8.970   0.004 -0.6696 -0.5070  0.3937
18942SOL    HW163172   6.939   9.040  -0.052 -0.9007  0.3459  1.5659
18942SOL    HW263173   7.038   8.926  -0.050 -0.1965  0.8914 -0.2142
18943SOL     OW63174   2.207   1.519   3.977 -0.3956 -0.3093 -0.2357
18943SOL    HW163175   2.245   1.579   3.913  0.9239 -2.1273 -1.2736
18943SOL    HW263176   2.125   1.489   3.935 -0.1997 -0.4947 -0.4921
18944SOL     OW63177   5.823   3.824   6.354 -0.4063  0.5684 -0.0552
18944SOL    HW163178   5.743   3.817   6.301  0.2773 -0.8127 -0.9581
18944SOL    HW263179   5.791   3.831   6.444 -1.5444 -0.1889 -0.3799
18945SOL     OW63180   3.727   0.411   0.812  0.0782 -0.1146  0.5826
18945SOL    HW163181   3.673   0.393   0.736 -0.2885 -0.3846  0.9004
18945SOL    HW263182   3.755   0.502   0.801 -2.2440  0.8014  1.4704
18946SOL     OW63183   0.908   7.902   3.830 -0.4534 -0.4939 -0.3106
18946SOL    HW163184   0.969   7.828   3.827 -1.4976 -1.3380 -1.6254
18946SOL    HW263185   0.894   7.925   3.739 -0.3294  1.1993  0.0787
18947SOL     OW63186   4.293   5.377   5.224  0.2657 -0.6249  0.1766
18947SOL    HW163187   4.226   5.438   5.193  0.7260  0.0679  0.5282
18947SOL    HW263188   4.318   5.327   5.146  0.8381  0.5463 -0.4049
18948SOL     OW63189   4.981   3.232   1.188 -0.1424  0.1360 -0.6090
18948SOL    HW163190   5.048   3.166   1.167 -0.4997 -0.0280 -1.2681
18948SOL    HW263191   5.023   3.289   1.253  0.4556 -0.2684 -0.6307
18949SOL     OW63192   2.183   5.257   5.970  0.5436  0.6823  0.2154
18949SOL    HW163193   2.221   5.314   6.036  2.5483  0.4408 -0.6566
18949SOL    HW263194   2.249   5.189   5.956 -1.3495 -1.3180  0.5040
18950SOL     OW63195   4.109   3.992   5.088  0.2728 -0.3698 -0.3471
18950SOL    HW163196   4.156   3.992   5.171  0.8534  3.1023 -0.5434
18950SOL    HW263197   4.146   3.918   5.040  2.2294 -0.5431  1.2885
18951SOL     OW63198   2.927   6.796   8.661 -0.1882  0.2503 -0.7253
18951SOL    HW163199   2.960   6.707   8.651 -1.2968 -0.0736 -1.7691
18951SOL    HW263200   2.842   6.795   8.617 -0.8652  1.4590  0.4627
18952SOL     OW63201   1.007   8.082   2.565  0.1645 -0.5227  0.3391
18952SOL    HW163202   1.083   8.075   2.622  0.5390 -0.3966 -0.1369
18952SOL    HW263203   0.933   8.054   2.619  0.5144 -0.4083  0.8770
18953SOL     OW63204   1.878   6.945   8.834  0.3248  0.0960 -0.6216
18953SOL    HW163205   1.829   6.990   8.902  1.6016 -0.1080  0.4687
18953SOL    HW263206   1.900   6.859   8.872  1.5060  0.1823 -1.0645
18954SOL     OW63207   5.212   1.132   7.231 -0.1310  0.3061 -0.0269
18954SOL    HW163208   5.302   1.123   7.199  0.1327  0.3583  0.6770
18954SOL    HW263209   5.161   1.152   7.153  0.2695 -0.9280 -0.6324
18955SOL     OW63210   2.448   1.641   1.040 -0.3737 -0.1160 -0.0099
18955SOL    HW163211   2.417   1.707   1.101  0.5927 -0.4054  0.8300
18955SOL    HW263212   2.543   1.653   1.037 -0.3284 -0.5746 -0.9046
18956SOL     OW63213   7.583   4.103   1.634  0.0100 -0.3139 -0.0089
18956SOL    HW163214   7.523   4.177   1.645  2.0948  1.1875  2.3377
18956SOL    HW263215   7.648   4.135   1.571  0.7008 -0.2629  0.7209
18957SOL     OW63216   7.881   4.937   3.001 -0.3078 -0.1871 -0.0581
18957SOL    HW163217   7.860   4.969   2.913  0.1948 -0.3595 -0.2469
18957SOL    HW263218   7.798   4.939   3.048 -0.7870 -1.0064 -0.8285
18958SOL     OW63219   6.092   0.853   7.030 -0.2702 -0.2686  0.4320
18958SOL    HW163220   6.183   0.861   7.002 -0.3528  1.4383  0.5026
18958SOL    HW263221   6.080   0.760   7.050  0.7735 -0.9482 -1.8333
18959SOL     OW63222   8.520   8.179   4.382 -0.4880  0.1646 -0.2810
18959SOL    HW163223   8.604   8.176   4.427 -0.1008  1.7194 -0.8383
18959SOL    HW263224   8.465   8.234   4.438 -0.9094 -0.2653 -0.2735
18960SOL     OW63225   3.662   4.448   3.081  0.0962  0.1925  0.2870
18960SOL    HW163226   3.624   4.527   3.118 -0.5610 -0.4270  0.9617
18960SOL    HW263227   3.690   4.474   2.993 -0.0069  1.1953  0.5383
18961SOL     OW63228   3.510   3.429   6.406 -0.4093 -0.0992 -0.0302
18961SOL    HW163229   3.469   3.352   6.445 -1.5079  0.1883 -0.5890
18961SOL    HW263230   3.461   3.503   6.441  0.4188  0.3370  0.2294
18962SOL     OW63231   0.785   6.825   0.990  0.2611  0.5518  0.2914
18962SOL    HW163232   0.794   6.731   1.004 -0.5814 -0.0125 -2.3237
18962SOL    HW263233   0.859   6.848   0.934 -0.1769  1.1939 -0.0362
18963SOL     OW63234   4.713   8.451   1.755 -0.4125 -0.0839  0.2299
18963SOL    HW163235   4.738   8.436   1.846 -0.5579 -0.2248  0.2462
18963SOL    HW263236   4.766   8.527   1.728 -1.6154  1.0625  0.9674
18964SOL     OW63237   6.163   5.842   1.437  0.3140  0.9910 -0.0565
18964SOL    HW163238   6.227   5.771   1.438  1.2127  1.7746 -0.0776
18964SOL    HW263239   6.095   5.814   1.499  1.7966  1.1126  1.6971
18965SOL     OW63240   1.477   1.623   7.612 -0.3893 -0.5175  0.2006
18965SOL    HW163241   1.561   1.629   7.565  0.0468 -1.9246  0.7496
18965SOL    HW263242   1.480   1.696   7.674  0.8338 -1.0459  0.8043
18966SOL     OW63243   9.147   6.630   8.413  0.2480 -0.0909 -0.4950
18966SOL    HW163244   9.123   6.722   8.404 -3.3771 -0.8206  0.1562
18966SOL    HW263245   9.201   6.627   8.492 -0.6377  1.3501  0.2093
18967SOL     OW63246   9.174   0.179   5.000 -0.3457  0.1044  0.6386
18967SOL    HW163247   9.211   0.161   4.914  1.6503  1.3336  1.1839
18967SOL    HW263248   9.124   0.100   5.022 -1.7143  0.1288 -2.0088
18968SOL     OW63249   4.207   9.208   0.634 -0.1506 -0.0688  0.3307
18968SOL    HW163250   4.238   9.297   0.620  0.5332 -0.5129 -1.1708
18968SOL    HW263251   4.113   9.218   0.653  0.2308  1.0553  1.7927
18969SOL     OW63252   5.387   1.829   2.282  0.3637  0.2977  0.1770
18969SOL    HW163253   5.456   1.869   2.229  1.2920  1.3584  2.0761
18969SOL    HW263254   5.419   1.742   2.302 -0.5289 -0.5735 -1.8950
18970SOL     OW63255   0.775   6.688   1.444  0.2037 -0.0554  0.4534
18970SOL    HW163256   0.795   6.695   1.537  3.5076 -0.3193 -0.1076
18970SOL    HW263257   0.777   6.778   1.412  0.7016 -0.0886  0.3815
18971SOL     OW63258   2.440   4.800   8.265 -0.3823  0.0765 -0.2652
18971SOL    HW163259   2.462   4.878   8.314 -0.1617 -1.3046  1.9798
18971SOL    HW263260   2.367   4.826   8.209 -0.7649  1.7075  0.9332
18972SOL     OW63261   9.211   0.968   6.510  0.7067 -0.4198  0.1988
18972SOL    HW163262   9.196   1.062   6.520 -0.5193 -0.6669  0.9343
18972SOL    HW263263   9.298   0.962   6.470  0.5221  1.0381 -0.5099
18973SOL     OW63264   9.066   9.089   6.753  0.9319  0.0585 -0.7485
18973SOL    HW163265   9.124   9.162   6.729  0.3982  0.8476  0.2921
18973SOL    HW263266   8.992   9.096   6.693 -0.7037  2.4044  1.3732
18974SOL     OW63267   5.799   5.362   7.968  0.3561 -0.0752  0.3241
18974SOL    HW163268   5.811   5.406   7.884  0.4713  0.5444  0.6562
18974SOL    HW263269   5.841   5.420   8.032  3.3470 -2.1359  0.4504
18975SOL     OW63270   3.414   2.583   4.443  0.1493  0.3354  0.4440
18975SOL    HW163271   3.400   2.560   4.535  0.9773 -1.2207  0.2165
18975SOL    HW263272   3.485   2.648   4.445 -0.9191  1.5266  0.9802
18976SOL     OW63273   5.446   8.071   5.346 -0.4068 -0.0399 -0.5489
18976SOL    HW163274   5.437   8.043   5.255  0.3029  1.2377 -1.0473
18976SOL    HW263275   5.495   8.000   5.389 -2.5230 -1.6169 -0.6123
18977SOL     OW63276   1.974   0.935   6.468 -0.6281 -0.1748  0.2018
18977SOL    HW163277   2.001   0.971   6.553 -1.1091  0.6530  0.0164
18977SOL    HW263278   2.052   0.939   6.414 -0.6573  0.5227  0.2098
18978SOL     OW63279   6.140   3.109   0.522 -0.0533 -0.0387  0.1210
18978SOL    HW163280   6.090   3.168   0.465  1.3656  0.8567 -0.2568
18978SOL    HW263281   6.094   3.112   0.606 -1.5562 -0.5364 -0.6505
18979SOL     OW63282   5.683   5.894   1.200  0.9295  0.8809 -0.5752
18979SOL    HW163283   5.643   5.884   1.114  0.0722  1.3366 -0.2367
18979SOL    HW263284   5.725   5.809   1.217  0.0234  0.3500 -0.8968
18980SOL     OW63285   5.845   5.579   5.301 -0.2261 -0.1189  0.9658
18980SOL    HW163286   5.924   5.563   5.249 -1.4957 -0.9647 -0.8075
18980SOL    HW263287   5.856   5.524   5.379 -0.3937 -2.7098 -0.7252
18981SOL     OW63288   6.078   8.369   4.264  0.6460 -0.1209 -0.4681
18981SOL    HW163289   6.064   8.367   4.169 -1.1679 -1.7532 -0.2448
18981SOL    HW263290   6.012   8.431   4.296  0.6578 -0.2401 -0.2157
18982SOL     OW63291   2.158   3.662   2.384  0.0653 -0.7077  0.1803
18982SOL    HW163292   2.063   3.655   2.395  0.0003 -1.2697 -0.6573
18982SOL    HW263293   2.171   3.745   2.338  0.0228 -0.4075  0.6993
18983SOL     OW63294   1.288   8.197   5.436 -0.0428  0.3697 -0.2465
18983SOL    HW163295   1.359   8.261   5.443  1.0105 -0.6912 -0.8489
18983SOL    HW263296   1.285   8.175   5.343  0.6646 -1.5541  0.1285
18984SOL     OW63297   5.086   7.050   4.868 -0.3415  0.0729  0.8358
18984SOL    HW163298   5.042   7.114   4.924 -0.4232  0.8047 -0.0401
18984SOL    HW263299   5.018   6.988   4.845 -0.4295  0.0582  1.1343
18985SOL     OW63300   3.856   3.468   2.875  0.5653 -0.0845 -0.0574
18985SOL    HW163301   3.886   3.463   2.966 -0.4775  2.3571  0.4977
18985SOL    HW263302   3.830   3.378   2.854  0.9460 -0.7321  2.0094
18986SOL     OW63303   2.188   0.340   0.886  0.4419 -0.4567 -0.0676
18986SOL    HW163304   2.201   0.302   0.799 -2.0341 -1.7128  0.0445
18986SOL    HW263305   2.196   0.266   0.945  1.2079  0.2468  0.7446
18987SOL     OW63306   8.456   4.746   7.517 -0.1525 -0.6640  0.0754
18987SOL    HW163307   8.441   4.652   7.512 -1.5500 -0.5407  1.1696
18987SOL    HW263308   8.386   4.784   7.465  0.1721 -0.2178 -0.0375
18988SOL     OW63309   1.403   6.272   1.062 -0.1040  0.4353  0.1377
18988SOL    HW163310   1.466   6.249   0.994  1.1042 -0.0234  1.3591
18988SOL    HW263311   1.433   6.356   1.096  0.6387 -0.3774  1.5847
18989SOL     OW63312   5.324   7.787   8.294 -0.2966  0.1262 -0.2216
18989SOL    HW163313   5.258   7.728   8.330  0.0358 -0.2195 -0.1710
18989SOL    HW263314   5.308   7.787   8.200  0.5692 -1.1432 -0.3966
18990SOL     OW63315   8.391   2.918   1.802 -0.4981 -0.0568  0.1442
18990SOL    HW163316   8.354   2.953   1.884 -0.8188 -1.7338  0.7550
18990SOL    HW263317   8.453   2.851   1.831  0.3706  0.2364 -0.9782
18991SOL     OW63318   9.219   0.197   0.844 -0.1880  0.0095  0.5388
18991SOL    HW163319   9.249   0.238   0.763 -0.7412  0.7728  0.7146
18991SOL    HW263320   9.136   0.156   0.820  0.9076 -2.1019  0.0518
18992SOL     OW63321   8.366   1.277   1.504  0.4785  0.7490 -0.3441
18992SOL    HW163322   8.293   1.282   1.441 -0.3099 -1.5600  0.3093
18992SOL    HW263323   8.410   1.195   1.484  0.9707  0.5791  1.3345
18993SOL     OW63324   0.650   4.038   4.251  0.2686  0.2024 -0.2493
18993SOL    HW163325   0.586   4.065   4.185  0.4208  0.7955 -0.1604
18993SOL    HW263326   0.647   3.942   4.249  1.3740  0.1569 -2.1778
18994SOL     OW63327   1.491   0.023   1.715  0.2511  0.1471 -0.2744
18994SOL    HW163328   1.552  -0.035   1.760  0.3283  1.2642  1.1086
18994SOL    HW263329   1.543   0.099   1.691 -0.0384  0.0285 -1.3338
18995SOL     OW63330   3.730   2.702   7.251  0.3698  0.0147  0.2909
18995SOL    HW163331   3.697   2.784   7.215 -0.2724  0.0177  0.8586
18995SOL    HW263332   3.652   2.655   7.280  0.5989 -1.4174 -1.2634
18996SOL     OW63333   8.022   8.968   8.523  0.2736 -0.0620 -0.1065
18996SOL    HW163334   8.088   8.933   8.464  1.4742  0.5742  0.8060
18996SOL    HW263335   8.072   9.022   8.585 -0.9903 -0.2859  1.1547
18997SOL     OW63336   2.858   6.852   5.782  0.2596 -0.0186 -0.2566
18997SOL    HW163337   2.858   6.795   5.705  2.1539 -1.0433  0.4316
18997SOL    HW263338   2.790   6.916   5.764 -0.8279 -1.5034 -1.8212
18998SOL     OW63339   7.976   2.840   3.049 -0.2533 -0.1710 -0.4086
18998SOL    HW163340   7.880   2.846   3.046 -0.2848 -0.7651 -0.8286
18998SOL    HW263341   8.000   2.875   3.135 -1.0270 -2.1479  0.6990
18999SOL     OW63342   4.669   3.474   2.411  0.1563 -0.0410  0.2095
18999SOL    HW163343   4.703   3.423   2.484 -1.8212 -0.8026  0.6566
18999SOL    HW263344   4.626   3.410   2.354  0.9799  0.6411 -1.2499
19000SOL     OW63345   0.507   7.864   7.065  0.3751 -0.5794  0.6129
19000SOL    HW163346   0.600   7.872   7.044  0.3077  0.8776  0.7715
19000SOL    HW263347   0.475   7.954   7.067 -0.8611 -1.0075  1.3732
19001SOL     OW63348   0.151   2.686   6.036  0.7195  0.6215 -0.0361
19001SOL    HW163349   0.225   2.636   6.003  0.0617  0.3335 -1.1135
19001SOL    HW263350   0.168   2.695   6.129  0.7535 -1.7984  0.2546
19002SOL     OW63351   2.300   6.947   9.090 -0.0356  0.1104 -0.3485
19002SOL    HW163352   2.262   7.031   9.064 -1.7919 -0.5106  0.1114
19002SOL    HW263353   2.329   6.908   9.008 -2.5566 -0.3972 -1.0804
19003SOL     OW63354   1.337   4.067   3.847  0.6165 -0.2377 -0.0026
19003SOL    HW163355   1.377   4.059   3.760  0.1635 -0.9803 -0.1491
19003SOL    HW263356   1.351   3.982   3.887  1.6348  0.3786  1.0208
19004SOL     OW63357   1.754   2.693   6.159 -0.1069  0.3354 -0.3305
19004SOL    HW163358   1.835   2.744   6.155 -0.0642  0.3442  0.4433
19004SOL    HW263359   1.777   2.617   6.214 -0.7949  0.6732  0.4421
19005SOL     OW63360   8.060   0.143   6.521 -0.0890 -0.2184  0.4911
19005SOL    HW163361   8.009   0.139   6.440 -0.9523  0.0937  1.0180
19005SOL    HW263362   8.075   0.236   6.536  1.1326 -0.3276  0.0410
19006SOL     OW63363   5.642   6.531   5.027  0.5422  0.3749  0.8402
19006SOL    HW163364   5.674   6.441   5.037  1.3089  0.5438  0.0618
19006SOL    HW263365   5.553   6.521   4.993  1.2168 -0.1099 -0.9120
19007SOL     OW63366   1.178   6.688   3.793 -0.3031  0.2966 -0.4935
19007SOL    HW163367   1.150   6.605   3.754 -1.8148 -0.0930  1.3051
19007SOL    HW263368   1.232   6.729   3.725 -0.1393 -1.7908 -1.7169
19008SOL     OW63369   9.046   5.936   0.408 -0.3912  0.3108 -0.7741
19008SOL    HW163370   9.119   5.930   0.345 -1.0182  1.1190 -1.5919
19008SOL    HW263371   9.071   6.006   0.467  0.7705 -1.2428  0.6776
19009SOL     OW63372   1.182   2.373   5.165 -0.3498  0.1318 -0.4030
19009SOL    HW163373   1.103   2.395   5.215 -0.9035 -0.3779 -1.0298
19009SOL    HW263374   1.150   2.317   5.095  0.6865 -0.7133 -0.2184
19010SOL     OW63375   1.068   4.423   4.023 -0.1002 -0.0608 -0.1981
19010SOL    HW163376   1.110   4.491   3.971 -0.9827  1.0953  0.5544
19010SOL    HW263377   1.089   4.445   4.114  1.0759 -1.8132  0.0185
19011SOL     OW63378   0.157   4.061   4.133 -0.3481 -0.0358 -0.3460
19011SOL    HW163379   0.241   4.091   4.167 -0.1757  0.6671 -1.3312
19011SOL    HW263380   0.092   4.116   4.177 -0.3386 -0.8007  0.6619
19012SOL     OW63381   2.305   6.688   9.210  0.5986  0.2715  0.3545
19012SOL    HW163382   2.315   6.764   9.152 -0.0935 -0.6699 -1.0639
19012SOL    HW263383   2.341   6.615   9.160 -2.3632 -1.0514 -0.0542
19013SOL     OW63384   8.547   0.735   2.050  0.2316  0.1211 -0.4461
19013SOL    HW163385   8.586   0.820   2.066  0.5371 -0.1624  0.3794
19013SOL    HW263386   8.471   0.731   2.109 -0.4379  0.2470 -1.2716
19014SOL     OW63387   8.440   1.581   5.931  0.1206  0.3876 -0.2910
19014SOL    HW163388   8.481   1.534   5.858 -0.1830 -0.0727 -0.1648
19014SOL    HW263389   8.389   1.515   5.977 -0.0664  0.7776  0.0658
19015SOL     OW63390   1.103   4.769   7.608  0.3880 -0.0393  0.6989
19015SOL    HW163391   1.173   4.750   7.670  0.2303 -0.4324  0.7588
19015SOL    HW263392   1.033   4.806   7.662  0.5313  0.3141  0.6455
19016SOL     OW63393   4.446   1.252   6.863  0.4652  0.0111  0.1617
19016SOL    HW163394   4.498   1.208   6.930  0.6291 -0.1673 -0.0827
19016SOL    HW263395   4.355   1.227   6.882  0.6779 -1.7815 -0.9502
19017SOL     OW63396   7.682   6.509   2.823 -0.9069  0.3873 -0.0112
19017SOL    HW163397   7.762   6.473   2.861 -0.8311  1.8711  1.3759
19017SOL    HW263398   7.707   6.537   2.735  0.0157  0.5222  0.2845
19018SOL     OW63399   2.018   5.098   7.206 -0.4255 -0.1033  0.3676
19018SOL    HW163400   1.928   5.066   7.220  0.3132 -1.8643  1.4934
19018SOL    HW263401   2.010   5.164   7.138 -2.9667  1.8722  2.3662
19019SOL     OW63402   4.753   8.492   5.176  0.0130 -0.2798 -0.4212
19019SOL    HW163403   4.738   8.500   5.270 -2.4630 -2.3919 -0.5155
19019SOL    HW263404   4.831   8.437   5.168 -0.4763 -1.1090  0.4209
19020SOL     OW63405   8.152   8.065   7.179 -0.0616 -0.5446  0.0401
19020SOL    HW163406   8.209   8.039   7.251 -0.6086 -1.6528  0.0948
19020SOL    HW263407   8.159   7.994   7.116 -0.1566  0.0655 -0.6742
19021SOL     OW63408   3.790   5.562   0.267  0.3341 -0.3404 -0.0789
19021SOL    HW163409   3.716   5.620   0.284  0.4573 -0.4834  1.0514
19021SOL    HW263410   3.751   5.478   0.247  0.1678 -0.6659  1.4728
19022SOL     OW63411   3.109   2.132   2.587  0.4386  0.5285  0.5561
19022SOL    HW163412   3.025   2.089   2.570  0.8574 -0.8136  1.6703
19022SOL    HW263413   3.089   2.201   2.650 -0.0746  1.3339 -0.4589
19023SOL     OW63414   0.019   5.143   1.009  0.1365  0.3563 -0.0788
19023SOL    HW163415   0.085   5.195   0.963  0.6491 -0.1301  0.0926
19023SOL    HW263416   0.038   5.052   0.985  0.1658  0.1257  0.7577
19024SOL     OW63417   3.452   7.169   6.367  0.7775  0.9937  0.1284
19024SOL    HW163418   3.510   7.113   6.417  0.4592  1.6141  1.2367
19024SOL    HW263419   3.480   7.159   6.276  1.9359  0.5018  0.5271
19025SOL     OW63420   0.287   4.488   4.253 -0.6398 -0.1808 -0.3636
19025SOL    HW163421   0.357   4.426   4.274 -0.6985 -0.4006 -0.8246
19025SOL    HW263422   0.225   4.480   4.326 -0.0002  0.2920  0.2405
19026SOL     OW63423   5.262   8.475   0.746 -0.4193 -0.0416 -0.5066
19026SOL    HW163424   5.315   8.483   0.667 -0.3705  0.3195 -0.4395
19026SOL    HW263425   5.326   8.471   0.817 -0.4579 -0.5461 -0.4972
19027SOL     OW63426   2.121   0.899   5.582  0.7832 -1.2522  0.4320
19027SOL    HW163427   2.166   0.907   5.498  0.1187 -1.3944  0.0557
19027SOL    HW263428   2.115   0.989   5.614 -0.3948 -0.9905 -0.4465
19028SOL     OW63429   6.915   4.366   3.653 -0.3055 -0.0337  0.4510
19028SOL    HW163430   6.888   4.276   3.630 -1.1523  0.4359 -0.5050
19028SOL    HW263431   6.935   4.407   3.569 -0.7883  0.9320  0.7861
19029SOL     OW63432   8.253   3.905   2.392  0.0626  0.4441  0.0309
19029SOL    HW163433   8.317   3.916   2.322  0.8414  1.0317  0.8078
19029SOL    HW263434   8.207   3.824   2.370  2.1134 -0.8675  0.2281
19030SOL     OW63435   9.123   3.156   2.258  0.3474 -0.0639 -0.1282
19030SOL    HW163436   9.207   3.113   2.268  0.8320  0.8371 -0.2625
19030SOL    HW263437   9.069   3.121   2.329  0.7360 -0.8426 -0.2033
19031SOL     OW63438   2.186   5.997   5.504 -0.1971 -0.4718  0.1449
19031SOL    HW163439   2.241   5.967   5.577  1.0351 -0.9903 -0.9469
19031SOL    HW263440   2.154   5.916   5.464  0.7927 -0.2891 -1.0819
19032SOL     OW63441   5.534   6.088   8.070  0.1566  0.3608  0.3541
19032SOL    HW163442   5.506   6.106   7.980  1.1377  0.4362  0.0511
19032SOL    HW263443   5.575   6.170   8.099 -1.2688  0.7678  1.3308
19033SOL     OW63444   6.582   7.156   3.977 -0.0086  0.3677  0.6370
19033SOL    HW163445   6.550   7.074   3.941 -2.1914  0.1076  2.9769
19033SOL    HW263446   6.615   7.134   4.064 -0.6800  1.9496  1.3284
19034SOL     OW63447   6.609   4.104   6.121 -0.5564  0.0128  0.3682
19034SOL    HW163448   6.525   4.065   6.146 -0.5205  0.4095  1.1321
19034SOL    HW263449   6.665   4.029   6.100 -0.7569 -0.3149  0.9706
19035SOL     OW63450   6.985   8.290   6.110 -0.7195  0.0306 -0.1763
19035SOL    HW163451   7.026   8.299   6.024 -0.2626  0.9032  0.1164
19035SOL    HW263452   6.894   8.319   6.097 -0.8666 -0.5866 -0.5300
19036SOL     OW63453   8.979   3.177   2.489  0.1046  0.2506 -0.3808
19036SOL    HW163454   9.000   3.148   2.578 -0.5033 -0.8713 -0.5895
19036SOL    HW263455   8.900   3.128   2.466 -0.6065  1.6370 -0.9866
19037SOL     OW63456   1.048   2.531   3.741  0.0484 -0.1133  0.4474
19037SOL    HW163457   1.104   2.536   3.818  0.2123  1.7074  0.2654
19037SOL    HW263458   1.095   2.474   3.680  1.9195  1.5852  0.1893
19038SOL     OW63459   6.693   5.899   8.376  0.0702 -0.3701 -0.8350
19038SOL    HW163460   6.636   5.975   8.368 -1.1471 -1.2071 -0.3280
19038SOL    HW263461   6.769   5.921   8.322 -0.1940  1.2443 -0.6049
19039SOL     OW63462   6.662   8.824   5.255 -0.2723 -0.4728 -0.1562
19039SOL    HW163463   6.725   8.761   5.220 -0.4917 -0.5515 -0.4159
19039SOL    HW263464   6.689   8.908   5.221  1.0235 -0.1454  1.5378
19040SOL     OW63465   8.517   2.823   2.163  0.5354 -1.0608  0.2472
19040SOL    HW163466   8.608   2.834   2.134  0.3343  0.4327  0.0826
19040SOL    HW263467   8.520   2.837   2.257  0.3350  0.1068  0.0933
19041SOL     OW63468   0.957   0.215   7.221 -1.1781  0.2783  0.1695
19041SOL    HW163469   0.933   0.302   7.251 -2.9798 -0.5761  1.3512
19041SOL    HW263470   0.902   0.199   7.144 -1.1653 -0.0036  0.2167
19042SOL     OW63471   3.524   8.839   0.563 -0.1282  0.0915  0.1874
19042SOL    HW163472   3.565   8.796   0.489 -0.4950 -0.1306  0.1078
19042SOL    HW263473   3.443   8.789   0.578 -0.3619  0.5085  0.3446
19043SOL     OW63474   7.685   6.420   1.332 -0.0411 -1.2776  0.2089
19043SOL    HW163475   7.717   6.479   1.400 -0.1350 -0.4751 -0.4283
19043SOL    HW263476   7.756   6.357   1.320  0.8333 -0.2146 -0.3587
19044SOL     OW63477   3.379   2.039   6.623 -0.1857  0.2912  0.6873
19044SOL    HW163478   3.293   2.022   6.586  0.3729  1.1057 -1.0893
19044SOL    HW263479   3.361   2.085   6.705 -1.4706  2.4233 -0.6775
19045SOL     OW63480   9.216   2.135   0.858 -0.5097  0.0765 -0.2059
19045SOL    HW163481   9.167   2.070   0.807 -1.8198  0.5622  0.3656
19045SOL    HW263482   9.244   2.088   0.936  0.6536 -0.4141 -0.9021
19046SOL     OW63483   3.043   2.047   6.230  0.5814 -0.3503 -0.1262
19046SOL    HW163484   3.062   2.044   6.137 -0.1266 -2.8412 -0.2718
19046SOL    HW263485   3.128   2.041   6.273  0.9288  1.0902 -0.5722
19047SOL     OW63486   1.149   8.716   3.669 -0.2043  0.2028 -0.6271
19047SOL    HW163487   1.184   8.799   3.638 -0.1643  0.8239  0.9724
19047SOL    HW263488   1.073   8.740   3.722 -0.1384 -0.7606 -0.0687
19048SOL     OW63489   3.781   9.116   4.036 -0.2530  0.5138 -0.0102
19048SOL    HW163490   3.835   9.115   3.957  0.4660  0.6659  0.4721
19048SOL    HW263491   3.706   9.172   4.013 -0.7073 -0.4588 -0.9939
19049SOL     OW63492   3.893   2.828   2.398 -0.3405 -0.0772  1.0372
19049SOL    HW163493   3.956   2.784   2.342  0.2081  2.0028 -0.1061
19049SOL    HW263494   3.853   2.758   2.449 -1.9781 -2.4281 -2.9553
19050SOL     OW63495   8.899   7.400   5.413 -0.0053 -0.1576 -0.2805
19050SOL    HW163496   8.937   7.427   5.496  0.9344 -0.1917 -0.6802
19050SOL    HW263497   8.963   7.340   5.376  0.9152  1.8773 -2.2381
19051SOL     OW63498   4.006   2.313   1.055 -0.5542  0.0333 -0.0969
19051SOL    HW163499   4.077   2.254   1.033  0.5058  1.2817 -0.1460
19051SOL    HW263500   3.993   2.301   1.149  1.0881  1.1924  0.3184
19052SOL     OW63501   3.245   4.162   6.036  0.0236 -0.0135  0.3393
19052SOL    HW163502   3.209   4.077   6.061 -0.5336 -1.0542 -3.3702
19052SOL    HW263503   3.175   4.204   5.986  0.9805  1.7917  0.4323
19053SOL     OW63504   8.493   0.237   5.473  0.3262  0.6754 -0.2946
19053SOL    HW163505   8.461   0.298   5.539 -1.3470 -0.1487 -0.2770
19053SOL    HW263506   8.420   0.177   5.458  1.3814 -0.4139 -1.3997
19054SOL     OW63507   3.054   3.970   0.998 -0.1959 -0.1604 -0.6065
19054SOL    HW163508   3.116   3.928   1.057 -1.2617 -0.0838  0.5983
19054SOL    HW263509   3.109   4.020   0.938  0.9043  0.8141  1.1266
19055SOL     OW63510   1.298   3.191   7.594 -0.3108  0.1093  0.2974
19055SOL    HW163511   1.340   3.262   7.642 -2.7918  1.0130  1.3510
19055SOL    HW263512   1.239   3.151   7.658 -1.3563 -0.7674 -1.1433
19056SOL     OW63513   4.585   3.678   0.475  0.0762  0.0299 -0.8369
19056SOL    HW163514   4.587   3.762   0.429 -0.6854  0.8762  0.6225
19056SOL    HW263515   4.572   3.701   0.567 -0.2010 -1.6949 -0.4133
19057SOL     OW63516   7.746   7.409   0.716  0.2294 -0.0651  0.1516
19057SOL    HW163517   7.723   7.502   0.722  2.0570  0.4815 -0.6207
19057SOL    HW263518   7.719   7.372   0.801  0.3761  1.3863  0.8575
19058SOL     OW63519   7.202   6.468   8.244  0.1420  0.7041  0.1723
19058SOL    HW163520   7.145   6.517   8.303  0.1975  0.5424  0.3622
19058SOL    HW263521   7.239   6.534   8.186 -3.1887  0.4981 -2.5340
19059SOL     OW63522   4.558   3.309   8.938 -0.4422  0.3096  0.0847
19059SOL    HW163523   4.528   3.278   9.024 -0.8209 -0.9403 -0.4764
19059SOL    HW263524   4.506   3.260   8.875  1.1922 -0.2708 -0.8933
19060SOL     OW63525   3.665   5.570   8.398  0.6252 -0.2994  0.0396
19060SOL    HW163526   3.714   5.488   8.386  0.2490 -0.3323 -1.3907
19060SOL    HW263527   3.661   5.581   8.493 -0.5721 -2.7099  0.3442
19061SOL     OW63528   0.803   1.808   0.437 -0.3460  0.0076  0.3734
19061SOL    HW163529   0.710   1.804   0.457 -0.1737 -0.7180  1.0923
19061SOL    HW263530   0.831   1.717   0.433  0.3074  0.2162  0.0202
19062SOL     OW63531   0.497   3.130   7.758 -0.1847  0.2748  0.6467
19062SOL    HW163532   0.421   3.172   7.800 -0.2743  0.4332  0.3314
19062SOL    HW263533   0.458   3.076   7.689 -0.0384  0.0132  0.7700
19063SOL     OW63534   6.537   6.271   3.239  0.2337  0.1282  0.2120
19063SOL    HW163535   6.553   6.212   3.166 -0.5963 -2.1451  1.7654
19063SOL    HW263536   6.462   6.324   3.212 -1.1387 -1.8451  0.0166
19064SOL     OW63537   4.149   2.627   7.259 -0.2232 -0.1505 -0.2198
19064SOL    HW163538   4.069   2.600   7.214  0.1194  0.0448 -0.9593
19064SOL    HW263539   4.213   2.639   7.189  0.4041 -0.1200  0.3487
19065SOL     OW63540   4.227   8.295   0.452 -0.2546 -0.3968 -0.2228
19065SOL    HW163541   4.138   8.297   0.486 -0.4309  0.2810 -0.6843
19065SOL    HW263542   4.248   8.388   0.436  0.2668 -0.6021 -0.7787
19066SOL     OW63543   5.412   3.245   5.531 -0.0378 -0.1724  0.0254
19066SOL    HW163544   5.498   3.245   5.489 -0.5854 -1.7583 -1.2439
19066SOL    HW263545   5.424   3.293   5.612  1.9476 -0.0129 -0.3167
19067SOL     OW63546   0.940   7.355   4.326  0.2770  0.0302 -0.3185
19067SOL    HW163547   0.936   7.423   4.259 -0.7455 -0.3642 -0.6817
19067SOL    HW263548   1.025   7.314   4.314  0.4785  0.5657 -0.7758
19068SOL     OW63549   6.633   3.117   7.846  0.0226 -0.1151  0.1813
19068SOL    HW163550   6.633   3.207   7.811 -2.1514 -0.2512 -0.3431
19068SOL    HW263551   6.721   3.084   7.828  0.0709  1.0277 -2.0360
19069SOL     OW63552   8.770   5.919   4.632  0.5061 -0.2783 -0.2536
19069SOL    HW163553   8.709   5.986   4.662  1.2595  1.1236 -1.7149
19069SOL    HW263554   8.793   5.870   4.711 -2.3271 -0.7644  0.3979
19070SOL     OW63555   2.816   2.831   9.163 -0.4198  0.1462  0.1932
19070SOL    HW163556   2.776   2.744   9.158 -0.2981  0.0710  0.5153
19070SOL    HW263557   2.908   2.814   9.184 -0.0705  0.2887 -1.1372
19071SOL     OW63558   3.727   5.154   6.593 -0.4164 -0.0334  0.4131
19071SOL    HW163559   3.650   5.192   6.550 -0.7539 -0.8839  0.2586
19071SOL    HW263560   3.772   5.106   6.524  0.4329  0.7192  0.4304
19072SOL     OW63561   4.258   4.288   8.793  0.4200 -0.6472  0.2509
19072SOL    HW163562   4.353   4.276   8.794  0.3162 -1.7158 -0.8117
19072SOL    HW263563   4.235   4.308   8.884  1.7306  0.2827  0.4002
19073SOL     OW63564   7.823   8.946   6.606 -0.0406  0.3451  0.8342
19073SOL    HW163565   7.858   9.001   6.677 -0.3338 -1.5614  2.5671
19073SOL    HW263566   7.729   8.960   6.610 -0.0012  0.7967  0.2965
19074SOL     OW63567   4.416   5.124   8.873 -0.0237 -0.2554  0.4219
19074SOL    HW163568   4.392   5.185   8.803 -1.0303 -1.1103 -0.0080
19074SOL    HW263569   4.436   5.180   8.948 -0.0904  0.6293 -0.2072
19075SOL     OW63570   6.897   4.135   5.869 -0.1032  0.2258  0.6326
19075SOL    HW163571   6.952   4.058   5.852  0.9602  0.7722  1.4709
19075SOL    HW263572   6.933   4.173   5.949 -2.1858  0.1885  1.6593
19076SOL     OW63573   1.434   6.615   9.059  0.4300  0.2836  0.1382
19076SOL    HW163574   1.428   6.527   9.023  0.3123 -0.3342  1.6087
19076SOL    HW263575   1.376   6.668   9.004 -0.0098 -0.6809 -0.3437
19077SOL     OW63576   4.549   8.759   7.307 -0.6365 -0.2694  0.1810
19077SOL    HW163577   4.617   8.760   7.240 -1.7467 -0.7414 -0.9810
19077SOL    HW263578   4.597   8.744   7.389  0.7837  0.7127 -0.4184
19078SOL     OW63579   7.837   3.993   2.731 -0.1496  0.2526  0.2431
19078SOL    HW163580   7.747   3.964   2.748 -0.1769 -1.7278 -2.5146
19078SOL    HW263581   7.891   3.915   2.742  0.6500  0.4519 -1.7044
19079SOL     OW63582   3.314   6.815   4.391 -0.4505  0.0834 -0.9553
19079SOL    HW163583   3.277   6.857   4.469 -0.3212  1.0358 -1.3902
19079SOL    HW263584   3.395   6.864   4.374  0.0055 -0.7164 -1.1540
19080SOL     OW63585   9.170   1.903   7.724 -0.1835 -0.5125  0.1715
19080SOL    HW163586   9.155   1.993   7.755 -0.3273 -0.9209  1.3348
19080SOL    HW263587   9.087   1.878   7.683  0.1743  0.2147 -1.0397
19081SOL     OW63588   0.225   9.228   7.095 -0.0614  0.4857  0.2274
19081SOL    HW163589   0.242   9.180   7.176  1.7146 -1.3387 -1.1162
19081SOL    HW263590   0.134   9.208   7.074 -0.3068  0.3519  1.3532
19082SOL     OW63591   4.289   2.630   0.028  0.2015 -0.0414  0.0350
19082SOL    HW163592   4.241   2.550   0.050 -0.6820  0.5259  0.2208
19082SOL    HW263593   4.370   2.624   0.079  0.1020 -0.7700  0.1231
19083SOL     OW63594   9.120   3.213   4.179 -0.0301  0.3405  0.8219
19083SOL    HW163595   9.101   3.121   4.200  0.1008  0.7931  3.1394
19083SOL    HW263596   9.130   3.213   4.084  0.2123 -2.0971  0.7614
19084SOL     OW63597   0.270   9.236   4.749 -0.4412 -0.1216 -0.0632
19084SOL    HW163598   0.269   9.144   4.774  1.7688 -0.2386 -0.2417
19084SOL    HW263599   0.251   9.283   4.831 -1.6276 -0.6890  0.0155
19085SOL     OW63600   1.683   1.552   6.511  0.3022 -0.2250 -0.5595
19085SOL    HW163601   1.693   1.647   6.505  1.3270 -0.1854  1.2600
19085SOL    HW263602   1.599   1.535   6.467  0.0103  1.5258 -0.7770
19086SOL     OW63603   2.613   0.228   6.844  0.0741 -0.0238 -0.0253
19086SOL    HW163604   2.636   0.180   6.764  1.4019  0.4376  0.0571
19086SOL    HW263605   2.560   0.302   6.814  0.6650  0.2112 -0.4849
19087SOL     OW63606   5.449   7.794   4.652 -0.2911  0.0507  0.8958
19087SOL    HW163607   5.461   7.825   4.562 -0.7300 -1.1563  0.3895
19087SOL    HW263608   5.464   7.871   4.706 -1.1062  1.0672 -0.2660
19088SOL     OW63609   4.952   3.549   7.205  0.3454  0.1210 -0.2039
19088SOL    HW163610   4.859   3.561   7.186  0.1905 -1.7537 -0.8732
19088SOL    HW263611   4.968   3.602   7.283 -1.1288  0.9493 -0.4308
19089SOL     OW63612   0.666   1.614   0.991  0.0061 -0.4627 -0.2414
19089SOL    HW163613   0.640   1.635   1.080  0.5916  1.9094 -0.5607
19089SOL    HW263614   0.760   1.630   0.988 -0.3941  2.2242 -1.8952
19090SOL     OW63615   0.578   1.566   3.938 -0.0151 -0.0777 -0.2109
19090SOL    HW163616   0.574   1.509   4.015  1.7893 -0.3567 -0.2930
19090SOL    HW263617   0.540   1.515   3.867  1.0246 -0.9754 -0.1431
19091SOL     OW63618   2.079   0.124   1.946  0.1031 -0.1397 -0.3956
19091SOL    HW163619   2.103   0.034   1.924 -0.5581 -0.9051  1.6945
19091SOL    HW263620   1.994   0.116   1.989  0.8873  1.1914  1.5698
19092SOL     OW63621   4.025   0.853   4.359  0.3565 -0.1376  0.7498
19092SOL    HW163622   3.989   0.857   4.271 -2.1192  3.7559  1.7135
19092SOL    HW263623   4.094   0.920   4.360  1.4706 -1.2397  1.4308
19093SOL     OW63624   1.641   2.771   0.441 -0.2249 -0.2427  0.5279
19093SOL    HW163625   1.667   2.777   0.349 -0.5584 -0.6612  0.4050
19093SOL    HW263626   1.580   2.697   0.445 -0.3055 -0.1564  1.0641
19094SOL     OW63627   8.914   4.766   4.228 -0.5194  0.8680  0.0073
19094SOL    HW163628   8.913   4.817   4.146 -1.1557 -0.0572 -0.5803
19094SOL    HW263629   8.827   4.725   4.232  0.3908 -1.2246 -0.2450
19095SOL     OW63630   4.237   2.904   8.312  0.0724  0.2379  0.1139
19095SOL    HW163631   4.169   2.884   8.377  0.6338 -0.4074  0.5199
19095SOL    HW263632   4.318   2.867   8.350  0.2295 -1.1077 -1.4325
19096SOL     OW63633   7.774   2.449   6.150 -0.0688 -0.0563  0.0007
19096SOL    HW163634   7.744   2.378   6.094 -0.9267  0.5509 -0.3348
19096SOL    HW263635   7.862   2.423   6.177  0.6547 -0.0594 -2.1748
19097SOL     OW63636   6.739   5.192   6.988 -0.4196  0.0856 -0.2477
19097SOL    HW163637   6.720   5.099   6.975  0.4754 -0.1507  0.0385
19097SOL    HW263638   6.758   5.199   7.082  2.0252  0.0565 -0.6833
19098SOL     OW63639   0.270   7.477   5.654 -0.3425  0.6913 -0.1398
19098SOL    HW163640   0.314   7.561   5.672  2.9336 -0.5617 -1.4872
19098SOL    HW263641   0.257   7.438   5.741 -0.1910  1.8019  0.4035
19099SOL     OW63642   3.553   7.335   4.437 -0.5185  0.0019  0.2128
19099SOL    HW163643   3.543   7.310   4.345  1.6132  1.5873 -0.5297
19099SOL    HW263644   3.512   7.421   4.443  2.9742  1.9036 -0.4393
19100SOL     OW63645   0.174   6.263   3.488 -0.1789 -0.5680 -0.3061
19100SOL    HW163646   0.225   6.336   3.524 -1.3820  0.9772 -1.5872
19100SOL    HW263647   0.204   6.256   3.397 -0.8409 -0.9305 -0.5024
19101SOL     OW63648   5.934   5.634   3.691 -0.0938 -0.3413  0.2213
19101SOL    HW163649   6.015   5.624   3.641  0.2222  0.0604  0.6522
19101SOL    HW263650   5.947   5.580   3.769 -0.2021 -0.1977  0.3387
19102SOL     OW63651   6.163   6.413   0.921  0.3287 -0.4106  0.4620
19102SOL    HW163652   6.088   6.358   0.895 -0.6710  0.7685  0.7570
19102SOL    HW263653   6.139   6.448   1.007  2.0646 -1.4784  1.4277
19103SOL     OW63654   1.021   1.256   8.003 -1.0269  0.9986  0.1749
19103SOL    HW163655   1.017   1.349   8.025 -0.1998  0.6391  2.0632
19103SOL    HW263656   1.113   1.241   7.981 -1.1021  0.5708  0.1518
19104SOL     OW63657   0.271   8.548   7.907 -0.1648  0.8157 -0.1044
19104SOL    HW163658   0.323   8.618   7.945  0.9988 -0.1724  0.1798
19104SOL    HW263659   0.186   8.554   7.951 -0.7242  3.1186 -1.3240
19105SOL     OW63660   8.863   3.907   0.599 -0.3886  0.0300 -0.2060
19105SOL    HW163661   8.834   3.912   0.508  0.8234 -0.2699 -0.6174
19105SOL    HW263662   8.934   3.971   0.605 -0.3718 -0.0529  0.4931
19106SOL     OW63663   5.102   3.056   8.222  0.2731 -0.3515 -0.1288
19106SOL    HW163664   5.072   3.146   8.206  2.7228  0.2698 -1.8047
19106SOL    HW263665   5.091   3.044   8.316  0.3995  1.9141  0.2376
19107SOL     OW63666   5.616   8.031   7.122  0.0865  0.1858 -0.0490
19107SOL    HW163667   5.685   8.071   7.174 -0.0517  0.3271  0.0244
19107SOL    HW263668   5.655   8.018   7.036  0.1664  0.3737 -0.0412
19108SOL     OW63669   8.474   0.700   8.381 -0.0379 -0.0251  0.1146
19108SOL    HW163670   8.558   0.700   8.335 -1.2689  0.1211 -2.3312
19108SOL    HW263671   8.495   0.674   8.471  2.6163  0.2389 -0.3605
19109SOL     OW63672   2.025   7.538   4.275  0.6406 -0.0334  0.0409
19109SOL    HW163673   2.026   7.471   4.207  0.8893 -0.5888  0.5840
19109SOL    HW263674   2.046   7.491   4.355  0.7249  0.6807  0.4435
19110SOL     OW63675   4.639   1.805   3.056 -0.1369 -0.1467 -0.3359
19110SOL    HW163676   4.615   1.821   2.965  0.8936 -0.7754 -0.7356
19110SOL    HW263677   4.556   1.804   3.103 -0.6912  0.0582 -1.2861
19111SOL     OW63678   7.265   3.331   6.222  0.4604  0.2723  0.3649
19111SOL    HW163679   7.170   3.339   6.223  0.5972  3.0018  0.3802
19111SOL    HW263680   7.284   3.256   6.278 -1.7019 -1.4072 -0.9838
19112SOL     OW63681   0.477   0.529   0.136  0.6920  0.2993 -0.4648
19112SOL    HW163682   0.524   0.478   0.069  1.2614  1.1516 -0.7289
19112SOL    HW263683   0.488   0.478   0.216 -3.1700 -2.7877 -1.5561
19113SOL     OW63684   5.379   3.653   5.530 -0.1390 -0.0601 -0.5054
19113SOL    HW163685   5.300   3.599   5.530  0.9220 -1.7154 -0.2793
19113SOL    HW263686   5.432   3.618   5.602  1.1418  0.4210 -1.1722
19114SOL     OW63687   4.686   1.106   8.021 -0.1546 -0.1857  0.2148
19114SOL    HW163688   4.745   1.111   8.096  0.5099  0.4332 -0.3378
19114SOL    HW263689   4.614   1.050   8.051  0.2663 -0.2225  1.1937
19115SOL     OW63690   2.447   1.669   7.078  0.1737  0.1263 -0.0416
19115SOL    HW163691   2.360   1.704   7.061  0.4552 -0.1931 -2.4674
19115SOL    HW263692   2.493   1.740   7.124 -0.1976  1.8559 -2.1783
19116SOL     OW63693   8.881   1.332   4.003  0.2032 -0.3498  0.2918
19116SOL    HW163694   8.963   1.285   3.987  0.9071  0.9221  0.0157
19116SOL    HW263695   8.817   1.289   3.947  1.2577  0.2154 -1.4152
19117SOL     OW63696   0.367   1.817   2.406 -0.4818  0.2290 -0.3124
19117SOL    HW163697   0.292   1.837   2.462 -0.7404  2.1455 -1.2604
19117SOL    HW263698   0.342   1.737   2.361 -1.5813  0.3380  0.0663
19118SOL     OW63699   4.837   8.944   3.678  0.1998 -0.2044 -0.0940
19118SOL    HW163700   4.892   9.012   3.718 -0.3208  0.5493 -0.6294
19118SOL    HW263701   4.900   8.881   3.641  0.6840 -0.3556  0.9586
19119SOL     OW63702   2.210   7.199   3.406 -0.0265  0.0680  0.3376
19119SOL    HW163703   2.299   7.220   3.379 -0.3196  1.8930  0.6284
19119SOL    HW263704   2.218   7.170   3.497  0.2560  0.3611  0.4056
19120SOL     OW63705   4.472   7.209   7.904  0.3137  0.1238 -0.0137
19120SOL    HW163706   4.508   7.173   7.985 -3.0404  0.5294  1.8425
19120SOL    HW263707   4.533   7.277   7.878  0.7651  1.0480  3.1089
19121SOL     OW63708   8.998   2.224   5.092  0.9681 -0.0029 -0.1596
19121SOL    HW163709   9.034   2.258   5.010 -0.8653 -2.5882 -2.1988
19121SOL    HW263710   8.987   2.301   5.147  0.0305  2.2582 -3.2300
19122SOL     OW63711   3.011   6.516   8.059 -0.3011 -0.4845  0.0077
19122SOL    HW163712   2.953   6.441   8.074 -0.9112  0.3741  2.3336
19122SOL    HW263713   2.951   6.588   8.037  0.2560 -0.5513 -1.8917
19123SOL     OW63714   3.795   6.486   4.964  0.0209 -0.2940  0.5692
19123SOL    HW163715   3.798   6.408   5.018 -1.2439 -0.7602  0.0122
19123SOL    HW263716   3.714   6.530   4.990 -0.1294 -0.0484 -0.2745
19124SOL     OW63717   6.041   0.868   0.713  0.1645 -0.3028 -0.0990
19124SOL    HW163718   6.028   0.898   0.623  0.9182  2.3208  0.5612
19124SOL    HW263719   6.076   0.945   0.758  1.1640 -1.9499  2.1169
19125SOL     OW63720   3.622   4.170   7.734 -0.0982 -0.0064  0.4523
19125SOL    HW163721   3.673   4.150   7.655  2.0439  3.1729  0.8696
19125SOL    HW263722   3.557   4.234   7.705 -0.3631 -0.0124  1.0096
19126SOL     OW63723   1.617   8.945   4.452 -0.0814 -0.7043  0.4880
19126SOL    HW163724   1.602   8.876   4.388 -0.1260  0.0149 -0.3025
19126SOL    HW263725   1.547   9.009   4.434 -0.0549 -0.4673  1.2151
19127SOL     OW63726   3.792   3.375   0.650 -0.2566  0.4218  0.1107
19127SOL    HW163727   3.845   3.357   0.727  0.1852  0.2843 -0.2195
19127SOL    HW263728   3.845   3.435   0.598 -0.8772  1.1218  0.2697
19128SOL     OW63729   8.040   4.791   8.036 -0.3091 -0.2508  0.1164
19128SOL    HW163730   7.955   4.835   8.026  0.1222  1.2002  2.1762
19128SOL    HW263731   8.017   4.702   8.064 -1.1832 -1.4013 -3.6661
19129SOL     OW63732   5.284   0.220   4.907 -0.1756  0.6283 -0.0607
19129SOL    HW163733   5.268   0.298   4.960 -2.8161 -0.5174  1.0212
19129SOL    HW263734   5.266   0.248   4.817 -1.1860  1.2569  0.3249
19130SOL     OW63735   5.434   4.281   8.004  0.0025 -0.1963  0.1326
19130SOL    HW163736   5.386   4.278   7.921  0.4695  0.5149 -0.1788
19130SOL    HW263737   5.474   4.368   8.004  0.9628 -0.6281  0.5603
19131SOL     OW63738   4.515   2.590   8.788 -0.0430  0.0714 -0.2372
19131SOL    HW163739   4.471   2.557   8.867 -0.2715  0.1002 -0.3504
19131SOL    HW263740   4.452   2.573   8.717 -0.1485  0.7172 -0.3032
19132SOL     OW63741   6.382   8.829   8.482 -0.3689 -0.3663  0.5580
19132SOL    HW163742   6.398   8.918   8.450  3.9475 -0.1059  2.7262
19132SOL    HW263743   6.424   8.772   8.417 -2.0949 -0.8431 -0.2094
19133SOL     OW63744   1.668   0.647   2.959  0.2503 -0.4357 -0.2687
19133SOL    HW163745   1.626   0.562   2.964 -0.5750  0.0166  0.8220
19133SOL    HW263746   1.614   0.697   2.898  0.9616 -0.7997 -1.2194
19134SOL     OW63747   9.146   2.589   6.765  0.1906  0.0933  0.0678
19134SOL    HW163748   9.227   2.639   6.755  1.0523 -0.2791  3.7430
19134SOL    HW263749   9.076   2.654   6.763  1.1518  1.3748  2.9529
19135SOL     OW63750   1.395   2.201   7.932  0.0942  0.2355 -0.2310
19135SOL    HW163751   1.405   2.221   7.839 -0.4967  0.1678 -0.3080
19135SOL    HW263752   1.330   2.131   7.936 -1.2244  1.4504  0.3392
19136SOL     OW63753   9.171   3.685   2.241  0.5454 -0.1175  0.3449
19136SOL    HW163754   9.128   3.635   2.311  1.4686 -2.8023 -0.8770
19136SOL    HW263755   9.117   3.669   2.164 -0.1177  2.3203  0.2098
19137SOL     OW63756   9.202   5.670   4.622  0.3740 -0.5741 -0.1014
19137SOL    HW163757   9.257   5.729   4.674 -1.8010  0.4025  1.2482
19137SOL    HW263758   9.224   5.691   4.531  0.8511  1.1744  0.3719
19138SOL     OW63759   4.505   0.433   1.177 -0.1337  0.0519  0.5796
19138SOL    HW163760   4.461   0.389   1.249 -0.9382 -1.9651 -1.0331
19138SOL    HW263761   4.445   0.503   1.151 -0.5347 -0.1659  0.9114
19139SOL     OW63762   6.213   1.805   0.831  0.6644 -0.8374 -0.0012
19139SOL    HW163763   6.257   1.789   0.747  0.8335  4.3758 -1.2425
19139SOL    HW263764   6.122   1.780   0.816  1.0110 -1.4822 -1.1769
19140SOL     OW63765   6.130   4.922   8.251  0.7205  0.5039 -0.0907
19140SOL    HW163766   6.216   4.886   8.228  1.0127  1.1195  0.0064
19140SOL    HW263767   6.131   4.926   8.346  0.9420  1.3531 -0.1226
19141SOL     OW63768   7.342   8.733   9.190 -0.1542 -0.0225 -0.2420
19141SOL    HW163769   7.408   8.779   9.138 -0.6073  0.2447 -0.5772
19141SOL    HW263770   7.375   8.738   9.280  1.2678 -1.5512 -0.6237
19142SOL     OW63771   7.552   2.514   9.063 -0.0416  0.5070 -0.1127
19142SOL    HW163772   7.594   2.456   9.127 -1.2567 -0.9551 -0.5808
19142SOL    HW263773   7.469   2.538   9.104 -1.6767 -1.8867 -1.7439
19143SOL     OW63774   2.270   2.351   5.084 -0.8701  0.7720 -0.0625
19143SOL    HW163775   2.240   2.442   5.084 -1.3528  0.6362 -1.2965
19143SOL    HW263776   2.192   2.300   5.060 -0.3507  0.1481 -0.4751
19144SOL     OW63777   4.387   3.451   4.673  0.3026  0.4355  0.6096
19144SOL    HW163778   4.299   3.413   4.666  0.6936 -0.2369 -2.0502
19144SOL    HW263779   4.440   3.382   4.713  0.1098 -0.1995 -0.1842
19145SOL     OW63780   4.097   8.216   6.913  0.0436 -0.1992 -0.2341
19145SOL    HW163781   4.014   8.173   6.934  0.2938 -0.9319 -0.6896
19145SOL    HW263782   4.163   8.146   6.921  0.6152  0.3660  0.0945
19146SOL     OW63783   3.118   4.307   4.994  0.7829  0.3293  0.2073
19146SOL    HW163784   3.125   4.233   4.935  0.4112 -0.2251  0.8372
19146SOL    HW263785   3.173   4.283   5.069 -0.7260 -0.1318  1.2195
19147SOL     OW63786   2.708   6.872   4.681  0.3293  0.0778 -0.0088
19147SOL    HW163787   2.695   6.863   4.587 -0.4376 -0.3135  0.1291
19147SOL    HW263788   2.778   6.937   4.690  1.1816 -0.7082 -0.8712
19148SOL     OW63789   8.084   1.239   7.135 -0.0045  0.5670 -0.5772
19148SOL    HW163790   8.010   1.296   7.114  0.0641  0.5429 -0.8964
19148SOL    HW263791   8.161   1.286   7.103  0.1534  0.7353  0.0382
19149SOL     OW63792   8.709   1.814   9.016 -0.4547  0.3153  0.4348
19149SOL    HW163793   8.624   1.772   8.998 -0.6881  0.0444  2.0152
19149SOL    HW263794   8.772   1.742   9.011 -0.3107  0.5066 -0.6857
19150SOL     OW63795   1.941   3.639   7.096  0.2459  0.0361  0.0553
19150SOL    HW163796   1.953   3.578   7.169 -0.9540 -0.5091 -0.1688
19150SOL    HW263797   2.029   3.665   7.071  0.8856 -2.4391 -0.5291
19151SOL     OW63798   2.597   6.385   8.392 -0.0083 -0.1789 -0.4340
19151SOL    HW163799   2.590   6.300   8.437 -0.8684  0.0262 -0.1557
19151SOL    HW263800   2.656   6.436   8.448 -1.1287  0.0991  0.5573
19152SOL     OW63801   9.011   2.541   5.631  0.1105  0.3727  0.1000
19152SOL    HW163802   9.078   2.522   5.566  0.9238 -0.7303  1.2152
19152SOL    HW263803   9.059   2.552   5.713 -1.0982 -1.0275  1.0367
19153SOL     OW63804   4.177   7.797   1.357 -0.0773 -0.3348 -0.3436
19153SOL    HW163805   4.151   7.883   1.325  1.3213  0.0189 -0.6116
19153SOL    HW263806   4.193   7.810   1.451 -0.6955 -0.5252 -0.2031
19154SOL     OW63807   9.202   2.505   5.432 -0.1089  0.3731 -0.3442
19154SOL    HW163808   9.278   2.448   5.440 -0.1694  0.3983  0.5539
19154SOL    HW263809   9.139   2.454   5.381 -0.7447 -1.0545  1.7042
19155SOL     OW63810   0.441   8.192   2.015 -0.2129 -0.0705 -0.1572
19155SOL    HW163811   0.532   8.182   2.042  0.3295 -0.3232 -1.9659
19155SOL    HW263812   0.390   8.163   2.090  1.1497  1.4285  1.4223
19156SOL     OW63813   8.691   1.263   0.637  0.1973 -0.7519  0.5347
19156SOL    HW163814   8.642   1.251   0.556  0.0335 -0.9306  0.6587
19156SOL    HW263815   8.727   1.176   0.656  0.6332 -0.5993  0.3971
19157SOL     OW63816   4.430   6.017   0.505 -0.1276 -0.1742 -0.4964
19157SOL    HW163817   4.389   6.103   0.493  1.3968  0.7147  0.3855
19157SOL    HW263818   4.415   5.997   0.597  2.7574  0.9667  0.3232
19158SOL     OW63819   4.120   5.030   7.977  0.3927 -0.2723 -0.2210
19158SOL    HW163820   4.169   5.089   7.921  1.2944  1.8394  2.6007
19158SOL    HW263821   4.171   5.025   8.058 -1.3065 -2.3917  0.8234
19159SOL     OW63822   1.512   2.659   3.754 -0.2743 -0.8292 -0.1161
19159SOL    HW163823   1.511   2.568   3.783  1.9146 -0.0645  2.9719
19159SOL    HW263824   1.568   2.659   3.677  0.4768 -2.0039  0.4000
19160SOL     OW63825   8.597   6.082   5.904  0.1201  0.1134  0.5609
19160SOL    HW163826   8.635   6.165   5.934  0.1891 -0.2833  1.5961
19160SOL    HW263827   8.511   6.078   5.946  0.3338 -0.5875  0.9451
19161SOL     OW63828   2.276   5.622   2.158 -0.2025  0.3102  0.3108
19161SOL    HW163829   2.261   5.602   2.250  0.1579 -1.3311  0.0476
19161SOL    HW263830   2.227   5.703   2.143 -0.2549  0.6211  1.9281
19162SOL     OW63831   8.042   4.254   4.242  0.1162 -0.4549 -1.1231
19162SOL    HW163832   7.993   4.172   4.244 -2.4868  0.9690 -0.5222
19162SOL    HW263833   7.993   4.310   4.181 -0.0311  1.6120  0.7469
19163SOL     OW63834   1.532   4.923   3.210 -0.1484 -0.3263  0.0933
19163SOL    HW163835   1.504   4.893   3.297 -0.5440  1.7670  0.7468
19163SOL    HW263836   1.451   4.928   3.159 -0.1898  0.2115  0.2000
19164SOL     OW63837   3.098   5.546   5.231  0.3349 -0.2007  0.5493
19164SOL    HW163838   3.058   5.605   5.294  0.1967 -1.3726  1.5915
19164SOL    HW263839   3.173   5.594   5.196 -1.2733  1.5943 -0.5971
19165SOL     OW63840   0.415   8.299   0.372 -0.2771  0.0061 -0.3309
19165SOL    HW163841   0.345   8.363   0.376  0.0331  0.2909  1.1933
19165SOL    HW263842   0.455   8.312   0.286 -1.1778  0.8035 -0.6389
19166SOL     OW63843   7.441   8.198   7.837  0.1292  0.2537  0.2076
19166SOL    HW163844   7.530   8.170   7.858 -0.3924 -1.3668  0.3756
19166SOL    HW263845   7.426   8.166   7.748  0.0836  1.4999 -0.2539
19167SOL     OW63846   1.894   3.240   0.739 -0.4361 -0.2492  0.3075
19167SOL    HW163847   1.972   3.186   0.750 -1.4848 -1.8232  0.2924
19167SOL    HW263848   1.893   3.297   0.816 -0.0252 -1.1974  1.0309
19168SOL     OW63849   2.999   3.886   4.230 -0.1066  0.2548 -0.2021
19168SOL    HW163850   3.089   3.920   4.224 -0.3972  1.1344  0.2135
19168SOL    HW263851   2.982   3.848   4.144  1.0751 -0.9981  0.0824
19169SOL     OW63852   1.951   3.243   3.412 -0.0027  0.3313 -0.2416
19169SOL    HW163853   1.925   3.151   3.420  0.2897  0.1398 -1.2941
19169SOL    HW263854   1.968   3.271   3.501  0.6538 -0.8653  0.0344
19170SOL     OW63855   7.872   2.426   4.793 -0.2773  0.1028  0.1517
19170SOL    HW163856   7.891   2.377   4.873  0.5371  1.2881  0.7053
19170SOL    HW263857   7.898   2.367   4.723  0.0522 -0.5258  0.7833
19171SOL     OW63858   2.680   6.863   7.178  0.0101  0.3843  0.0913
19171SOL    HW163859   2.592   6.834   7.156  0.7793 -1.4431 -0.8332
19171SOL    HW263860   2.697   6.823   7.264  1.2270 -2.5725 -1.3680
19172SOL     OW63861   1.334   0.976   5.988  0.2104 -0.0030  0.0296
19172SOL    HW163862   1.282   0.917   6.042 -1.8654  1.4533 -0.2827
19172SOL    HW263863   1.421   0.936   5.987 -0.6742 -2.1338  1.1915
19173SOL     OW63864   7.784   1.560   4.743  0.0059  0.1400  0.1390
19173SOL    HW163865   7.743   1.474   4.751 -2.5058  1.1884 -0.4227
19173SOL    HW263866   7.844   1.564   4.818  0.0175 -1.9822  0.3143
19174SOL     OW63867   5.302   7.926   5.693 -0.1522 -0.1010 -0.1109
19174SOL    HW163868   5.390   7.914   5.657 -0.3750 -0.7059 -0.4537
19174SOL    HW263869   5.263   7.994   5.638 -0.2496 -0.5395 -0.5871
19175SOL     OW63870   4.243   6.809   6.275 -0.0229 -0.6187 -0.2748
19175SOL    HW163871   4.244   6.771   6.362 -2.9218  1.9692  1.1108
19175SOL    HW263872   4.328   6.852   6.266  0.5355 -1.4113  1.0106
19176SOL     OW63873   2.907   5.062   0.764 -0.2747 -0.2076 -0.4235
19176SOL    HW163874   2.894   5.078   0.858  0.7982  1.0227 -0.4459
19176SOL    HW263875   3.000   5.039   0.756 -0.3478 -0.2683 -1.1837
19177SOL     OW63876   7.072   0.595   6.336 -0.4098  0.1832  0.1405
19177SOL    HW163877   7.120   0.591   6.253 -0.6601  1.6127 -0.1021
19177SOL    HW263878   7.094   0.681   6.372 -1.8218  0.3804  0.5985
19178SOL     OW63879   6.134   5.509   7.566 -0.0793 -0.1584 -0.2878
19178SOL    HW163880   6.144   5.426   7.518  0.5851 -0.3235  0.1180
19178SOL    HW263881   6.143   5.484   7.658 -1.0555  0.1992 -0.0846
19179SOL     OW63882   5.040   6.894   6.891 -0.2336 -0.2140 -0.0357
19179SOL    HW163883   4.991   6.953   6.834 -0.4587  0.6165  0.9907
19179SOL    HW263884   5.087   6.835   6.831  0.1944  1.1653 -1.0938
19180SOL     OW63885   1.906   4.519   8.147  0.1502  0.9405  0.3506
19180SOL    HW163886   1.924   4.465   8.224  0.9917  0.3467 -0.2480
19180SOL    HW263887   1.811   4.529   8.146  0.0016 -0.3190  0.6050
19181SOL     OW63888   2.964   8.172   1.604  0.1506  0.0875  0.2445
19181SOL    HW163889   2.990   8.239   1.541  0.3849  0.0173  0.2638
19181SOL    HW263890   2.922   8.104   1.551  0.0716  0.1681  0.2037
19182SOL     OW63891   0.384   0.939   6.632  0.2034  0.3725  0.2118
19182SOL    HW163892   0.429   0.978   6.706 -2.0931  0.1451  1.8238
19182SOL    HW263893   0.365   0.849   6.659  0.2557 -0.0507 -1.0767
19183SOL     OW63894   7.369   0.971   6.352 -0.2763 -0.0969  0.1658
19183SOL    HW163895   7.387   0.942   6.262 -0.2142 -1.7468  0.6699
19183SOL    HW263896   7.292   1.027   6.345 -0.5087 -0.5344 -0.8702
19184SOL     OW63897   6.052   0.658   8.667  0.1623  0.1841 -0.0202
19184SOL    HW163898   6.052   0.696   8.755  1.6215 -0.2119  0.1674
19184SOL    HW263899   6.144   0.638   8.649 -0.2899 -1.1431 -1.0253
19185SOL     OW63900   2.902   1.977   1.507 -0.2172 -0.0780  0.5328
19185SOL    HW163901   2.985   2.005   1.545 -0.4351 -0.7418  1.5432
19185SOL    HW263902   2.892   2.030   1.428  0.4241  1.0937  1.2156
19186SOL     OW63903   2.264   4.549   2.420  0.2218  0.1123  0.0629
19186SOL    HW163904   2.335   4.563   2.483 -0.7103  0.5050  1.0570
19186SOL    HW263905   2.199   4.616   2.442 -0.9221 -0.9047 -0.1444
19187SOL     OW63906   0.928   6.753   3.040  0.5462  0.6130 -0.3113
19187SOL    HW163907   0.970   6.799   3.113  0.6159  2.4323 -1.4205
19187SOL    HW263908   0.912   6.822   2.974 -0.1253 -0.8303 -1.7379
19188SOL     OW63909   3.565   3.360   3.528 -0.0336 -0.3239 -0.4173
19188SOL    HW163910   3.510   3.292   3.488 -0.2671 -0.3489 -0.0673
19188SOL    HW263911   3.632   3.312   3.576  0.5572 -0.2868 -1.1993
19189SOL     OW63912   0.800   3.757   5.464 -0.2305 -0.2370  0.2719
19189SOL    HW163913   0.831   3.716   5.544 -0.9658 -1.3099  0.0417
19189SOL    HW263914   0.711   3.723   5.453 -0.9260  1.5538  0.1216
19190SOL     OW63915   1.949   8.201   7.969 -0.4212 -0.4037  0.1370
19190SOL    HW163916   1.868   8.224   8.014 -0.5837 -2.8764  1.2935
19190SOL    HW263917   2.018   8.240   8.023 -0.7698  0.8189 -0.2674
19191SOL     OW63918   5.949   1.219   7.373 -0.3344 -0.4739 -0.8371
19191SOL    HW163919   5.889   1.195   7.303 -0.1775  1.0418 -1.5315
19191SOL    HW263920   6.033   1.231   7.330  0.2492 -1.5325 -0.0399
19192SOL     OW63921   4.033   5.078   5.166  0.1937 -0.5244  0.6828
19192SOL    HW163922   4.100   5.057   5.231  0.3995  0.1920  0.7164
19192SOL    HW263923   3.954   5.098   5.218  0.2394 -0.3783  0.6984
19193SOL     OW63924   6.437   8.090   8.184 -0.2490 -0.1657 -0.1681
19193SOL    HW163925   6.413   8.028   8.254  0.1663 -0.8983 -0.6564
19193SOL    HW263926   6.532   8.094   8.187 -0.2873  0.8106  0.1390
19194SOL     OW63927   1.106   9.182   6.896  0.5519  0.6652 -0.0531
19194SOL    HW163928   1.013   9.207   6.900  0.7900  1.3957  1.4676
19194SOL    HW263929   1.147   9.232   6.966  1.7917 -0.9362  0.4050
19195SOL     OW63930   6.156   9.064   8.069 -0.4150 -0.0817  0.2369
19195SOL    HW163931   6.095   9.136   8.056 -0.8513 -0.7467 -1.7537
19195SOL    HW263932   6.121   9.016   8.144 -0.6265  1.2159  0.9971
19196SOL     OW63933   4.101   1.740   2.411 -0.0197  0.0745 -0.2913
19196SOL    HW163934   4.096   1.644   2.410  0.8727  0.0194 -0.3299
19196SOL    HW263935   4.093   1.763   2.503  2.3619 -0.2295  0.0655
19197SOL     OW63936   4.204   2.403   5.115  0.1750  0.1908  0.0483
19197SOL    HW163937   4.149   2.371   5.187  2.4714 -1.1898  1.3166
19197SOL    HW263938   4.145   2.410   5.041 -1.9581  0.0672  1.6480
19198SOL     OW63939   8.209   0.333   7.770 -0.2830  0.2906 -0.5022
19198SOL    HW163940   8.223   0.243   7.800  1.4903  0.7141  0.0579
19198SOL    HW263941   8.273   0.344   7.699 -0.0975  1.2775 -0.1944
19199SOL     OW63942   1.649   2.184   5.510  0.5382  0.2483 -0.1500
19199SOL    HW163943   1.590   2.222   5.445 -0.4561 -1.1333 -0.1064
19199SOL    HW263944   1.603   2.106   5.542  0.9756  0.9048  2.2762
19200SOL     OW63945   8.636   8.954   4.835  0.2691 -0.1760  0.4510
19200SOL    HW163946   8.604   9.024   4.892  2.7236  0.1372  1.5712
19200SOL    HW263947   8.721   8.984   4.805 -0.5002 -0.7879 -2.6924
19201SOL     OW63948   3.650   0.870   3.749 -0.5720  0.2924  0.3550
19201SOL    HW163949   3.679   0.906   3.833 -0.3152 -1.3146  1.0121
19201SOL    HW263950   3.558   0.896   3.742 -0.2875  1.3878  0.5886
19202SOL     OW63951   1.895   3.734   8.301  0.6174  0.0772 -0.3029
19202SOL    HW163952   1.826   3.711   8.238  1.3356 -0.3116 -0.9565
19202SOL    HW263953   1.874   3.824   8.327  0.0713  0.0943 -0.7724
19203SOL     OW63954   6.978   9.003   7.976  0.4276 -0.3421 -0.3427
19203SOL    HW163955   6.951   9.032   8.063 -1.0065  0.3467 -0.9696
19203SOL    HW263956   7.044   9.068   7.949 -2.8666  2.7757 -1.8005
19204SOL     OW63957   7.716   5.489   5.818  0.0641  0.6413 -0.1960
19204SOL    HW163958   7.705   5.470   5.725  2.4305  0.2778 -0.4769
19204SOL    HW263959   7.775   5.564   5.821 -1.0081  1.4955  1.0372
19205SOL     OW63960   7.752   1.938   7.471  0.1800 -0.1907  0.6152
19205SOL    HW163961   7.791   1.907   7.389 -0.1123  0.0179  0.3979
19205SOL    HW263962   7.736   2.031   7.456 -0.2004 -0.2305  0.7857
19206SOL     OW63963   1.206   2.995   4.311 -0.3183 -0.0342 -0.3994
19206SOL    HW163964   1.215   3.031   4.223  0.7472 -0.1743 -0.3633
19206SOL    HW263965   1.230   2.903   4.301  1.6422  0.3565  0.3496
19207SOL     OW63966   2.913   4.844   2.000  0.4389  0.1290  0.2158
19207SOL    HW163967   2.994   4.854   2.050  0.3946  0.6592  0.1866
19207SOL    HW263968   2.913   4.752   1.973  1.0126  0.1149  0.2458
19208SOL     OW63969   5.605   8.329   6.112  0.1310 -0.5764 -0.0160
19208SOL    HW163970   5.645   8.289   6.189  1.6007 -1.4476 -1.1819
19208SOL    HW263971   5.521   8.363   6.143  0.6916 -0.9119  1.9472
19209SOL     OW63972   5.064   8.353   3.596  0.3281  0.3341 -0.0428
19209SOL    HW163973   5.091   8.411   3.524  2.8861 -0.0944  0.4953
19209SOL    HW263974   5.062   8.410   3.673  1.7080 -0.0085  0.2718
19210SOL     OW63975   1.777   4.575   7.279 -0.0406 -0.7455  0.7464
19210SOL    HW163976   1.813   4.500   7.232 -0.0871 -1.4948  1.8793
19210SOL    HW263977   1.729   4.537   7.352  1.0420  0.4187  2.1169
19211SOL     OW63978   1.001   8.984   4.205  0.4892 -0.1350  0.1746
19211SOL    HW163979   1.033   9.008   4.118  1.7438 -0.0047  0.6506
19211SOL    HW263980   0.960   9.063   4.238  0.3342 -0.0754 -0.1563
19212SOL     OW63981   4.397   3.182   6.695 -0.8426  0.0144  0.0509
19212SOL    HW163982   4.344   3.141   6.627 -0.8981  0.5879 -0.2649
19212SOL    HW263983   4.353   3.266   6.712 -1.6651 -0.7230  1.8360
19213SOL     OW63984   0.934   6.405   8.917  0.1686 -0.3184  0.1757
19213SOL    HW163985   0.865   6.431   8.856  1.1834 -0.1652 -0.9486
19213SOL    HW263986   1.014   6.407   8.864  1.0451 -0.3948  1.4706
19214SOL     OW63987   2.196   5.058   2.918 -0.2377 -0.8727  0.5105
19214SOL    HW163988   2.137   5.118   2.964 -1.3467 -0.6642 -1.0961
19214SOL    HW263989   2.137   4.996   2.875  0.6423 -0.3810 -1.5345
19215SOL     OW63990   4.014   4.218   8.445  0.2739  0.0796 -0.3233
19215SOL    HW163991   4.059   4.283   8.391 -1.4925  1.3528 -0.3364
19215SOL    HW263992   3.943   4.186   8.389  0.1371 -0.6698  0.2648
19216SOL     OW63993   7.871   4.462   3.195  0.2749 -0.1258  0.3084
19216SOL    HW163994   7.792   4.509   3.223  0.7647  1.0888 -0.2665
19216SOL    HW263995   7.921   4.451   3.276 -0.8887 -1.7928  0.8604
19217SOL     OW63996   3.130   5.722   5.588  0.1380  0.2187 -0.3521
19217SOL    HW163997   3.036   5.735   5.601  0.3044 -0.2962  1.7143
19217SOL    HW263998   3.159   5.802   5.543 -1.3482  0.1630 -1.4660
19218SOL     OW63999   5.289   0.953   4.155  0.0964  0.0267 -0.1570
19218SOL    HW164000   5.217   0.973   4.215 -0.8682 -0.5145 -1.0999
19218SOL    HW264001   5.332   1.037   4.140 -0.4988  0.4005  0.2128
19219SOL     OW64002   3.225   0.520   4.436 -0.2661 -0.2388 -0.6051
19219SOL    HW164003   3.160   0.587   4.418  0.3117  0.4823 -0.0438
19219SOL    HW264004   3.270   0.508   4.352 -0.3459  0.1001 -0.6978
19220SOL     OW64005   1.254   0.533   0.370 -0.0610  0.0929 -0.3508
19220SOL    HW164006   1.270   0.617   0.412  1.8200 -0.3061 -0.1795
19220SOL    HW264007   1.320   0.527   0.301  1.7942 -2.4271  1.4650
19221SOL     OW64008   8.075   7.266   3.617  0.3241 -0.0110  0.7346
19221SOL    HW164009   8.149   7.325   3.603  0.2786 -0.4302 -1.5754
19221SOL    HW264010   8.029   7.265   3.534 -1.1412 -1.3352  1.5153
19222SOL     OW64011   4.254   6.464   1.170 -0.2721 -0.2093  0.3982
19222SOL    HW164012   4.198   6.426   1.238 -0.2488 -0.5854  0.2135
19222SOL    HW264013   4.251   6.558   1.185 -2.3306 -0.0534 -0.6350
19223SOL     OW64014   8.455   2.928   6.014 -0.4537  0.0587 -0.0052
19223SOL    HW164015   8.417   2.906   6.099 -0.0329  0.8324  0.3947
19223SOL    HW264016   8.523   2.993   6.034  0.7625 -0.9525 -0.7582
19224SOL     OW64017   4.413   9.163   0.883  0.3491 -0.0247  0.5012
19224SOL    HW164018   4.348   9.171   0.813 -2.0236 -1.3957  2.3998
19224SOL    HW264019   4.416   9.250   0.923 -1.1576 -0.1810  1.0246
19225SOL     OW64020   7.265   6.066   5.374 -0.4597  0.1039 -0.0016
19225SOL    HW164021   7.179   6.099   5.401  0.1620  1.6473  0.2077
19225SOL    HW264022   7.326   6.106   5.436  0.5494  0.2375 -1.0541
19226SOL     OW64023   4.362   5.464   9.200 -0.0441 -0.2159 -0.1036
19226SOL    HW164024   4.370   5.468   9.105  1.0005 -0.2829 -0.0285
19226SOL    HW264025   4.339   5.554   9.226  0.6712  0.0397 -0.3382
19227SOL     OW64026   9.155   5.921   2.614 -0.2881 -0.1423  0.1000
19227SOL    HW164027   9.226   5.864   2.644 -0.2244 -1.2765 -1.9899
19227SOL    HW264028   9.184   6.009   2.637  1.3831 -0.6617  0.1171
19228SOL     OW64029   6.883   7.084   8.939 -0.1515 -0.0294 -0.1703
19228SOL    HW164030   6.913   7.010   8.886  0.8261 -1.6725  2.4758
19228SOL    HW264031   6.951   7.150   8.928  1.9948 -1.7547  1.7302
19229SOL     OW64032   9.002   9.154   5.909 -0.9662  0.0441 -0.6478
19229SOL    HW164033   9.020   9.247   5.923 -1.2510 -0.0488  0.4242
19229SOL    HW264034   9.005   9.116   5.996 -2.5631 -0.6373 -0.8609
19230SOL     OW64035   5.286   4.530   1.548  0.3531 -0.4919  0.5069
19230SOL    HW164036   5.220   4.477   1.593  0.3874 -0.2204  0.8861
19230SOL    HW264037   5.368   4.510   1.593  0.5626 -0.9544 -0.0701
19231SOL     OW64038   6.924   0.016   0.708 -0.0523 -0.2159 -0.0557
19231SOL    HW164039   6.830   0.021   0.727 -0.2477 -0.1051 -1.0177
19231SOL    HW264040   6.928  -0.003   0.615  0.8885 -0.1471 -0.0301
19232SOL     OW64041   7.949   8.563   5.416 -0.3740 -0.4176  0.4533
19232SOL    HW164042   7.973   8.593   5.328  1.1360  0.0767  0.9943
19232SOL    HW264043   7.886   8.493   5.401 -2.2281  1.4064 -0.9294
19233SOL     OW64044   8.888   5.016   1.726 -0.0608  0.3141 -0.6397
19233SOL    HW164045   8.938   4.976   1.655 -0.2414 -0.5232 -0.3111
19233SOL    HW264046   8.939   4.997   1.805 -0.4099  0.2933 -0.4165
19234SOL     OW64047   8.443   1.242   2.036 -0.3812  0.9086  0.1423
19234SOL    HW164048   8.403   1.321   2.000  0.8561  1.1763 -0.6936
19234SOL    HW264049   8.502   1.210   1.967 -1.1792 -1.0147  0.2737
19235SOL     OW64050   4.662   5.747   8.740  0.0516  0.0801  0.2845
19235SOL    HW164051   4.655   5.803   8.818 -0.2937  0.0118  0.3059
19235SOL    HW264052   4.735   5.784   8.691 -1.2504  1.6639 -0.5843
19236SOL     OW64053   8.524   3.172   3.897 -0.0073 -0.8046  0.5796
19236SOL    HW164054   8.523   3.083   3.930  0.4884 -0.4635  1.5646
19236SOL    HW264055   8.549   3.225   3.973 -2.4503  0.4236  0.6291
19237SOL     OW64056   8.148   1.560   8.878  0.2842  0.2567  0.0734
19237SOL    HW164057   8.125   1.506   8.953  1.8262  1.3327  1.4000
19237SOL    HW264058   8.142   1.502   8.803 -2.0210 -0.6711  0.8924
19238SOL     OW64059   1.921   6.710   0.786  0.5035 -0.5314  0.2443
19238SOL    HW164060   1.968   6.635   0.822  1.3914 -0.8671 -1.5127
19238SOL    HW264061   1.876   6.676   0.709 -0.8909  0.2812  0.6658
19239SOL     OW64062   1.458   0.611   4.916  0.3060  0.3221  0.2870
19239SOL    HW164063   1.423   0.613   4.827  0.2540 -1.9237  0.1905
19239SOL    HW264064   1.385   0.635   4.972  0.1409  1.0464 -0.2312
19240SOL     OW64065   5.863   8.897   6.882  0.0884 -0.0418 -0.2925
19240SOL    HW164066   5.914   8.884   6.802  0.6993 -0.3405  0.1385
19240SOL    HW264067   5.799   8.826   6.882  2.2832 -2.1571  1.1749
19241SOL     OW64068   8.848   2.662   2.832  0.4423  0.4081  0.3328
19241SOL    HW164069   8.822   2.752   2.811  0.3499  0.1399 -0.7866
19241SOL    HW264070   8.782   2.633   2.895 -1.1299  0.2691 -1.2837
19242SOL     OW64071   6.071   7.481   4.643  0.5259  0.0770  0.0864
19242SOL    HW164072   6.098   7.391   4.623  0.5242  0.2401 -0.6772
19242SOL    HW264073   6.068   7.524   4.558  3.2530  1.5776  0.6250
19243SOL     OW64074   3.314   3.398   8.423  0.2204  0.0277  0.2034
19243SOL    HW164075   3.230   3.443   8.413 -0.2424 -0.9451 -0.4025
19243SOL    HW264076   3.341   3.377   8.334  0.2991 -1.0924  0.4760
19244SOL     OW64077   2.660   0.518   4.694 -0.2967 -0.4429 -0.1497
19244SOL    HW164078   2.644   0.494   4.603  0.9199 -0.6153 -0.3409
19244SOL    HW264079   2.587   0.479   4.743 -1.1828 -0.0035 -1.0848
19245SOL     OW64080   6.138   9.011   4.936 -0.1013 -0.5494 -0.4610
19245SOL    HW164081   6.160   9.041   4.847 -0.6003 -1.0566 -0.7577
19245SOL    HW264082   6.044   9.027   4.944  0.3334  1.8374  0.8916
19246SOL     OW64083   6.298   4.941   6.758 -0.2937  0.0294  0.1456
19246SOL    HW164084   6.263   4.857   6.790 -0.7153  0.2066  0.1569
19246SOL    HW264085   6.375   4.957   6.813 -0.5348 -0.0797  0.5234
19247SOL     OW64086   6.571   2.967   0.852 -0.3794  0.2543  0.5586
19247SOL    HW164087   6.485   2.966   0.808  0.3313 -1.8102 -0.9551
19247SOL    HW264088   6.631   3.000   0.785  0.1220  1.1546  1.4279
19248SOL     OW64089   1.116   2.039   2.511  0.2502 -0.1066 -0.0800
19248SOL    HW164090   1.025   2.023   2.536  0.1629  0.3638 -0.0735
19248SOL    HW264091   1.114   2.127   2.471  0.6201 -0.2861 -0.4999
19249SOL     OW64092   8.257   0.943   7.138  0.0883 -0.6849 -0.3366
19249SOL    HW164093   8.293   0.865   7.095 -0.8194 -1.5628  0.4507
19249SOL    HW264094   8.171   0.915   7.171 -0.1829  0.6032  0.1078
19250SOL     OW64095   4.741   9.016   2.373 -0.4138 -0.5181 -0.6307
19250SOL    HW164096   4.794   9.034   2.295  1.4090  0.4941  0.7572
19250SOL    HW264097   4.754   9.092   2.429 -3.2770 -0.3057 -0.1037
19251SOL     OW64098   1.894   5.334   8.895  0.0288  0.3156  0.1946
19251SOL    HW164099   1.870   5.269   8.829  0.9299 -0.6614  0.8061
19251SOL    HW264100   1.896   5.286   8.977 -1.1680  1.5395  0.9826
19252SOL     OW64101   8.793   2.821   3.780 -0.0772  0.7774  0.4350
19252SOL    HW164102   8.701   2.798   3.794 -0.3232  1.9098  0.7752
19252SOL    HW264103   8.833   2.815   3.867  0.4733 -0.8760  0.1079
19253SOL     OW64104   7.151   1.182   5.739 -0.1027 -0.0988 -0.4884
19253SOL    HW164105   7.167   1.276   5.749 -0.7429 -0.1430  1.4325
19253SOL    HW264106   7.178   1.144   5.823  0.2843 -1.6690 -1.2777
19254SOL     OW64107   2.282   3.571   4.070  0.3658 -0.2834 -0.2921
19254SOL    HW164108   2.369   3.532   4.075  1.1036  1.4016  1.2777
19254SOL    HW264109   2.294   3.648   4.013 -0.1968 -0.2631 -0.3910
19255SOL     OW64110   7.475   1.808   6.491  0.1252  0.1014 -0.4512
19255SOL    HW164111   7.559   1.822   6.448 -0.0069  1.4076 -0.3519
19255SOL    HW264112   7.483   1.854   6.575 -1.3062  2.0347 -1.2774
19256SOL     OW64113   3.606   0.255   3.160  0.1450 -0.6107  0.1950
19256SOL    HW164114   3.671   0.316   3.195 -0.9517  0.6760  0.1122
19256SOL    HW264115   3.646   0.169   3.169  1.5906  0.0764  0.7111
19257SOL     OW64116   1.079   8.455   7.558  0.2495 -0.7283  0.4592
19257SOL    HW164117   0.989   8.449   7.524  0.4521  1.8343 -0.7235
19257SOL    HW264118   1.133   8.418   7.488  0.2760 -0.3771  0.2959
19258SOL     OW64119   2.349   4.227   5.537 -0.5917  0.3685  0.0328
19258SOL    HW164120   2.390   4.312   5.521 -0.0792  0.0649 -0.3062
19258SOL    HW264121   2.285   4.217   5.466 -0.5861  0.4332  0.0184
19259SOL     OW64122   3.265   3.487   7.245 -0.1911 -0.1307 -0.0196
19259SOL    HW164123   3.245   3.396   7.268 -0.3526 -0.9713 -3.1002
19259SOL    HW264124   3.345   3.507   7.294  1.0004 -2.6345 -0.7920
19260SOL     OW64125   3.559   7.484   2.393  0.3971 -0.5755  0.1433
19260SOL    HW164126   3.520   7.493   2.480 -0.4105  0.0101 -0.2708
19260SOL    HW264127   3.632   7.546   2.392  1.1929 -1.4511  0.8083
19261SOL     OW64128   1.146   6.670   4.468  0.1026 -0.1438 -0.3279
19261SOL    HW164129   1.068   6.725   4.463 -0.4959 -1.0129 -0.9387
19261SOL    HW264130   1.120   6.589   4.424  1.7457 -0.0020 -1.6204
19262SOL     OW64131   1.115   7.030   5.882 -0.0021 -0.7522 -0.3232
19262SOL    HW164132   1.100   6.935   5.879  0.4042 -0.8662  0.7708
19262SOL    HW264133   1.210   7.040   5.880 -0.0586 -0.3268 -1.1463
19263SOL     OW64134   0.559   1.812   2.168  0.2465 -0.2054 -0.2995
19263SOL    HW164135   0.648   1.827   2.199 -0.5648  1.9615  1.2552
19263SOL    HW264136   0.508   1.797   2.248 -1.4109  2.5011 -0.7183
19264SOL     OW64137   1.507   4.054   0.253  0.5556  0.2426 -0.4881
19264SOL    HW164138   1.573   4.040   0.321  0.2584 -0.6451 -0.3650
19264SOL    HW264139   1.465   4.137   0.276  0.7252  0.1431  0.1862
19265SOL     OW64140   6.168   3.495   1.562  0.1193 -0.1649  0.0486
19265SOL    HW164141   6.167   3.590   1.551  0.9001 -0.0759  0.6698
19265SOL    HW264142   6.201   3.462   1.478  0.8899  0.1743  0.2162
19266SOL     OW64143   1.825   6.240   1.190 -0.4764 -0.1792 -0.2693
19266SOL    HW164144   1.783   6.251   1.275  0.4714  1.2718  0.0300
19266SOL    HW264145   1.817   6.325   1.148  0.1605 -0.5339 -1.1349
19267SOL     OW64146   6.215   2.260   3.463  0.1546  0.2718 -0.6357
19267SOL    HW164147   6.234   2.354   3.467  1.4996 -0.0124  0.0371
19267SOL    HW264148   6.300   2.218   3.454 -0.4060 -0.9080 -0.6240
19268SOL     OW64149   2.281   2.282   7.459 -0.0756  0.2778 -0.6197
19268SOL    HW164150   2.286   2.187   7.452 -1.5857  0.0805  0.5479
19268SOL    HW264151   2.372   2.311   7.457  0.5667 -1.3898  1.4162
19269SOL     OW64152   8.624   1.836   4.845 -0.6599  0.3126  0.0902
19269SOL    HW164153   8.573   1.843   4.926 -0.5501 -1.2814  0.3272
19269SOL    HW264154   8.642   1.743   4.836  2.5286  0.8077  0.2046
19270SOL     OW64155   2.252   2.163   3.066  0.3241  0.0710  0.7704
19270SOL    HW164156   2.266   2.208   2.983 -0.7123  1.5644  1.3550
19270SOL    HW264157   2.184   2.098   3.047 -0.4644  0.9233  0.5959
19271SOL     OW64158   5.537   5.205   1.928 -0.4070 -0.1880 -0.0096
19271SOL    HW164159   5.578   5.259   1.861  2.8181 -0.9423  1.1665
19271SOL    HW264160   5.499   5.268   1.990  0.2617  0.6385 -0.4231
19272SOL     OW64161   4.937   7.537   5.516 -0.3820  0.0390  0.3533
19272SOL    HW164162   4.946   7.513   5.609 -0.0384 -1.3976 -0.0222
19272SOL    HW264163   5.016   7.587   5.496  0.1416 -0.7002  0.5405
19273SOL     OW64164   4.427   6.234   4.515  0.2747 -0.0442 -0.2013
19273SOL    HW164165   4.519   6.208   4.517  0.2209 -0.2284  0.3888
19273SOL    HW264166   4.403   6.242   4.608 -0.5900 -1.0622 -0.3113
19274SOL     OW64167   1.417   0.129   7.132  0.3960  0.8410  0.2857
19274SOL    HW164168   1.350   0.197   7.133  2.4274  2.9605 -0.0386
19274SOL    HW264169   1.469   0.146   7.053  1.1023 -0.9861  0.2841
19275SOL     OW64170   5.642   0.005   7.761 -0.1101 -0.2986 -0.3601
19275SOL    HW164171   5.654   0.025   7.668  0.5193  1.4594  0.0485
19275SOL    HW264172   5.564  -0.049   7.764 -0.1382 -0.4014 -1.9200
19276SOL     OW64173   8.830   1.973   3.698 -0.3944 -0.5109 -0.2244
19276SOL    HW164174   8.911   2.004   3.659 -0.2648  0.0349  0.4595
19276SOL    HW264175   8.761   2.008   3.642 -0.1562 -1.7696 -1.3663
19277SOL     OW64176   2.886   2.348   5.112 -0.5648  0.4121 -0.0325
19277SOL    HW164177   2.837   2.286   5.166  1.0375 -0.0438  0.9667
19277SOL    HW264178   2.919   2.413   5.174  1.2850 -0.1008 -0.4096
19278SOL     OW64179   2.807   8.525   7.578 -0.2022 -0.1709  0.1996
19278SOL    HW164180   2.755   8.447   7.591  0.9295 -0.8759  0.6877
19278SOL    HW264181   2.863   8.505   7.502 -0.1469  0.2938  0.1107
19279SOL     OW64182   0.615   1.218   5.306 -0.0822  0.3372  0.2441
19279SOL    HW164183   0.577   1.286   5.361  0.0896  0.4146  0.2661
19279SOL    HW264184   0.559   1.142   5.321 -0.7350  0.6862 -0.3626
19280SOL     OW64185   0.880   5.191   7.712  0.8649 -0.0893 -0.2666
19280SOL    HW164186   0.943   5.239   7.767  1.2002 -0.4570 -0.3277
19280SOL    HW264187   0.908   5.100   7.717  1.0101 -0.1017 -1.1943
19281SOL     OW64188   4.564   7.602   7.593 -0.1175  0.6478  0.4072
19281SOL    HW164189   4.492   7.541   7.575  0.2438  0.5985 -0.9912
19281SOL    HW264190   4.570   7.655   7.513  0.6731  1.3884  0.9511
19282SOL     OW64191   5.828   9.057   7.867  0.5794  0.0096  0.4118
19282SOL    HW164192   5.763   9.115   7.828 -0.8903 -0.2866  2.3027
19282SOL    HW264193   5.847   9.094   7.953  0.7854 -1.4329  1.0262
19283SOL     OW64194   3.772   6.281   5.186 -0.1964 -1.0971 -0.0912
19283SOL    HW164195   3.828   6.267   5.261  1.3804  0.1558 -0.9686
19283SOL    HW264196   3.720   6.358   5.208  1.2759  0.1447 -0.7768
19284SOL     OW64197   8.264   5.253   0.530 -0.4826  0.4497 -0.1253
19284SOL    HW164198   8.342   5.295   0.566 -1.0541  1.2328  0.2338
19284SOL    HW264199   8.234   5.194   0.598  0.4741 -0.7975 -0.7308
19285SOL     OW64200   2.093   5.103   6.913  0.5763 -0.3954  0.3163
19285SOL    HW164201   2.166   5.059   6.956  2.5835  0.3295 -2.1615
19285SOL    HW264202   2.130   5.142   6.834 -2.3507  0.6443 -0.7003
19286SOL     OW64203   6.316   0.338   2.868  0.3086 -0.0261  0.1290
19286SOL    HW164204   6.334   0.244   2.875  2.2321  0.1959 -1.0920
19286SOL    HW264205   6.351   0.363   2.782  1.1442  2.0858  1.0330
19287SOL     OW64206   5.624   0.100   6.173  0.0441 -0.1972  0.8006
19287SOL    HW164207   5.546   0.120   6.225  0.3434  1.0126  0.8063
19287SOL    HW264208   5.680   0.177   6.183  1.2409 -1.0426  0.7864
19288SOL     OW64209   4.809   5.042   2.550 -0.5336 -0.3524 -0.3131
19288SOL    HW164210   4.765   5.061   2.632 -0.1798  0.1452 -0.2378
19288SOL    HW264211   4.902   5.045   2.571 -0.4350  0.0074 -0.7839
19289SOL     OW64212   2.198   3.308   7.470 -0.2375 -0.4435 -0.2123
19289SOL    HW164213   2.196   3.250   7.394  0.5529 -1.8952  0.8287
19289SOL    HW264214   2.275   3.364   7.456 -0.1700 -0.6202 -0.5392
19290SOL     OW64215   5.978   1.201   2.254 -0.3751  0.0822 -0.0115
19290SOL    HW164216   6.011   1.113   2.238  2.2256  1.2410 -1.6712
19290SOL    HW264217   5.906   1.211   2.192 -0.4925 -0.7794 -0.0202
19291SOL     OW64218   4.570   4.143   8.459 -0.0307  0.4895  0.3491
19291SOL    HW164219   4.552   4.201   8.385  1.0303 -0.3499 -0.5881
19291SOL    HW264220   4.543   4.056   8.428 -0.4803  0.2758  1.3098
19292SOL     OW64221   1.162   4.512   4.249 -0.0443 -0.1780 -0.0678
19292SOL    HW164222   1.240   4.502   4.303 -0.0678  0.6724  0.1425
19292SOL    HW264223   1.121   4.592   4.280  1.4310  1.9745 -3.1048
19293SOL     OW64224   2.556   8.206   4.870  0.1559 -0.2700 -0.2049
19293SOL    HW164225   2.492   8.194   4.800 -1.0637  1.8695  0.4406
19293SOL    HW264226   2.612   8.277   4.840 -0.5924  0.9022  1.0863
19294SOL     OW64227   4.814   5.768   6.597  0.1513 -0.3916 -0.4740
19294SOL    HW164228   4.857   5.709   6.659  0.3835 -0.1799 -0.4318
19294SOL    HW264229   4.858   5.752   6.514  2.2580  1.7792  0.1093
19295SOL     OW64230   6.181   3.893   0.742  0.3157 -0.5412 -0.0591
19295SOL    HW164231   6.201   3.926   0.830 -2.2637  0.0498  0.4027
19295SOL    HW264232   6.248   3.828   0.725  1.3151 -0.1603  2.0547
19296SOL     OW64233   5.674   2.107   7.977 -0.0346 -0.4663  0.4796
19296SOL    HW164234   5.647   2.197   7.992  2.2518  0.0593  1.9089
19296SOL    HW264235   5.607   2.054   8.022 -0.6550  0.5706  0.8041
19297SOL     OW64236   8.814   5.431   7.203  0.3918 -0.5312 -0.4848
19297SOL    HW164237   8.905   5.405   7.216 -0.0797 -2.0803 -0.1518
19297SOL    HW264238   8.795   5.487   7.279  0.3613 -2.2257  0.8225
19298SOL     OW64239   4.138   8.032   2.046 -0.3439  0.6230  0.3169
19298SOL    HW164240   4.215   8.063   2.094 -0.3958  0.8744  0.2446
19298SOL    HW264241   4.070   8.096   2.067 -0.5482  0.3677  0.4268
19299SOL     OW64242   8.248   8.264   8.999 -0.3712  0.1762  0.2953
19299SOL    HW164243   8.316   8.328   8.977  1.1681 -1.3661  0.3563
19299SOL    HW264244   8.192   8.261   8.922  2.0334 -1.4596 -1.5416
19300SOL     OW64245   3.259   3.713   2.643 -0.1666  0.1046 -0.0630
19300SOL    HW164246   3.347   3.702   2.679 -0.7070 -0.9136  0.9982
19300SOL    HW264247   3.238   3.805   2.659  0.3284  0.1207  0.5380
19301SOL     OW64248   7.226   7.854   4.031 -0.2235 -0.3758  0.1496
19301SOL    HW164249   7.242   7.902   3.950  1.4519 -1.6924 -0.3822
19301SOL    HW264250   7.299   7.878   4.088 -1.0374  0.0383  1.0431
19302SOL     OW64251   8.210   5.872   1.386 -0.1696 -0.4368 -0.2274
19302SOL    HW164252   8.266   5.833   1.319  1.0769  0.4243  0.2764
19302SOL    HW264253   8.270   5.923   1.441 -1.3083 -0.2893  0.9328
19303SOL     OW64254   3.942   4.500   8.829 -0.1452  0.1741  0.9828
19303SOL    HW164255   3.867   4.551   8.860  0.6005  0.8629  1.6573
19303SOL    HW264256   3.956   4.530   8.739 -0.6918  0.0161  0.8395
19304SOL     OW64257   6.996   2.223   4.254 -0.0715 -0.2532 -0.7372
19304SOL    HW164258   6.911   2.181   4.246  0.9706 -2.4717 -1.1881
19304SOL    HW264259   6.977   2.313   4.279 -2.5464 -0.5010 -1.4744
19305SOL     OW64260   7.623   4.095   6.221  0.1745  0.2075  0.0167
19305SOL    HW164261   7.595   4.017   6.174  1.1123 -0.0315 -0.1514
19305SOL    HW264262   7.654   4.063   6.306  0.1051  0.4491  0.1366
19306SOL     OW64263   7.408   9.166   7.320 -0.0122  0.4804  0.4394
19306SOL    HW164264   7.398   9.081   7.276 -0.2937 -0.7836  2.7776
19306SOL    HW264265   7.492   9.200   7.288 -0.1861 -0.3442 -1.0046
19307SOL     OW64266   7.565   8.950   6.656 -1.0696 -0.2308  0.2196
19307SOL    HW164267   7.594   8.910   6.738 -1.2677 -3.5148 -1.1568
19307SOL    HW264268   7.476   8.979   6.674 -1.6518 -2.2246  0.8599
19308SOL     OW64269   5.611   0.602   5.064 -0.4627  0.1815 -0.1395
19308SOL    HW164270   5.593   0.518   5.022 -1.6252 -0.3518  1.3456
19308SOL    HW264271   5.682   0.583   5.125 -1.5233 -0.0355  1.0591
19309SOL     OW64272   0.757   4.598   8.161  0.1683  0.0993  0.6174
19309SOL    HW164273   0.707   4.651   8.100  0.7825  0.3145  0.2949
19309SOL    HW264274   0.693   4.536   8.197 -0.0757 -0.4700 -0.7308
19310SOL     OW64275   8.377   7.240   4.043 -0.5153 -0.5755  0.7366
19310SOL    HW164276   8.412   7.154   4.021 -1.1738 -1.0873  1.6488
19310SOL    HW264277   8.402   7.295   3.969 -0.3195 -1.6073  0.0150
19311SOL     OW64278   3.742   7.325   3.901 -0.3323  0.0747 -0.1344
19311SOL    HW164279   3.787   7.242   3.888  0.3989  0.3762  0.3997
19311SOL    HW264280   3.670   7.304   3.961  0.4908  0.0236  0.8514
19312SOL     OW64281   3.756   8.665   8.221  0.0222  0.3225  0.0843
19312SOL    HW164282   3.661   8.656   8.232 -0.0008  2.0515  1.9391
19312SOL    HW264283   3.788   8.680   8.310  2.1001 -0.5117 -0.4712
19313SOL     OW64284   4.977   1.620   2.246 -0.1130  0.3176  0.1303
19313SOL    HW164285   4.941   1.622   2.157  0.7380 -0.6981 -0.2521
19313SOL    HW264286   4.907   1.582   2.299  0.1522 -1.1163 -0.5055
19314SOL     OW64287   1.919   2.904   8.104  0.7130 -0.2541 -0.3277
19314SOL    HW164288   1.929   2.832   8.041 -3.9504 -1.2538 -0.3160
19314SOL    HW264289   1.906   2.861   8.188 -2.2646  0.3939 -0.3362
19315SOL     OW64290   1.716   6.185   9.045 -0.0541  0.1517  0.6609
19315SOL    HW164291   1.797   6.138   9.063 -0.8644 -0.8623  1.9027
19315SOL    HW264292   1.709   6.249   9.117 -0.4957  0.0189  0.7413
19316SOL     OW64293   6.502   1.454   6.315 -0.0963  0.4443  0.2849
19316SOL    HW164294   6.551   1.419   6.241  1.0045  0.6662  0.8885
19316SOL    HW264295   6.504   1.384   6.380  0.9491  1.0882  0.9767
19317SOL     OW64296   5.931   1.908   1.107 -0.0614 -0.2018  0.9049
19317SOL    HW164297   5.903   1.988   1.063  0.3036 -0.1055  0.8477
19317SOL    HW264298   5.927   1.929   1.201  1.0707  0.2356  0.8650
19318SOL     OW64299   2.219   4.829   7.239  0.1808  0.0300 -0.2361
19318SOL    HW164300   2.257   4.806   7.154  1.4010  0.7561  0.0971
19318SOL    HW264301   2.125   4.817   7.226  0.2903  0.5921 -1.8649
19319SOL     OW64302   4.746   3.781   8.960 -0.3355  0.6935  0.8284
19319SOL    HW164303   4.744   3.691   8.928 -1.3484  0.8781  0.3404
19319SOL    HW264304   4.786   3.831   8.889 -0.9070  0.8196  0.5946
19320SOL     OW64305   4.058   4.091   5.924 -1.0337 -0.0087 -0.4937
19320SOL    HW164306   4.103   4.175   5.919  0.1034 -0.6180 -0.9062
19320SOL    HW264307   3.995   4.102   5.995  0.1346  0.7158  0.4872
19321SOL     OW64308   5.858   6.530   7.373  0.1444  0.2642  0.3727
19321SOL    HW164309   5.813   6.460   7.420 -0.1493 -0.7780 -1.3785
19321SOL    HW264310   5.852   6.505   7.281 -0.2293  2.7588 -0.3535
19322SOL     OW64311   5.785   4.937   7.249 -0.3734 -0.1089 -0.1034
19322SOL    HW164312   5.718   4.945   7.180 -1.1539  1.9247  0.7915
19322SOL    HW264313   5.735   4.918   7.328  0.2444  0.0629  0.3331
19323SOL     OW64314   0.647   4.015   6.285 -0.2997 -0.5511  0.2224
19323SOL    HW164315   0.637   4.070   6.364  0.0313 -0.4988  0.2304
19323SOL    HW264316   0.712   3.949   6.310 -1.7605 -1.8647  0.6987
19324SOL     OW64317   6.853   7.305   7.248  0.2867 -0.4164  0.3929
19324SOL    HW164318   6.873   7.298   7.342  0.1404  0.7071  0.5216
19324SOL    HW264319   6.935   7.279   7.205  0.9661  0.8570  0.8640
19325SOL     OW64320   5.011   2.296   8.568  0.2567  0.0895  0.4837
19325SOL    HW164321   5.062   2.370   8.600 -0.7765  1.6117 -1.2238
19325SOL    HW264322   5.051   2.220   8.609  3.4785  1.2440 -0.2187
19326SOL     OW64323   2.748   4.281   0.579 -0.5370 -0.2173 -0.5654
19326SOL    HW164324   2.773   4.298   0.670  0.3024 -2.2174 -0.3539
19326SOL    HW264325   2.658   4.249   0.585 -0.8374  0.5975 -0.5733
19327SOL     OW64326   8.141   8.408   6.000 -0.0907 -0.3320  0.4824
19327SOL    HW164327   8.233   8.429   6.014 -0.1307  0.9489 -0.8614
19327SOL    HW264328   8.110   8.475   5.939 -2.1638 -0.1671  1.6065
19328SOL     OW64329   1.126   4.644   3.838  0.6293 -0.2707 -0.3663
19328SOL    HW164330   1.110   4.720   3.894 -2.4528 -0.9492 -0.1416
19328SOL    HW264331   1.154   4.681   3.754 -2.0500  1.2782 -0.6803
19329SOL     OW64332   6.356   2.647   7.401 -1.0200 -0.4144 -0.2654
19329SOL    HW164333   6.309   2.595   7.336 -1.7188  0.4361 -0.4524
19329SOL    HW264334   6.289   2.675   7.463 -0.8702  1.1775 -0.7799
19330SOL     OW64335   0.742   6.474   5.336  0.1877  0.2064  0.2102
19330SOL    HW164336   0.797   6.472   5.415 -0.5540  2.2112  0.8384
19330SOL    HW264337   0.777   6.547   5.285 -1.8933  1.6397  0.6912
19331SOL     OW64338   6.781   4.503   7.033 -0.2975  0.1036  0.6330
19331SOL    HW164339   6.757   4.444   6.961  0.4146  0.1261  0.3683
19331SOL    HW264340   6.697   4.526   7.073 -0.7266  0.1974 -0.2733
19332SOL     OW64341   9.070   8.555   8.701  0.3131  0.1682  0.2669
19332SOL    HW164342   9.038   8.522   8.617  0.9100 -0.1524  0.1620
19332SOL    HW264343   9.096   8.645   8.683  0.0186  0.2465  0.2175
19333SOL     OW64344   2.269   5.654   0.809 -0.2764 -0.7284  0.1034
19333SOL    HW164345   2.264   5.605   0.891 -3.5704  0.4971  0.7970
19333SOL    HW264346   2.188   5.632   0.763  0.6143  0.0603 -1.9854
19334SOL     OW64347   7.080   6.278   5.628 -0.4553 -0.2952  0.1687
19334SOL    HW164348   7.079   6.370   5.602  2.3957  0.1578  1.3083
19334SOL    HW264349   7.042   6.232   5.554  1.7101  1.4740 -2.1997
19335SOL     OW64350   6.219   2.305   0.672  0.4077  0.1219  0.1618
19335SOL    HW164351   6.256   2.227   0.713 -1.4599 -1.1894 -0.5006
19335SOL    HW264352   6.280   2.327   0.602  0.6756 -1.1315 -0.0280
19336SOL     OW64353   6.637   9.203   1.430  0.1713 -0.2528  0.8444
19336SOL    HW164354   6.626   9.121   1.478  1.2830 -0.1147  1.3608
19336SOL    HW264355   6.547   9.231   1.410 -0.2952 -3.5320 -2.8515
19337SOL     OW64356   5.409   7.414   5.421 -0.4664  0.5748 -0.5350
19337SOL    HW164357   5.415   7.499   5.465 -0.8834 -0.0486  0.7849
19337SOL    HW264358   5.319   7.412   5.387 -0.6816  0.4059  0.0227
19338SOL     OW64359   5.085   5.825   3.834 -0.0534 -0.4490  0.0668
19338SOL    HW164360   5.000   5.860   3.808  0.7143  1.8638  0.4697
19338SOL    HW264361   5.064   5.747   3.885 -1.8726 -0.4522 -0.6270
19339SOL     OW64362   7.839   0.069   6.650 -0.3475 -0.3633 -0.2656
19339SOL    HW164363   7.762   0.122   6.626  0.5694  0.7739 -0.8252
19339SOL    HW264364   7.909   0.104   6.595  0.3894 -1.9510 -0.3765
19340SOL     OW64365   2.515   8.369   8.786 -0.4497  0.2739 -0.8370
19340SOL    HW164366   2.517   8.406   8.698 -0.4379 -1.6754 -1.7129
19340SOL    HW264367   2.583   8.302   8.785 -1.2458 -0.5943  0.2702
19341SOL     OW64368   6.127   2.324   1.583 -0.4425  0.2207  0.6111
19341SOL    HW164369   6.048   2.284   1.620 -1.6727  0.2993 -1.7687
19341SOL    HW264370   6.151   2.269   1.509 -0.5393  2.2405 -1.0272
19342SOL     OW64371   7.129   7.177   7.155 -0.2185  0.0328  0.0180
19342SOL    HW164372   7.119   7.268   7.129 -0.0622 -0.1921 -0.8377
19342SOL    HW264373   7.115   7.127   7.075  1.8576 -0.5976 -0.0105
19343SOL     OW64374   2.354   9.079   3.830  0.1133 -0.0068  0.1898
19343SOL    HW164375   2.422   9.021   3.797 -0.6246 -1.0294  0.4386
19343SOL    HW264376   2.392   9.167   3.823  0.9500 -0.4401 -0.9104
19344SOL     OW64377   0.461   2.590   0.457 -0.0850  0.2209  0.2888
19344SOL    HW164378   0.491   2.670   0.414  0.7347 -0.6084 -0.7577
19344SOL    HW264379   0.536   2.563   0.511  0.7763 -1.3366 -1.5768
19345SOL     OW64380   5.151   5.557   6.982  0.3338  0.3880  0.1236
19345SOL    HW164381   5.189   5.607   6.910  0.6730  1.0027  0.7162
19345SOL    HW264382   5.087   5.500   6.940  2.0890 -0.8868 -0.9347
19346SOL     OW64383   3.966   0.004   9.165 -0.0266 -0.0742 -0.0900
19346SOL    HW164384   3.890  -0.002   9.224 -0.9576 -3.6096 -1.3944
19346SOL    HW264385   4.041  -0.008   9.222 -0.8039 -1.7145  0.6556
19347SOL     OW64386   4.630   2.647   4.327  0.1885 -0.3142  0.2995
19347SOL    HW164387   4.650   2.589   4.400  2.4780 -2.8419 -2.0870
19347SOL    HW264388   4.556   2.605   4.283  1.3532 -1.1150 -0.9932
19348SOL     OW64389   8.966   8.285   6.134  0.0499  0.7346 -0.2353
19348SOL    HW164390   9.020   8.321   6.064  0.2416  0.8742 -0.0169
19348SOL    HW264391   8.988   8.337   6.211 -0.6507  1.0205 -0.2178
19349SOL     OW64392   4.468   4.364   7.677 -0.3601 -0.8310  0.1695
19349SOL    HW164393   4.392   4.334   7.626  0.2658 -0.0898 -1.2792
19349SOL    HW264394   4.511   4.427   7.619  0.0763  0.5036  1.8820
19350SOL     OW64395   3.788   3.219   2.843 -0.3929  0.7776  0.5117
19350SOL    HW164396   3.699   3.224   2.809 -0.5111  2.5233  0.9574
19350SOL    HW264397   3.780   3.171   2.925 -0.6124 -0.6624 -0.3346
19351SOL     OW64398   4.661   2.910   0.746  0.0278 -0.8593  0.4041
19351SOL    HW164399   4.677   2.999   0.777  0.7067 -1.2534  1.2143
19351SOL    HW264400   4.593   2.920   0.679  1.0003  0.4043 -0.4331
19352SOL     OW64401   0.078   1.891   5.486 -0.0172 -0.6209 -0.1967
19352SOL    HW164402   0.119   1.914   5.403 -1.7362 -0.1968 -0.9795
19352SOL    HW264403   0.138   1.829   5.527  0.4060 -1.6197 -2.2084
19353SOL     OW64404   5.750   0.612   7.455 -0.2008  0.3550 -0.3463
19353SOL    HW164405   5.752   0.681   7.520 -2.3328 -0.2977  0.5021
19353SOL    HW264406   5.802   0.541   7.492  0.0954  0.6602 -0.1847
19354SOL     OW64407   8.810   3.114   5.321  0.6455 -0.1575 -0.5045
19354SOL    HW164408   8.896   3.144   5.291 -0.0455 -0.4083 -2.9859
19354SOL    HW264409   8.818   3.019   5.326  0.7312 -0.1236  0.1191
19355SOL     OW64410   6.825   4.159   2.294 -0.2514 -0.4308  0.3747
19355SOL    HW164411   6.748   4.209   2.267  1.3767  1.4246 -1.1209
19355SOL    HW264412   6.877   4.221   2.345  0.3531 -1.6029  1.2166
19356SOL     OW64413   5.769   2.436   5.092 -0.1373 -0.5515 -0.1287
19356SOL    HW164414   5.757   2.344   5.119 -1.6653 -0.0696  0.9854
19356SOL    HW264415   5.714   2.444   5.014 -1.7266 -0.0948  0.9865
19357SOL     OW64416   8.096   8.687   6.322 -0.1630 -0.0525 -0.4565
19357SOL    HW164417   8.075   8.778   6.345 -1.7939 -0.5024 -0.0588
19357SOL    HW264418   8.068   8.679   6.230  2.0817  0.4404 -1.2515
19358SOL     OW64419   5.363   8.695   4.011 -0.0622  0.2722 -0.1082
19358SOL    HW164420   5.375   8.695   4.106 -0.5101 -0.1474 -0.0526
19358SOL    HW264421   5.383   8.606   3.984 -3.5995 -0.6943  0.0574
19359SOL     OW64422   3.874   1.795   7.064  0.3584 -0.7433  0.1821
19359SOL    HW164423   3.922   1.721   7.103  1.0504 -0.5003 -0.1906
19359SOL    HW264424   3.927   1.821   6.989 -0.5740 -0.7210 -0.4865
19360SOL     OW64425   7.859   7.443   4.216  0.0724 -0.3258 -0.5637
19360SOL    HW164426   7.790   7.470   4.276  0.4243 -0.5570 -0.0445
19360SOL    HW264427   7.926   7.512   4.224 -0.0092 -0.2029 -0.9174
19361SOL     OW64428   3.517   7.958   6.942  0.2303 -0.2469 -0.0362
19361SOL    HW164429   3.584   7.890   6.950 -0.4866 -1.1311 -1.1723
19361SOL    HW264430   3.497   7.961   6.848  2.1408  3.4513 -0.5249
19362SOL     OW64431   6.937   8.440   0.656 -0.3540  0.0136  0.1137
19362SOL    HW164432   6.965   8.529   0.676 -0.3037 -0.0072  0.1335
19362SOL    HW264433   6.942   8.435   0.560 -1.5937  0.4514  0.0034
19363SOL     OW64434   7.304   0.444   3.004  0.3614  0.0225 -0.4683
19363SOL    HW164435   7.378   0.505   3.010 -0.5319  1.0228  0.6827
19363SOL    HW264436   7.288   0.417   3.094 -0.0364 -0.9739 -0.8355
19364SOL     OW64437   7.647   3.390   3.986  0.4440  0.2605  0.1464
19364SOL    HW164438   7.555   3.405   3.965  0.6071  0.4360 -0.4839
19364SOL    HW264439   7.693   3.462   3.943  1.0652 -0.9159 -1.2286
19365SOL     OW64440   1.735   0.788   6.384 -0.1913 -0.2655  0.3722
19365SOL    HW164441   1.799   0.846   6.427 -1.5883  0.0108  2.2210
19365SOL    HW264442   1.720   0.829   6.299  3.3307 -1.3039 -0.9332
19366SOL     OW64443   4.448   6.328   5.814  0.0338  0.5624  0.1026
19366SOL    HW164444   4.465   6.352   5.723 -0.1363  0.2390 -0.0166
19366SOL    HW264445   4.525   6.277   5.839 -1.0772 -1.6594 -0.7122
19367SOL     OW64446   4.879   2.670   5.657 -1.0904  0.2902  0.0394
19367SOL    HW164447   4.931   2.696   5.733 -0.3595  0.1778 -0.4193
19367SOL    HW264448   4.789   2.693   5.681 -0.5220  3.3569 -0.3560
19368SOL     OW64449   8.023   3.460   0.128  0.7009  0.4752 -0.5989
19368SOL    HW164450   8.089   3.503   0.073  1.4659  1.2715  0.8874
19368SOL    HW264451   8.005   3.523   0.198 -1.0365 -0.0764 -0.4910
19369SOL     OW64452   0.569   3.692   4.739 -0.3506  0.1448 -0.1391
19369SOL    HW164453   0.663   3.679   4.754 -0.4202  0.7668  0.9198
19369SOL    HW264454   0.527   3.620   4.787 -0.3879 -1.0229 -1.8314
19370SOL     OW64455   3.441   1.616   8.760  0.5761 -0.1217 -0.2677
19370SOL    HW164456   3.527   1.636   8.723 -0.2105  2.2253 -0.9634
19370SOL    HW264457   3.387   1.592   8.685  0.4858 -1.2307  0.1258
19371SOL     OW64458   5.357   4.367   4.684  0.2005 -0.2953  0.2792
19371SOL    HW164459   5.356   4.381   4.590  0.2815 -1.4085  0.1081
19371SOL    HW264460   5.444   4.396   4.712 -0.4769  1.9203  0.3456
19372SOL     OW64461   8.514   4.485   7.012  0.2850  0.1853  0.2880
19372SOL    HW164462   8.453   4.554   7.035  0.7093  0.5444  0.3519
19372SOL    HW264463   8.563   4.468   7.093 -0.8183 -1.2394  0.6972
19373SOL     OW64464   7.236   2.955   2.353  0.1684  0.2437  0.1432
19373SOL    HW164465   7.302   3.018   2.380  1.8632 -1.4447  0.1494
19373SOL    HW264466   7.278   2.903   2.285 -1.1010 -0.9980  0.2568
19374SOL     OW64467   2.872   2.056   8.519  0.3156  0.1421 -0.7242
19374SOL    HW164468   2.824   2.116   8.462 -0.9845 -0.8054 -0.6743
19374SOL    HW264469   2.835   2.072   8.606  0.0654 -0.6042 -0.6870
19375SOL     OW64470   5.791   0.742   6.737 -0.2891 -0.0888 -0.0814
19375SOL    HW164471   5.792   0.836   6.752  0.1819  0.0629 -1.0123
19375SOL    HW264472   5.718   0.710   6.791  1.4526  0.3569  2.7938
19376SOL     OW64473   0.538   0.669   2.600 -0.3493 -1.0358 -0.5014
19376SOL    HW164474   0.613   0.666   2.660 -1.0761  1.5001  0.6612
19376SOL    HW264475   0.568   0.723   2.527 -1.3753  1.2182  0.6396
19377SOL     OW64476   8.968   4.915   3.036 -0.7339 -0.0642  0.1298
19377SOL    HW164477   8.902   4.868   2.984 -1.4781 -0.1109  1.0714
19377SOL    HW264478   9.021   4.962   2.972 -2.2123  0.6499 -0.6307
19378SOL     OW64479   8.517   8.052   9.097 -1.1420 -0.0658 -0.3078
19378SOL    HW164480   8.506   8.147   9.092  1.3141  0.3725  0.9785
19378SOL    HW264481   8.527   8.034   9.191 -0.6178 -1.4627 -0.6041
19379SOL     OW64482   1.207   9.130   1.088 -0.1233  0.3553 -0.1522
19379SOL    HW164483   1.199   9.035   1.093 -1.3107  0.4256 -0.4534
19379SOL    HW264484   1.239   9.147   0.999 -0.1908  0.2510 -0.1964
19380SOL     OW64485   2.777   4.175   6.934 -0.2376 -0.4252  0.1975
19380SOL    HW164486   2.783   4.081   6.922 -2.0493 -0.6106  0.4717
19380SOL    HW264487   2.761   4.210   6.846  3.3693 -0.0066 -0.4169
19381SOL     OW64488   8.734   6.606   7.513 -0.1537 -0.3296 -0.0549
19381SOL    HW164489   8.780   6.621   7.596 -0.3205 -1.1568  0.1938
19381SOL    HW264490   8.803   6.576   7.454 -0.2994 -1.1895  0.2074
19382SOL     OW64491   5.449   2.523   5.467 -0.0696 -0.7456 -0.4249
19382SOL    HW164492   5.531   2.572   5.472 -0.5091 -0.0376  0.0511
19382SOL    HW264493   5.382   2.586   5.495 -0.7780 -1.3015 -0.8426
19383SOL     OW64494   3.855   9.235   4.456 -0.2844 -0.5235 -0.3699
19383SOL    HW164495   3.862   9.329   4.443  1.6551 -0.0849  2.7221
19383SOL    HW264496   3.919   9.198   4.394  0.4459  0.3846 -0.1839
19384SOL     OW64497   6.859   2.323   2.374  0.5068 -0.5453 -0.1693
19384SOL    HW164498   6.789   2.313   2.438  0.9360  0.1176  0.4219
19384SOL    HW264499   6.917   2.249   2.389  0.8604 -0.1342  0.5491
19385SOL     OW64500   7.465   0.375   1.763 -0.2023 -0.2605 -0.3035
19385SOL    HW164501   7.411   0.388   1.685 -0.8544 -0.2998  0.1358
19385SOL    HW264502   7.423   0.427   1.831  0.5472  0.0351 -0.0476
19386SOL     OW64503   1.373   1.277   2.905 -0.3242  0.0818 -0.3113
19386SOL    HW164504   1.466   1.272   2.925 -0.9964  1.2009  4.0717
19386SOL    HW264505   1.349   1.367   2.926 -2.6918 -0.6403  0.3173
19387SOL     OW64506   1.508   4.113   7.524  0.1748 -0.2634  0.1584
19387SOL    HW164507   1.445   4.096   7.454  0.0613  1.0930 -0.0991
19387SOL    HW264508   1.573   4.170   7.485  0.6207 -0.2463  0.9071
19388SOL     OW64509   4.418   5.145   0.986  0.7060  0.0928  0.0218
19388SOL    HW164510   4.458   5.059   0.999 -1.7608 -0.9378  1.7678
19388SOL    HW264511   4.351   5.131   0.919  1.0043  0.9200 -0.4573
19389SOL     OW64512   2.324   6.022   2.768 -0.1503  0.5390 -0.0524
19389SOL    HW164513   2.318   6.000   2.861  0.4729 -0.3206 -0.2065
19389SOL    HW264514   2.235   6.051   2.745  0.0905  2.4487  1.1999
19390SOL     OW64515   4.633   1.090   7.349 -0.0578  0.0231  0.3097
19390SOL    HW164516   4.710   1.105   7.403 -0.5157 -0.5485  1.1422
19390SOL    HW264517   4.590   1.175   7.345 -0.8012 -0.2307  2.1069
19391SOL     OW64518   1.392   3.242   5.367  0.1990  0.0968 -0.5686
19391SOL    HW164519   1.370   3.291   5.288  0.9724  1.4125 -0.0009
19391SOL    HW264520   1.478   3.275   5.393 -1.1319  1.6296  2.2592
19392SOL     OW64521   4.844   6.145   0.117  0.2093  0.2383  0.2237
19392SOL    HW164522   4.861   6.218   0.057 -1.1155  0.3205 -0.0841
19392SOL    HW264523   4.792   6.084   0.065  0.3166 -0.3863  0.8445
19393SOL     OW64524   5.270   3.050   1.856 -0.5259  0.1680 -0.9798
19393SOL    HW164525   5.209   3.070   1.927  0.9601 -1.1107  0.7518
19393SOL    HW264526   5.291   3.136   1.818 -1.0185  0.9491  0.4283
19394SOL     OW64527   6.626   8.877   1.818 -0.2572 -0.0956 -0.3236
19394SOL    HW164528   6.671   8.914   1.895  1.0647 -0.9617 -0.6538
19394SOL    HW264529   6.629   8.948   1.753  0.8971 -0.2184 -0.4298
19395SOL     OW64530   7.018   3.479   6.525  0.4928  0.2112 -0.0109
19395SOL    HW164531   7.084   3.493   6.592  0.0992  0.3421  0.3586
19395SOL    HW264532   6.992   3.388   6.536 -0.6402  0.6222  1.0283
19396SOL     OW64533   2.045   2.455   6.878 -0.1855 -0.9295 -0.4532
19396SOL    HW164534   2.043   2.548   6.856  0.8131 -0.9436 -0.6426
19396SOL    HW264535   1.997   2.412   6.807 -1.6031 -0.4817  0.1836
19397SOL     OW64536   8.702   6.589   4.455 -0.3995 -0.1125 -0.2613
19397SOL    HW164537   8.699   6.505   4.500 -2.0023  0.0675  0.0317
19397SOL    HW264538   8.770   6.639   4.502 -0.0360 -0.9283  0.0963
19398SOL     OW64539   8.798   0.187   4.809  0.1732 -0.2200  0.3103
19398SOL    HW164540   8.704   0.181   4.797  0.2137  0.2911 -0.3320
19398SOL    HW264541   8.814   0.147   4.894 -0.7261  0.4984  0.8347
19399SOL     OW64542   7.691   7.991   7.867  0.2607 -0.7158 -0.1331
19399SOL    HW164543   7.779   8.019   7.843 -0.2152  2.7531  1.6557
19399SOL    HW264544   7.691   7.989   7.962 -1.5189 -0.9377 -0.0997
19400SOL     OW64545   0.071   1.872   7.503 -0.0535 -0.1164 -0.0949
19400SOL    HW164546   0.072   1.887   7.598  0.7021 -0.8305  0.0118
19400SOL    HW264547   0.019   1.793   7.492 -0.8741  0.4450 -0.3600
19401SOL     OW64548   3.872   2.563   5.633  0.4158  0.5304 -0.1124
19401SOL    HW164549   3.884   2.517   5.716 -0.4554  0.5953  0.0588
19401SOL    HW264550   3.790   2.528   5.597  0.8086  0.4624 -0.9762
19402SOL     OW64551   1.681   3.926   8.023  0.0052  0.1234  0.2153
19402SOL    HW164552   1.729   3.995   8.068 -1.3380  1.6941 -0.6781
19402SOL    HW264553   1.594   3.927   8.062 -0.9334  0.9734 -1.7673
19403SOL     OW64554   8.967   0.827   2.083  0.4380  0.3223  1.1913
19403SOL    HW164555   8.907   0.895   2.053  2.6953  1.2647 -1.5901
19403SOL    HW264556   8.938   0.747   2.040  0.6218  0.5759  0.5962
19404SOL     OW64557   0.761   2.960   0.250  0.0208 -0.3172  0.9741
19404SOL    HW164558   0.711   3.030   0.291 -1.4522 -1.0626  0.5166
19404SOL    HW264559   0.732   2.959   0.159  0.6077 -1.0083  0.7856
19405SOL     OW64560   3.103   0.523   5.860  0.2373  0.4048 -0.2661
19405SOL    HW164561   3.052   0.575   5.798  1.2192  2.1964  0.3361
19405SOL    HW264562   3.150   0.460   5.806 -0.7446  0.3350 -1.0673
19406SOL     OW64563   1.157   3.585   2.539  0.3611  0.3656  0.1649
19406SOL    HW164564   1.185   3.645   2.608 -0.3465  0.9060 -0.0073
19406SOL    HW264565   1.139   3.503   2.586  1.0347  0.3726  0.4454
19407SOL     OW64566   5.160   3.428   5.918 -0.4662  0.1705  0.1440
19407SOL    HW164567   5.240   3.449   5.966 -1.4801 -0.0568  2.0392
19407SOL    HW264568   5.137   3.340   5.948 -0.1778 -0.7686 -2.1891
19408SOL     OW64569   4.368   6.258   1.875  0.0769 -0.4874 -0.1406
19408SOL    HW164570   4.357   6.210   1.957 -1.2156  1.0915  0.6635
19408SOL    HW264571   4.449   6.309   1.887  0.0666 -0.5075  0.0124
19409SOL     OW64572   8.993   2.652   9.033 -0.4888 -0.6775  0.2313
19409SOL    HW164573   8.929   2.723   9.027  1.1930  0.9215  0.2082
19409SOL    HW264574   8.980   2.614   9.120 -0.1697  0.9575  1.0270
19410SOL     OW64575   5.682   8.846   5.702  0.3405  0.0949 -0.7280
19410SOL    HW164576   5.633   8.776   5.745  0.5559  0.4319  0.0927
19410SOL    HW264577   5.619   8.918   5.693  0.9446  0.9789  1.4446
19411SOL     OW64578   5.864   0.177   0.181 -0.1148 -0.1484 -0.5963
19411SOL    HW164579   5.892   0.268   0.170  1.7670 -0.6332 -0.2376
19411SOL    HW264580   5.935   0.137   0.231 -2.4240 -1.0326  2.2414
19412SOL     OW64581   1.865   0.443   5.452  0.6083 -0.3395 -0.1587
19412SOL    HW164582   1.844   0.531   5.483  1.8325 -0.3520  0.8068
19412SOL    HW264583   1.790   0.390   5.477  0.6452  0.0827  0.9022
19413SOL     OW64584   5.824   3.095   1.846 -0.0258 -0.6483 -0.4153
19413SOL    HW164585   5.750   3.093   1.786  0.6494 -0.6681 -1.2766
19413SOL    HW264586   5.867   3.179   1.829  0.4924 -0.8963 -0.3651
19414SOL     OW64587   3.694   8.571   7.301 -0.2139 -0.8337 -0.1305
19414SOL    HW164588   3.771   8.576   7.358  0.4578 -1.8220 -0.9177
19414SOL    HW264589   3.665   8.662   7.293  0.8953 -0.4361  0.1549
19415SOL     OW64590   0.008   8.720   0.304  0.3756 -0.5611  0.1577
19415SOL    HW164591  -0.064   8.694   0.361  0.6583 -0.6310  0.4884
19415SOL    HW264592   0.024   8.645   0.247 -0.9578  0.0648 -1.1190
19416SOL     OW64593   9.212   3.684   5.467 -0.0000  0.1480  0.1916
19416SOL    HW164594   9.148   3.744   5.506  0.4480  2.1236 -1.9089
19416SOL    HW264595   9.160   3.626   5.411 -0.1327  0.5410 -0.0908
19417SOL     OW64596   5.353   0.254   6.095  0.2896  0.0146 -0.0068
19417SOL    HW164597   5.322   0.163   6.103 -2.4726  0.8385 -0.1027
19417SOL    HW264598   5.351   0.271   6.001 -0.8537  0.6372  0.1116
19418SOL     OW64599   1.637   5.412   3.597  0.3015 -0.1625  0.1009
19418SOL    HW164600   1.667   5.423   3.687  3.1023 -2.4019 -0.4199
19418SOL    HW264601   1.603   5.323   3.593 -1.0462  0.3554 -0.7859
19419SOL     OW64602   4.064   5.554   0.288  0.4572 -0.6574  0.5615
19419SOL    HW164603   4.095   5.508   0.209 -0.2434  0.8873 -0.6680
19419SOL    HW264604   3.968   5.548   0.283  0.3423  1.0926  0.2399
19420SOL     OW64605   5.207   3.670   9.168  0.2377 -0.2447 -0.3995
19420SOL    HW164606   5.142   3.709   9.109 -0.4772  1.0767  1.1922
19420SOL    HW264607   5.291   3.696   9.132 -0.1463 -0.4895 -1.5068
19421SOL     OW64608   1.471   1.895   0.145  0.2571 -0.3212 -0.4617
19421SOL    HW164609   1.465   1.837   0.222 -0.5078  1.4655  0.8986
19421SOL    HW264610   1.383   1.893   0.108  0.1497  0.1818 -0.2372
19422SOL     OW64611   1.848   3.497   6.104 -0.6345 -0.0993 -0.0753
19422SOL    HW164612   1.865   3.591   6.108 -1.1217  0.0952 -1.9539
19422SOL    HW264613   1.785   3.481   6.175  0.2597  0.7674  0.9489
19423SOL     OW64614   6.665   2.623   2.536 -0.1058 -0.3446  0.3292
19423SOL    HW164615   6.754   2.592   2.553 -0.6343 -1.1151  1.8339
19423SOL    HW264616   6.618   2.545   2.506 -1.0364 -0.7306  2.5904
19424SOL     OW64617   2.726   8.204   8.760 -0.1740  0.0440 -0.2715
19424SOL    HW164618   2.711   8.110   8.749 -0.5097 -0.1440  1.4816
19424SOL    HW264619   2.813   8.210   8.800 -0.2356  0.4724 -0.1932
19425SOL     OW64620   3.803   0.301   6.855  0.0909 -0.0491  0.5414
19425SOL    HW164621   3.886   0.345   6.874  0.5254 -0.6455  0.0571
19425SOL    HW264622   3.826   0.208   6.849 -0.8591 -0.4034  1.8386
19426SOL     OW64623   7.855   3.071   0.557 -0.0364 -0.1487 -0.0171
19426SOL    HW164624   7.902   3.149   0.586  0.7441 -0.5381 -0.1791
19426SOL    HW264625   7.765   3.099   0.544  0.1526  0.6258  0.3172
19427SOL     OW64626   2.412   4.053   1.913 -0.0600 -0.2388  0.3177
19427SOL    HW164627   2.423   4.135   1.864  1.7011 -0.7786 -0.2909
19427SOL    HW264628   2.431   3.985   1.848 -3.8528 -1.3186  0.1487
19428SOL     OW64629   6.509   7.088   7.347 -0.3991 -0.7027  0.6160
19428SOL    HW164630   6.513   7.150   7.274  2.4705 -0.6969  0.6902
19428SOL    HW264631   6.478   7.139   7.421 -0.5830 -0.0057  0.0672
19429SOL     OW64632   8.974   3.673   5.898  0.1338 -0.0390  0.2750
19429SOL    HW164633   9.006   3.676   5.988 -0.5327 -1.1318  0.5687
19429SOL    HW264634   8.918   3.596   5.895 -1.5390  1.1424 -0.5153
19430SOL     OW64635   8.161   2.992   5.034  0.1850 -0.0714  0.4729
19430SOL    HW164636   8.134   2.901   5.029 -0.8933  0.0823  2.6114
19430SOL    HW264637   8.256   2.990   5.026  0.1085 -1.2773 -0.3282
19431SOL     OW64638   5.936   3.125   3.945  0.2465  0.1947 -0.2427
19431SOL    HW164639   5.914   3.168   4.027  1.7770  1.2452 -0.3503
19431SOL    HW264640   5.883   3.045   3.945 -0.2892  0.5154  1.4281
19432SOL     OW64641   0.632   2.257   4.049 -0.3198 -0.7156 -0.3991
19432SOL    HW164642   0.560   2.229   4.105  1.7193 -0.5196  2.5545
19432SOL    HW264643   0.595   2.329   3.997 -1.9755  0.1260  1.7946
19433SOL     OW64644   1.606   7.890   3.673 -0.1111  0.3105 -0.5160
19433SOL    HW164645   1.693   7.905   3.708 -0.2290 -0.9110  0.3522
19433SOL    HW264646   1.605   7.797   3.650 -1.1308  0.3471 -0.6613
19434SOL     OW64647   6.097   4.658   2.803 -0.0083  0.2629 -0.4066
19434SOL    HW164648   6.173   4.620   2.847 -1.8599 -1.9324  1.1585
19434SOL    HW264649   6.055   4.711   2.871  0.4617  2.0421 -1.4639
19435SOL     OW64650   3.157   5.910   3.950 -0.0669  0.1799 -0.9247
19435SOL    HW164651   3.116   5.876   4.030  0.6174 -0.4606 -0.8300
19435SOL    HW264652   3.161   5.835   3.892  1.5108  0.0548 -0.7023
19436SOL     OW64653   8.284   4.077   9.191 -0.1110  0.1803 -0.3877
19436SOL    HW164654   8.266   4.025   9.112  1.1638 -0.6202 -0.1925
19436SOL    HW264655   8.298   4.012   9.259  0.1740  0.8244  0.1774
19437SOL     OW64656   4.913   2.805   0.605 -0.3652 -0.3914 -0.1946
19437SOL    HW164657   4.869   2.740   0.550  0.8848 -1.0197 -0.4940
19437SOL    HW264658   4.850   2.877   0.612 -1.1822 -0.9867 -1.1137
19438SOL     OW64659   4.662   9.145   5.189 -0.6659  0.3010 -0.2796
19438SOL    HW164660   4.741   9.193   5.168 -0.6368 -0.6641 -2.5986
19438SOL    HW264661   4.591   9.200   5.156 -0.6310 -1.1091 -2.9541
19439SOL     OW64662   5.707   2.799   0.651  0.0239  0.4305  0.0890
19439SOL    HW164663   5.780   2.790   0.713 -0.3478  0.1082  0.4817
19439SOL    HW264664   5.659   2.716   0.659 -0.3951  0.6514 -0.1590
19440SOL     OW64665   5.685   8.288   2.403  0.3554 -0.1123 -0.2820
19440SOL    HW164666   5.631   8.215   2.373 -0.4092  1.1717 -2.2535
19440SOL    HW264667   5.627   8.364   2.402  1.7569  1.0247 -0.9290
19441SOL     OW64668   1.922   9.172   6.399  0.0202  0.2395 -0.3665
19441SOL    HW164669   1.853   9.134   6.347  0.8703 -2.2255  0.1860
19441SOL    HW264670   1.913   9.132   6.486  1.6228  0.4821 -0.0446
19442SOL     OW64671   2.492   8.979   1.190 -0.1332  0.1962  0.2999
19442SOL    HW164672   2.420   9.028   1.151  0.7320  0.3514 -1.1988
19442SOL    HW264673   2.567   8.998   1.133  0.1615 -3.1647 -0.6392
19443SOL     OW64674   4.933   1.364   5.263  0.4509  0.2033  0.0359
19443SOL    HW164675   4.929   1.274   5.231 -0.9616 -1.1277  3.4678
19443SOL    HW264676   4.843   1.396   5.255  0.7233  0.9088 -0.1943
19444SOL     OW64677   1.710   8.105   9.049  0.2414 -0.4924  0.1850
19444SOL    HW164678   1.716   8.053   8.968 -0.1934  0.0095 -0.1733
19444SOL    HW264679   1.796   8.146   9.058 -0.0845  0.4167 -0.6859
19445SOL     OW64680   0.665   6.376   4.976  0.4510  0.0274  0.0853
19445SOL    HW164681   0.605   6.450   4.977 -2.3332 -2.0472  1.3450
19445SOL    HW264682   0.675   6.354   4.883 -1.4599 -0.0149 -0.1563
19446SOL     OW64683   0.660   7.207   5.641 -0.4270  0.6380  0.8229
19446SOL    HW164684   0.602   7.132   5.622  0.5427  0.1589 -0.3871
19446SOL    HW264685   0.615   7.282   5.604 -0.5117  0.3431  0.3156
19447SOL     OW64686   6.993   1.604   0.479 -0.3266  0.7429  0.0258
19447SOL    HW164687   6.975   1.518   0.442 -3.6267  1.8020 -1.1581
19447SOL    HW264688   7.052   1.587   0.552 -0.5199 -2.4535 -0.4372
19448SOL     OW64689   2.230   9.060   4.622  0.3262 -0.7162 -0.0249
19448SOL    HW164690   2.218   8.967   4.639 -1.9233 -0.4046  0.4980
19448SOL    HW264691   2.220   9.069   4.527  0.9802 -1.0470 -0.1280
19449SOL     OW64692   5.143   2.211   5.113 -0.0767  0.0512  0.0827
19449SOL    HW164693   5.169   2.294   5.072 -4.0721  1.2921 -0.4283
19449SOL    HW264694   5.144   2.148   5.041  0.9386  0.1323  0.0066
19450SOL     OW64695   0.239   3.288   2.376 -0.5305  0.1724  0.6205
19450SOL    HW164696   0.264   3.375   2.345 -0.0932 -0.2332 -0.2081
19450SOL    HW264697   0.154   3.300   2.418 -1.1198  0.7769 -0.6847
19451SOL     OW64698   2.101   2.504   6.391  0.4253  0.0480  0.7673
19451SOL    HW164699   2.060   2.579   6.434  1.5470  1.1831 -0.1034
19451SOL    HW264700   2.033   2.470   6.332  0.2293  0.9735  0.4439
19452SOL     OW64701   4.042   1.970   7.730 -0.0800  0.2735 -0.2188
19452SOL    HW164702   4.122   1.918   7.736  0.3593  0.8572 -0.8326
19452SOL    HW264703   3.990   1.944   7.806 -0.7847 -2.5476 -1.5303
19453SOL     OW64704   5.791   9.052   0.956 -0.2127  0.0668  0.3919
19453SOL    HW164705   5.879   9.084   0.936 -0.9728  0.7679 -2.3168
19453SOL    HW264706   5.802   8.998   1.034  2.8455 -0.8507 -0.5224
19454SOL     OW64707   3.974   7.519   9.152  0.1601  0.1947 -0.2979
19454SOL    HW164708   3.890   7.493   9.188  0.5927  0.5722  1.0608
19454SOL    HW264709   3.986   7.609   9.182  1.4079 -0.1286  0.2458
19455SOL     OW64710   8.336   0.938   7.899  0.0490 -0.2930 -0.4372
19455SOL    HW164711   8.261   0.973   7.948  0.7129 -0.8837  1.0779
19455SOL    HW264712   8.299   0.872   7.841 -0.8860  1.0685 -1.4583
19456SOL     OW64713   6.405   8.543   0.663 -0.4609  0.0055  0.2001
19456SOL    HW164714   6.338   8.475   0.663 -0.9188  0.4510 -0.5368
19456SOL    HW264715   6.365   8.617   0.617  0.7527  0.0561 -0.8236
19457SOL     OW64716   2.801   6.510   4.384 -0.2502  0.2677 -0.2391
19457SOL    HW164717   2.888   6.547   4.397  0.8819 -1.9388 -1.0649
19457SOL    HW264718   2.792   6.445   4.453 -0.9973  0.0433 -0.5367
19458SOL     OW64719   3.542   5.067   4.019  0.2920 -0.2096  0.1315
19458SOL    HW164720   3.539   5.003   4.090  1.8712 -1.6973 -1.0594
19458SOL    HW264721   3.460   5.054   3.971 -0.1713 -0.1183  0.8770
19459SOL     OW64722   5.626   1.113   1.146 -0.3633  0.3647 -0.3269
19459SOL    HW164723   5.643   1.104   1.240  0.1823  0.2055 -0.4367
19459SOL    HW264724   5.559   1.048   1.127  0.7881 -0.8586 -0.3726
19460SOL     OW64725   4.193   6.439   1.735  0.1662 -0.3715  0.2108
19460SOL    HW164726   4.168   6.374   1.670  1.8465  0.7333 -1.6520
19460SOL    HW264727   4.267   6.400   1.782 -1.3930 -1.4006  1.9690
19461SOL     OW64728   8.056   0.878   0.483 -0.0516  0.2289 -0.0871
19461SOL    HW164729   7.974   0.924   0.466  0.5807  2.2551  1.8754
19461SOL    HW264730   8.048   0.796   0.434 -2.8597  0.7330 -0.6374
19462SOL     OW64731   4.451   0.594   6.988  0.0126 -0.0892  0.1723
19462SOL    HW164732   4.419   0.557   6.905  1.4016 -0.5166 -0.1907
19462SOL    HW264733   4.472   0.517   7.042 -0.0226  0.1848  0.5754
19463SOL     OW64734   2.674   5.333   8.495  0.2171  0.2894 -0.3076
19463SOL    HW164735   2.628   5.412   8.522  4.2234  1.9816  2.5387
19463SOL    HW264736   2.650   5.268   8.561  1.1699  0.9271  0.7020
19464SOL     OW64737   1.342   0.508   8.734  0.5831  0.1323  0.6162
19464SOL    HW164738   1.270   0.496   8.796  0.2069  1.3721  0.4452
19464SOL    HW264739   1.369   0.419   8.711 -1.5539 -0.3848 -0.0929
19465SOL     OW64740   0.814   6.937   1.383 -0.1578 -0.0123  0.1255
19465SOL    HW164741   0.849   7.025   1.397  0.0515 -0.2724  1.2798
19465SOL    HW264742   0.745   6.949   1.317 -0.5801  1.1158  0.7560
19466SOL     OW64743   8.717   2.159   0.585  0.6961 -0.0049 -0.0324
19466SOL    HW164744   8.773   2.188   0.657  1.7991  0.2555 -0.9591
19466SOL    HW264745   8.639   2.123   0.628  0.3397  2.0873  1.2395
19467SOL     OW64746   1.805   6.014   7.818 -0.0139 -0.0021 -0.0347
19467SOL    HW164747   1.734   5.970   7.772  1.5839 -1.9989 -0.7147
19467SOL    HW264748   1.810   5.970   7.903  0.6746 -0.1644 -0.1541
19468SOL     OW64749   7.978   1.374   9.059 -0.2374  0.0248 -0.0443
19468SOL    HW164750   7.919   1.444   9.086 -0.2332  1.4628 -3.3045
19468SOL    HW264751   7.946   1.347   8.973  2.9656 -0.0945 -1.3380
19469SOL     OW64752   1.810   8.421   3.593  0.3139  0.0005 -0.2800
19469SOL    HW164753   1.809   8.514   3.617  1.1937 -0.0662  0.0808
19469SOL    HW264754   1.841   8.420   3.502 -2.6331  0.2278 -1.3926
19470SOL     OW64755   3.473   5.571   1.544  0.2703  0.4787  0.1756
19470SOL    HW164756   3.501   5.482   1.524  0.9532  0.7119  0.0488
19470SOL    HW264757   3.554   5.622   1.541 -0.1648  1.1679 -0.1253
19471SOL     OW64758   8.441   5.841   7.342  0.4153 -0.1400  0.1037
19471SOL    HW164759   8.375   5.836   7.411  0.5202  0.0972  0.2214
19471SOL    HW264760   8.392   5.865   7.263  0.0034 -2.1915 -0.3178
19472SOL     OW64761   5.417   2.879   3.586 -0.4302  0.0740  0.1296
19472SOL    HW164762   5.323   2.895   3.598 -0.8015 -2.1852  0.7215
19472SOL    HW264763   5.430   2.884   3.491 -1.2438 -0.0647 -0.0001
19473SOL     OW64764   5.930   4.429   2.772  0.9593  0.1544 -0.1004
19473SOL    HW164765   5.979   4.508   2.795 -0.6621  1.1250  0.2143
19473SOL    HW264766   5.844   4.462   2.744  0.1362 -1.5242  0.3314
19474SOL     OW64767   3.345   1.469   7.596 -0.0025  0.1818 -0.8378
19474SOL    HW164768   3.281   1.435   7.658  0.9352 -0.0968  0.0110
19474SOL    HW264769   3.335   1.564   7.600 -0.4813  0.1307 -0.8440
19475SOL     OW64770   1.611   7.954   4.929 -0.3297  0.1933  0.0408
19475SOL    HW164771   1.621   7.891   4.858  1.9098  0.6332 -0.1306
19475SOL    HW264772   1.597   7.901   5.007  1.1314 -0.5412 -0.1611
19476SOL     OW64773   5.576   7.536   1.333  0.0277  0.3839  0.1873
19476SOL    HW164774   5.628   7.518   1.255  0.0780  1.2881  0.0006
19476SOL    HW264775   5.488   7.557   1.300 -0.6085 -1.5914  0.5266
19477SOL     OW64776   0.909   4.130   6.574  0.6365  0.3009  0.5385
19477SOL    HW164777   0.884   4.198   6.512  1.7101 -0.9087 -1.2997
19477SOL    HW264778   0.950   4.178   6.647 -0.9241  1.7632  0.5050
19478SOL     OW64779   3.755   4.791   6.828 -0.0483 -0.0430  0.4751
19478SOL    HW164780   3.826   4.755   6.881  0.1894 -0.8903 -0.3880
19478SOL    HW264781   3.739   4.724   6.761 -0.7642  0.7268 -0.1408
19479SOL     OW64782   0.704   2.287   8.462  0.0543  0.3129 -0.2588
19479SOL    HW164783   0.778   2.255   8.410  0.1541 -0.5808  0.4132
19479SOL    HW264784   0.725   2.378   8.481  1.1177 -0.0132  0.1681
19480SOL     OW64785   0.989   1.324   8.823 -0.4244  0.5958  0.0693
19480SOL    HW164786   0.973   1.311   8.730  1.0155  1.9565 -0.4119
19480SOL    HW264787   0.941   1.252   8.866  1.8432 -2.3500 -1.9149
19481SOL     OW64788   2.983   3.165   7.687  0.1445  0.4052  0.3571
19481SOL    HW164789   3.062   3.137   7.734 -1.3158 -0.6326  2.3711
19481SOL    HW264790   2.962   3.091   7.630  0.7503  0.8020 -0.4022
19482SOL     OW64791   0.982   4.399   7.593  0.3668 -0.6264 -0.3893
19482SOL    HW164792   0.973   4.444   7.677 -1.3467 -0.5178 -0.5954
19482SOL    HW264793   1.048   4.332   7.609 -0.7396 -1.3705  1.3953
19483SOL     OW64794   4.841   2.015   8.912  0.0935  0.4834  0.2117
19483SOL    HW164795   4.890   1.976   8.984  0.9990  0.5759 -0.3383
19483SOL    HW264796   4.781   1.945   8.883  0.4650  0.0946  0.3717
19484SOL     OW64797   7.927   9.213   4.834 -0.3507 -0.1596 -0.5785
19484SOL    HW164798   7.972   9.142   4.788 -1.5322 -1.4850  0.2240
19484SOL    HW264799   7.997   9.272   4.861  0.6597 -0.9593 -1.3598
19485SOL     OW64800   3.442   3.565   8.577  0.4744  0.0721  0.5554
19485SOL    HW164801   3.402   3.517   8.505  1.0249  1.1551 -0.5074
19485SOL    HW264802   3.472   3.497   8.637  0.3464 -0.8688 -0.4151
19486SOL     OW64803   2.764   6.252   2.912  0.2224 -0.9852  0.3533
19486SOL    HW164804   2.695   6.189   2.890 -0.1685 -1.1019  1.8568
19486SOL    HW264805   2.742   6.330   2.860 -0.7042 -1.2201  0.3753
19487SOL     OW64806   7.918   8.414   6.527  0.2125 -0.0599  0.3489
19487SOL    HW164807   7.834   8.431   6.567 -0.7152  1.1123 -1.9049
19487SOL    HW264808   7.912   8.453   6.439  3.3056  0.6286  0.3091
19488SOL     OW64809   5.420   1.555   1.866  0.0303  0.1038 -1.0251
19488SOL    HW164810   5.482   1.484   1.847  0.9401  0.8495 -0.9259
19488SOL    HW264811   5.374   1.526   1.944 -0.1427 -0.7196 -1.4289
19489SOL     OW64812   4.743   2.365   6.193 -0.0915 -0.1246 -0.6533
19489SOL    HW164813   4.750   2.305   6.267 -0.2577 -0.2671 -0.7525
19489SOL    HW264814   4.770   2.450   6.228  0.1688 -0.2613 -0.5184
19490SOL     OW64815   8.716   0.291   1.582 -0.5504  0.0852 -0.1501
19490SOL    HW164816   8.664   0.250   1.650 -0.8893 -0.0119 -0.4631
19490SOL    HW264817   8.699   0.238   1.504 -1.2326  0.9852 -0.6387
19491SOL     OW64818   2.114   8.322   8.146  0.1421  0.4648 -0.7527
19491SOL    HW164819   2.191   8.370   8.117 -0.0650  0.7248 -0.8674
19491SOL    HW264820   2.071   8.380   8.209 -0.6927  0.8922 -1.6901
19492SOL     OW64821   4.495   4.287   2.518  0.2586  0.0396  0.4385
19492SOL    HW164822   4.512   4.381   2.514 -1.4081  0.4621  1.9833
19492SOL    HW264823   4.582   4.247   2.522  0.9755  1.5529  0.6159
19493SOL     OW64824   4.933   4.266   8.316 -0.2632  0.2863 -0.0284
19493SOL    HW164825   4.906   4.178   8.293  1.8015 -0.7428  1.2205
19493SOL    HW264826   4.932   4.268   8.412 -1.5095  2.0687 -0.0268
19494SOL     OW64827   6.091   2.968   2.517  0.2012  0.0654  0.2593
19494SOL    HW164828   6.140   2.888   2.537  1.0201  0.7719  1.2054
19494SOL    HW264829   6.150   3.019   2.461  0.3834  0.7137  1.0176
19495SOL     OW64830   3.212   7.081   5.999 -0.4622 -0.3611 -0.2937
19495SOL    HW164831   3.172   7.055   5.916 -1.0232  0.5403 -0.3186
19495SOL    HW264832   3.196   7.175   6.005  0.5282 -0.2184  0.3229
19496SOL     OW64833   5.268   3.353   5.299  0.6283 -0.8024 -0.2283
19496SOL    HW164834   5.318   3.303   5.363 -0.7013  0.1463  1.6631
19496SOL    HW264835   5.315   3.436   5.292 -1.5346  0.9392  3.1423
19497SOL     OW64836   1.734   2.108   5.976 -0.1865 -0.5737 -0.6517
19497SOL    HW164837   1.689   2.064   5.905 -0.1893  2.1009 -2.4444
19497SOL    HW264838   1.827   2.097   5.957 -0.0445 -2.7344  0.8972
19498SOL     OW64839   2.672   3.817   0.619 -1.2013 -0.0418 -0.0215
19498SOL    HW164840   2.755   3.786   0.581 -1.6266 -1.4013  0.1379
19498SOL    HW264841   2.651   3.896   0.568 -0.6518 -0.6184 -1.1678
19499SOL     OW64842   1.462   0.550   5.360 -0.0710 -0.1570  0.1903
19499SOL    HW164843   1.471   0.497   5.281  0.9995  0.2184  0.0414
19499SOL    HW264844   1.545   0.598   5.367 -0.5586  0.6210  0.9546
19500SOL     OW64845   5.059   2.750   0.142 -0.0825 -0.1933  0.1037
19500SOL    HW164846   5.145   2.708   0.147 -1.1647 -2.4019  3.1430
19500SOL    HW264847   5.069   2.818   0.075  4.1113 -0.1050  0.5769
19501SOL     OW64848   0.207   3.752   2.512  0.2186 -0.3569 -0.3165
19501SOL    HW164849   0.124   3.725   2.552  0.1990 -0.2789 -0.3028
19501SOL    HW264850   0.186   3.761   2.419 -0.1225  0.9097 -0.1380
19502SOL     OW64851   2.032   7.517   6.952  0.0715  0.0446 -0.0664
19502SOL    HW164852   2.042   7.422   6.941 -2.3034 -0.3414  0.5111
19502SOL    HW264853   1.974   7.543   6.881 -0.6702  0.7304  0.7602
19503SOL     OW64854   4.790   6.542   7.507 -0.2928 -0.2572 -0.2494
19503SOL    HW164855   4.697   6.530   7.488 -0.0964 -1.4428 -0.5533
19503SOL    HW264856   4.833   6.536   7.422  0.1222 -0.3988 -0.0343
19504SOL     OW64857   1.094   5.411   3.419 -0.3444 -0.1745  0.2619
19504SOL    HW164858   1.094   5.321   3.453  0.3175  0.1627  1.1859
19504SOL    HW264859   1.184   5.425   3.390 -0.4295  0.2172  0.1799
19505SOL     OW64860   6.176   0.627   4.968  0.2962  0.0490  0.2002
19505SOL    HW164861   6.184   0.691   5.039 -1.6388  1.2184 -0.5608
19505SOL    HW264862   6.126   0.672   4.900  1.0817 -1.4280 -1.4573
19506SOL     OW64863   1.187   5.993   1.001  0.6158  0.5903 -0.0974
19506SOL    HW164864   1.181   6.065   0.937  0.5565 -0.7827 -1.6983
19506SOL    HW264865   1.155   5.916   0.954  1.5846 -0.7023  1.2652
19507SOL     OW64866   0.214   4.061   1.696 -0.6139  0.4116 -0.5919
19507SOL    HW164867   0.263   4.008   1.758 -2.6919  0.2209  1.0060
19507SOL    HW264868   0.208   4.008   1.617  0.7919  0.0198 -0.4561
19508SOL     OW64869   8.469   1.067   8.624 -0.3783 -0.1933 -0.5271
19508SOL    HW164870   8.559   1.036   8.621 -0.4765 -0.4311 -1.0386
19508SOL    HW264871   8.429   1.033   8.544 -0.3925  1.5146 -1.2933
19509SOL     OW64872   8.491   0.852   1.783 -0.0657  0.1674 -0.1428
19509SOL    HW164873   8.578   0.830   1.750 -1.5450 -2.5694 -2.7081
19509SOL    HW264874   8.488   0.813   1.870  1.1807  0.0471 -0.1352
19510SOL     OW64875   3.714   7.893   4.617  0.7490  0.1697 -0.2052
19510SOL    HW164876   3.695   7.843   4.697  1.9075  0.1669  0.0893
19510SOL    HW264877   3.802   7.864   4.592  0.7517  0.8326 -0.9878
19511SOL     OW64878   6.984   2.542   4.894 -0.3076  0.3511  0.3157
19511SOL    HW164879   6.898   2.553   4.853 -0.6525  0.6117  1.0830
19511SOL    HW264880   7.041   2.513   4.823 -0.7963  1.1521 -0.4264
19512SOL     OW64881   8.470   6.285   5.196 -0.0754  0.3130  0.5227
19512SOL    HW164882   8.479   6.364   5.250  1.5308  1.0480 -0.7554
19512SOL    HW264883   8.538   6.226   5.228 -0.7132 -0.2471  0.8947
19513SOL     OW64884   2.556   1.042   9.106 -0.2331 -0.4596  0.4014
19513SOL    HW164885   2.598   0.989   9.038  1.6087  0.8579  0.4203
19513SOL    HW264886   2.530   0.979   9.173  1.7202 -1.4009  0.3411
19514SOL     OW64887   6.970   5.522   6.684  0.4506 -0.2334  0.4054
19514SOL    HW164888   7.065   5.524   6.699  0.1759  1.2789  2.2514
19514SOL    HW264889   6.941   5.612   6.700 -1.6724 -1.2117  2.6594
19515SOL     OW64890   8.023   1.379   4.679  0.2106 -0.0905 -0.5692
19515SOL    HW164891   8.019   1.292   4.719  1.0440  0.4916  0.8405
19515SOL    HW264892   7.933   1.411   4.683  0.0677 -0.5214 -0.2380
19516SOL     OW64893   1.195   0.397   5.272 -0.3243  0.3101  0.3002
19516SOL    HW164894   1.257   0.470   5.274  1.9753 -1.4854 -0.7347
19516SOL    HW264895   1.177   0.379   5.365  1.0563  0.6486  0.6604
19517SOL     OW64896   3.222   0.238   3.030  0.3660  0.3399  0.3395
19517SOL    HW164897   3.218   0.306   2.962  1.8383  0.3889  0.2596
19517SOL    HW264898   3.238   0.287   3.111 -0.1210  0.1945  0.5244
19518SOL     OW64899   7.665   5.350   5.580  0.4385  0.3022  0.1763
19518SOL    HW164900   7.576   5.316   5.578  0.1273  0.9729  1.6096
19518SOL    HW264901   7.703   5.322   5.496 -0.8118 -0.7685 -0.0658
19519SOL     OW64902   0.112   1.015   2.487 -0.4151  0.2613  0.5104
19519SOL    HW164903   0.035   0.982   2.441  0.7772  0.6312 -1.8966
19519SOL    HW264904   0.155   0.936   2.520  0.0788 -0.3205 -1.3700
19520SOL     OW64905   5.042   8.410   1.615  0.4062 -0.2886 -0.1439
19520SOL    HW164906   5.071   8.336   1.561 -0.3757 -0.9959  0.3883
19520SOL    HW264907   4.967   8.447   1.566  0.4515 -0.1810 -0.1332
19521SOL     OW64908   5.251   8.532   7.094  0.1728  0.1525 -0.7168
19521SOL    HW164909   5.173   8.478   7.108  0.1252  0.1648 -0.9329
19521SOL    HW264910   5.250   8.553   7.001  0.7857 -0.4008 -0.8597
19522SOL     OW64911   7.732   3.144   4.965 -0.1462 -0.2782 -0.0619
19522SOL    HW164912   7.759   3.226   4.925 -1.3482  0.5825  0.8281
19522SOL    HW264913   7.642   3.160   4.995 -0.7198 -2.1960 -0.6318
19523SOL     OW64914   6.591   1.582   4.254 -0.1480 -0.4995  0.3875
19523SOL    HW164915   6.554   1.588   4.166  1.4394  1.0074 -0.2276
19523SOL    HW264916   6.629   1.494   4.257  0.1101 -0.4316 -0.5679
19524SOL     OW64917   5.160   3.034   3.867  0.1021 -0.2192 -0.2478
19524SOL    HW164918   5.075   3.007   3.831 -0.7919  2.2566 -0.1924
19524SOL    HW264919   5.219   3.038   3.792 -0.8872  1.6971 -1.0040
19525SOL     OW64920   5.847   7.404   6.629 -0.0621 -0.0171 -0.3319
19525SOL    HW164921   5.897   7.349   6.690 -0.6931  0.1781  0.3791
19525SOL    HW264922   5.781   7.345   6.592  0.0572 -0.0352 -0.5181
19526SOL     OW64923   8.257   1.133   3.841 -0.3069 -0.0361  0.2610
19526SOL    HW164924   8.316   1.162   3.911  1.1026 -0.9131 -0.5043
19526SOL    HW264925   8.244   1.210   3.787 -0.1412  0.2589  0.6401
19527SOL     OW64926   8.369   9.192   2.698 -0.0559 -0.0973  0.5301
19527SOL    HW164927   8.435   9.140   2.651  0.7675  1.4716 -0.1113
19527SOL    HW264928   8.306   9.217   2.630  0.7511  1.5655  0.3407
19528SOL     OW64929   1.413   1.342   2.032 -0.3410  0.5433 -0.0928
19528SOL    HW164930   1.346   1.279   2.058 -1.4724  1.3725 -0.8663
19528SOL    HW264931   1.467   1.296   1.969 -1.0473  0.2772 -0.5137
19529SOL     OW64932   1.089   4.253   3.543  0.0078  0.0756 -0.5033
19529SOL    HW164933   1.064   4.257   3.635 -0.2397  0.2755 -0.5776
19529SOL    HW264934   1.006   4.252   3.496  0.0731 -1.6564 -0.6722
19530SOL     OW64935   5.461   6.826   7.815  0.1112 -0.7949 -0.2328
19530SOL    HW164936   5.556   6.836   7.807  0.1989 -0.6597  0.8910
19530SOL    HW264937   5.443   6.838   7.908 -1.3765  2.3481 -0.7837
19531SOL     OW64938   2.270   4.213   3.968  0.1767  0.1939  0.4618
19531SOL    HW164939   2.249   4.140   4.026 -0.0105 -0.0439  0.0918
19531SOL    HW264940   2.202   4.278   3.987  0.3229  0.2640  0.7643
19532SOL     OW64941   7.361   3.609   3.097 -0.5738  0.0914  0.4019
19532SOL    HW164942   7.414   3.604   3.176 -1.6762  0.9093  1.2205
19532SOL    HW264943   7.282   3.658   3.123 -0.3802  1.5529 -1.5177
19533SOL     OW64944   0.919   0.676   4.492  0.0935 -0.0366 -0.2378
19533SOL    HW164945   0.829   0.702   4.474  0.1499 -0.8382 -1.9029
19533SOL    HW264946   0.928   0.685   4.587 -1.1861  1.7202 -0.2284
19534SOL     OW64947   4.952   0.971   6.579  0.1810  0.0372  0.1547
19534SOL    HW164948   4.982   0.973   6.488  1.2901 -0.8478  0.4640
19534SOL    HW264949   4.958   1.061   6.609  0.8321  0.1675 -0.3498
19535SOL     OW64950   3.636   8.851   3.830 -0.0537  0.0892 -0.1375
19535SOL    HW164951   3.567   8.873   3.892 -0.1855  1.2045 -0.6785
19535SOL    HW264952   3.713   8.898   3.862 -0.2879  1.2322 -1.1759
19536SOL     OW64953   7.271   1.105   0.683 -0.1663 -0.5050  0.3241
19536SOL    HW164954   7.358   1.141   0.698  0.0835 -0.0999 -1.7577
19536SOL    HW264955   7.287   1.012   0.663 -0.0511 -0.2009 -1.1248
19537SOL     OW64956   5.301   2.864   2.879  0.1333  0.1665  0.3293
19537SOL    HW164957   5.213   2.866   2.840  0.1427  0.5984  0.3280
19537SOL    HW264958   5.321   2.771   2.886  0.5058  0.0527 -1.5497
19538SOL     OW64959   7.057   7.725   5.049  0.0872  0.0497 -0.5183
19538SOL    HW164960   7.078   7.634   5.069  1.4355  0.3635 -0.4025
19538SOL    HW264961   7.112   7.746   4.974  2.7241  1.8512  1.7260
19539SOL     OW64962   0.483   3.444   7.415 -0.7673 -0.2394 -0.7823
19539SOL    HW164963   0.460   3.356   7.383  0.3052 -0.5068 -0.8401
19539SOL    HW264964   0.465   3.439   7.509 -1.6531 -0.1991 -0.9388
19540SOL     OW64965   1.656   7.851   3.342  0.0187  0.5991  0.2742
19540SOL    HW164966   1.637   7.789   3.413  0.2011  0.2846  0.0489
19540SOL    HW264967   1.637   7.936   3.380 -0.1318  0.4149  0.6227
19541SOL     OW64968   0.489   5.976   0.259  0.2326 -0.0793  0.3968
19541SOL    HW164969   0.579   6.006   0.255  0.5863 -1.2191 -1.8650
19541SOL    HW264970   0.443   6.028   0.193 -0.0635 -1.4924 -0.5665
19542SOL     OW64971   9.116   6.936   2.790  0.2460 -0.1985 -0.4255
19542SOL    HW164972   9.071   6.980   2.862  0.3069 -1.3385  0.3406
19542SOL    HW264973   9.049   6.926   2.723 -0.3771 -0.8982  0.2769
19543SOL     OW64974   8.514   6.275   0.461  0.4657  0.2309  0.1904
19543SOL    HW164975   8.505   6.317   0.375 -1.2130 -0.2139  0.1031
19543SOL    HW264976   8.590   6.217   0.453 -1.3140 -2.0265 -2.0175
19544SOL     OW64977   0.624   1.445   6.545 -0.4902  0.0746  0.2756
19544SOL    HW164978   0.554   1.504   6.515 -0.5357 -0.8696 -1.6329
19544SOL    HW264979   0.595   1.358   6.519  0.6743 -0.5249  0.9044
19545SOL     OW64980   1.482   4.917   7.461 -0.1564 -0.2373 -0.2763
19545SOL    HW164981   1.475   4.905   7.366 -0.8997  0.1539 -0.2775
19545SOL    HW264982   1.464   4.830   7.497 -2.2800  0.1156 -0.4068
19546SOL     OW64983   2.873   4.632   6.881 -0.8566  0.3541 -0.0255
19546SOL    HW164984   2.789   4.667   6.910 -0.1435  1.7080  0.4890
19546SOL    HW264985   2.936   4.702   6.898  0.1721 -0.1112 -1.6306
19547SOL     OW64986   4.626   7.166   3.197  0.5585 -0.0772  0.3511
19547SOL    HW164987   4.715   7.196   3.178  0.3581  1.8102  2.0221
19547SOL    HW264988   4.569   7.229   3.152  0.0364 -1.4464 -0.9583
19548SOL     OW64989   8.550   0.200   3.129 -0.0261 -0.0760 -0.1595
19548SOL    HW164990   8.645   0.217   3.129 -0.0243 -0.0278  0.7310
19548SOL    HW264991   8.511   0.288   3.125 -0.0164  0.0057  1.0220
19549SOL     OW64992   3.100   8.684   2.935 -0.3548 -0.1267  0.0896
19549SOL    HW164993   3.042   8.710   3.007  0.0193 -0.2876  0.4566
19549SOL    HW264994   3.188   8.685   2.974 -0.1358 -0.0858 -0.4045
19550SOL     OW64995   9.080   4.710   6.145  0.2846 -0.2659  0.0707
19550SOL    HW164996   8.996   4.743   6.175  0.3628  0.4898 -0.5104
19550SOL    HW264997   9.140   4.783   6.158  1.5995 -1.6930  3.4152
19551SOL     OW64998   3.277   6.383   5.405  0.2350 -0.1560 -0.0819
19551SOL    HW164999   3.254   6.408   5.495 -1.3767 -0.0956 -0.4937
19551SOL    HW265000   3.216   6.431   5.350  0.6623 -0.8485 -1.1840
19552SOL     OW65001   0.815   4.274   4.000  0.5335  0.1081  0.6451
19552SOL    HW165002   0.907   4.300   4.000  1.3459 -2.3924 -1.2337
19552SOL    HW265003   0.817   4.180   3.981 -2.4026 -0.1835  1.3571
19553SOL     OW65004   2.995   9.133   3.288  0.1860  0.4578  0.2187
19553SOL    HW165005   2.934   9.176   3.227  0.4665  0.9073  0.2517
19553SOL    HW265006   2.939   9.078   3.343  0.0017 -0.5257 -0.9102
19554SOL     OW65007   6.591   1.198   4.023 -0.1371  0.5327  0.1596
19554SOL    HW165008   6.611   1.209   4.116 -1.8138  0.6262  0.5457
19554SOL    HW265009   6.668   1.154   3.987  1.4889  2.4425  1.1123
19555SOL     OW65010   4.486   6.609   2.659 -0.2845 -0.1287 -0.5016
19555SOL    HW165011   4.528   6.604   2.745 -0.7679 -0.1828 -0.2617
19555SOL    HW265012   4.558   6.614   2.597  0.0951 -1.1609 -0.1698
19556SOL     OW65013   9.103   3.430   5.902  0.3624  0.0632 -0.4008
19556SOL    HW165014   9.086   3.345   5.861 -0.7059  0.3990 -0.6778
19556SOL    HW265015   9.114   3.491   5.829 -0.7548  0.5127 -0.2071
19557SOL     OW65016   6.896   7.509   3.668  0.2256 -0.0155 -0.2738
19557SOL    HW165017   6.857   7.443   3.725  0.6477  1.1705  1.4814
19557SOL    HW265018   6.863   7.592   3.702  2.4002  0.8856 -0.1821
19558SOL     OW65019   7.576   8.560   5.576 -0.0445  0.0791 -0.4478
19558SOL    HW165020   7.664   8.530   5.597 -0.2636  1.7346  3.6931
19558SOL    HW265021   7.590   8.635   5.518  0.9876 -1.4988 -2.3513
19559SOL     OW65022   3.670   5.184   9.110  0.3992 -0.1986  0.1827
19559SOL    HW165023   3.740   5.122   9.127  0.2296 -0.4555 -0.0449
19559SOL    HW265024   3.612   5.176   9.186  1.1774  0.8106  0.9019
19560SOL     OW65025   6.249   8.559   7.365  0.5372  0.5629  0.3153
19560SOL    HW165026   6.264   8.639   7.314 -1.9075  1.0655  0.2586
19560SOL    HW265027   6.202   8.588   7.443 -1.1486 -0.8612 -0.0964
19561SOL     OW65028   4.279   3.332   8.424 -0.0414  0.4344 -0.9104
19561SOL    HW165029   4.249   3.311   8.512  0.7272 -0.3472 -0.8216
19561SOL    HW265030   4.277   3.428   8.420  2.1869  0.6357  0.8098
19562SOL     OW65031   8.574   4.758   7.884 -0.0737  0.1473 -0.0645
19562SOL    HW165032   8.611   4.673   7.861  0.8165  0.0481  1.5945
19562SOL    HW265033   8.479   4.744   7.880  0.0506 -1.1654  0.9146
19563SOL     OW65034   4.148   0.150   0.993 -0.2240  0.3326 -0.1493
19563SOL    HW165035   4.227   0.182   0.950 -1.0696  0.8227 -1.3804
19563SOL    HW265036   4.076   0.187   0.943 -1.2485 -0.7670  0.4462
19564SOL     OW65037   8.196   6.269   6.217 -0.3108 -0.9300 -0.4346
19564SOL    HW165038   8.165   6.190   6.262 -0.7488 -0.4376  0.1521
19564SOL    HW265039   8.239   6.236   6.138  1.2352 -1.8872  0.7377
19565SOL     OW65040   0.737   1.681   6.336 -0.1287  0.0673 -0.1658
19565SOL    HW165041   0.744   1.639   6.422 -1.6116 -1.0433 -0.5531
19565SOL    HW265042   0.735   1.774   6.355 -3.6503 -0.1577  1.3579
19566SOL     OW65043   4.756   2.645   0.773  0.2569 -0.3341  0.1813
19566SOL    HW165044   4.761   2.741   0.768 -1.7953 -0.1781  0.4354
19566SOL    HW265045   4.746   2.626   0.866  1.8482 -0.9125  0.2700
19567SOL     OW65046   2.334   0.943   7.825 -0.0299 -0.0895  0.6529
19567SOL    HW165047   2.367   0.985   7.904 -0.3311  2.2087 -0.3526
19567SOL    HW265048   2.413   0.925   7.773  0.0188  0.5222  0.5086
19568SOL     OW65049   2.627   8.720   8.089  0.3801  0.6560 -0.5021
19568SOL    HW165050   2.663   8.681   8.169 -0.6695 -0.2391 -0.4419
19568SOL    HW265051   2.698   8.774   8.055  0.8796  0.9953  0.9882
19569SOL     OW65052   2.133   9.029   1.392 -0.0066  0.4783 -0.0190
19569SOL    HW165053   2.173   9.114   1.412  0.6978 -0.5588  3.7836
19569SOL    HW265054   2.207   8.969   1.384 -0.5538 -0.3241  0.7122
19570SOL     OW65055   7.872   0.737   1.454  0.2505  0.6215 -0.0670
19570SOL    HW165056   7.842   0.752   1.364 -1.6733  3.7373  0.9084
19570SOL    HW265057   7.936   0.806   1.470  1.5307 -0.6800  0.6116
19571SOL     OW65058   5.643   9.080   7.347 -0.4920 -0.3613 -0.0950
19571SOL    HW165059   5.655   9.034   7.264  0.3809 -1.0006  0.3667
19571SOL    HW265060   5.623   9.011   7.410  1.1510 -0.2041  0.6755
19572SOL     OW65061   0.854   1.811   1.996 -0.1756 -0.4679 -0.0497
19572SOL    HW165062   0.904   1.729   1.992  0.6234 -0.1731  2.3461
19572SOL    HW265063   0.844   1.828   2.090 -0.6755  1.9778 -0.4897
19573SOL     OW65064   6.829   2.999   5.914  0.3367 -0.2587 -0.0830
19573SOL    HW165065   6.767   2.972   5.847 -0.0315  1.0601 -0.3065
19573SOL    HW265066   6.774   3.025   5.988  0.6429  0.2870 -0.0419
19574SOL     OW65067   4.742   1.299   4.334  0.3587  0.3936  0.0943
19574SOL    HW165068   4.703   1.379   4.299 -3.0173 -0.2132  2.0164
19574SOL    HW265069   4.784   1.325   4.415  0.3410  0.4137  0.0968
19575SOL     OW65070   7.654   0.184   6.480  0.1311  0.5019  0.6531
19575SOL    HW165071   7.708   0.109   6.454  1.0601  1.8191 -1.4091
19575SOL    HW265072   7.579   0.145   6.525  1.9584 -1.4873  2.2180
19576SOL     OW65073   8.397   0.210   2.358  0.5157 -0.1276 -0.3907
19576SOL    HW165074   8.382   0.292   2.406 -2.1986  0.4011 -1.9418
19576SOL    HW265075   8.488   0.216   2.330  1.2097  1.0499  1.8080
19577SOL     OW65076   2.893   8.944   2.992 -0.2413  0.4904 -0.2474
19577SOL    HW165077   2.901   8.875   3.057  1.5437  0.6234 -0.2996
19577SOL    HW265078   2.802   8.936   2.961 -0.4943 -0.9096  0.7373
19578SOL     OW65079   0.810   7.510   1.840  0.3329 -0.1367 -0.3216
19578SOL    HW165080   0.800   7.546   1.752  0.6217  0.2312 -0.2061
19578SOL    HW265081   0.904   7.493   1.849  0.1738 -1.1359 -0.4587
19579SOL     OW65082   6.448   1.329   5.360  0.2461  0.3145 -0.1188
19579SOL    HW165083   6.528   1.280   5.342  0.2615  0.7490 -1.3889
19579SOL    HW265084   6.474   1.396   5.423  0.2856 -1.1002  1.4195
19580SOL     OW65085   4.809   2.692   0.198 -0.0254  0.2477 -0.3270
19580SOL    HW165086   4.789   2.786   0.195 -2.0390 -0.0341  1.3695
19580SOL    HW265087   4.902   2.687   0.176  0.5322  2.8054  0.9589
19581SOL     OW65088   3.609   4.399   1.522 -0.3649  0.3872  0.2863
19581SOL    HW165089   3.569   4.312   1.523  1.1815 -0.3602  1.3958
19581SOL    HW265090   3.541   4.457   1.554 -0.8156 -0.7301  1.4168
19582SOL     OW65091   2.498   7.392   6.181  0.0036  0.3711 -0.3557
19582SOL    HW165092   2.572   7.349   6.223  0.0361  0.5710 -0.2078
19582SOL    HW265093   2.442   7.422   6.253  0.3080  1.1500 -0.4351
19583SOL     OW65094   5.420   4.354   8.646 -0.2441  0.4770  0.6599
19583SOL    HW165095   5.342   4.334   8.697 -1.1689 -0.4469 -1.0334
19583SOL    HW265096   5.419   4.449   8.635 -1.1464  0.4731  0.6442
19584SOL     OW65097   2.066   4.316   3.197 -0.2303  0.2310 -0.2876
19584SOL    HW165098   2.068   4.407   3.169  0.0406  0.5337  0.6710
19584SOL    HW265099   2.151   4.281   3.169 -0.6026  0.0862 -1.2438
19585SOL     OW65100   4.825   4.035   8.520 -0.2958  0.4452  0.0851
19585SOL    HW165101   4.790   3.967   8.577  0.2959 -1.4037 -1.6259
19585SOL    HW265102   4.748   4.087   8.495 -1.0327 -0.5312  0.2539
19586SOL     OW65103   2.689   4.006   7.918 -0.1151 -0.3497 -0.2683
19586SOL    HW165104   2.629   3.942   7.880 -0.1942  0.5702 -1.7903
19586SOL    HW265105   2.767   4.001   7.863 -0.3032  1.1468 -0.7226
19587SOL     OW65106   3.559   4.233   1.056 -0.5158  0.2453 -0.5435
19587SOL    HW165107   3.528   4.290   1.127 -1.3647 -1.8033  0.8317
19587SOL    HW265108   3.596   4.293   0.992 -0.0687  2.2318  1.4457
19588SOL     OW65109   2.907   1.759   2.561  0.0228  0.8148  0.1836
19588SOL    HW165110   2.871   1.712   2.636 -0.0513 -0.5760 -0.6999
19588SOL    HW265111   3.002   1.759   2.576  0.0485  0.1333  0.0562
19589SOL     OW65112   5.563   6.009   6.079  0.1027 -0.1445  0.0757
19589SOL    HW165113   5.555   5.955   6.158 -0.2789 -1.6453 -0.9472
19589SOL    HW265114   5.657   6.008   6.059  0.2417  0.4937  0.6666
19590SOL     OW65115   7.303   8.281   6.694 -0.3350 -0.4871  0.0458
19590SOL    HW165116   7.270   8.220   6.760 -0.1728  0.5440  1.1243
19590SOL    HW265117   7.262   8.253   6.612 -3.1491  0.1241  1.1435
19591SOL     OW65118   3.926   1.587   2.660 -0.6021 -0.0021 -0.1305
19591SOL    HW165119   3.968   1.672   2.667 -0.7668  0.0491  0.2608
19591SOL    HW265120   3.958   1.538   2.736 -0.1076 -0.4687 -0.6315
19592SOL     OW65121   3.209   5.771   1.108  0.0882  0.0382 -0.3071
19592SOL    HW165122   3.206   5.731   1.022  1.7654  0.3024 -0.5369
19592SOL    HW265123   3.233   5.699   1.167 -1.0879 -0.1498 -0.0427
19593SOL     OW65124   4.523   5.359   1.647  0.1310 -0.5328  0.0085
19593SOL    HW165125   4.500   5.313   1.566 -0.9450 -0.4853  0.2723
19593SOL    HW265126   4.443   5.404   1.672  1.4360  2.6112 -0.9579
19594SOL     OW65127   3.057   7.838   5.757 -0.2127 -0.7775 -0.4462
19594SOL    HW165128   3.108   7.804   5.684  2.4136 -2.1001  1.8090
19594SOL    HW265129   3.122   7.868   5.820 -2.3008 -0.6415  1.7842
19595SOL     OW65130   0.880   8.305   3.784 -0.0628  0.7114 -0.2739
19595SOL    HW165131   0.923   8.358   3.850  2.2659 -0.3049 -0.8697
19595SOL    HW265132   0.894   8.353   3.702  0.7178 -0.0279 -0.5899
19596SOL     OW65133   3.280   6.292   7.117 -0.2256  0.7406  0.5378
19596SOL    HW165134   3.298   6.322   7.027 -0.7670  1.7706  0.7585
19596SOL    HW265135   3.191   6.322   7.135  0.2404  1.4358  1.7865
19597SOL     OW65136   1.177   6.162   1.214 -0.1667 -0.0013 -0.0112
19597SOL    HW165137   1.182   6.079   1.167 -2.1108  0.2217 -0.6871
19597SOL    HW265138   1.231   6.222   1.162 -2.4512  0.2975 -2.1948
19598SOL     OW65139   5.451   3.199   3.625  0.5996  0.6140  0.6286
19598SOL    HW165140   5.383   3.177   3.561 -1.0379 -0.5031  2.6269
19598SOL    HW265141   5.412   3.268   3.678  1.0207  0.0298  1.7383
19599SOL     OW65142   7.262   7.429   5.994 -0.7772  0.0376  0.1458
19599SOL    HW165143   7.255   7.525   5.993  0.1525  0.1574 -2.2607
19599SOL    HW265144   7.300   7.408   6.079  0.7184  1.9828  0.0212
19600SOL     OW65145   1.230   1.993   9.203  0.4766  0.0509  0.1824
19600SOL    HW165146   1.181   2.073   9.220 -0.3673 -0.5706  0.8091
19600SOL    HW265147   1.321   2.021   9.199  0.1369  1.1411 -0.3550
19601SOL     OW65148   3.747   4.796   8.369  0.4618  0.2116  0.2255
19601SOL    HW165149   3.783   4.739   8.438 -0.2835  0.2522  0.6599
19601SOL    HW265150   3.798   4.774   8.291  1.4956  0.3521  0.8512
19602SOL     OW65151   3.264   3.514   3.820 -0.2370  0.7889  0.3137
19602SOL    HW165152   3.326   3.519   3.747  0.8187  1.3075  1.2153
19602SOL    HW265153   3.310   3.462   3.887 -0.4428  1.8389  1.3040
19603SOL     OW65154   0.766   5.919   7.451 -0.3166 -0.0750  0.9031
19603SOL    HW165155   0.722   5.994   7.492 -0.8192  0.7820 -1.0546
19603SOL    HW265156   0.694   5.860   7.426 -0.6386  1.5564 -2.7513
19604SOL     OW65157   8.940   3.756   8.838 -0.0580  0.0653  0.2626
19604SOL    HW165158   9.019   3.704   8.856  0.2359  0.5238  0.3108
19604SOL    HW265159   8.970   3.827   8.781 -0.7476 -0.6748 -1.0652
19605SOL     OW65160   4.057   3.821   1.876  0.2759 -0.3540  0.3795
19605SOL    HW165161   4.146   3.851   1.899 -0.3089  1.0477  0.9174
19605SOL    HW265162   4.003   3.848   1.950 -0.9004  0.3146 -0.6951
19606SOL     OW65163   6.654   5.832   7.439 -0.3073  0.2097  0.3695
19606SOL    HW165164   6.706   5.910   7.421 -0.5811  0.2925 -0.0696
19606SOL    HW265165   6.588   5.830   7.369 -0.8267  0.0541  0.8510
19607SOL     OW65166   5.631   0.887   6.993 -0.1075  0.4094  0.5918
19607SOL    HW165167   5.686   0.837   7.054  0.5851  0.7710  0.2811
19607SOL    HW265168   5.541   0.864   7.017  0.1864 -1.1194  0.3373
19608SOL     OW65169   0.574   1.104   5.769 -0.2579  0.3159 -0.0384
19608SOL    HW165170   0.616   1.081   5.686  0.3884  0.0457  0.3545
19608SOL    HW265171   0.503   1.042   5.778 -1.7335  1.7033 -1.4348
19609SOL     OW65172   8.991   3.632   8.180 -0.0776 -1.0221 -0.0831
19609SOL    HW165173   9.024   3.659   8.094 -1.3632  0.1790 -0.2541
19609SOL    HW265174   9.046   3.558   8.205 -0.1048 -1.8623 -2.2499
19610SOL     OW65175   1.887   4.566   4.732 -0.3772 -0.4300 -0.1070
19610SOL    HW165176   1.890   4.660   4.717  0.9654 -0.3611  0.4687
19610SOL    HW265177   1.899   4.527   4.645  0.3378 -0.0554 -0.1855
19611SOL     OW65178   8.579   5.772   2.848  0.1129  0.8074 -0.4085
19611SOL    HW165179   8.537   5.812   2.924 -0.3146 -1.5658  0.6871
19611SOL    HW265180   8.671   5.763   2.873  0.2542  1.2820 -0.7448
19612SOL     OW65181   5.612   4.948   7.052 -0.1894 -0.0316  0.0412
19612SOL    HW165182   5.671   4.940   6.977  1.1036  0.6164  0.9424
19612SOL    HW265183   5.581   4.859   7.068  2.5333 -0.9175  1.0331
19613SOL     OW65184   0.719   5.537   6.721  0.0486  0.0308 -0.1153
19613SOL    HW165185   0.689   5.490   6.800 -2.1263  1.6329  0.0939
19613SOL    HW265186   0.695   5.479   6.649 -0.6634 -0.1576  0.2574
19614SOL     OW65187   2.748   0.001   7.043 -0.1378 -0.5424 -0.1419
19614SOL    HW165188   2.662  -0.039   7.054 -0.0482 -0.4312  1.0988
19614SOL    HW265189   2.731   0.095   7.039 -0.1872 -0.5898 -1.2718
19615SOL     OW65190   4.332   0.975   4.791  0.1564 -0.9851  0.4070
19615SOL    HW165191   4.381   0.893   4.790  0.9889 -0.5332 -2.3810
19615SOL    HW265192   4.394   1.040   4.825 -0.0051 -1.1914  1.1239
19616SOL     OW65193   0.573   7.942   6.743  1.1711 -0.7105 -0.2440
19616SOL    HW165194   0.554   8.024   6.790  1.0409 -1.1460  0.4773
19616SOL    HW265195   0.488   7.910   6.714  1.3405  0.0773 -1.6947
19617SOL     OW65196   1.407   7.932   7.202  0.0871 -0.5284  0.2368
19617SOL    HW165197   1.321   7.958   7.235 -0.6756 -1.7958 -0.6685
19617SOL    HW265198   1.466   7.946   7.276 -0.3557  2.8485  0.1040
19618SOL     OW65199   8.526   0.662   0.133  0.1296  0.1978 -0.3605
19618SOL    HW165200   8.461   0.593   0.149 -0.6372  1.2958  1.6049
19618SOL    HW265201   8.574   0.668   0.216  0.8195  1.3559 -0.8286
19619SOL     OW65202   2.382   9.155   6.578  0.1494  0.8001  0.5412
19619SOL    HW165203   2.412   9.127   6.491 -0.3997  0.7195  0.3768
19619SOL    HW265204   2.362   9.248   6.567 -0.6246  0.6221  0.3861
19620SOL     OW65205   1.075   3.317   5.477  0.4579 -0.3762  0.3124
19620SOL    HW165206   1.052   3.354   5.392 -0.5362  0.5346  0.9498
19620SOL    HW265207   1.042   3.227   5.474  1.2425 -0.6504 -0.5792
19621SOL     OW65208   1.922   6.126   2.293 -0.0275  0.1320 -0.1322
19621SOL    HW165209   1.887   6.099   2.378  0.7229  2.5682  1.0328
19621SOL    HW265210   2.005   6.169   2.313 -0.3278  1.7236 -1.9506
19622SOL     OW65211   0.898   1.617   7.839  0.3051 -0.0534  0.2213
19622SOL    HW165212   0.896   1.700   7.792  0.5014 -1.1589 -1.8534
19622SOL    HW265213   0.820   1.570   7.808 -0.5590 -0.1549  2.3976
19623SOL     OW65214   3.166   6.277   0.847 -0.0779 -1.0232 -0.9479
19623SOL    HW165215   3.219   6.250   0.922  0.0436  1.2820 -0.1150
19623SOL    HW265216   3.169   6.373   0.848 -2.0242 -0.8589 -2.5039
19624SOL     OW65217   6.883   5.485   3.609 -0.5811  0.3510 -0.0412
19624SOL    HW165218   6.869   5.467   3.516 -2.3370 -0.9546  0.4175
19624SOL    HW265219   6.795   5.486   3.646  0.0132  2.0145  1.4309
19625SOL     OW65220   2.583   4.039   8.388 -0.0732  0.5294  0.2246
19625SOL    HW165221   2.659   4.095   8.379 -0.2148  1.0365  1.8572
19625SOL    HW265222   2.605   3.979   8.459 -1.0134  0.3873  0.4166
19626SOL     OW65223   1.801   4.574   3.324 -0.1402 -0.1717 -0.4492
19626SOL    HW165224   1.872   4.571   3.261  0.3502 -0.4417  0.1080
19626SOL    HW265225   1.834   4.528   3.400 -1.7237 -2.3334 -0.9864
19627SOL     OW65226   1.762   4.147   4.375  0.2073 -1.1704 -0.2366
19627SOL    HW165227   1.689   4.208   4.390  0.3544 -0.9792 -0.2996
19627SOL    HW265228   1.801   4.136   4.462  2.1712  1.3313 -0.6793
19628SOL     OW65229   2.683   0.014   5.178  0.3079  0.4535  0.3217
19628SOL    HW165230   2.756  -0.038   5.143  0.9796  0.4929  1.5972
19628SOL    HW265231   2.641   0.052   5.101  0.0990 -1.5697 -0.6242
19629SOL     OW65232   3.034   5.212   6.153 -0.6953 -0.6765 -0.1649
19629SOL    HW165233   3.099   5.166   6.205 -2.0363 -1.2478  1.0721
19629SOL    HW265234   2.955   5.158   6.159 -1.2196 -0.1831 -1.8817
19630SOL     OW65235   4.742   8.421   5.452  0.0435 -0.0177  0.1851
19630SOL    HW165236   4.700   8.494   5.499 -2.4651 -1.5192  0.4730
19630SOL    HW265237   4.823   8.405   5.501  0.1682  1.8798  0.7127
19631SOL     OW65238   0.051   1.423   0.281  0.3342 -0.0933  0.2205
19631SOL    HW165239   0.072   1.385   0.196  0.6169 -0.6595  0.5408
19631SOL    HW265240  -0.015   1.364   0.318 -0.4785  0.6580  0.0079
19632SOL     OW65241   6.892   3.786   6.510  0.5265  0.5022  0.6614
19632SOL    HW165242   6.909   3.706   6.460  0.0828  1.1240 -0.5231
19632SOL    HW265243   6.826   3.760   6.574  1.0730 -0.3016  0.9103
19633SOL     OW65244   7.626   0.090   5.258  0.2902  0.6705 -0.1061
19633SOL    HW165245   7.580   0.069   5.340 -0.3966  1.5595 -0.2494
19633SOL    HW265246   7.606   0.015   5.201  1.1855 -0.1993  0.6744
19634SOL     OW65247   7.129   8.432   7.017 -0.5720  0.4636 -0.0273
19634SOL    HW165248   7.089   8.516   7.041  1.3418  2.1750 -2.3191
19634SOL    HW265249   7.061   8.387   6.966 -1.2231  1.1275  0.2298
19635SOL     OW65250   4.602   6.827   7.266 -0.0848 -0.4589 -0.2940
19635SOL    HW165251   4.628   6.870   7.347 -1.0235 -0.2102 -0.1148
19635SOL    HW265252   4.671   6.849   7.204 -0.4588  1.2134 -0.1693
19636SOL     OW65253   2.184   5.570   8.369 -1.2500  0.0506 -0.3566
19636SOL    HW165254   2.209   5.523   8.449 -0.7131 -0.0418 -0.5775
19636SOL    HW265255   2.091   5.550   8.358 -0.8483 -1.6981 -0.9266
19637SOL     OW65256   5.655   4.670   7.034 -0.5418 -0.6322 -0.4743
19637SOL    HW165257   5.715   4.597   7.019 -0.9704 -1.6910  2.3864
19637SOL    HW265258   5.568   4.631   7.022 -0.7596 -0.4671  0.5449
19638SOL     OW65259   9.061   0.221   6.779 -0.3346 -0.1937 -0.4535
19638SOL    HW165260   9.126   0.286   6.808  0.2486 -0.3775 -1.3145
19638SOL    HW265261   8.995   0.221   6.849  1.4530 -1.2884  1.3619
19639SOL     OW65262   3.102   5.201   4.560 -0.1774 -0.2536  0.1468
19639SOL    HW165263   3.188   5.212   4.600 -0.1719  0.1864  0.0249
19639SOL    HW265264   3.045   5.176   4.633  0.2513 -1.5980  0.0502
19640SOL     OW65265   5.888   4.637   2.356 -0.1520  0.2597 -0.2831
19640SOL    HW165266   5.808   4.675   2.319 -0.9374 -0.0248  1.0532
19640SOL    HW265267   5.859   4.595   2.437  1.2884 -0.2389  0.0004
19641SOL     OW65268   4.163   6.354   0.236 -0.1556  0.0910  0.0389
19641SOL    HW165269   4.132   6.423   0.293  2.9420  0.6539  1.2487
19641SOL    HW265270   4.234   6.394   0.186 -1.1149 -1.0976 -2.4497
19642SOL     OW65271   1.825   4.481   6.333  0.4030 -0.3472  0.1170
19642SOL    HW165272   1.775   4.541   6.279  0.7777  0.2247  0.3939
19642SOL    HW265273   1.894   4.448   6.275 -0.5034 -1.4291 -0.3716
19643SOL     OW65274   6.179   1.869   6.470  0.6419 -0.0767  0.7694
19643SOL    HW165275   6.097   1.845   6.429  0.3482  0.7464  0.8509
19643SOL    HW265276   6.245   1.857   6.402  0.7696 -2.5615  1.2351
19644SOL     OW65277   4.950   5.642   5.362 -0.3277  0.1428  0.1772
19644SOL    HW165278   4.893   5.575   5.325  0.3981 -1.0427  1.1142
19644SOL    HW265279   4.927   5.723   5.316 -1.6960 -0.6151 -0.5032
19645SOL     OW65280   9.115   2.620   0.222  0.4382  0.0991  0.5119
19645SOL    HW165281   9.089   2.711   0.237 -1.8535 -0.3658 -0.3230
19645SOL    HW265282   9.064   2.593   0.146  0.8474 -1.9993  0.9347
19646SOL     OW65283   0.978   2.263   1.395 -0.2250 -0.3451 -0.0888
19646SOL    HW165284   1.020   2.334   1.345 -1.0691  0.2763  0.0638
19646SOL    HW265285   1.044   2.237   1.459  0.2731 -0.0187 -0.4563
19647SOL     OW65286   7.865   7.469   8.533  0.4683  0.6059 -0.1911
19647SOL    HW165287   7.775   7.497   8.548 -0.2792 -1.8694  0.5996
19647SOL    HW265288   7.913   7.501   8.609 -0.2796  0.0286  0.5500
19648SOL     OW65289   6.406   7.261   4.276 -0.0215  0.3345 -0.1481
19648SOL    HW165290   6.451   7.188   4.232 -0.4711 -0.7292  1.0995
19648SOL    HW265291   6.316   7.231   4.287 -0.5409  1.6148 -0.7549
19649SOL     OW65292   2.694   1.213   8.920 -0.1283 -0.2426 -0.2399
19649SOL    HW165293   2.652   1.153   8.983 -1.7267  0.0195 -0.9882
19649SOL    HW265294   2.754   1.157   8.870 -0.2984 -0.8586  0.2328
19650SOL     OW65295   3.327   0.507   3.826  0.4190  0.0450  0.3519
19650SOL    HW165296   3.248   0.468   3.863  1.3243 -2.5374 -0.1972
19650SOL    HW265297   3.295   0.575   3.767 -1.4386 -1.1988 -0.1580
19651SOL     OW65298   8.990   1.951   6.699 -0.2471 -0.0028  0.3246
19651SOL    HW165299   8.955   1.904   6.775 -0.1898  0.0400  0.3778
19651SOL    HW265300   9.081   1.969   6.722 -0.0492 -0.5392 -0.0091
19652SOL     OW65301   6.096   0.457   2.643  0.1221 -0.7467 -0.2764
19652SOL    HW165302   6.076   0.519   2.713 -1.8092 -0.3845 -1.0844
19652SOL    HW265303   6.027   0.471   2.578 -0.0300 -3.2801 -0.7825
19653SOL     OW65304   1.140   7.151   6.178  0.7997 -0.1027 -0.5499
19653SOL    HW165305   1.142   7.172   6.085 -2.1783  1.6899 -0.3496
19653SOL    HW265306   1.155   7.235   6.222 -1.7049 -0.0942  0.4640
19654SOL     OW65307   4.725   8.771   8.118 -0.0827 -0.0327 -0.5727
19654SOL    HW165308   4.720   8.864   8.139  0.0330  0.0529 -0.9248
19654SOL    HW265309   4.804   8.762   8.065 -0.1179 -0.3254 -0.5800
19655SOL     OW65310   5.665   3.010   5.823  0.2737  0.1138  0.2174
19655SOL    HW165311   5.688   2.947   5.892 -1.5237 -0.0462  0.7118
19655SOL    HW265312   5.570   3.017   5.828  0.4278  3.0613  0.3045
19656SOL     OW65313   0.011   5.052   4.977 -0.1089 -0.7435  0.3927
19656SOL    HW165314  -0.014   4.959   4.977  0.2864 -0.8547 -0.0861
19656SOL    HW265315  -0.037   5.089   5.051 -0.1284 -1.3681  0.7051
19657SOL     OW65316   5.654   1.810   3.007 -0.4926 -0.1549 -0.0365
19657SOL    HW165317   5.561   1.829   2.992 -0.7365 -1.7985 -0.7748
19657SOL    HW265318   5.654   1.727   3.054  0.6068  0.3133  0.8382
19658SOL     OW65319   3.983   2.716   5.936  0.1213  0.4834 -0.0214
19658SOL    HW165320   3.935   2.637   5.909 -0.0987  0.5965  0.0347
19658SOL    HW265321   3.977   2.716   6.031  0.1095  0.5753 -0.0222
19659SOL     OW65322   2.787   1.283   7.597 -0.1506 -0.3222 -0.2365
19659SOL    HW165323   2.834   1.324   7.524 -0.0428  0.8471  0.4558
19659SOL    HW265324   2.849   1.221   7.634  0.8625  1.1407  0.6105
19660SOL     OW65325   1.645   3.567   2.580 -0.1890 -0.0251 -0.3805
19660SOL    HW165326   1.559   3.527   2.568 -0.3473  0.6331 -1.6145
19660SOL    HW265327   1.633   3.628   2.653 -0.5363 -0.5319 -0.0012
19661SOL     OW65328   8.353   6.615   5.154  0.0514  0.2625 -0.4048
19661SOL    HW165329   8.383   6.580   5.238  0.1455 -0.4623 -0.7322
19661SOL    HW265330   8.379   6.549   5.090 -0.8367  0.3661 -0.8891
19662SOL     OW65331   2.320   8.703   4.775 -0.4234 -0.7625  0.0507
19662SOL    HW165332   2.295   8.611   4.763 -0.8006 -0.4403 -1.8466
19662SOL    HW265333   2.415   8.700   4.785 -0.4288 -1.3576 -0.0096
19663SOL     OW65334   8.884   4.884   6.824 -0.3442 -0.3869 -0.0090
19663SOL    HW165335   8.824   4.814   6.849 -0.9554  0.0011 -0.3850
19663SOL    HW265336   8.839   4.965   6.849 -0.0826 -0.0834 -0.5146
19664SOL     OW65337   3.882   5.586   7.945 -0.0307  0.6903 -0.0569
19664SOL    HW165338   3.934   5.526   7.997 -0.3487 -0.7816 -1.3732
19664SOL    HW265339   3.815   5.618   8.005 -0.5441 -1.1443  0.4054
19665SOL     OW65340   0.649   3.649   1.291 -0.5456  0.2896  0.5290
19665SOL    HW165341   0.691   3.721   1.244 -0.2070 -0.8954 -1.1196
19665SOL    HW265342   0.567   3.685   1.323 -0.0585  1.5910  0.3823
19666SOL     OW65343   6.289   2.950   1.126 -0.0927  0.6141 -0.2370
19666SOL    HW165344   6.322   2.999   1.051 -0.2219  1.0935  0.0113
19666SOL    HW265345   6.331   2.990   1.202  1.7943 -1.3167 -0.1763
19667SOL     OW65346   6.622   4.050   4.862 -0.2995  0.0043  0.1143
19667SOL    HW165347   6.692   4.077   4.802  0.6844  0.4314  1.3908
19667SOL    HW265348   6.562   3.999   4.808  0.2927  0.7699 -1.3262
19668SOL     OW65349   8.246   7.611   2.547 -0.9465 -0.0375 -0.1253
19668SOL    HW165350   8.308   7.620   2.474 -0.5383  0.2735  0.2577
19668SOL    HW265351   8.298   7.578   2.620 -1.9060 -3.3130 -0.7509
19669SOL     OW65352   3.404   4.502   4.517  0.0924 -0.3879 -0.2051
19669SOL    HW165353   3.325   4.555   4.506 -0.1490 -0.6455  0.2702
19669SOL    HW265354   3.426   4.473   4.428 -1.4062 -1.8214 -0.1380
19670SOL     OW65355   5.194   0.881   1.336 -0.4412  0.2583  0.0054
19670SOL    HW165356   5.256   0.954   1.348 -0.1276 -0.0062  0.0196
19670SOL    HW265357   5.201   0.859   1.243 -0.4037  0.1314  0.0383
19671SOL     OW65358   4.231   4.364   9.061 -0.0391 -0.6251  0.5032
19671SOL    HW165359   4.207   4.442   9.112  0.0478  0.1878 -0.6730
19671SOL    HW265360   4.323   4.349   9.083  0.5000  0.7521 -0.6799
19672SOL     OW65361   7.320   4.209   8.909 -0.0804  0.1422 -0.5276
19672SOL    HW165362   7.288   4.128   8.870  0.5676 -0.3706 -0.0275
19672SOL    HW265363   7.306   4.276   8.842 -1.8291 -0.1113 -0.4762
19673SOL     OW65364   6.615   2.750   3.430  0.1561  0.7526 -0.0916
19673SOL    HW165365   6.639   2.797   3.351 -0.5433  1.6380  0.2070
19673SOL    HW265366   6.695   2.751   3.483  1.2759 -1.6289 -1.5727
19674SOL     OW65367   8.588   0.653   7.570 -0.0758 -0.2051 -0.3693
19674SOL    HW165368   8.646   0.729   7.570  0.2243 -0.3921  1.6973
19674SOL    HW265369   8.638   0.583   7.612 -1.9452 -0.1950  2.0821
19675SOL     OW65370   6.722   0.556   2.565  0.6070 -0.1043 -0.2203
19675SOL    HW165371   6.765   0.474   2.591  3.1379  1.0417 -0.5217
19675SOL    HW265372   6.661   0.575   2.636  0.3808 -1.9260  0.1355
19676SOL     OW65373   6.090   8.950   1.602 -0.0141 -0.0848  0.0651
19676SOL    HW165374   6.182   8.950   1.631 -0.6691 -1.8579  2.4941
19676SOL    HW265375   6.095   8.957   1.506  2.6549 -0.2908  0.1144
19677SOL     OW65376   2.132   5.020   0.790 -0.2007 -0.1656 -0.3188
19677SOL    HW165377   2.177   5.021   0.875 -0.0381 -0.0365 -0.4054
19677SOL    HW265378   2.109   5.112   0.774 -0.8212 -0.2735 -0.1055
19678SOL     OW65379   5.435   8.125   3.641  0.1366  0.1082 -0.2870
19678SOL    HW165380   5.466   8.049   3.691  0.1782  1.2745  1.5520
19678SOL    HW265381   5.342   8.131   3.662  0.5954  1.9184  1.5597
19679SOL     OW65382   2.783   1.744   7.251  0.1778  0.5345 -0.1547
19679SOL    HW165383   2.862   1.749   7.196  0.4996 -0.5466  0.1742
19679SOL    HW265384   2.716   1.789   7.201  0.9672  1.3452 -0.5173
19680SOL     OW65385   3.546   4.515   5.204 -0.0378 -0.1271 -0.6904
19680SOL    HW165386   3.591   4.431   5.198  1.9561  0.7800  0.5173
19680SOL    HW265387   3.575   4.552   5.287 -1.1316  1.6000 -1.0293
19681SOL     OW65388   0.155   0.719   5.868 -0.4288  0.2701 -0.2285
19681SOL    HW165389   0.118   0.632   5.882  1.1895 -0.4038  0.0741
19681SOL    HW265390   0.238   0.703   5.823 -0.6256  1.7447 -1.1931
19682SOL     OW65391   8.020   4.071   1.162 -0.5843  0.2221 -0.2446
19682SOL    HW165392   7.999   4.137   1.096 -1.1003  0.0585 -0.2439
19682SOL    HW265393   8.050   3.995   1.112  1.1836  0.8418 -0.2153
19683SOL     OW65394   3.058   1.635   5.108 -0.3122  0.7114  0.3747
19683SOL    HW165395   3.000   1.616   5.182 -1.0299 -0.0089 -0.3450
19683SOL    HW265396   3.080   1.549   5.072  1.1492  0.9666  0.5643
19684SOL     OW65397   1.872   6.132   1.708  0.5209 -0.5763  0.3446
19684SOL    HW165398   1.788   6.129   1.755  0.3431 -0.4040  0.0469
19684SOL    HW265399   1.936   6.099   1.770  0.5277  0.9963  1.2265
19685SOL     OW65400   2.582   0.863   5.921  0.0893  0.6045 -0.0009
19685SOL    HW165401   2.579   0.767   5.915 -0.9146  0.3230  3.1733
19685SOL    HW265402   2.670   0.882   5.953 -0.2405  0.5861  0.9325
19686SOL     OW65403   2.783   7.800   8.453 -0.1420  0.5628 -0.2390
19686SOL    HW165404   2.864   7.848   8.436 -1.4015  2.4927 -1.0925
19686SOL    HW265405   2.724   7.828   8.384 -1.3695 -1.2699  0.0240
19687SOL     OW65406   3.176   3.369   7.793  0.0465 -0.4872  0.1069
19687SOL    HW165407   3.104   3.387   7.733  0.5357 -1.5059 -0.8287
19687SOL    HW265408   3.152   3.413   7.874 -1.9395 -1.3271  0.0221
19688SOL     OW65409   1.709   3.665   0.574  0.1219  0.2091  0.0614
19688SOL    HW165410   1.629   3.717   0.564  0.7199  1.4936  1.5741
19688SOL    HW265411   1.700   3.623   0.660  0.4759 -0.7741 -0.3596
19689SOL     OW65412   9.076   6.611   2.952 -0.4357 -0.3451 -0.6108
19689SOL    HW165413   8.998   6.665   2.950 -1.0728 -1.2404 -1.3096
19689SOL    HW265414   9.148   6.671   2.933 -0.9159  0.5318  0.2882
19690SOL     OW65415   6.484   4.105   4.539 -0.1560  0.0516  0.3765
19690SOL    HW165416   6.470   4.119   4.445  1.3629 -0.0334  0.1073
19690SOL    HW265417   6.464   4.013   4.553  2.5213 -0.7779 -0.5372
19691SOL     OW65418   7.333   8.891   7.705  0.0433  0.3994  0.1626
19691SOL    HW165419   7.400   8.842   7.657  0.6585  1.8246 -0.4851
19691SOL    HW265420   7.381   8.944   7.768 -0.5999  0.2432  0.8018
19692SOL     OW65421   1.028   2.081   8.478  0.2600 -0.5355 -0.3225
19692SOL    HW165422   1.017   2.164   8.431  0.3840  0.4198  1.2608
19692SOL    HW265423   0.978   2.018   8.427 -2.8976  1.2544  0.3335
19693SOL     OW65424   5.977   1.036   4.947  0.0171 -0.1849  0.6298
19693SOL    HW165425   6.031   0.966   4.909 -0.3115 -0.8857  1.4173
19693SOL    HW265426   5.907   1.049   4.883  0.1082 -0.5480  0.4521
19694SOL     OW65427   2.101   1.988   2.094 -0.3543 -0.4618 -0.1492
19694SOL    HW165428   2.196   1.996   2.101 -0.3537 -0.6371  0.0340
19694SOL    HW265429   2.073   2.070   2.053 -0.3534  0.5845  1.8379
19695SOL     OW65430   8.442   1.130   7.211  0.1640  0.4739  0.1074
19695SOL    HW165431   8.372   1.066   7.192 -1.0195  1.3651  1.2796
19695SOL    HW265432   8.410   1.178   7.287  1.9820  1.0834  0.5311
19696SOL     OW65433   3.019   2.247   8.823  0.4616  0.1273 -0.4840
19696SOL    HW165434   2.972   2.165   8.836  1.9040 -0.6227  0.1958
19696SOL    HW265435   3.085   2.226   8.758  1.0076  0.6752 -0.1108
19697SOL     OW65436   8.288   3.026   9.190  0.0575  0.3380  0.3932
19697SOL    HW165437   8.348   3.059   9.257  1.2016 -0.9811  0.0520
19697SOL    HW265438   8.277   3.099   9.129 -0.9310  1.5358  1.9192
19698SOL     OW65439   3.556   2.558   2.966  0.0277  0.1835  0.8275
19698SOL    HW165440   3.609   2.600   2.898  0.0688 -1.8843 -0.5003
19698SOL    HW265441   3.517   2.631   3.014  1.1210  1.7290 -0.5124
19699SOL     OW65442   1.778   3.792   4.065  0.1097 -0.0710 -0.3809
19699SOL    HW165443   1.857   3.759   4.022  0.9787 -0.2731  1.2901
19699SOL    HW265444   1.799   3.883   4.087  1.1144 -0.9401  2.7150
19700SOL     OW65445   4.107   3.555   7.999 -0.1362  0.4187  0.1628
19700SOL    HW165446   4.136   3.646   8.004 -2.0534  1.0421  1.0940
19700SOL    HW265447   4.075   3.535   8.087  1.1899 -1.5418  0.2664
19701SOL     OW65448   7.375   0.874   6.089  0.5021  0.1725 -0.0684
19701SOL    HW165449   7.420   0.789   6.086  0.2986  0.0199  0.8955
19701SOL    HW265450   7.283   0.852   6.076  0.2846  0.0788  1.3971
19702SOL     OW65451   7.363   8.985   8.948 -0.0070 -0.3094  0.0764
19702SOL    HW165452   7.439   8.938   8.913 -1.1924 -0.9940 -1.7174
19702SOL    HW265453   7.316   8.919   9.000  0.5507  0.0830  1.0954
19703SOL     OW65454   5.374   5.840   7.237 -0.1843  0.0050  0.1677
19703SOL    HW165455   5.327   5.849   7.154 -2.0606  0.5373  1.2214
19703SOL    HW265456   5.447   5.782   7.217 -0.7714 -0.1405 -1.7819
19704SOL     OW65457   7.163   0.834   7.917  0.2290 -0.3423  0.2940
19704SOL    HW165458   7.167   0.920   7.958  0.0777 -0.5007  0.6451
19704SOL    HW265459   7.135   0.851   7.827  1.5210  0.1049 -0.0487
19705SOL     OW65460   2.605   7.402   1.902  0.4851  0.3144  0.1393
19705SOL    HW165461   2.658   7.481   1.892 -1.9561  2.3537  1.9916
19705SOL    HW265462   2.524   7.421   1.854  0.5531 -1.8902 -0.9696
19706SOL     OW65463   2.687   3.738   0.279  0.5772  0.3081  0.8461
19706SOL    HW165464   2.627   3.695   0.340  1.0012  2.3038  2.7921
19706SOL    HW265465   2.630   3.787   0.219  0.1968 -0.0988  0.8748
19707SOL     OW65466   2.648   5.224   6.426 -0.0123  0.1171 -0.0188
19707SOL    HW165467   2.715   5.272   6.474  0.8883 -0.2808 -0.8355
19707SOL    HW265468   2.649   5.136   6.464  0.6491 -0.1769 -0.6893
19708SOL     OW65469   6.333   3.939   3.123 -0.2215  0.5658 -0.2275
19708SOL    HW165470   6.409   3.915   3.069 -0.7805  0.2126 -0.8756
19708SOL    HW265471   6.337   4.035   3.129  0.0356  0.5806 -0.6197
19709SOL     OW65472   4.185   5.054   1.317  0.1207 -0.3639  0.6365
19709SOL    HW165473   4.182   4.961   1.292  1.8220 -0.3601  0.2523
19709SOL    HW265474   4.123   5.097   1.259  1.5056 -0.8624 -1.3476
19710SOL     OW65475   7.414   3.156   2.620  0.4350 -0.7508  0.1153
19710SOL    HW165476   7.414   3.224   2.687 -0.6485 -0.3739 -0.2437
19710SOL    HW265477   7.380   3.079   2.664  0.3329 -0.6804  0.1593
19711SOL     OW65478   7.439   7.535   5.601  0.3168 -0.0765  0.0543
19711SOL    HW165479   7.511   7.597   5.613  0.7650 -0.7111  0.6394
19711SOL    HW265480   7.381   7.551   5.675 -0.2191  0.5126 -0.4760
19712SOL     OW65481   8.089   7.487   6.969  0.2230  0.1002 -0.2182
19712SOL    HW165482   8.031   7.433   6.916 -0.6102 -0.1976  0.9642
19712SOL    HW265483   8.057   7.476   7.058  3.0326 -1.3287  0.7363
19713SOL     OW65484   8.852   1.016   0.744 -0.6656 -0.0068  0.6173
19713SOL    HW165485   8.840   0.935   0.794  0.3730  0.0876  1.0330
19713SOL    HW265486   8.894   1.076   0.805 -1.4189  0.8588  0.3023
19714SOL     OW65487   1.005   0.261   1.962  0.4409  0.0102  0.6405
19714SOL    HW165488   0.995   0.320   1.887 -0.2035 -2.3233 -1.2370
19714SOL    HW265489   0.940   0.291   2.025 -1.4023  0.0302 -1.1764
19715SOL     OW65490   8.445   6.175   7.303 -0.3063  0.3272  0.2722
19715SOL    HW165491   8.432   6.269   7.289 -1.6330  0.4965  2.2583
19715SOL    HW265492   8.358   6.137   7.298  0.3950 -1.2127 -2.6029
19716SOL     OW65493   1.509   7.235   1.228  0.3108 -0.1210  0.2930
19716SOL    HW165494   1.490   7.208   1.138  1.2571 -1.3274  0.4134
19716SOL    HW265495   1.568   7.310   1.218 -2.5396  2.2175 -0.0545
19717SOL     OW65496   0.365   3.922   3.612  0.2384 -0.0062 -0.1605
19717SOL    HW165497   0.350   3.963   3.697  1.5947  1.7160 -0.6843
19717SOL    HW265498   0.277   3.912   3.574 -0.6116 -2.6877  2.1655
19718SOL     OW65499   5.211   6.550   3.008 -0.2807  0.1866 -0.1179
19718SOL    HW165500   5.170   6.499   2.939  1.1831 -0.1837 -0.7485
19718SOL    HW265501   5.142   6.560   3.075 -1.6802  0.4275 -1.5302
19719SOL     OW65502   6.851   7.229   8.335 -0.1848  0.0601 -0.6089
19719SOL    HW165503   6.941   7.259   8.341 -0.0100 -0.5070 -0.4006
19719SOL    HW265504   6.854   7.154   8.276 -0.4234 -0.3636 -0.0841
19720SOL     OW65505   4.482   8.896   1.340  0.1746 -0.1413  0.1019
19720SOL    HW165506   4.435   8.835   1.396 -0.5036  1.3317  1.2217
19720SOL    HW265507   4.570   8.860   1.332 -0.5444 -1.9166 -0.3729
19721SOL     OW65508   1.361   0.090   7.827 -0.1461 -0.1574 -0.4458
19721SOL    HW165509   1.283   0.034   7.836 -1.8527  1.6737 -2.5219
19721SOL    HW265510   1.419   0.040   7.770 -0.8450 -0.6002 -0.7962
19722SOL     OW65511   7.399   6.722   8.241  0.2974 -0.2044  0.4540
19722SOL    HW165512   7.485   6.763   8.247  0.9100 -1.2906 -0.5529
19722SOL    HW265513   7.400   6.656   8.310  0.3747 -0.3988  0.2665
19723SOL     OW65514   8.203   2.793   6.781  0.7847 -0.4492 -0.5997
19723SOL    HW165515   8.230   2.702   6.789 -0.5642 -0.7912  0.6385
19723SOL    HW265516   8.145   2.807   6.856 -0.0081  1.0711 -1.4484
19724SOL     OW65517   7.614   1.613   4.285  0.5424  0.5640  0.4518
19724SOL    HW165518   7.659   1.629   4.368 -0.3399 -1.2612  1.3405
19724SOL    HW265519   7.522   1.625   4.305  0.2965 -0.1909 -0.1955
19725SOL     OW65520   3.940   3.870   0.651 -0.1853  0.0807 -0.2598
19725SOL    HW165521   3.919   3.877   0.558 -0.7912 -1.7487 -0.3160
19725SOL    HW265522   3.855   3.871   0.695  0.0618  0.2847  0.2205
19726SOL     OW65523   8.263   6.959   4.016 -0.5476 -0.4452  0.1456
19726SOL    HW165524   8.351   6.995   4.005 -1.1088  0.7021 -0.8752
19726SOL    HW265525   8.221   6.972   3.931 -1.8185 -0.6554  0.7165
19727SOL     OW65526   3.478   0.753   4.406 -0.7173  0.7101 -0.5539
19727SOL    HW165527   3.436   0.697   4.471  1.4387 -1.7303 -1.0844
19727SOL    HW265528   3.571   0.750   4.429 -0.2996  2.7318 -1.6893
19728SOL     OW65529   6.989   2.452   0.906 -0.0929  0.2006  0.0846
19728SOL    HW165530   6.898   2.431   0.882  0.0957 -1.0619  0.4130
19728SOL    HW265531   6.982   2.524   0.969 -1.0706 -1.7321  2.3153
19729SOL     OW65532   1.358   4.143   1.167 -0.2347  0.2522  0.0804
19729SOL    HW165533   1.359   4.157   1.072 -0.6934  1.7107  0.2779
19729SOL    HW265534   1.394   4.223   1.204 -0.5793 -0.0763  1.1747
19730SOL     OW65535   5.936   1.740   0.795  0.4824 -0.5986 -0.6277
19730SOL    HW165536   5.865   1.800   0.771  0.9778 -0.6918 -2.4984
19730SOL    HW265537   5.906   1.699   0.876  0.0753  2.0648  0.6860
19731SOL     OW65538   0.831   4.393   4.479  0.6981  0.9174 -0.2468
19731SOL    HW165539   0.762   4.401   4.544 -0.0538  1.0003 -1.0472
19731SOL    HW265540   0.912   4.395   4.530  0.1032 -0.6779  0.8431
19732SOL     OW65541   6.632   8.674   8.434 -0.4189 -0.3411  0.0369
19732SOL    HW165542   6.718   8.640   8.460 -0.0538  0.5132 -0.0105
19732SOL    HW265543   6.574   8.651   8.505 -0.2039 -1.1418 -0.0370
19733SOL     OW65544   4.106   2.305   9.025 -0.1014  0.3336  0.4354
19733SOL    HW165545   4.170   2.299   8.954  0.5865  2.4277  0.7868
19733SOL    HW265546   4.152   2.270   9.101  0.1014  0.4785  0.3811
19734SOL     OW65547   3.177   0.109   5.315  0.0627  0.0105  0.5115
19734SOL    HW165548   3.234   0.036   5.291  1.3108  1.4920 -1.2531
19734SOL    HW265549   3.210   0.139   5.400 -0.4889 -1.4264  1.2769
19735SOL     OW65550   7.069   6.578   8.931  0.1722 -0.0431  1.0572
19735SOL    HW165551   7.086   6.595   9.023  2.7523  0.3466  0.5713
19735SOL    HW265552   7.111   6.651   8.885 -1.0078 -0.2649 -0.4492
19736SOL     OW65553   2.433   5.163   1.022  0.0540  0.0887  0.0359
19736SOL    HW165554   2.439   5.244   0.972 -0.9953 -0.9216 -1.8216
19736SOL    HW265555   2.339   5.150   1.036  0.0445 -1.6961 -1.2866
19737SOL     OW65556   8.245   8.413   6.329 -0.3418  0.0914  0.1320
19737SOL    HW165557   8.286   8.469   6.396  0.6497  0.7722 -0.9864
19737SOL    HW265558   8.231   8.472   6.255 -0.3403 -0.8960 -0.6691
19738SOL     OW65559   0.021   3.413   4.629  0.1040 -0.0545 -0.1789
19738SOL    HW165560   0.085   3.350   4.662 -1.0985 -0.2939  1.8965
19738SOL    HW265561   0.010   3.476   4.701 -0.9114  0.8142 -1.0620
19739SOL     OW65562   8.751   3.716   7.850  0.0792  0.2597  0.2873
19739SOL    HW165563   8.744   3.801   7.806 -0.0886  0.4293  0.6342
19739SOL    HW265564   8.824   3.728   7.912  0.0622  0.1460  0.3291
19740SOL     OW65565   3.626   7.621   5.899 -0.2434 -0.0600  0.2680
19740SOL    HW165566   3.699   7.595   5.955  2.0682 -0.1041 -2.5235
19740SOL    HW265567   3.635   7.716   5.890  0.4546 -0.2442 -1.2717
19741SOL     OW65568   5.451   1.978   6.215  0.0070  0.2842 -0.4106
19741SOL    HW165569   5.395   1.981   6.138  1.0201  0.1702 -1.1663
19741SOL    HW265570   5.522   1.918   6.191  0.5789  0.6022  0.4441
19742SOL     OW65571   4.464   4.029   1.583 -0.0422  0.2082 -0.5434
19742SOL    HW165572   4.420   3.955   1.543  1.4729 -1.4193  0.6372
19742SOL    HW265573   4.554   3.999   1.596  0.1700  1.5870  1.6527
19743SOL     OW65574   6.372   0.878   3.617 -0.2594 -0.1284 -0.1685
19743SOL    HW165575   6.365   0.858   3.711 -1.5580  3.2817  0.6145
19743SOL    HW265576   6.450   0.934   3.611 -1.0817  0.9868 -0.7991
19744SOL     OW65577   9.214   4.434   3.527 -0.3612 -0.3914  0.3168
19744SOL    HW165578   9.238   4.365   3.589  1.1385 -1.6409 -1.5541
19744SOL    HW265579   9.297   4.459   3.486 -1.0917  1.4973 -0.1371
19745SOL     OW65580   5.962   7.729   0.355  0.5040 -0.2507 -0.4320
19745SOL    HW165581   6.022   7.780   0.410  1.0780 -0.5777 -0.7489
19745SOL    HW265582   5.922   7.793   0.297 -0.1742  0.1179  0.4065
19746SOL     OW65583   1.429   4.147   6.770  0.1116 -0.6061 -0.1032
19746SOL    HW165584   1.434   4.172   6.862 -0.4632  2.3998 -0.7975
19746SOL    HW265585   1.340   4.111   6.760  0.1121 -0.7677  0.4474
19747SOL     OW65586   1.087   3.372   3.062  0.3346  0.2997 -0.1141
19747SOL    HW165587   1.177   3.365   3.095  0.2696  3.5873  1.1388
19747SOL    HW265588   1.036   3.314   3.119  1.7405 -3.0248 -1.9597
19748SOL     OW65589   6.914   1.374   3.076  0.3455 -0.3877  1.1079
19748SOL    HW165590   6.979   1.304   3.067  1.5249  0.9079 -1.7590
19748SOL    HW265591   6.907   1.411   2.988 -0.1820  3.1376  2.4947
19749SOL     OW65592   9.043   5.015   5.560 -0.2998 -0.0145  0.3268
19749SOL    HW165593   9.029   5.086   5.623 -0.5313  1.1568 -0.9779
19749SOL    HW265594   9.055   5.060   5.477  0.4434 -1.4957 -0.3972
19750SOL     OW65595   6.715   0.157   0.990  0.2180  0.6368 -0.0600
19750SOL    HW165596   6.738   0.089   1.053 -0.0242  0.5553 -0.0587
19750SOL    HW265597   6.787   0.156   0.927 -0.3173 -0.3736 -0.6692
19751SOL     OW65598   1.322   1.405   5.193 -0.0881  0.3897  0.4327
19751SOL    HW165599   1.398   1.379   5.140 -3.0592 -0.7798 -3.8474
19751SOL    HW265600   1.279   1.323   5.215 -1.5648  1.0927  0.2777
19752SOL     OW65601   5.259   8.559   3.415 -0.2311  0.2272 -0.1118
19752SOL    HW165602   5.280   8.534   3.506  1.0869  1.1889 -0.1107
19752SOL    HW265603   5.343   8.588   3.379 -0.7241 -0.1920 -1.6788
19753SOL     OW65604   2.842   3.383   6.591 -0.2442  0.6476  0.3313
19753SOL    HW165605   2.934   3.407   6.607  0.6496 -0.2122 -2.7151
19753SOL    HW265606   2.816   3.334   6.669  1.2960  2.2818  1.9924
19754SOL     OW65607   7.919   6.299   1.987  0.5769 -0.1086  0.6714
19754SOL    HW165608   7.825   6.318   1.988  0.6967  0.4954  0.6524
19754SOL    HW265609   7.929   6.227   2.049  0.0386 -0.4919  0.3309
19755SOL     OW65610   4.516   2.555   1.902  0.3118 -0.3601  0.2556
19755SOL    HW165611   4.584   2.619   1.883  1.0433 -1.0807  0.3717
19755SOL    HW265612   4.560   2.470   1.894 -0.4475 -0.8226  0.8336
19756SOL     OW65613   8.074   7.050   3.779 -0.1251  0.1137  0.2712
19756SOL    HW165614   8.052   7.108   3.852 -0.9924  0.0215  0.0829
19756SOL    HW265615   8.086   7.109   3.704 -0.4137  0.1001  0.2153
19757SOL     OW65616   0.680   6.322   2.684  0.1876 -0.5378 -0.3934
19757SOL    HW165617   0.664   6.349   2.775  0.5646 -0.8922 -0.2185
19757SOL    HW265618   0.775   6.319   2.677  0.1559 -1.0403 -0.6419
19758SOL     OW65619   3.279   2.032   7.492 -0.7120 -0.4670 -0.0540
19758SOL    HW165620   3.193   2.074   7.489  0.1378  1.5332  1.1720
19758SOL    HW265621   3.325   2.064   7.414 -0.8175 -0.9168 -0.3019
19759SOL     OW65622   0.107   3.524   2.034 -0.0712 -0.5063  0.2541
19759SOL    HW165623   0.124   3.432   2.017 -1.0417 -0.7330  0.4567
19759SOL    HW265624   0.028   3.525   2.087  0.1899  0.4241  0.6629
19760SOL     OW65625   8.110   2.651   2.030 -0.2729 -0.0188  0.1317
19760SOL    HW165626   8.073   2.565   2.048  0.0632 -0.0463  0.7065
19760SOL    HW265627   8.145   2.680   2.114 -0.8706  0.9185  0.0641
19761SOL     OW65628   8.545   5.754   4.526  0.6704  0.0108  0.6500
19761SOL    HW165629   8.495   5.805   4.462 -0.3095 -0.3108  1.1376
19761SOL    HW265630   8.620   5.809   4.548  0.3340  0.6724  0.1854
19762SOL     OW65631   2.426   6.852   6.919 -0.0779  0.2817  0.2758
19762SOL    HW165632   2.434   6.758   6.905 -2.7289  0.0673 -0.2814
19762SOL    HW265633   2.447   6.864   7.012  1.9779 -0.5602 -0.0261
19763SOL     OW65634   7.116   7.965   3.736 -0.0274  0.0595  0.3617
19763SOL    HW165635   7.044   7.903   3.746  0.5876 -0.4885  1.6339
19763SOL    HW265636   7.079   8.038   3.687 -1.4365 -0.2209  0.9796
19764SOL     OW65637   1.643   2.241   5.098 -0.4425 -0.3692 -0.1138
19764SOL    HW165638   1.716   2.211   5.152 -1.0811 -0.2108  0.8680
19764SOL    HW265639   1.586   2.288   5.159 -0.3584  1.3049 -1.2418
19765SOL     OW65640   4.544   2.435   7.489  0.1063 -0.0866  0.6608
19765SOL    HW165641   4.450   2.431   7.505  0.1829 -1.2760  0.9799
19765SOL    HW265642   4.583   2.429   7.576  0.4877  2.0794  0.6849
19766SOL     OW65643   2.189   0.010   2.359  0.6465 -0.4569 -0.3637
19766SOL    HW165644   2.140   0.036   2.437  1.0485  0.8613 -0.5221
19766SOL    HW265645   2.180  -0.085   2.356 -0.0717 -0.4537  0.8194
19767SOL     OW65646   7.887   3.631   1.019  0.1312 -0.2568  0.2082
19767SOL    HW165647   7.928   3.545   1.016 -0.9100 -0.7695  0.2336
19767SOL    HW265648   7.904   3.669   0.933 -0.9255 -1.2273 -0.4522
19768SOL     OW65649   8.971   2.155   3.510 -0.3036 -0.0401 -0.2326
19768SOL    HW165650   8.884   2.196   3.506 -0.0062  0.6212 -0.0905
19768SOL    HW265651   9.028   2.224   3.545  0.2107 -0.5839  0.0108
19769SOL     OW65652   0.647   8.416   4.264 -0.0160  0.0626  0.0126
19769SOL    HW165653   0.698   8.476   4.317  0.5707 -1.0340  0.7423
19769SOL    HW265654   0.710   8.351   4.233 -1.0514 -1.8966  1.7713
19770SOL     OW65655   0.972   4.512   6.653 -0.0707 -0.2090  0.0938
19770SOL    HW165656   1.024   4.456   6.712 -0.5539 -0.0109  0.7225
19770SOL    HW265657   0.900   4.456   6.624  0.1760 -0.3113 -0.3348
19771SOL     OW65658   7.440   5.617   8.020  0.3843 -0.3646  0.0143
19771SOL    HW165659   7.347   5.596   8.007  0.3524 -1.8024  2.1626
19771SOL    HW265660   7.440   5.685   8.087  0.9128 -0.2854 -0.0643
19772SOL     OW65661   7.455   0.450   0.066  0.4222 -0.7161 -0.1104
19772SOL    HW165662   7.388   0.437   0.132  0.9519  1.3735  0.9270
19772SOL    HW265663   7.531   0.401   0.098  0.2165 -0.9241  0.0594
19773SOL     OW65664   4.734   7.807   3.654  0.2993  0.4681  0.4822
19773SOL    HW165665   4.680   7.885   3.670 -0.2886  0.1682 -0.0122
19773SOL    HW265666   4.802   7.811   3.722 -0.9085  0.3236  1.7386
19774SOL     OW65667   7.194   8.298   7.712  0.0555  0.0896 -0.8544
19774SOL    HW165668   7.229   8.327   7.628 -0.7251 -0.5947 -1.4329
19774SOL    HW265669   7.155   8.213   7.693 -1.2467  0.4931 -0.0899
19775SOL     OW65670   3.407   5.384   3.090  0.3745  0.1435  0.4678
19775SOL    HW165671   3.491   5.429   3.087  1.6043 -1.9478  0.9952
19775SOL    HW265672   3.389   5.371   3.183  0.1826 -0.6173  0.3373
19776SOL     OW65673   1.744   3.336   5.801  0.3745  0.2337  0.2115
19776SOL    HW165674   1.774   3.251   5.831  0.7803  0.0124 -0.7914
19776SOL    HW265675   1.681   3.316   5.731  0.4599  0.7488 -0.0189
19777SOL     OW65676   1.151   5.447   4.266  0.0866 -0.6825  0.0886
19777SOL    HW165677   1.117   5.504   4.197  1.9508 -3.0968 -3.1109
19777SOL    HW265678   1.199   5.506   4.325 -2.3179  1.5937 -0.0703
19778SOL     OW65679   8.651   4.443   5.043 -0.2610  0.2958  0.2607
19778SOL    HW165680   8.633   4.417   4.953 -1.7615  0.0323  0.6051
19778SOL    HW265681   8.676   4.361   5.086 -1.0067  0.1328  0.4067
19779SOL     OW65682   7.836   3.791   3.763 -0.5161  0.0484 -0.8263
19779SOL    HW165683   7.772   3.751   3.704 -0.9284  0.1960 -0.4867
19779SOL    HW265684   7.811   3.883   3.768 -1.3880 -0.2391  0.7061
19780SOL     OW65685   3.155   5.699   2.209  0.1083  0.2678 -0.0764
19780SOL    HW165686   3.247   5.724   2.213 -0.2438  1.5595  0.2729
19780SOL    HW265687   3.139   5.650   2.290  0.7275 -0.9094 -0.6317
19781SOL     OW65688   0.714   5.201   3.614  0.6071  0.1465  0.1083
19781SOL    HW165689   0.658   5.270   3.649 -0.1881 -1.2430  1.7009
19781SOL    HW265690   0.692   5.123   3.665  1.1800 -1.4122 -1.8655
19782SOL     OW65691   3.972   6.598   0.810  0.4957  0.3845 -0.2690
19782SOL    HW165692   4.002   6.678   0.853  0.8465  1.0827 -1.7764
19782SOL    HW265693   3.917   6.555   0.876 -0.6434  2.4087  0.1917
19783SOL     OW65694   1.480   5.549   6.146 -0.0953 -0.4954  0.3284
19783SOL    HW165695   1.567   5.568   6.109  0.0461 -0.1267  0.8408
19783SOL    HW265696   1.474   5.606   6.223 -1.1594  0.1694 -0.2244
19784SOL     OW65697   3.761   6.085   2.558  0.6544  0.0566 -0.3800
19784SOL    HW165698   3.806   6.073   2.642  0.5148  0.5156 -0.2386
19784SOL    HW265699   3.710   6.165   2.569 -1.2179 -1.1307 -0.0845
19785SOL     OW65700   3.553   9.211   2.330 -0.2712  0.2435  0.0768
19785SOL    HW165701   3.584   9.220   2.420  1.3751  0.6473 -0.4983
19785SOL    HW265702   3.509   9.293   2.311  0.6569  0.7477  0.0563
19786SOL     OW65703   4.144   6.882   7.576  0.3651  0.2018 -0.0238
19786SOL    HW165704   4.061   6.896   7.532  0.1769  1.9227  0.7831
19786SOL    HW265705   4.129   6.806   7.633 -0.2647 -0.2236 -0.7400
19787SOL     OW65706   2.178   8.998   2.284 -0.0826 -0.0658  0.5444
19787SOL    HW165707   2.196   9.051   2.207  0.2402 -0.3430  0.4280
19787SOL    HW265708   2.091   8.961   2.268 -0.2183  0.2606  0.5312
19788SOL     OW65709   8.156   2.176   2.927 -0.0583 -0.3465  0.0902
19788SOL    HW165710   8.224   2.243   2.932 -0.5755  0.1958  0.0074
19788SOL    HW265711   8.181   2.121   2.853  0.4437 -0.3254  0.2457
19789SOL     OW65712   3.363   8.263   7.139  0.3140 -0.1753 -0.5375
19789SOL    HW165713   3.393   8.354   7.152  0.2281 -0.1229 -0.7069
19789SOL    HW265714   3.444   8.214   7.125  0.4731 -0.3493  0.8538
19790SOL     OW65715   0.439   5.864   6.046  0.1221 -0.2379 -0.1171
19790SOL    HW165716   0.416   5.840   6.136 -1.4487 -0.4503 -0.5416
19790SOL    HW265717   0.529   5.895   6.052  0.2759 -0.8716  1.4168
19791SOL     OW65718   2.150   0.715   0.193 -0.0378 -0.3869  0.3918
19791SOL    HW165719   2.142   0.796   0.143 -4.2313 -0.0718  1.2116
19791SOL    HW265720   2.107   0.734   0.276  0.8979 -2.8428  1.5496
19792SOL     OW65721   7.363   7.882   3.625  0.2565  0.8245 -0.2618
19792SOL    HW165722   7.287   7.923   3.668  0.0089  1.6364 -1.4265
19792SOL    HW265723   7.436   7.898   3.685  0.0050  2.3113 -0.3046
19793SOL     OW65724   8.177   3.417   7.980 -0.7904 -0.6268 -0.0852
19793SOL    HW165725   8.177   3.371   8.064  1.2473 -0.3925  0.1069
19793SOL    HW265726   8.265   3.403   7.946 -1.4844 -0.4408 -2.0535
19794SOL     OW65727   4.895   6.116   2.694  0.3501  0.1932  0.4716
19794SOL    HW165728   4.965   6.172   2.728  0.3492  1.5419 -1.5905
19794SOL    HW265729   4.825   6.125   2.758  1.7427 -0.5725  2.1812
19795SOL     OW65730   0.361   6.469   7.827  0.3323  0.3198  0.3014
19795SOL    HW165731   0.366   6.464   7.731 -3.8906 -0.9380 -0.0617
19795SOL    HW265732   0.372   6.378   7.856  0.6419  0.5547  0.9370
19796SOL     OW65733   0.355   2.666   9.050  0.0403 -0.1575 -0.5982
19796SOL    HW165734   0.263   2.642   9.063  0.3671 -0.6816  0.8985
19796SOL    HW265735   0.405   2.603   9.102  1.2899 -0.1032 -1.6700
19797SOL     OW65736   2.488   8.034   9.002 -0.0978  0.2911 -0.3667
19797SOL    HW165737   2.530   8.116   8.975 -2.0997  0.9283 -1.7770
19797SOL    HW265738   2.478   7.984   8.921  0.1898 -0.9458  0.3257
19798SOL     OW65739   2.900   7.974   3.426  0.4186 -0.2435  0.0323
19798SOL    HW165740   2.992   7.977   3.452  0.3601  0.6804  0.1927
19798SOL    HW265741   2.871   8.066   3.430 -0.8752 -0.6730  1.3254
19799SOL     OW65742   4.775   3.354   5.826  0.4032 -0.3669  0.4311
19799SOL    HW165743   4.783   3.378   5.919 -0.3627 -0.4242  0.5250
19799SOL    HW265744   4.769   3.259   5.827  0.7525 -0.3892  0.2917
19800SOL     OW65745   6.637   8.481   3.505 -0.5385  0.1020 -0.2118
19800SOL    HW165746   6.726   8.471   3.471 -1.0120 -1.6273 -1.0199
19800SOL    HW265747   6.604   8.561   3.463  0.4934  0.5852 -0.1431
19801SOL     OW65748   7.739   1.120   9.088  0.0881  0.4930 -0.1205
19801SOL    HW165749   7.727   1.123   9.183 -0.0940  0.1711 -0.1315
19801SOL    HW265750   7.667   1.173   9.053 -1.3871 -1.4672 -0.1875
19802SOL     OW65751   4.437   6.977   1.033 -0.2239 -0.4898 -0.3838
19802SOL    HW165752   4.416   6.910   0.968 -0.5411 -1.0036  0.2312
19802SOL    HW265753   4.484   6.930   1.102 -0.7689 -0.1601  0.2258
19803SOL     OW65754   8.429   8.628   2.041 -0.1556  0.0070 -0.0054
19803SOL    HW165755   8.476   8.690   1.986 -0.2771  0.9883  0.9525
19803SOL    HW265756   8.360   8.592   1.985  1.3433 -1.0493 -1.2744
19804SOL     OW65757   8.018   5.684   3.557 -0.0578  0.1119 -0.2524
19804SOL    HW165758   7.992   5.592   3.563 -4.0906  0.9963 -1.0048
19804SOL    HW265759   8.056   5.703   3.643 -0.6436 -1.8661  0.5154
19805SOL     OW65760   3.002   7.960   8.346 -0.5317  0.1881 -0.1341
19805SOL    HW165761   3.049   7.892   8.299  0.2042  1.2227 -0.9565
19805SOL    HW265762   3.071   8.018   8.380 -1.1371  0.6513  0.3389
19806SOL     OW65763   6.042   5.022   7.328 -0.4963 -0.1262 -0.6127
19806SOL    HW165764   5.951   4.992   7.323 -0.3921 -0.3469 -1.2436
19806SOL    HW265765   6.074   5.017   7.238  0.0508  0.2374 -0.4409
19807SOL     OW65766   7.168   0.180   8.551  0.1529 -0.0387  0.7908
19807SOL    HW165767   7.234   0.240   8.516  1.3371 -0.8585  1.5380
19807SOL    HW265768   7.117   0.153   8.475  1.4185 -0.2727  0.0051
19808SOL     OW65769   2.108   5.184   0.022  0.7524 -0.2841 -0.4481
19808SOL    HW165770   2.147   5.195   0.108  0.1976  0.9526 -0.3265
19808SOL    HW265771   2.018   5.218   0.032  0.8720  0.4540 -1.6482
19809SOL     OW65772   2.557   4.790   5.338  0.4319  0.2226  0.0506
19809SOL    HW165773   2.553   4.767   5.246  0.6205 -2.3892  0.6266
19809SOL    HW265774   2.474   4.760   5.375 -0.3330  2.6383  0.5261
19810SOL     OW65775   7.680   5.750   4.085  0.0923  0.0578 -0.0607
19810SOL    HW165776   7.742   5.820   4.065 -0.2789  0.7456  1.0954
19810SOL    HW265777   7.704   5.679   4.026  0.0339  1.3923 -1.7899
19811SOL     OW65778   2.393   4.571   3.326 -0.4358  0.0810 -0.4678
19811SOL    HW165779   2.326   4.636   3.347  0.6236  1.1320 -0.1892
19811SOL    HW265780   2.452   4.616   3.265  0.3367 -0.6059 -0.2468
19812SOL     OW65781   3.185   7.464   5.656 -0.5443  0.0087  0.3011
19812SOL    HW165782   3.237   7.544   5.668 -0.8885  0.3697 -0.5220
19812SOL    HW265783   3.103   7.495   5.618 -2.1699 -0.3190  3.2538
19813SOL     OW65784   8.591   5.605   6.317 -0.1463 -0.0417  0.1706
19813SOL    HW165785   8.503   5.611   6.279  0.6196  1.6005 -1.5583
19813SOL    HW265786   8.580   5.630   6.409 -1.7809 -2.1779  0.6380
19814SOL     OW65787   4.443   7.826   5.317  0.2749 -0.2743 -0.0084
19814SOL    HW165788   4.484   7.800   5.400 -0.9061 -2.2303  0.0075
19814SOL    HW265789   4.495   7.782   5.250 -0.2088 -0.6344 -0.1511
19815SOL     OW65790   1.147   2.291   4.255 -0.1374  0.0228 -0.5976
19815SOL    HW165791   1.142   2.365   4.316 -2.0061 -0.1452 -0.5006
19815SOL    HW265792   1.075   2.306   4.193  0.4104 -0.9300 -1.4935
19816SOL     OW65793   0.458   3.206   7.089  0.0172  0.5526 -0.1840
19816SOL    HW165794   0.458   3.169   7.001  0.1860  0.3417 -0.0956
19816SOL    HW265795   0.510   3.286   7.082 -0.6515  0.9761 -0.4557
19817SOL     OW65796   4.734   4.693   5.327 -0.0379  0.0366 -0.5491
19817SOL    HW165797   4.641   4.673   5.317 -0.0027  0.3156 -1.6633
19817SOL    HW265798   4.751   4.687   5.421 -2.0699  3.8750  0.2396
19818SOL     OW65799   8.390   8.275   3.898 -0.0229  0.3624 -0.1824
19818SOL    HW165800   8.398   8.203   3.836  0.0014  0.3232 -0.1324
19818SOL    HW265801   8.298   8.273   3.925  0.1281 -0.0495  0.3112
19819SOL     OW65802   6.979   0.732   8.436 -0.0626 -0.2006 -0.3846
19819SOL    HW165803   7.005   0.645   8.406  0.3570  0.3914 -1.7989
19819SOL    HW265804   7.045   0.755   8.502 -0.3033 -1.0265  0.1612
19820SOL     OW65805   8.522   2.987   1.589  0.5587  0.2859 -0.5720
19820SOL    HW165806   8.488   2.960   1.674 -0.2676 -1.3222 -1.3749
19820SOL    HW265807   8.607   3.026   1.609  0.5771 -0.4649  0.9483
19821SOL     OW65808   8.822   5.672   2.887 -0.1632  0.1789  0.3354
19821SOL    HW165809   8.806   5.657   2.794 -0.7149  1.3798  0.2222
19821SOL    HW265810   8.917   5.683   2.894  0.0742 -1.5293  0.1790
19822SOL     OW65811   8.562   8.025   1.820  0.5236  0.3282  0.6411
19822SOL    HW165812   8.651   8.028   1.787  0.5787 -0.4932  0.6963
19822SOL    HW265813   8.519   7.955   1.770  0.4603 -0.5666  1.8844
19823SOL     OW65814   3.241   2.968   8.703  0.6067 -0.6440 -1.0042
19823SOL    HW165815   3.282   2.915   8.772  0.5063  1.1330  0.5059
19823SOL    HW265816   3.314   3.006   8.655  0.8006  1.0136  0.4950
19824SOL     OW65817   7.255   2.449   2.018 -0.1353  0.2599 -0.0685
19824SOL    HW165818   7.324   2.408   2.070 -1.2861  0.9622  2.1853
19824SOL    HW265819   7.184   2.386   2.019 -0.1844  0.3034 -0.7675
19825SOL     OW65820   6.249   8.242   6.136 -0.1076  0.0358  0.4220
19825SOL    HW165821   6.268   8.163   6.187  0.8899 -1.1203 -1.6005
19825SOL    HW265822   6.155   8.236   6.118 -0.0250 -0.7714  0.1986
19826SOL     OW65823   0.060   9.015   2.036 -0.8721 -0.0694 -0.0236
19826SOL    HW165824  -0.018   8.988   1.986 -0.8456  0.8507 -0.5824
19826SOL    HW265825   0.047   9.108   2.052 -0.9589 -0.3575  1.8773
19827SOL     OW65826   1.291   7.145   5.085 -0.2326 -0.0399 -0.3446
19827SOL    HW165827   1.346   7.224   5.087  0.3859 -0.4735  0.3621
19827SOL    HW265828   1.224   7.161   5.151  1.0726 -0.9127  1.2510
19828SOL     OW65829   1.595   4.263   2.523  0.3529 -0.8512 -0.0536
19828SOL    HW165830   1.560   4.199   2.585 -1.4808 -0.7675 -0.9372
19828SOL    HW265831   1.599   4.215   2.440  2.3590 -0.8382 -0.0041
19829SOL     OW65832   6.872   1.176   8.733 -0.1530 -0.1271  0.6980
19829SOL    HW165833   6.923   1.146   8.657 -0.3757  1.5228 -0.1633
19829SOL    HW265834   6.883   1.108   8.798  0.9999 -1.0584 -0.4193
19830SOL     OW65835   1.319   9.096   2.893 -0.0788  0.5352  0.3434
19830SOL    HW165836   1.377   9.136   2.958  2.0570 -2.6303  0.6336
19830SOL    HW265837   1.350   9.130   2.810  1.6073 -0.3031  0.5825
19831SOL     OW65838   8.797   7.860   2.747  0.0263 -0.1881 -0.2436
19831SOL    HW165839   8.791   7.786   2.687 -1.5086 -0.9551  0.7978
19831SOL    HW265840   8.891   7.874   2.758  0.4567 -3.1541  0.9030
19832SOL     OW65841   1.226   3.096   1.345  0.4288 -0.0588  0.2966
19832SOL    HW165842   1.165   3.057   1.282  0.0946 -1.5562  1.4944
19832SOL    HW265843   1.170   3.128   1.416  0.8751  0.7329  0.3016
19833SOL     OW65844   5.364   1.254   0.128  0.7228  0.2049 -0.0218
19833SOL    HW165845   5.410   1.325   0.083  0.1645  0.1984 -0.6111
19833SOL    HW265846   5.433   1.194   0.156  1.0042 -0.5810 -2.2212
19834SOL     OW65847   1.555   3.710   3.923  0.0188  0.1290  0.7463
19834SOL    HW165848   1.637   3.750   3.953  0.0716  1.0857 -0.5549
19834SOL    HW265849   1.487   3.769   3.954 -0.0770  0.0210  0.7410
19835SOL     OW65850   5.295   5.145   4.707  0.0145 -0.0982 -0.4940
19835SOL    HW165851   5.280   5.234   4.740  1.4428 -0.4482  1.3032
19835SOL    HW265852   5.372   5.153   4.651  0.5446 -0.2655  0.1870
19836SOL     OW65853   2.864   4.414   3.324 -0.4798 -0.4498  0.0789
19836SOL    HW165854   2.795   4.361   3.284 -1.0408  0.7191 -0.5515
19836SOL    HW265855   2.944   4.389   3.277 -0.2373 -2.5310  1.4692
19837SOL     OW65856   3.958   8.971   5.592 -0.3491  0.2713 -0.5283
19837SOL    HW165857   4.033   8.943   5.645 -2.5539 -0.5382  2.3572
19837SOL    HW265858   3.947   8.901   5.528  0.0387 -0.6815  0.4187
19838SOL     OW65859   4.561   2.452   6.001  0.0704  0.0975  0.4301
19838SOL    HW165860   4.473   2.471   6.033 -0.2435  1.9649 -1.3301
19838SOL    HW265861   4.616   2.455   6.080 -1.0706  1.5728  1.2217
19839SOL     OW65862   1.619   7.085   3.688  0.0976  0.1737  0.9866
19839SOL    HW165863   1.602   7.047   3.774 -0.1725  0.9875  1.3002
19839SOL    HW265864   1.703   7.130   3.698  0.0250  0.3380  0.8442
19840SOL     OW65865   4.642   2.798   6.659 -0.3868 -0.1683  0.6577
19840SOL    HW165866   4.679   2.711   6.670 -2.0229 -0.7711  1.7254
19840SOL    HW265867   4.552   2.790   6.689 -0.7734  1.7432  0.1580
19841SOL     OW65868   7.687   0.838   4.802  0.0756 -0.0527  0.0389
19841SOL    HW165869   7.658   0.891   4.876 -2.2712 -0.5291 -0.4631
19841SOL    HW265870   7.705   0.902   4.733 -0.6789  0.2176  0.0885
19842SOL     OW65871   4.691   6.820   5.064  0.1835 -0.1570  0.1121
19842SOL    HW165872   4.717   6.749   5.122  1.4312 -0.0473 -0.2867
19842SOL    HW265873   4.707   6.785   4.976  1.6833  0.9170 -0.0724
19843SOL     OW65874   4.380   3.603   6.312 -0.2010  0.3163 -1.0314
19843SOL    HW165875   4.338   3.643   6.388  0.1345 -0.3660 -0.4668
19843SOL    HW265876   4.383   3.672   6.246 -2.2160  0.3670 -1.1110
19844SOL     OW65877   5.437   2.859   6.661 -0.1425 -0.4192  0.3303
19844SOL    HW165878   5.420   2.768   6.636 -1.1171  0.2923 -1.8734
19844SOL    HW265879   5.430   2.908   6.579 -0.4402  1.7573  1.5784
19845SOL     OW65880   7.456   1.012   2.546  0.0623  0.1982  0.0042
19845SOL    HW165881   7.366   0.996   2.520 -0.1969  1.3274  0.1256
19845SOL    HW265882   7.495   1.058   2.470  0.1065  1.0016  0.4983
19846SOL     OW65883   6.092   6.586   4.319 -0.8728 -0.1479  0.5078
19846SOL    HW165884   6.136   6.549   4.396  0.1281 -0.2362 -0.0871
19846SOL    HW265885   6.151   6.566   4.246 -1.6107  0.2933 -0.2203
19847SOL     OW65886   8.110   2.520   1.507 -0.1624 -0.4387  0.3014
19847SOL    HW165887   8.193   2.490   1.544  0.4956  0.5756 -0.3096
19847SOL    HW265888   8.117   2.615   1.505 -1.1064 -0.3662 -0.3165
19848SOL     OW65889   0.664   2.298   1.042  0.2602 -0.2023  0.2119
19848SOL    HW165890   0.733   2.245   1.083  0.8409 -0.7093 -1.3781
19848SOL    HW265891   0.703   2.332   0.962 -1.0498  0.2969 -0.2447
19849SOL     OW65892   6.029   2.094   5.434  0.3457 -0.1740  0.4373
19849SOL    HW165893   6.102   2.034   5.449  0.8860 -0.2822 -2.2030
19849SOL    HW265894   5.952   2.046   5.465  1.1456 -0.8151  1.5142
19850SOL     OW65895   8.428   2.282   4.713 -0.1853 -0.1096  0.3016
19850SOL    HW165896   8.480   2.289   4.793  0.0129  0.0246  0.1607
19850SOL    HW265897   8.440   2.191   4.685  0.0999 -0.0379  0.1853
19851SOL     OW65898   9.074   6.470   1.308  1.3903  0.0554 -0.4143
19851SOL    HW165899   9.151   6.481   1.364  0.6282  1.3686  0.4340
19851SOL    HW265900   9.096   6.515   1.227  1.5612  0.3181 -0.2224
19852SOL     OW65901   3.309   2.056   4.375  0.0206 -0.0207 -0.2626
19852SOL    HW165902   3.380   2.013   4.423  0.3919  2.1222  1.2597
19852SOL    HW265903   3.354   2.117   4.316 -0.5242  0.6645  0.0170
19853SOL     OW65904   8.037   0.758   6.523  0.5770  0.0482  0.1819
19853SOL    HW165905   8.091   0.827   6.483  0.4321 -0.3560 -0.7460
19853SOL    HW265906   7.948   0.780   6.496  0.2804  0.6049  1.5500
19854SOL     OW65907   3.520   3.237   2.716  0.7024 -0.0868 -0.2897
19854SOL    HW165908   3.447   3.279   2.761  2.5614  0.6264  2.2758
19854SOL    HW265909   3.496   3.144   2.713  0.8994 -0.3822  3.2836
19855SOL     OW65910   0.270   7.329   5.905  0.3703 -0.6003  0.2542
19855SOL    HW165911   0.237   7.239   5.905  1.0908 -0.8912 -1.1740
19855SOL    HW265912   0.362   7.320   5.928  1.0087 -0.5139 -2.0227
19856SOL     OW65913   6.531   8.340   4.553 -0.1200  0.6364 -0.2931
19856SOL    HW165914   6.456   8.287   4.525 -1.4801  3.0420 -1.5779
19856SOL    HW265915   6.563   8.381   4.473  0.9070  1.7037  0.6188
19857SOL     OW65916   8.193   0.415   6.227 -0.1220 -0.4467 -0.8455
19857SOL    HW165917   8.167   0.489   6.171  0.2295 -0.7776 -1.4522
19857SOL    HW265918   8.229   0.351   6.166  1.4686 -0.2854 -0.1087
19858SOL     OW65919   7.863   8.116   7.092 -0.2147  0.3607 -0.4850
19858SOL    HW165920   7.914   8.131   7.171  1.2419 -1.8816 -0.9196
19858SOL    HW265921   7.809   8.195   7.083 -0.6956  0.5565  2.8805
19859SOL     OW65922   0.257   7.438   2.134  0.1311  0.7097  0.3433
19859SOL    HW165923   0.341   7.462   2.094  0.2567  1.5200  1.0789
19859SOL    HW265924   0.247   7.345   2.114  2.2045  0.0592  2.0043
19860SOL     OW65925   7.427   3.268   6.501 -0.0097 -0.3109  0.2709
19860SOL    HW165926   7.523   3.269   6.494 -0.0978  0.5122 -1.3038
19860SOL    HW265927   7.401   3.186   6.459  0.0329 -0.8625  1.3132
19861SOL     OW65928   2.279   8.753   4.269  0.3932 -0.1455 -0.0327
19861SOL    HW165929   2.191   8.789   4.271  0.8911  1.2229 -1.2336
19861SOL    HW265930   2.323   8.793   4.345 -0.2926 -1.7418  1.2859
19862SOL     OW65931   1.466   3.809   5.227  0.2044  0.2108  0.3640
19862SOL    HW165932   1.376   3.835   5.212 -0.6606 -1.6576  1.8383
19862SOL    HW265933   1.498   3.780   5.142 -1.0208 -0.2938  0.0605
19863SOL     OW65934   5.473   3.465   8.310  0.4548  0.5565 -0.0491
19863SOL    HW165935   5.501   3.494   8.397  0.5890  1.5990 -0.4236
19863SOL    HW265936   5.485   3.542   8.254 -2.4752  0.8762 -0.3811
19864SOL     OW65937   3.632   9.141   6.485 -0.8392  0.1269 -0.0881
19864SOL    HW165938   3.590   9.188   6.413  0.9044  0.0929 -1.1820
19864SOL    HW265939   3.698   9.202   6.517 -1.3934  0.0228  1.3259
19865SOL     OW65940   0.829   3.679   3.316 -0.0554  0.1399 -0.3947
19865SOL    HW165941   0.759   3.613   3.321 -0.1199  0.2464  0.1958
19865SOL    HW265942   0.814   3.724   3.233  0.7710 -1.4578 -1.4647
19866SOL     OW65943   2.543   2.018   7.451  0.5128 -0.0599 -0.5235
19866SOL    HW165944   2.559   2.086   7.516  1.3645 -0.0410 -0.7430
19866SOL    HW265945   2.607   2.036   7.381  1.1559 -1.4153 -0.3162
19867SOL     OW65946   3.667   7.868   1.995  0.5073  0.2419  0.3035
19867SOL    HW165947   3.677   7.917   2.077  0.5819 -1.5874  1.4565
19867SOL    HW265948   3.743   7.809   1.994  0.0044 -0.4043 -0.6154
19868SOL     OW65949   2.991   6.878   2.143 -0.1189  0.1314  0.3215
19868SOL    HW165950   2.937   6.902   2.218 -2.8754 -0.6609 -1.2546
19868SOL    HW265951   2.928   6.863   2.072  2.2925  0.3957 -2.0501
19869SOL     OW65952   4.646   2.063   3.613  0.1367 -0.1704 -0.2498
19869SOL    HW165953   4.700   2.131   3.652  1.8994 -1.3040 -0.6053
19869SOL    HW265954   4.614   2.101   3.532  0.7123  0.4017 -0.2153
19870SOL     OW65955   3.888   3.994   5.466  0.5395 -0.0999  0.0696
19870SOL    HW165956   3.950   3.926   5.440  1.4663  0.2437  1.3186
19870SOL    HW265957   3.936   4.076   5.452 -0.5214  0.3371 -1.3010
19871SOL     OW65958   0.186   6.229   0.924  0.5356  0.6528  0.2159
19871SOL    HW165959   0.151   6.145   0.895 -1.8584  1.3531  0.8333
19871SOL    HW265960   0.153   6.238   1.014  1.7607  1.7221  0.5857
19872SOL     OW65961   6.438   8.002   8.457  0.0305  0.2253  0.0394
19872SOL    HW165962   6.467   7.995   8.548 -1.4901 -1.5853  0.4463
19872SOL    HW265963   6.474   7.924   8.414 -1.1453 -0.1695 -0.2970
19873SOL     OW65964   5.500   5.420   1.399  0.5417  0.2403 -0.3345
19873SOL    HW165965   5.474   5.405   1.308 -0.8201  0.6944 -0.0411
19873SOL    HW265966   5.516   5.333   1.434  1.7249  0.0988 -1.1823
19874SOL     OW65967   8.546   0.595   3.967  0.1271  0.0821  0.3257
19874SOL    HW165968   8.632   0.593   3.925 -0.8038 -0.3277 -1.6717
19874SOL    HW265969   8.528   0.687   3.981  0.2394  0.2611 -0.6747
19875SOL     OW65970   1.651   4.048   6.618 -0.6449 -0.0224  0.1948
19875SOL    HW165971   1.575   4.099   6.645 -0.8681 -0.0441 -0.3898
19875SOL    HW265972   1.694   4.025   6.700  0.0128  1.9263  0.4521
19876SOL     OW65973   4.354   8.322   3.817  0.1924 -0.5141  0.4607
19876SOL    HW165974   4.300   8.372   3.877 -0.2544 -0.3556 -0.0650
19876SOL    HW265975   4.300   8.246   3.794  0.8881 -1.2927  1.3075
19877SOL     OW65976   6.172   4.075   5.617 -0.0476  0.2433  0.0743
19877SOL    HW165977   6.078   4.058   5.616 -0.2591  1.3147 -1.4678
19877SOL    HW265978   6.195   4.071   5.710 -1.9539  1.6367  0.6889
19878SOL     OW65979   7.520   8.786   4.517  0.3608 -0.0004 -0.2707
19878SOL    HW165980   7.539   8.856   4.580 -0.6909  0.8372 -0.8357
19878SOL    HW265981   7.509   8.708   4.571  0.8536  0.4125  0.4469
19879SOL     OW65982   8.133   3.696   6.698 -0.6110 -0.0380 -0.2038
19879SOL    HW165983   8.073   3.730   6.632  0.0402  2.8033  0.5378
19879SOL    HW265984   8.161   3.611   6.663 -1.5596  0.6040 -2.7621
19880SOL     OW65985   3.747   4.368   3.825 -0.1298  0.0462 -0.0329
19880SOL    HW165986   3.759   4.415   3.907 -0.4214 -1.1868  0.7393
19880SOL    HW265987   3.701   4.431   3.768 -0.7709  0.5946  1.0531
19881SOL     OW65988   1.727   8.178   6.632 -0.0315 -0.3968 -0.5509
19881SOL    HW165989   1.639   8.155   6.663 -0.1170 -0.6693 -0.9998
19881SOL    HW265990   1.781   8.102   6.653 -0.4546 -1.3438 -2.6495
19882SOL     OW65991   5.807   6.799   8.199  0.1729  0.1552 -0.9688
19882SOL    HW165992   5.839   6.732   8.139  0.1851 -0.7316  0.0043
19882SOL    HW265993   5.712   6.787   8.201  0.1509  0.3222 -0.9644
19883SOL     OW65994   1.290   0.219   6.719 -0.0105  0.2081  0.5085
19883SOL    HW165995   1.222   0.212   6.652 -1.6440  2.3358  1.8214
19883SOL    HW265996   1.367   0.250   6.670 -0.8826  0.7746 -0.5707
19884SOL     OW65997   1.246   4.797   9.140 -0.3702  0.4167  0.4566
19884SOL    HW165998   1.307   4.834   9.204  1.6797 -0.9930 -0.5527
19884SOL    HW265999   1.209   4.720   9.183  2.4203 -1.6484 -0.4990
19885SOL     OW66000   4.625   4.795   2.471 -0.0392 -1.2559 -0.1391
19885SOL    HW166001   4.700   4.855   2.476  0.9477 -2.5526  1.8573
19885SOL    HW266002   4.645   4.737   2.398  0.1668 -0.6696 -0.5539
19886SOL     OW66003   5.628   5.154   8.384  0.1083  0.7128 -0.1630
19886SOL    HW166004   5.630   5.129   8.476 -0.1081  1.1229 -0.0439
19886SOL    HW266005   5.599   5.245   8.384 -0.2229  0.6156 -0.6560
19887SOL     OW66006   2.294   8.794   7.512 -0.0007  0.1685 -0.0564
19887SOL    HW166007   2.307   8.836   7.428 -0.2517  1.3200  0.4654
19887SOL    HW266008   2.255   8.861   7.567 -1.5746 -1.1087  0.4535
19888SOL     OW66009   5.997   0.800   3.381 -0.4429 -0.5660 -0.1295
19888SOL    HW166010   6.089   0.811   3.357 -0.7276  0.7310 -0.6963
19888SOL    HW266011   5.996   0.724   3.439  1.2220  0.3788  1.2064
19889SOL     OW66012   7.481   7.706   8.445  0.2098 -0.6603  0.7038
19889SOL    HW166013   7.387   7.692   8.458  0.0945 -1.6466 -0.9525
19889SOL    HW266014   7.497   7.679   8.355  1.7613  1.2961  0.3251
19890SOL     OW66015   2.216   0.683   6.520  0.0304 -0.3508 -0.5026
19890SOL    HW166016   2.190   0.675   6.429  0.6049 -0.5452 -0.6530
19890SOL    HW266017   2.178   0.606   6.562 -1.2473  0.3463 -0.3213
19891SOL     OW66018   7.048   7.677   7.014 -0.4290 -0.3553  0.2878
19891SOL    HW166019   7.079   7.687   7.104 -0.8818  1.7791  0.2520
19891SOL    HW266020   7.031   7.766   6.984 -0.3970 -1.0218 -1.8945
19892SOL     OW66021   7.570   3.746   2.157  0.2781 -0.1954  1.0172
19892SOL    HW166022   7.478   3.768   2.151  0.1688 -0.8423  0.1335
19892SOL    HW266023   7.572   3.656   2.187  0.6174 -0.2072  0.9742
19893SOL     OW66024   9.098   4.074   0.586 -0.2486  0.3741 -0.1100
19893SOL    HW166025   9.178   4.021   0.580  0.2186  0.8128  1.7082
19893SOL    HW266026   9.089   4.113   0.499  0.3061 -1.3598 -0.9958
19894SOL     OW66027   0.907   1.094   1.828  0.4547 -0.4099  0.0261
19894SOL    HW166028   0.952   1.158   1.773 -0.4282  2.0958  2.0024
19894SOL    HW266029   0.963   1.016   1.826  1.2739  0.1358 -2.9778
19895SOL     OW66030   3.525   2.742   1.024  0.3217  0.4005 -0.2389
19895SOL    HW166031   3.608   2.722   0.982 -0.3625 -0.5862 -1.1969
19895SOL    HW266032   3.475   2.790   0.958 -0.9173 -1.5113 -0.7949
19896SOL     OW66033   2.287   4.521   2.944 -0.2345 -0.3375  0.3125
19896SOL    HW166034   2.357   4.585   2.936 -0.9739  0.2962 -1.9455
19896SOL    HW266035   2.217   4.568   2.989 -0.4043  0.1497 -0.4331
19897SOL     OW66036   3.928   0.024   7.669  0.0378  0.4586 -0.0014
19897SOL    HW166037   3.965   0.099   7.625 -1.9264  0.2011 -2.2893
19897SOL    HW266038   3.871   0.061   7.737 -0.6866  1.0775 -0.9184
19898SOL     OW66039   0.328   2.257   5.041  0.0386  0.2768 -0.4037
19898SOL    HW166040   0.361   2.208   4.966 -0.4090  0.4587 -0.7165
19898SOL    HW266041   0.306   2.343   5.007 -1.0153  0.0800 -0.2526
19899SOL     OW66042   2.835   4.706   4.264 -0.7132 -0.2218  0.0761
19899SOL    HW166043   2.742   4.706   4.241 -0.2940 -1.0776 -1.8127
19899SOL    HW266044   2.872   4.635   4.212  1.1322  0.5926  0.2116
19900SOL     OW66045   0.471   4.331   1.951 -0.0546 -0.4149 -0.9575
19900SOL    HW166046   0.509   4.414   1.982  1.1033 -1.2706 -0.0071
19900SOL    HW266047   0.507   4.265   2.010 -1.4863 -1.5269 -1.2988
19901SOL     OW66048   2.802   0.053   8.521 -0.0728 -0.0285 -0.4646
19901SOL    HW166049   2.853   0.116   8.573 -0.3918 -0.3132  0.2114
19901SOL    HW266050   2.834  -0.032   8.549 -0.8256 -0.2053 -0.1201
19902SOL     OW66051   2.954   2.947   2.900  1.2611 -0.0410 -0.2442
19902SOL    HW166052   2.974   2.919   2.989 -2.1208 -2.5100 -0.0421
19902SOL    HW266053   2.914   3.033   2.910  0.0624 -0.6859  0.8002
19903SOL     OW66054   3.842   4.110   9.135  0.6414  0.3116 -0.0256
19903SOL    HW166055   3.878   4.185   9.089  1.6564 -0.6719 -0.9150
19903SOL    HW266056   3.838   4.041   9.068 -2.8080  0.2714  0.0314
19904SOL     OW66057   3.150   1.303   1.104 -0.0403 -0.4872 -0.1615
19904SOL    HW166058   3.154   1.299   1.009  0.4498  1.7080 -0.2895
19904SOL    HW266059   3.241   1.306   1.132 -0.1070 -2.8791  0.5623
19905SOL     OW66060   6.419   5.944   5.141  0.5897 -0.6188 -0.0978
19905SOL    HW166061   6.478   5.895   5.197  2.6070  0.2531 -1.3574
19905SOL    HW266062   6.350   5.882   5.118  0.7833 -1.5517  1.6974
19906SOL     OW66063   0.123   8.223   7.631  0.1792  0.4664 -0.1615
19906SOL    HW166064   0.092   8.171   7.704 -0.0007  0.7657 -0.0209
19906SOL    HW266065   0.205   8.262   7.662  0.2625  0.3481 -0.2312
19907SOL     OW66066   5.359   7.532   2.453 -0.8165  0.3480 -0.0187
19907SOL    HW166067   5.369   7.521   2.358 -1.5700 -0.0862 -0.0573
19907SOL    HW266068   5.319   7.618   2.463  0.3135  0.8928 -0.0170
19908SOL     OW66069   2.751   6.800   1.395  0.4044  0.1432  0.2462
19908SOL    HW166070   2.725   6.842   1.313 -1.2959 -2.9769 -0.9964
19908SOL    HW266071   2.820   6.738   1.369  0.9109  0.1748  1.4678
19909SOL     OW66072   2.697   7.616   6.194  0.3039 -0.5381 -0.2716
19909SOL    HW166073   2.790   7.630   6.177  0.2905  0.8993  0.6499
19909SOL    HW266074   2.686   7.521   6.188  1.8788 -0.7657 -0.1268
19910SOL     OW66075   3.389   2.160   0.627  0.5884 -0.2282 -0.2458
19910SOL    HW166076   3.302   2.125   0.645  1.2314 -0.9606  1.8311
19910SOL    HW266077   3.389   2.180   0.534 -0.8435 -2.9744 -0.9552
19911SOL     OW66078   5.065   6.153   3.156  0.1265  0.1370 -0.1839
19911SOL    HW166079   4.970   6.142   3.152  0.1819 -0.2347 -0.5457
19911SOL    HW266080   5.087   6.206   3.080  0.0928  1.1539  0.4873
19912SOL     OW66081   0.743   2.545   1.743 -0.2091 -0.1760 -0.4500
19912SOL    HW166082   0.657   2.562   1.706  0.1229  4.1264  0.2622
19912SOL    HW266083   0.726   2.522   1.834 -0.6109 -0.5877 -0.6236
19913SOL     OW66084   8.444   1.179   6.480  0.5703  0.4244 -0.3611
19913SOL    HW166085   8.452   1.259   6.427 -0.8132  0.7621 -0.0937
19913SOL    HW266086   8.468   1.207   6.568 -1.2052  0.8910 -0.0025
19914SOL     OW66087   5.146   6.477   1.463  0.4275 -0.2367  0.0141
19914SOL    HW166088   5.172   6.385   1.457 -1.2155 -0.7393  0.1909
19914SOL    HW266089   5.133   6.504   1.372 -1.2916 -0.8832  0.0245
19915SOL     OW66090   0.497   5.957   2.764  0.1528 -0.2524  0.0273
19915SOL    HW166091   0.418   5.990   2.806  0.5290 -0.1732  0.6932
19915SOL    HW266092   0.475   5.868   2.737  0.2801 -0.7625  1.5163
19916SOL     OW66093   1.626   6.110   3.958  0.0716  0.0540  0.0837
19916SOL    HW166094   1.531   6.101   3.955  0.1666 -1.1728 -2.2933
19916SOL    HW266095   1.644   6.196   3.922 -0.1223 -1.0640 -2.9731
19917SOL     OW66096   4.658   4.501   6.560  0.2986  0.9033 -0.8188
19917SOL    HW166097   4.603   4.428   6.530  0.4372  1.6655 -3.1419
19917SOL    HW266098   4.595   4.566   6.591  0.1282  0.2108  0.3411
19918SOL     OW66099   6.068   8.370   6.354  0.3016 -0.0057 -0.5554
19918SOL    HW166100   6.151   8.392   6.396 -0.4927  1.7886  0.1822
19918SOL    HW266101   6.060   8.431   6.281 -0.7994  0.5110 -0.0301
19919SOL     OW66102   1.954   9.188   1.673  0.1444  0.1676  0.4583
19919SOL    HW166103   1.946   9.213   1.581 -0.5863 -0.1823  0.4231
19919SOL    HW266104   1.890   9.241   1.719  0.4961  0.3292  0.7736
19920SOL     OW66105   2.312   2.993   6.880  0.1338 -0.5000  0.2640
19920SOL    HW166106   2.351   2.975   6.795 -1.9232  0.9439 -1.0901
19920SOL    HW266107   2.345   2.923   6.937  0.9255 -2.0050 -1.9044
19921SOL     OW66108   3.413   8.586   3.272  0.4172  0.2984  0.2709
19921SOL    HW166109   3.387   8.494   3.266  1.2654  0.0648 -0.0246
19921SOL    HW266110   3.487   8.587   3.332  1.3610  0.5572 -0.8437
19922SOL     OW66111   8.654   2.579   3.907  0.3717 -0.1286  0.5692
19922SOL    HW166112   8.591   2.627   3.852 -1.1562 -0.7203  1.7394
19922SOL    HW266113   8.629   2.601   3.997 -0.1493 -2.7772  1.1381
19923SOL     OW66114   1.454   7.500   7.959 -0.0898  0.3663  0.7046
19923SOL    HW166115   1.414   7.470   7.878  0.2598  0.7647  0.3741
19923SOL    HW266116   1.388   7.555   8.000 -2.2135 -3.5470  3.1413
19924SOL     OW66117   7.324   4.027   6.857  0.4272  0.2036  0.1010
19924SOL    HW166118   7.306   3.934   6.841 -1.2563  0.4734  0.2178
19924SOL    HW266119   7.312   4.037   6.952 -2.7010  1.1191 -0.2851
19925SOL     OW66120   6.117   5.664   4.507 -0.2936 -0.1919  0.1475
19925SOL    HW166121   6.116   5.614   4.589 -1.5286 -1.0302 -0.3662
19925SOL    HW266122   6.026   5.664   4.477  0.4299 -1.6300 -2.2770
19926SOL     OW66123   7.192   6.541   0.767  0.0432 -0.3459 -0.3084
19926SOL    HW166124   7.152   6.601   0.704  0.1084  0.8894  0.7928
19926SOL    HW266125   7.150   6.561   0.850 -1.3998 -3.2228 -0.2143
19927SOL     OW66126   2.265   7.029   5.650  0.2547  0.1943  0.1929
19927SOL    HW166127   2.260   6.957   5.587  1.2650 -1.0297  1.4646
19927SOL    HW266128   2.220   7.101   5.606 -2.4460 -1.7071 -0.3781
19928SOL     OW66129   8.906   3.756   7.596 -0.3729  0.2050 -0.5135
19928SOL    HW166130   8.983   3.768   7.651 -0.3319  0.4999 -0.6356
19928SOL    HW266131   8.839   3.812   7.634 -1.1211 -1.4279  0.7053
19929SOL     OW66132   0.259   2.386   5.505 -0.0756 -0.0327  0.2356
19929SOL    HW166133   0.307   2.310   5.538 -0.6713 -0.2193  0.7042
19929SOL    HW266134   0.306   2.412   5.426  1.1126  0.1296  0.9786
19930SOL     OW66135   0.481   4.695   2.921  0.2418 -0.0750  0.2318
19930SOL    HW166136   0.547   4.699   2.991  0.3529  2.1380  0.0773
19930SOL    HW266137   0.400   4.723   2.963  0.8268  4.0138 -0.9502
19931SOL     OW66138   7.817   2.749   5.206 -0.1672  0.0425  0.7859
19931SOL    HW166139   7.849   2.767   5.117  1.3474 -2.2319  0.8020
19931SOL    HW266140   7.722   2.752   5.198 -0.0515  0.0986 -0.8823
19932SOL     OW66141   5.120   5.398   0.295  0.2779  0.0038 -0.1706
19932SOL    HW166142   5.088   5.446   0.219 -0.8540  1.0699  0.9252
19932SOL    HW266143   5.154   5.316   0.260 -0.5062  0.3323 -1.7752
19933SOL     OW66144   7.751   2.444   2.956 -0.3468 -0.1542 -0.4023
19933SOL    HW166145   7.775   2.389   3.030 -2.0633  0.3476  0.6011
19933SOL    HW266146   7.655   2.443   2.956 -0.5186  3.0537 -0.0626
19934SOL     OW66147   6.852   0.866   8.252 -0.7446  0.0401 -0.1476
19934SOL    HW166148   6.893   0.951   8.265 -1.0103  0.0243  0.8368
19934SOL    HW266149   6.897   0.808   8.314 -0.1240 -0.6993 -1.2460
19935SOL     OW66150   2.107   7.596   1.487 -0.0915 -0.3681 -0.0689
19935SOL    HW166151   2.150   7.614   1.571 -0.2329  0.0254 -0.0772
19935SOL    HW266152   2.017   7.572   1.511  0.2711 -1.7800 -0.0100
19936SOL     OW66153   2.947   1.321   3.262  0.0473  0.2139  0.5131
19936SOL    HW166154   3.024   1.280   3.300 -0.2509  0.1047  1.0153
19936SOL    HW266155   2.874   1.267   3.291 -0.3458  1.0516  1.1334
19937SOL     OW66156   8.424   4.207   7.940 -0.1644 -0.0017 -0.1530
19937SOL    HW166157   8.330   4.210   7.920  0.1560  0.4045 -1.6898
19937SOL    HW266158   8.455   4.127   7.898  0.0669 -0.5490  1.0037
19938SOL     OW66159   8.395   2.616   2.015 -0.3309  0.2473  0.0903
19938SOL    HW166160   8.309   2.596   2.052 -0.9197 -0.5731 -1.6460
19938SOL    HW266161   8.434   2.678   2.077 -1.3435 -0.9004  1.9473
19939SOL     OW66162   1.417   3.393   8.778  0.0362 -0.2399  0.0713
19939SOL    HW166163   1.345   3.448   8.746  0.8368  0.2391 -0.9714
19939SOL    HW266164   1.434   3.426   8.866  0.6257  1.3646 -0.5942
19940SOL     OW66165   4.064   1.637   3.667  0.1011  0.7258  0.0637
19940SOL    HW166166   4.141   1.634   3.611  1.5011  2.6069  1.7519
19940SOL    HW266167   4.088   1.695   3.739 -1.9825 -0.7021  2.0673
19941SOL     OW66168   5.932   0.438   0.116  0.3347  0.6988 -0.2874
19941SOL    HW166169   5.850   0.439   0.068  0.6400 -1.0508 -0.9289
19941SOL    HW266170   5.913   0.484   0.198 -1.3273  0.1653 -0.3487
19942SOL     OW66171   4.992   4.993   6.133 -0.6734  0.1199  0.2222
19942SOL    HW166172   5.047   4.926   6.176 -1.5003  0.6408  2.2065
19942SOL    HW266173   4.997   5.068   6.192 -0.0246  1.7560 -1.8095
19943SOL     OW66174   3.749   0.773   8.203  0.0341 -0.8671 -0.1256
19943SOL    HW166175   3.719   0.739   8.287 -1.4602 -0.7365 -0.5699
19943SOL    HW266176   3.797   0.852   8.225 -1.2112 -0.2702  0.5725
19944SOL     OW66177   3.599   8.566   2.220 -0.2445  0.1932  0.2736
19944SOL    HW166178   3.530   8.519   2.174 -1.0267  0.6281  0.9971
19944SOL    HW266179   3.557   8.605   2.296  0.8409  0.2791  0.8572
19945SOL     OW66180   5.839   8.900   9.183 -0.2555  0.1884  0.0420
19945SOL    HW166181   5.750   8.876   9.157 -0.8667 -0.4756  2.5125
19945SOL    HW266182   5.886   8.816   9.188 -0.4055  0.1664  1.7511
19946SOL     OW66183   6.084   5.092   6.836 -0.3849 -0.0221  0.1454
19946SOL    HW166184   6.164   5.048   6.808 -0.5287 -0.1675 -0.0475
19946SOL    HW266185   6.109   5.183   6.850  0.0349 -0.2738  1.0706
19947SOL     OW66186   3.442   8.512   6.906 -0.3325 -0.2255  0.1468
19947SOL    HW166187   3.351   8.536   6.891 -0.4888 -0.7805  0.2210
19947SOL    HW266188   3.456   8.525   6.999 -0.3443 -0.1876  0.1436
19948SOL     OW66189   2.762   8.608   3.303 -0.2914 -0.4018 -0.5353
19948SOL    HW166190   2.720   8.538   3.353  0.8891 -0.1282  0.8806
19948SOL    HW266191   2.722   8.602   3.216 -3.6829  0.2051  0.8216
19949SOL     OW66192   6.696   4.939   6.931 -0.0089 -0.5910  0.2999
19949SOL    HW166193   6.747   4.896   7.000  2.2663  2.0015  0.4420
19949SOL    HW266194   6.732   4.904   6.850  1.4555  0.5192  0.4202
19950SOL     OW66195   5.417   0.657   4.635  0.0457  0.3185  0.4929
19950SOL    HW166196   5.453   0.569   4.625 -0.6244  0.0757  0.1604
19950SOL    HW266197   5.440   0.702   4.554  1.3962  0.8253  1.1412
19951SOL     OW66198   2.857   2.748   1.473 -0.1238  0.0757  0.2399
19951SOL    HW166199   2.905   2.724   1.552  2.4372 -2.4814 -1.8430
19951SOL    HW266200   2.889   2.835   1.451  1.4327 -0.3958  0.4956
19952SOL     OW66201   7.629   7.128   0.407  0.8562 -0.7825 -0.3401
19952SOL    HW166202   7.634   7.050   0.353  2.5648  0.2403 -1.7697
19952SOL    HW266203   7.685   7.108   0.483  1.3240 -0.9356 -0.7237
19953SOL     OW66204   6.125   8.773   1.133  0.0374  0.0525 -0.1387
19953SOL    HW166205   6.108   8.701   1.072 -1.0583 -0.1413  0.3768
19953SOL    HW266206   6.181   8.735   1.200  0.7876  0.1172 -0.7165
19954SOL     OW66207   9.224   1.606   5.102 -0.1371  0.1548 -0.0817
19954SOL    HW166208   9.226   1.512   5.082 -0.1894  0.1602 -0.1132
19954SOL    HW266209   9.134   1.623   5.131  0.2215 -0.0588  1.1799
19955SOL     OW66210   3.542   1.971   2.695 -0.3897 -0.7175  0.1138
19955SOL    HW166211   3.451   1.989   2.718 -0.2105 -0.6017  0.7400
19955SOL    HW266212   3.583   1.944   2.777  0.2049 -0.5047 -0.1080
19956SOL     OW66213   8.522   5.245   3.826  0.2585  0.4938  0.3019
19956SOL    HW166214   8.457   5.244   3.756 -1.0675 -0.4676  1.4811
19956SOL    HW266215   8.556   5.156   3.829  0.5654  0.6181  0.6411
19957SOL     OW66216   6.167   6.601   2.659  0.3591 -0.2692  0.3807
19957SOL    HW166217   6.149   6.686   2.619  1.2067 -0.3791 -0.2589
19957SOL    HW266218   6.218   6.622   2.738 -1.3253 -0.0520  1.4639
19958SOL     OW66219   5.457   5.730   3.454  0.2193 -0.2783 -0.2318
19958SOL    HW166220   5.486   5.641   3.434 -1.5312 -0.9625  0.0871
19958SOL    HW266221   5.517   5.760   3.522 -1.0970 -2.5008  2.1112
19959SOL     OW66222   0.832   0.783   2.082  0.1904 -0.2056  0.6545
19959SOL    HW166223   0.877   0.858   2.122  1.3929 -0.4666 -0.1469
19959SOL    HW266224   0.814   0.811   1.992  0.1756 -0.6866  0.5058
19960SOL     OW66225   7.804   8.432   4.970  0.0861 -0.5847  0.2079
19960SOL    HW166226   7.717   8.464   4.993  1.0906  0.7309  2.5286
19960SOL    HW266227   7.852   8.510   4.943  0.6358 -1.2440 -0.7552
19961SOL     OW66228   5.947   7.502   5.702  0.1830  0.4789  0.1436
19961SOL    HW166229   6.034   7.493   5.664 -0.5730  0.3590 -1.6366
19961SOL    HW266230   5.932   7.596   5.708 -0.1197  0.5149 -0.9455
19962SOL     OW66231   0.956   5.194   6.620 -0.0670  0.0776 -0.0850
19962SOL    HW166232   0.933   5.159   6.706  0.1615 -1.2841 -0.5595
19962SOL    HW266233   0.986   5.283   6.638 -0.6104  0.0250  1.1662
19963SOL     OW66234   2.745   7.308   7.206  0.1077 -0.1664  0.5727
19963SOL    HW166235   2.829   7.319   7.250  1.2921 -4.4377 -0.1506
19963SOL    HW266236   2.686   7.278   7.276  0.0584 -0.2180  0.5095
19964SOL     OW66237   8.669   0.871   3.512  0.0670 -0.2154  0.2467
19964SOL    HW166238   8.651   0.922   3.433 -1.2867  1.5208  1.5976
19964SOL    HW266239   8.583   0.840   3.540  0.1727  1.1640  2.2765
19965SOL     OW66240   5.434   1.389   7.072 -0.1182  0.0772 -0.1839
19965SOL    HW166241   5.441   1.302   7.110 -1.3838  0.0576  0.0523
19965SOL    HW266242   5.509   1.396   7.013  0.6682 -0.7018  0.6989
19966SOL     OW66243   7.023   4.070   1.917 -0.3413 -0.0958  0.8085
19966SOL    HW166244   7.061   4.154   1.942 -0.2936 -0.3417  1.6070
19966SOL    HW266245   7.097   4.019   1.883 -0.7129  0.8653 -1.6352
19967SOL     OW66246   2.768   5.852   8.619  0.2379  0.2154  0.1235
19967SOL    HW166247   2.753   5.883   8.709  1.3717  0.2872  0.3047
19967SOL    HW266248   2.862   5.865   8.605  0.1754 -0.3315 -0.8757
19968SOL     OW66249   7.586   4.230   8.962 -0.7467 -0.0411 -0.3236
19968SOL    HW166250   7.586   4.293   9.034 -0.2502 -2.3728  1.8581
19968SOL    HW266251   7.496   4.230   8.930 -0.9422  1.1511  0.1775
19969SOL     OW66252   1.769   6.422   8.341 -0.1543 -0.4180 -0.1974
19969SOL    HW166253   1.800   6.511   8.359 -0.5494 -0.6126  1.6414
19969SOL    HW266254   1.764   6.417   8.246  1.2914  1.0395 -0.3941
19970SOL     OW66255   0.702   8.229   0.344 -0.1492 -0.3280 -0.5605
19970SOL    HW166256   0.709   8.159   0.280  1.5961 -0.2692 -0.4835
19970SOL    HW266257   0.709   8.185   0.429 -1.2855 -0.2840 -0.4352
19971SOL     OW66258   1.183   1.961   0.740  0.5618  0.3512 -0.7744
19971SOL    HW166259   1.188   1.949   0.834 -0.3727  2.1896 -0.4397
19971SOL    HW266260   1.271   1.940   0.708  1.1237  0.5116  0.6198
19972SOL     OW66261   2.009   7.806   0.441  0.0440  0.2038 -0.1194
19972SOL    HW166262   1.919   7.837   0.447 -0.0666 -0.0855 -0.2524
19972SOL    HW266263   2.003   7.711   0.453  0.4137  0.2631  0.6515
19973SOL     OW66264   5.216   9.222   9.130  0.1551 -0.0763 -0.0976
19973SOL    HW166265   5.263   9.202   9.211  1.9902 -0.3900 -1.1995
19973SOL    HW266266   5.168   9.141   9.110  0.0666 -0.1532  0.4056
19974SOL     OW66267   6.586   5.931   2.471  0.1211  0.2810  0.1640
19974SOL    HW166268   6.576   5.848   2.424  0.4037  1.6002 -2.3822
19974SOL    HW266269   6.501   5.945   2.512 -0.1921 -0.8816 -0.0530
19975SOL     OW66270   2.772   1.764   2.081 -0.4087 -0.2542 -0.1557
19975SOL    HW166271   2.711   1.726   2.018  2.0253 -3.0846 -1.0594
19975SOL    HW266272   2.773   1.701   2.154 -0.7289  1.2815  1.2272
19976SOL     OW66273   8.927   8.511   0.416  0.0466 -0.0139 -1.1487
19976SOL    HW166274   8.936   8.417   0.429  2.5909 -0.0902 -2.7563
19976SOL    HW266275   8.842   8.522   0.375 -1.5553 -1.2247  1.5667
19977SOL     OW66276   3.441   8.799   4.041  0.5207  0.0758 -0.5284
19977SOL    HW166277   3.455   8.705   4.038  0.2126  0.0093  0.1333
19977SOL    HW266278   3.457   8.824   4.132 -1.3278  0.3584 -0.2534
19978SOL     OW66279   9.172   8.325   1.282  0.5591  0.0371 -0.4719
19978SOL    HW166280   9.107   8.267   1.322  2.2728 -1.4282  0.3285
19978SOL    HW266281   9.181   8.292   1.193  0.6324 -0.1273 -0.4036
19979SOL     OW66282   6.439   2.076   1.127  0.1444 -0.2955 -0.2569
19979SOL    HW166283   6.352   2.054   1.094  0.3932  0.0294 -1.1345
19979SOL    HW266284   6.440   2.040   1.216 -0.4047 -1.5154 -0.7124
19980SOL     OW66285   6.819   7.734   8.222 -0.1308 -0.0204 -0.2762
19980SOL    HW166286   6.898   7.682   8.206  0.4288  0.3472  1.1189
19980SOL    HW266287   6.817   7.798   8.151 -0.1173 -1.1151 -1.2756
19981SOL     OW66288   4.168   2.045   2.851  0.0126  0.3944  0.0085
19981SOL    HW166289   4.256   2.075   2.831 -0.8580  2.7082 -0.7868
19981SOL    HW266290   4.117   2.066   2.773 -1.2522 -0.8953  0.4425
19982SOL     OW66291   1.630   8.605   3.262 -0.4907 -0.0234  0.5103
19982SOL    HW166292   1.600   8.576   3.348 -1.6168 -0.3502  0.0199
19982SOL    HW266293   1.670   8.527   3.224  1.4724  0.5002  1.3114
19983SOL     OW66294   4.540   6.669   5.964  0.3942 -0.6767 -0.4640
19983SOL    HW166295   4.549   6.587   5.914  0.4339  0.1139 -1.8167
19983SOL    HW266296   4.490   6.644   6.042  0.1665 -1.9356 -0.9746
19984SOL     OW66297   6.137   1.488   7.697 -0.1953 -0.0902  0.6866
19984SOL    HW166298   6.057   1.482   7.749 -0.0636 -1.8202  0.7377
19984SOL    HW266299   6.125   1.566   7.643 -2.1607 -0.6290  0.2812
19985SOL     OW66300   7.957   5.773   7.222 -0.4613 -0.3257  0.4355
19985SOL    HW166301   8.032   5.833   7.226  1.1795 -2.3402  1.7474
19985SOL    HW266302   7.920   5.775   7.311 -1.4895  0.0110  0.0225
19986SOL     OW66303   3.950   8.810   4.003 -0.1376  0.1838 -0.0554
19986SOL    HW166304   3.872   8.825   4.056 -0.1856 -2.2798  0.7180
19986SOL    HW266305   3.946   8.876   3.934 -2.7411  0.3305  0.1395
19987SOL     OW66306   0.282   8.036   4.153 -0.4102 -0.2260 -0.2462
19987SOL    HW166307   0.323   8.117   4.124  1.5476 -1.3498 -0.8394
19987SOL    HW266308   0.320   7.968   4.097 -1.0985 -1.6996  0.9710
19988SOL     OW66309   0.759   7.676   8.377  0.0449 -0.5230 -0.1127
19988SOL    HW166310   0.693   7.651   8.441 -0.1605 -1.4617 -0.6608
19988SOL    HW266311   0.737   7.766   8.354  1.4642  0.6440  2.7340
19989SOL     OW66312   7.622   1.799   8.315 -0.3586  0.3275  0.3381
19989SOL    HW166313   7.533   1.768   8.296 -0.9284  0.4787  2.4938
19989SOL    HW266314   7.649   1.749   8.392  2.0557 -0.7634 -1.1201
19990SOL     OW66315   3.348   8.885   6.815 -0.1738 -0.3450  0.3399
19990SOL    HW166316   3.412   8.817   6.792  0.9840  0.8954 -0.2296
19990SOL    HW266317   3.268   8.857   6.772  0.4046 -1.1244 -0.2697
19991SOL     OW66318   5.588   2.381   4.905  0.1207  0.1392 -0.3038
19991SOL    HW166319   5.624   2.379   4.816 -1.5461 -0.4871 -1.0071
19991SOL    HW266320   5.573   2.289   4.926  0.1289  0.3139  0.4716
19992SOL     OW66321   5.353   3.109   7.194 -0.2692  0.2403 -0.3710
19992SOL    HW166322   5.429   3.118   7.137 -0.9507  1.1149 -1.1646
19992SOL    HW266323   5.312   3.195   7.195 -0.8444 -0.0214  0.6446
19993SOL     OW66324   1.972   7.127   7.615 -0.0210  0.1019  0.4111
19993SOL    HW166325   2.022   7.046   7.617 -0.3259 -0.0892  0.2920
19993SOL    HW266326   1.881   7.100   7.628 -0.2449  0.3194 -0.5814
19994SOL     OW66327   8.297   7.675   8.446 -0.5170 -0.0919  0.0677
19994SOL    HW166328   8.348   7.753   8.425  0.9929 -1.0699  0.0088
19994SOL    HW266329   8.210   7.709   8.469  0.4128  1.6918  1.1176
19995SOL     OW66330   1.523   7.171   0.710  0.4608 -0.0216 -0.0553
19995SOL    HW166331   1.562   7.249   0.671 -0.5997  0.6843  0.2743
19995SOL    HW266332   1.478   7.203   0.788 -0.5134 -0.8629 -0.2570
19996SOL     OW66333   0.845   7.936   4.686  0.1982  0.4072 -0.3740
19996SOL    HW166334   0.852   7.958   4.779 -0.4484 -1.8661  0.2909
19996SOL    HW266335   0.752   7.946   4.665 -0.0057 -0.9658 -0.2112
19997SOL     OW66336   1.714   4.705   1.582  0.4104 -0.0685  0.6913
19997SOL    HW166337   1.715   4.775   1.647  2.2470  0.4457  0.1857
19997SOL    HW266338   1.788   4.649   1.606  0.0050 -0.8893  0.0903
19998SOL     OW66339   0.495   6.529   6.681 -0.4244 -0.5360  0.4137
19998SOL    HW166340   0.580   6.518   6.638 -0.1115  1.0385  0.5624
19998SOL    HW266341   0.455   6.442   6.677  1.4573 -1.4778  0.9261
19999SOL     OW66342   6.773   7.286   1.495  0.5890  0.5742  0.4795
19999SOL    HW166343   6.712   7.227   1.451  0.8683  0.3364  0.4081
19999SOL    HW266344   6.798   7.238   1.574  0.2093  0.9320  0.8198
20000SOL     OW66345   5.248   3.417   1.138 -0.5661 -0.2899  0.1556
20000SOL    HW166346   5.177   3.458   1.187 -2.3650 -0.8253 -1.8705
20000SOL    HW266347   5.304   3.490   1.112  1.1705 -0.0728  3.8596
20001SOL     OW66348   1.803   2.083   6.766  0.0657 -0.0307  0.3760
20001SOL    HW166349   1.800   2.098   6.672 -0.1872 -0.4100  0.3185
20001SOL    HW266350   1.800   2.170   6.805 -0.0637  0.1177  0.0371
20002SOL     OW66351   0.195   7.532   7.688  0.4747  0.2340  0.1250
20002SOL    HW166352   0.125   7.542   7.753 -0.3393  0.3716 -0.7616
20002SOL    HW266353   0.206   7.437   7.680  0.9881  0.2174  0.8784
20003SOL     OW66354   1.792   5.942   8.547  0.2552  0.0640  0.1027
20003SOL    HW166355   1.745   6.016   8.510  0.4661  1.1080  1.8191
20003SOL    HW266356   1.858   5.920   8.481  0.1802  1.4045 -0.4444
20004SOL     OW66357   3.222   2.176   5.489  0.0938  0.5517  0.0937
20004SOL    HW166358   3.306   2.172   5.536  0.0574 -0.2229  0.0991
20004SOL    HW266359   3.201   2.269   5.486  0.8527  0.7345  0.2791
20005SOL     OW66360   7.193   4.173   3.704  0.2177 -0.0091 -0.0628
20005SOL    HW166361   7.208   4.121   3.783  0.1322 -0.9303 -0.6418
20005SOL    HW266362   7.098   4.169   3.690  0.3388 -0.6233 -0.7291
20006SOL     OW66363   0.026   0.242   5.278 -0.0036 -0.2985  0.5486
20006SOL    HW166364  -0.000   0.238   5.187  0.5807 -0.0168  0.3600
20006SOL    HW266365  -0.040   0.192   5.325  0.9255 -2.4711 -0.3061
20007SOL     OW66366   5.310   2.489   4.500 -0.3313  0.3251 -0.2440
20007SOL    HW166367   5.262   2.412   4.467 -1.8112 -0.0595  2.4882
20007SOL    HW266368   5.246   2.534   4.555  1.1360  2.4457 -0.1925
20008SOL     OW66369   3.976   0.451   2.946  0.3153  0.0434 -0.1967
20008SOL    HW166370   4.060   0.492   2.923 -0.1640  1.6316  0.7426
20008SOL    HW266371   3.916   0.479   2.877 -0.0906  1.2763  0.6145
20009SOL     OW66372   8.580   2.986   9.151  0.8016  0.2466 -0.2119
20009SOL    HW166373   8.489   2.979   9.122  0.5653 -1.6364  0.8029
20009SOL    HW266374   8.576   2.974   9.246  2.0911  0.3055 -0.1349
20010SOL     OW66375   1.874   8.591   2.863  0.1121 -0.3614  0.0731
20010SOL    HW166376   1.803   8.654   2.847  0.8512  0.4312 -0.1194
20010SOL    HW266377   1.842   8.509   2.824 -2.1742 -0.9858  2.9121
20011SOL     OW66378   1.151   8.563   1.535  0.7387  0.4934 -0.0782
20011SOL    HW166379   1.114   8.488   1.583  0.0613 -0.1265 -1.5197
20011SOL    HW266380   1.185   8.621   1.604  0.1181 -0.5254  1.1268
20012SOL     OW66381   2.950   6.937   1.114  0.6950 -0.3075  0.0508
20012SOL    HW166382   2.967   6.949   1.208 -1.6709  1.3221  0.3481
20012SOL    HW266383   2.866   6.892   1.110  0.0307  1.0006 -1.2870
20013SOL     OW66384   6.045   3.287   7.589 -0.0861 -0.1675  0.2866
20013SOL    HW166385   5.972   3.261   7.532 -0.7904 -0.5925  1.3472
20013SOL    HW266386   6.122   3.244   7.551 -0.6010 -0.7495 -0.1231
20014SOL     OW66387   6.499   7.786   6.483 -0.9024  0.1360 -0.3108
20014SOL    HW166388   6.490   7.881   6.482  1.4791  0.4705  1.3580
20014SOL    HW266389   6.559   7.766   6.411  0.7244  0.2868  0.9212
20015SOL     OW66390   3.449   2.600   5.734 -0.5350  0.1051 -0.3417
20015SOL    HW166391   3.357   2.576   5.742 -0.5806  0.6776  1.2210
20015SOL    HW266392   3.454   2.687   5.772  0.4567  0.5947 -1.5416
20016SOL     OW66393   8.515   5.443   7.347  0.4695  0.1758  1.0406
20016SOL    HW166394   8.477   5.366   7.306  0.4853  0.5145  0.3797
20016SOL    HW266395   8.575   5.479   7.282  0.4598  0.7462  1.3346
20017SOL     OW66396   4.450   8.557   4.676 -0.1420 -0.0651 -0.2425
20017SOL    HW166397   4.405   8.488   4.724  1.1050 -0.6709  0.0786
20017SOL    HW266398   4.512   8.511   4.620  2.0044  0.8088  1.2855
20018SOL     OW66399   6.516   3.365   8.697  0.1866 -0.1107 -0.5254
20018SOL    HW166400   6.458   3.294   8.727  0.6107 -1.2887 -2.3006
20018SOL    HW266401   6.585   3.320   8.648  0.7325  1.5196 -1.3281
20019SOL     OW66402   5.341   5.077   3.521 -0.9204  1.0454 -0.0790
20019SOL    HW166403   5.296   5.072   3.437 -1.2276 -0.0851  0.1438
20019SOL    HW266404   5.434   5.074   3.499 -0.9122  2.7844 -0.4988
20020SOL     OW66405   0.024   5.522   8.365 -0.2140  0.0830  0.2820
20020SOL    HW166406   0.005   5.572   8.286 -0.1825 -1.3195 -0.6629
20020SOL    HW266407   0.115   5.493   8.355 -0.6420 -1.3034  0.1016
20021SOL     OW66408   8.583   3.177   8.490  0.2858  0.3582  0.5629
20021SOL    HW166409   8.581   3.272   8.491 -0.0477  0.3986  2.8567
20021SOL    HW266410   8.676   3.155   8.476  0.5895  1.0695  1.3662
20022SOL     OW66411   1.870   6.638   6.735 -0.5029  0.6074 -0.0769
20022SOL    HW166412   1.863   6.723   6.692  0.1891  0.9918  0.5503
20022SOL    HW266413   1.917   6.656   6.816  0.3283 -0.4896 -0.2872
20023SOL     OW66414   3.319   0.223   5.880  0.3968 -0.2901 -0.0823
20023SOL    HW166415   3.259   0.244   5.952  1.2035  0.1487  0.4768
20023SOL    HW266416   3.272   0.249   5.801  0.4139  1.4144  0.4393
20024SOL     OW66417   4.091   3.635   9.119  0.5809 -0.0462 -0.5522
20024SOL    HW166418   4.090   3.569   9.189 -0.7325 -0.0813 -0.5802
20024SOL    HW266419   4.146   3.705   9.154 -0.9430  0.4461  1.0379
20025SOL     OW66420   7.781   8.882   4.832 -0.5256  0.2365 -0.0525
20025SOL    HW166421   7.846   8.812   4.837 -0.3898  0.4127  0.9373
20025SOL    HW266422   7.796   8.935   4.910 -2.2404 -0.0594  0.5376
20026SOL     OW66423   6.380   8.297   1.375 -0.6765  0.4355  0.2945
20026SOL    HW166424   6.356   8.386   1.350 -1.2332  0.6689  1.5483
20026SOL    HW266425   6.306   8.266   1.427  0.9431  0.5708  2.8954
20027SOL     OW66426   6.312   6.705   4.857 -0.2823  0.0825  0.6562
20027SOL    HW166427   6.281   6.776   4.801 -1.0816 -0.0856  0.8665
20027SOL    HW266428   6.382   6.743   4.909  1.5343 -0.1345 -1.4920
20028SOL     OW66429   2.801   2.079   6.353 -0.6198 -0.0922 -0.5064
20028SOL    HW166430   2.886   2.046   6.322 -0.5502 -0.2709 -0.1321
20028SOL    HW266431   2.784   2.155   6.298 -1.0501 -1.0674 -1.7687
20029SOL     OW66432   7.452   8.068   5.958 -0.0551  0.2576 -0.3256
20029SOL    HW166433   7.444   8.051   5.864  0.5401  0.2951 -0.3847
20029SOL    HW266434   7.457   8.163   5.965  1.4091  0.2051 -0.3881
20030SOL     OW66435   2.568   8.440   4.166 -0.7003  0.3179 -0.3757
20030SOL    HW166436   2.485   8.488   4.173  0.4972  2.3502  0.7370
20030SOL    HW266437   2.635   8.509   4.160  0.8442 -1.2398 -2.9922
20031SOL     OW66438   8.102   6.584   2.822 -0.6321 -0.8143  0.0988
20031SOL    HW166439   8.116   6.562   2.730  0.0857  0.3866 -0.1079
20031SOL    HW266440   8.065   6.505   2.861 -1.5525 -1.1285 -1.3592
20032SOL     OW66441   6.428   5.379   8.612  0.1206  0.6964  0.3626
20032SOL    HW166442   6.347   5.355   8.567  0.3494 -0.3986  0.5160
20032SOL    HW266443   6.448   5.304   8.667  2.4490 -0.0566 -1.3530
20033SOL     OW66444   1.498   5.387   0.454 -0.0649 -0.1610  0.1534
20033SOL    HW166445   1.578   5.383   0.507 -0.6954  1.0180  1.2526
20033SOL    HW266446   1.529   5.394   0.364  1.0686  0.3134  0.5641
20034SOL     OW66447   2.245   7.717   0.609 -0.3080  0.5478 -0.3207
20034SOL    HW166448   2.224   7.704   0.702  0.4591  0.3249 -0.1701
20034SOL    HW266449   2.165   7.753   0.571 -1.0107 -0.4323  0.1935
20035SOL     OW66450   5.174   6.453   8.975 -0.7626 -0.6468 -0.3003
20035SOL    HW166451   5.153   6.540   9.009 -0.9183 -1.0765  0.7432
20035SOL    HW266452   5.270   6.451   8.970 -0.7928  0.0891 -1.7556
20036SOL     OW66453   6.415   9.137   6.871 -0.2185  0.0906  0.3391
20036SOL    HW166454   6.434   9.074   6.941  0.8207  1.3472  1.2198
20036SOL    HW266455   6.433   9.223   6.909  0.6370  0.8129 -1.5571
20037SOL     OW66456   2.555   7.897   1.631 -0.2324 -0.4492 -0.8917
20037SOL    HW166457   2.645   7.922   1.648 -0.5562 -0.1687  0.6444
20037SOL    HW266458   2.505   7.941   1.700 -1.3855 -1.5477 -0.9828
20038SOL     OW66459   1.380   3.909   4.092  0.1208 -0.3366  0.1092
20038SOL    HW166460   1.393   4.002   4.073 -0.2343 -0.6683 -1.9475
20038SOL    HW266461   1.303   3.907   4.150  0.4518  0.6659  0.6025
20039SOL     OW66462   7.606   4.415   8.008  0.0027  0.6366 -0.4738
20039SOL    HW166463   7.528   4.385   7.961 -0.1409  1.0293 -0.4891
20039SOL    HW266464   7.671   4.431   7.939 -0.4056  1.8115 -0.6065
20040SOL     OW66465   3.196   8.505   0.826  0.0134 -0.5958  0.4779
20040SOL    HW166466   3.249   8.584   0.829 -0.8110  0.0752 -1.2757
20040SOL    HW266467   3.260   8.434   0.815  0.6853 -0.0339  0.7067
20041SOL     OW66468   4.701   8.156   0.970  0.2905  0.3558 -0.3141
20041SOL    HW166469   4.750   8.238   0.966 -1.2267  1.3593  0.5715
20041SOL    HW266470   4.628   8.168   0.909  0.8402 -0.9282 -1.2697
20042SOL     OW66471   6.009   3.677   5.748  0.5873 -0.5266  0.2209
20042SOL    HW166472   6.016   3.586   5.777 -0.0334 -0.3115  1.0964
20042SOL    HW266473   6.092   3.717   5.773  0.7967 -0.8123 -0.0165
20043SOL     OW66474   0.852   0.362   5.036  0.2024  0.0671  0.5615
20043SOL    HW166475   0.771   0.399   5.000 -0.1341 -1.1269  0.0358
20043SOL    HW266476   0.824   0.318   5.116  0.3869 -0.0329  0.5710
20044SOL     OW66477   2.586   3.697   8.351  0.7070 -0.8659  0.1199
20044SOL    HW166478   2.614   3.735   8.434 -1.3637  0.5604  0.2497
20044SOL    HW266479   2.624   3.754   8.284  0.3270 -0.5066  0.2027
20045SOL     OW66480   4.348   5.640   0.711  0.0764  0.3425 -0.2524
20045SOL    HW166481   4.382   5.550   0.715  0.7191  0.6325  1.3388
20045SOL    HW266482   4.295   5.641   0.630 -0.3938 -1.6182 -0.0392
20046SOL     OW66483   5.389   2.775   0.705  0.3680  0.1925  0.7006
20046SOL    HW166484   5.441   2.855   0.696  2.0854 -1.1387 -3.0571
20046SOL    HW266485   5.453   2.706   0.721 -0.8112 -0.8612  1.0269
20047SOL     OW66486   5.687   1.917   3.812 -1.1331 -0.1983 -0.5750
20047SOL    HW166487   5.622   1.985   3.831 -1.2344 -0.1591 -1.0588
20047SOL    HW266488   5.655   1.841   3.861 -0.0168  0.5963  1.5302
20048SOL     OW66489   3.873   8.164   7.080 -0.9586  0.0139 -0.0869
20048SOL    HW166490   3.781   8.152   7.104 -0.6572 -0.0351  1.1619
20048SOL    HW266491   3.885   8.259   7.076 -1.4272  0.0209 -1.8545
20049SOL     OW66492   2.167   4.253   9.233 -0.1981  0.0699  0.1508
20049SOL    HW166493   2.129   4.203   9.305 -0.3567 -0.1837 -0.1034
20049SOL    HW266494   2.097   4.257   9.168  0.2591 -0.5659 -0.3978
20050SOL     OW66495   4.374   1.092   9.210  0.0258  0.0036  0.1149
20050SOL    HW166496   4.410   1.005   9.198 -0.0473  0.0879 -0.8081
20050SOL    HW266497   4.279   1.079   9.211 -0.0711  0.2363 -1.8133
20051SOL     OW66498   7.765   6.617   4.148  0.8269 -1.0349 -0.1219
20051SOL    HW166499   7.711   6.557   4.200 -0.1183  0.0583  0.2024
20051SOL    HW266500   7.730   6.611   4.059 -1.6159  1.4996  0.5220
20052SOL     OW66501   1.120   8.735   4.824 -0.7129  0.7685  0.1653
20052SOL    HW166502   1.163   8.796   4.884  1.1692 -1.2650  1.0152
20052SOL    HW266503   1.066   8.680   4.881 -0.5334  0.1322 -0.2778
20053SOL     OW66504   1.055   0.604   5.921 -0.4182  0.2919  0.3928
20053SOL    HW166505   1.041   0.696   5.899 -1.2690  0.0508 -0.1402
20053SOL    HW266506   1.026   0.556   5.843  1.0490 -0.3931  0.2276
20054SOL     OW66507   5.003   3.514   4.289  0.0086 -0.3162  0.1656
20054SOL    HW166508   4.969   3.519   4.378 -1.0537  2.6469 -0.2753
20054SOL    HW266509   4.931   3.546   4.234  1.8811  1.6242 -1.3136
20055SOL     OW66510   5.399   3.969   1.369  0.4269  0.1425 -0.1469
20055SOL    HW166511   5.426   3.941   1.457  0.3719 -0.5145 -0.3367
20055SOL    HW266512   5.366   3.890   1.327  0.4127  0.4613 -0.7515
20056SOL     OW66513   5.497   0.573   2.822  0.7036  0.7778  0.0397
20056SOL    HW166514   5.444   0.504   2.863 -0.6469  0.4681 -2.0453
20056SOL    HW266515   5.505   0.641   2.888 -0.9257  0.0980  0.9825
20057SOL     OW66516   6.846   1.692   1.462  0.7263  0.3261  0.0438
20057SOL    HW166517   6.880   1.722   1.547  2.0695 -0.2842 -0.2546
20057SOL    HW266518   6.896   1.613   1.443 -0.7808 -0.5283 -0.5194
20058SOL     OW66519   4.602   2.935   9.090  0.3902 -0.4092 -0.1956
20058SOL    HW166520   4.586   2.908   9.000  1.6032 -0.7768 -0.3144
20058SOL    HW266521   4.527   2.991   9.112  1.0037  1.2814 -2.0825
20059SOL     OW66522   4.909   7.136   2.355  0.2109 -0.3836 -0.0678
20059SOL    HW166523   4.932   7.217   2.311 -1.5437  0.0899 -0.2090
20059SOL    HW266524   4.981   7.119   2.416  2.0170 -0.2982 -2.0575
20060SOL     OW66525   6.681   1.569   2.779 -0.0153 -0.1650  0.0903
20060SOL    HW166526   6.624   1.492   2.777  1.2788 -1.1528 -1.8756
20060SOL    HW266527   6.654   1.622   2.704 -0.0949  0.7199  0.7206
20061SOL     OW66528   1.438   6.275   5.506  0.4521 -0.3895  0.3765
20061SOL    HW166529   1.363   6.255   5.562  1.2949 -0.7175  1.4146
20061SOL    HW266530   1.467   6.361   5.536 -0.6664  0.6400 -1.3324
20062SOL     OW66531   0.221   8.664   7.667 -0.1544  0.3708  1.0241
20062SOL    HW166532   0.171   8.596   7.621  0.3731 -0.0204  1.0229
20062SOL    HW266533   0.209   8.644   7.759 -0.4412  0.5991  1.0379
20063SOL     OW66534   8.590   0.858   7.881  0.4652  0.1085  0.4008
20063SOL    HW166535   8.656   0.925   7.899  1.4264 -0.3409 -1.1919
20063SOL    HW266536   8.510   0.908   7.865  0.6581  0.7367  1.3234
20064SOL     OW66537   8.841   7.406   7.587 -0.2813 -0.3493  0.0883
20064SOL    HW166538   8.816   7.333   7.531  1.4279  0.2874 -1.5907
20064SOL    HW266539   8.924   7.380   7.626 -1.0609 -0.4533  1.7988
20065SOL     OW66540   8.053   3.325   6.929 -0.4539 -0.1118  0.0419
20065SOL    HW166541   8.004   3.272   6.867  0.5686 -1.2036  0.1284
20065SOL    HW266542   8.066   3.268   7.005 -0.0273  0.5423  0.4713
20066SOL     OW66543   0.131   2.318   8.544  0.0294  0.4823 -0.3686
20066SOL    HW166544   0.039   2.337   8.558 -0.1163 -0.8885  0.7239
20066SOL    HW266545   0.178   2.370   8.609 -0.1737 -0.7363  0.7846
20067SOL     OW66546   6.984   6.992   6.256 -0.2284  0.1813 -0.2871
20067SOL    HW166547   7.039   6.918   6.281 -2.2834 -1.5993 -0.7174
20067SOL    HW266548   7.043   7.051   6.211  1.6935 -0.7308  0.8791
20068SOL     OW66549   3.550   0.314   6.766 -0.6832  0.2193 -0.1970
20068SOL    HW166550   3.540   0.223   6.738 -0.7370 -0.1497  1.0004
20068SOL    HW266551   3.642   0.321   6.792 -0.6697  0.5214 -0.3262
20069SOL     OW66552   4.501   8.355   3.068  0.0417 -0.4805 -0.2313
20069SOL    HW166553   4.448   8.341   3.146  0.4965 -1.9647 -0.1641
20069SOL    HW266554   4.458   8.305   2.999 -1.2356  2.0180 -1.4040
20070SOL     OW66555   5.076   6.347   1.716  0.6455  0.3103  0.7180
20070SOL    HW166556   5.129   6.269   1.729 -1.4003 -1.2780  0.0803
20070SOL    HW266557   5.108   6.385   1.634 -0.0244 -1.3743 -0.3647
20071SOL     OW66558   8.108   7.218   1.642  0.2003  0.2540 -0.1474
20071SOL    HW166559   8.114   7.134   1.597 -0.7920  0.5154 -0.8111
20071SOL    HW266560   8.190   7.263   1.619 -0.2119  0.3152 -1.5847
20072SOL     OW66561   2.224   6.911   6.502 -0.2278  0.7248  0.0097
20072SOL    HW166562   2.132   6.922   6.529 -0.7619  1.4413 -1.9301
20072SOL    HW266563   2.228   6.822   6.468 -0.5479  1.1151 -1.0792
20073SOL     OW66564   5.171   2.347   3.317 -0.0183  0.2313 -0.1935
20073SOL    HW166565   5.206   2.286   3.253 -0.7161  0.2790 -0.6368
20073SOL    HW266566   5.209   2.432   3.293 -0.0319  0.1927 -0.3512
20074SOL     OW66567   7.865   6.226   8.737 -0.4264  0.3456 -0.5237
20074SOL    HW166568   7.942   6.222   8.681  0.0633  0.4836  0.1356
20074SOL    HW266569   7.862   6.141   8.781 -1.0588  0.0717 -1.0676
20075SOL     OW66570   5.818   6.916   6.159  0.6579 -0.7394 -0.1540
20075SOL    HW166571   5.767   6.892   6.236  0.1292  0.2369 -0.1757
20075SOL    HW266572   5.757   6.906   6.086  0.7736 -0.4743 -0.2911
20076SOL     OW66573   0.265   7.907   2.332 -0.0582 -0.1202  0.0057
20076SOL    HW166574   0.209   7.862   2.396 -0.2597  1.3842  0.9245
20076SOL    HW266575   0.354   7.883   2.357 -0.2008 -1.3961 -0.6052
20077SOL     OW66576   7.323   8.387   7.216 -0.6497  0.2024  0.4095
20077SOL    HW166577   7.267   8.391   7.139 -0.9859 -2.5310  0.4024
20077SOL    HW266578   7.412   8.402   7.182 -0.8336 -0.6385 -0.5040
20078SOL     OW66579   7.510   1.786   1.376 -0.2654 -0.1405 -0.2139
20078SOL    HW166580   7.450   1.839   1.428 -0.1169 -0.1377 -0.0437
20078SOL    HW266581   7.553   1.729   1.439  0.1647  0.1026 -0.2860
20079SOL     OW66582   3.318   0.672   7.985  0.3581 -0.3991 -0.5827
20079SOL    HW166583   3.371   0.594   8.002  0.6360 -0.4565 -1.6296
20079SOL    HW266584   3.228   0.640   7.978 -0.3557  0.0329  3.9715
20080SOL     OW66585   2.919   4.889   7.092  0.1849  0.4223 -0.3146
20080SOL    HW166586   2.980   4.952   7.130 -0.7724  1.2681 -0.1364
20080SOL    HW266587   2.952   4.804   7.119  0.4218  0.9347  1.0737
20081SOL     OW66588   2.103   6.743   3.454 -0.4732  0.2724 -0.3896
20081SOL    HW166589   2.009   6.739   3.436 -0.2948 -0.5274 -1.2361
20081SOL    HW266590   2.114   6.822   3.507 -1.9368 -0.8601  1.7363
20082SOL     OW66591   5.364   1.536   4.026 -0.0569  0.3589  0.3599
20082SOL    HW166592   5.283   1.493   3.998 -0.0980  0.8425 -0.2780
20082SOL    HW266593   5.334   1.611   4.078 -0.0398  0.8673 -0.3513
20083SOL     OW66594   4.206   0.807   8.898  0.2258  0.4180 -0.4663
20083SOL    HW166595   4.199   0.777   8.807  1.0329 -0.2600 -0.3109
20083SOL    HW266596   4.194   0.728   8.951 -3.4888  1.2224  0.1982
20084SOL     OW66597   7.178   8.280   8.080 -0.1342  0.1328 -0.2867
20084SOL    HW166598   7.140   8.339   8.144  1.6846  0.1204  0.8746
20084SOL    HW266599   7.234   8.221   8.131  0.2139 -0.8385 -1.7170
20085SOL     OW66600   1.182   6.323   4.026  0.4128  0.2550  0.0864
20085SOL    HW166601   1.087   6.314   4.016  0.6460 -1.0964 -1.1671
20085SOL    HW266602   1.219   6.254   3.972  2.1359  0.8292  0.4604
20086SOL     OW66603   4.765   3.830   8.334  0.1842 -0.7246  0.0075
20086SOL    HW166604   4.726   3.743   8.325 -1.2402 -0.1034 -0.1364
20086SOL    HW266605   4.702   3.879   8.387  0.5836  0.4516 -0.5583
20087SOL     OW66606   4.503   5.294   8.148 -0.5740 -0.6102  0.7227
20087SOL    HW166607   4.482   5.259   8.234 -1.7974 -3.0703 -0.4758
20087SOL    HW266608   4.423   5.337   8.119 -0.0202  0.6206  0.9597
20088SOL     OW66609   1.261   5.768   2.335 -0.1453 -0.4708 -0.1410
20088SOL    HW166610   1.311   5.687   2.321  0.8742 -0.6927  3.6642
20088SOL    HW266611   1.326   5.837   2.335  0.2854 -0.6296  3.6688
20089SOL     OW66612   2.705   8.533   1.063  0.1096 -0.1464  0.1505
20089SOL    HW166613   2.781   8.477   1.050  1.0379  0.5109  2.2183
20089SOL    HW266614   2.654   8.488   1.130  0.2831  0.8850  0.9997
20090SOL     OW66615   0.300   7.794   8.129 -0.1693  0.7364  0.3166
20090SOL    HW166616   0.230   7.836   8.180 -1.4996 -0.3346 -0.5593
20090SOL    HW266617   0.286   7.826   8.040 -0.5763 -0.7436 -0.1729
20091SOL     OW66618   8.596   3.760   0.695 -0.0234  0.0011 -0.1289
20091SOL    HW166619   8.539   3.830   0.726  1.3769  0.3095  1.9781
20091SOL    HW266620   8.685   3.796   0.704  0.7279 -1.9918  0.9580
20092SOL     OW66621   2.194   3.070   1.729  0.4114 -0.0165 -0.3520
20092SOL    HW166622   2.101   3.062   1.747  0.1999 -0.6727 -1.5775
20092SOL    HW266623   2.199   3.123   1.649  0.9169 -1.8023 -1.5707
20093SOL     OW66624   6.187   3.456   1.219  0.1263 -0.5978  0.0655
20093SOL    HW166625   6.275   3.493   1.222  1.1456 -2.2930 -3.6269
20093SOL    HW266626   6.200   3.362   1.227 -1.4029 -0.8619 -0.1909
20094SOL     OW66627   7.347   4.328   9.147 -0.0621  0.3702  0.1289
20094SOL    HW166628   7.321   4.294   9.061 -1.3614 -0.0389  0.6507
20094SOL    HW266629   7.340   4.253   9.205 -0.6657  0.9871  0.8709
20095SOL     OW66630   7.989   5.560   4.933 -0.6971 -0.5485 -0.1215
20095SOL    HW166631   8.034   5.530   4.855 -0.7778 -2.2293  0.4520
20095SOL    HW266632   8.058   5.573   4.998 -0.7720 -0.5527 -0.0403
20096SOL     OW66633   2.916   1.362   0.930  0.1269 -0.0426 -0.0419
20096SOL    HW166634   2.899   1.291   0.992 -0.3960  0.4512  0.3962
20096SOL    HW266635   2.881   1.331   0.847  0.0302 -0.3522  0.1156
20097SOL     OW66636   6.484   1.184   0.978 -0.1104  0.3293 -0.3931
20097SOL    HW166637   6.402   1.143   0.948  0.2371 -1.7291  1.2065
20097SOL    HW266638   6.497   1.149   1.066  4.0168 -1.8832 -1.6241
20098SOL     OW66639   5.733   6.152   7.744 -0.1407 -0.3677  0.2505
20098SOL    HW166640   5.806   6.213   7.756  0.1543 -0.6774  0.0703
20098SOL    HW266641   5.767   6.068   7.775 -0.0884 -0.7203 -0.7208
20099SOL     OW66642   2.306   6.412   1.459 -0.5616  0.2049  0.1803
20099SOL    HW166643   2.337   6.433   1.371  1.2578  1.3007  1.0192
20099SOL    HW266644   2.226   6.362   1.445 -1.0048  1.4231 -2.0615
20100SOL     OW66645   9.219   3.573   4.844 -0.7083 -0.6713  1.0645
20100SOL    HW166646   9.228   3.523   4.925  1.3375 -0.5574  0.9512
20100SOL    HW266647   9.282   3.645   4.852 -1.3897  0.0996 -0.0899
20101SOL     OW66648   0.455   0.481   3.073 -0.2037 -0.1934  0.2813
20101SOL    HW166649   0.392   0.493   3.143 -1.3489  1.1016 -0.9136
20101SOL    HW266650   0.405   0.444   3.001  0.2960  1.0503 -0.7631
20102SOL     OW66651   3.965   3.296   0.371 -0.5048 -0.2326  0.2905
20102SOL    HW166652   4.056   3.324   0.360 -0.8830  0.8263 -0.2880
20102SOL    HW266653   3.964   3.250   0.455  0.7095 -0.9364 -0.0599
20103SOL     OW66654   9.172   8.655   3.545  0.1193  0.3318 -0.2853
20103SOL    HW166655   9.260   8.692   3.549  0.3703 -0.1789 -0.9265
20103SOL    HW266656   9.178   8.584   3.481 -0.8651  0.5885 -0.6855
20104SOL     OW66657   8.387   1.708   1.142  0.2331 -0.4543 -0.4245
20104SOL    HW166658   8.321   1.718   1.212 -2.3361 -0.3357 -2.6838
20104SOL    HW266659   8.440   1.633   1.170 -1.1350 -0.8527  1.3254
20105SOL     OW66660   2.051   9.145   7.083  0.2018 -0.1384 -0.1828
20105SOL    HW166661   2.064   9.173   6.993 -1.2370 -1.1830 -0.7525
20105SOL    HW266662   1.998   9.215   7.122  1.8687  0.9260  0.2514
20106SOL     OW66663   7.056   4.997   7.853  0.1478 -0.2740 -0.5501
20106SOL    HW166664   7.077   5.004   7.946  1.0082 -1.1587 -0.6526
20106SOL    HW266665   7.112   5.061   7.811 -1.1298  1.0035 -0.3690
20107SOL     OW66666   8.657   7.227   7.303 -0.6718  0.2686  0.2019
20107SOL    HW166667   8.598   7.175   7.357 -1.5498  0.9570 -0.0734
20107SOL    HW266668   8.743   7.189   7.318 -1.2647 -1.1119  0.1702
20108SOL     OW66669   2.385   4.267   4.927  0.5623  0.2154 -0.2058
20108SOL    HW166670   2.459   4.249   4.869  0.1524  0.5265 -0.8335
20108SOL    HW266671   2.324   4.317   4.873  0.6474  1.4573  0.8264
20109SOL     OW66672   1.151   3.031   6.251  0.6711 -0.2809 -0.0745
20109SOL    HW166673   1.173   3.069   6.166 -2.4670  2.1349  0.0205
20109SOL    HW266674   1.092   2.958   6.230 -0.4224  0.5627 -0.0242
20110SOL     OW66675   5.687   4.917   3.144 -0.6142  0.0665 -0.0226
20110SOL    HW166676   5.715   4.850   3.082  0.4846 -0.6188  1.1784
20110SOL    HW266677   5.687   4.998   3.092  0.4308 -0.4570 -0.8827
20111SOL     OW66678   1.604   4.186   3.210 -0.4324  0.5153  0.9797
20111SOL    HW166679   1.697   4.193   3.233 -0.2108 -0.4809  0.4092
20111SOL    HW266680   1.570   4.118   3.268 -0.3716 -0.4475 -0.0978
20112SOL     OW66681   2.394   2.672   4.517 -0.4493 -0.0005  0.1552
20112SOL    HW166682   2.363   2.636   4.600 -1.2333 -0.0659 -0.1570
20112SOL    HW266683   2.391   2.598   4.456  2.1676 -0.5365  0.5329
20113SOL     OW66684   3.848   4.517   1.904  0.2380  0.1037 -0.3379
20113SOL    HW166685   3.758   4.550   1.905  0.2700  0.2210  0.7554
20113SOL    HW266686   3.853   4.458   1.980  0.6746 -1.0728 -1.2514
20114SOL     OW66687   1.424   0.659   6.779  0.1690 -0.1049 -0.0452
20114SOL    HW166688   1.454   0.688   6.693  1.4835 -2.3981 -0.4580
20114SOL    HW266689   1.341   0.615   6.762 -0.7146  1.3789  0.2505
20115SOL     OW66690   9.206   0.258   7.508 -0.4312  0.0846  0.1531
20115SOL    HW166691   9.132   0.208   7.473 -0.2315 -0.0329 -0.1061
20115SOL    HW266692   9.270   0.258   7.437 -0.7167  1.3259 -0.1280
20116SOL     OW66693   3.611   2.407   1.523 -0.1350  0.4022  0.4850
20116SOL    HW166694   3.676   2.409   1.593 -0.1191  0.9192  0.4556
20116SOL    HW266695   3.527   2.411   1.567 -0.2457 -1.9142  0.6391
20117SOL     OW66696   1.862   2.439   6.266  0.1251  0.0919 -0.0451
20117SOL    HW166697   1.826   2.368   6.320 -1.1558  1.4482  0.9617
20117SOL    HW266698   1.901   2.394   6.191 -0.0805 -1.7153  0.8677
20118SOL     OW66699   3.197   5.456   6.050 -0.1863 -0.5573  0.8565
20118SOL    HW166700   3.122   5.397   6.052 -0.2061 -0.5924 -0.2699
20118SOL    HW266701   3.165   5.536   6.091 -0.7935 -0.6387  0.5601
20119SOL     OW66702   2.748   9.243   0.081 -0.5551 -0.4522  0.0578
20119SOL    HW166703   2.757   9.149   0.068 -0.2852 -0.2108 -1.8671
20119SOL    HW266704   2.702   9.252   0.164 -0.7967 -2.2839  0.1553
20120SOL     OW66705   5.371   2.887   4.488 -0.5363 -0.2454  0.1009
20120SOL    HW166706   5.291   2.841   4.511 -1.5527  0.9676 -0.8679
20120SOL    HW266707   5.382   2.872   4.394 -1.9232  2.8242 -0.6951
20121SOL     OW66708   6.356   3.193   8.807  0.9121  0.7918  0.1895
20121SOL    HW166709   6.381   3.100   8.801  2.3341  1.2194 -1.0515
20121SOL    HW266710   6.318   3.201   8.894 -0.0293 -1.1376  0.0094
20122SOL     OW66711   8.545   6.736   7.730 -0.4660 -0.3768 -0.0358
20122SOL    HW166712   8.579   6.825   7.742 -1.0197 -0.1824  0.1287
20122SOL    HW266713   8.560   6.717   7.638  1.4122 -0.8634  0.3356
20123SOL     OW66714   1.866   3.937   6.864  0.3603  0.0163 -0.3316
20123SOL    HW166715   1.859   3.959   6.957  3.5990  0.4858 -0.0860
20123SOL    HW266716   1.899   4.017   6.823 -0.5485 -0.3394 -1.8615
20124SOL     OW66717   2.691   3.524   1.628  0.3193 -0.5819 -0.1078
20124SOL    HW166718   2.677   3.467   1.553 -0.3039 -0.0265 -0.4306
20124SOL    HW266719   2.746   3.595   1.595 -1.7188  0.8291 -0.6686
20125SOL     OW66720   4.891   5.461   7.745  0.2031 -0.1351 -0.3227
20125SOL    HW166721   4.822   5.440   7.683 -2.2071  1.3347  1.6335
20125SOL    HW266722   4.888   5.390   7.809  0.2524  0.1098 -0.0457
20126SOL     OW66723   6.043   2.479   1.136 -0.7753  0.5458  0.0292
20126SOL    HW166724   6.021   2.386   1.141  0.6668  0.1724 -0.1021
20126SOL    HW266725   6.067   2.493   1.045  1.2424  0.4684  0.4981
20127SOL     OW66726   6.342   0.653   8.702  0.2950  0.3692 -0.0333
20127SOL    HW166727   6.373   0.623   8.787  0.6497  0.7803 -0.0149
20127SOL    HW266728   6.340   0.748   8.709  1.7824  0.4991 -0.9609
20128SOL     OW66729   3.675   1.401   0.258  0.1023 -0.3221  0.8883
20128SOL    HW166730   3.593   1.406   0.308 -0.0612  0.6854  0.5410
20128SOL    HW266731   3.701   1.492   0.246  0.0472 -0.5188 -1.0012
20129SOL     OW66732   7.649   7.416   3.165 -0.1105 -0.6037  0.4843
20129SOL    HW166733   7.600   7.340   3.132 -0.4165 -0.2998  0.2315
20129SOL    HW266734   7.682   7.459   3.087  0.0793 -0.4852  0.6305
20130SOL     OW66735   6.018   8.118   4.013 -0.2534 -0.6795 -0.0733
20130SOL    HW166736   6.113   8.130   4.015 -0.2308 -0.7693 -0.5011
20130SOL    HW266737   5.997   8.112   3.920 -0.4778 -2.2710  0.0521
20131SOL     OW66738   2.255   2.939   9.040 -0.3321  0.0604  0.1760
20131SOL    HW166739   2.166   2.935   9.076  0.0290  0.2000  1.1292
20131SOL    HW266740   2.243   2.944   8.945 -1.3457  0.4705  0.3148
20132SOL     OW66741   7.387   0.781   6.577 -0.3481 -0.3741  0.3394
20132SOL    HW166742   7.371   0.854   6.517  4.4107  1.9544  1.3272
20132SOL    HW266743   7.437   0.718   6.525  0.7827  0.0437  0.8624
20133SOL     OW66744   6.428   4.203   7.550  0.6089  0.0692 -0.3069
20133SOL    HW166745   6.393   4.231   7.466 -0.0938 -1.9436 -0.7398
20133SOL    HW266746   6.355   4.212   7.611  0.8708  0.7325 -0.0862
20134SOL     OW66747   3.964   2.458   7.683  0.5903  0.3115  0.3486
20134SOL    HW166748   4.022   2.522   7.726  0.6387 -0.0485  0.8252
20134SOL    HW266749   3.946   2.497   7.597 -1.0845  2.0098  1.3824
20135SOL     OW66750   0.731   3.389   6.980 -0.0967 -0.1495 -0.0596
20135SOL    HW166751   0.671   3.337   6.926  1.4353 -0.7550 -1.2577
20135SOL    HW266752   0.808   3.332   6.992  1.0764  1.3345 -0.2650
20136SOL     OW66753   4.862   8.016   5.142 -0.1474  0.4630  0.5404
20136SOL    HW166754   4.844   7.987   5.231  0.1577 -0.0110  0.4509
20136SOL    HW266755   4.951   7.984   5.124  0.1356  1.3223  0.3825
20137SOL     OW66756   0.670   8.453   0.514  0.1903  0.1622  0.3213
20137SOL    HW166757   0.591   8.442   0.567  0.9040  0.3688  1.4649
20137SOL    HW266758   0.661   8.388   0.444 -1.2723  0.6039  0.0666
20138SOL     OW66759   2.153   6.376   6.098  0.4739  0.7948  0.0349
20138SOL    HW166760   2.150   6.446   6.033 -4.1959  0.7594 -0.1590
20138SOL    HW266761   2.136   6.296   6.048 -0.0681  0.3510  0.9029
20139SOL     OW66762   3.677   8.653   6.506 -0.7002  0.4957  0.4908
20139SOL    HW166763   3.709   8.654   6.596 -1.5727  1.4091  0.8140
20139SOL    HW266764   3.642   8.741   6.492  1.1216  1.0282 -1.3780
20140SOL     OW66765   4.279   1.326   3.924 -0.2431  0.1213 -0.4078
20140SOL    HW166766   4.231   1.313   3.843  1.1728 -2.7346 -0.8889
20140SOL    HW266767   4.237   1.267   3.987 -2.2292  3.2699  1.5030
20141SOL     OW66768   1.876   0.908   4.102  0.2415 -0.2671 -0.0673
20141SOL    HW166769   1.913   0.993   4.078  1.5225 -0.8017 -0.0784
20141SOL    HW266770   1.784   0.925   4.118 -0.0033  0.7226 -2.2580
20142SOL     OW66771   8.962   0.448   3.674  0.6385  0.2709  0.1907
20142SOL    HW166772   8.979   0.406   3.758  0.3849 -0.0052  0.1063
20142SOL    HW266773   8.954   0.376   3.612  2.0953  0.5079 -0.3228
20143SOL     OW66774   6.003   4.976   2.299  0.3185 -1.0941 -0.5217
20143SOL    HW166775   5.923   4.924   2.309 -0.7964  0.6775  0.0550
20143SOL    HW266776   6.026   5.002   2.388  1.0816 -0.9056 -0.7712
20144SOL     OW66777   5.253   7.510   2.102 -0.5793 -0.2748  0.0288
20144SOL    HW166778   5.267   7.602   2.125 -2.8680  0.3820 -0.9643
20144SOL    HW266779   5.192   7.478   2.168 -1.9526 -0.2418 -1.1561
20145SOL     OW66780   4.326   4.852   3.232  0.7688  0.3672 -0.2243
20145SOL    HW166781   4.337   4.838   3.326  1.2384  1.4382 -0.1114
20145SOL    HW266782   4.414   4.871   3.200  0.4603  1.0422 -0.6967
20146SOL     OW66783   4.595   9.179   4.768 -0.1925  0.1642 -0.2505
20146SOL    HW166784   4.613   9.104   4.825  0.2169  0.5655  0.1665
20146SOL    HW266785   4.638   9.158   4.686  1.7781  0.8529  0.5444
20147SOL     OW66786   6.044   0.253   8.968 -0.6833 -0.0576 -0.1192
20147SOL    HW166787   6.129   0.267   8.926 -0.1441 -1.1797  0.5453
20147SOL    HW266788   5.998   0.195   8.907 -0.0947 -1.2700  0.5441
20148SOL     OW66789   9.146   7.013   1.100  0.1369 -0.3235  0.3476
20148SOL    HW166790   9.170   6.956   1.174  0.8505  0.6504  0.9032
20148SOL    HW266791   9.220   7.074   1.092 -0.1879 -0.0560 -0.8182
20149SOL     OW66792   8.280   1.577   6.238  0.1532  0.3391  0.0536
20149SOL    HW166793   8.339   1.540   6.304 -0.3461 -2.2864 -0.8591
20149SOL    HW266794   8.274   1.510   6.170 -0.4789  2.3535 -2.0141
20150SOL     OW66795   0.376   9.102   7.946 -0.9824 -0.4567  0.3031
20150SOL    HW166796   0.320   9.044   7.895  0.1538 -1.1219 -0.2201
20150SOL    HW266797   0.337   9.101   8.034 -0.9187 -2.1062  0.3352
20151SOL     OW66798   1.470   1.241   8.376 -0.7336  0.5730 -0.1088
20151SOL    HW166799   1.450   1.334   8.381  0.0724  0.7628 -0.2949
20151SOL    HW266800   1.494   1.216   8.466  2.9406  1.4772 -0.6846
20152SOL     OW66801   0.986   6.764   1.735  0.4279 -0.4187  0.5198
20152SOL    HW166802   0.932   6.687   1.720  0.4306 -0.7103  1.8650
20152SOL    HW266803   0.987   6.775   1.830 -0.1312  1.6385  0.3415
20153SOL     OW66804   7.226   0.357   3.281 -0.1902 -0.5725 -0.1445
20153SOL    HW166805   7.184   0.400   3.355  0.2760  0.1299 -0.2779
20153SOL    HW266806   7.312   0.332   3.313 -0.5901 -1.7442  0.0399
20154SOL     OW66807   6.702   1.293   4.259 -0.7602  0.5662 -0.3058
20154SOL    HW166808   6.771   1.314   4.196  0.0761  0.7690  0.6519
20154SOL    HW266809   6.708   1.198   4.270 -1.1950  0.4688 -0.8363
20155SOL     OW66810   6.206   0.146   8.274 -0.1591 -0.1135  0.4152
20155SOL    HW166811   6.168   0.058   8.277 -3.0779  0.9538 -0.6976
20155SOL    HW266812   6.213   0.172   8.366 -1.3474 -0.7424  0.7068
20156SOL     OW66813   2.443   1.166   6.313 -0.5812 -0.0370  0.4114
20156SOL    HW166814   2.451   1.262   6.317 -3.7147  0.3431  0.0505
20156SOL    HW266815   2.435   1.147   6.220 -0.8572 -0.5647  0.5431
20157SOL     OW66816   6.066   2.188   1.937  0.1496  1.0081 -0.0150
20157SOL    HW166817   6.034   2.265   1.984  0.0268  0.2411  1.1918
20157SOL    HW266818   6.018   2.189   1.854  0.0123  2.1124  0.0582
20158SOL     OW66819   7.506   7.528   8.206 -0.1783 -0.4546 -0.1060
20158SOL    HW166820   7.601   7.537   8.198 -0.2850  1.1267  0.1996
20158SOL    HW266821   7.480   7.484   8.125  0.9189 -1.9749  0.3199
20159SOL     OW66822   3.924   5.812   8.823 -0.2813  0.0098  0.3866
20159SOL    HW166823   3.998   5.858   8.784 -0.9825  0.0380 -0.9813
20159SOL    HW266824   3.959   5.772   8.903  1.5361 -1.0502 -0.8686
20160SOL     OW66825   4.166   0.756   8.648  0.1939  0.5383  0.5741
20160SOL    HW166826   4.235   0.756   8.582 -0.3572 -1.3268 -0.0618
20160SOL    HW266827   4.128   0.844   8.643  2.2744  1.5042  0.7229
20161SOL     OW66828   9.202   0.127   4.470  0.0849 -0.0018 -0.1430
20161SOL    HW166829   9.294   0.113   4.492  0.4239  0.2716 -1.2870
20161SOL    HW266830   9.160   0.147   4.554  1.3768  1.4679  0.2112
20162SOL     OW66831   4.414   1.357   1.921 -0.2230  0.0704  0.1892
20162SOL    HW166832   4.373   1.289   1.975  1.9721 -0.2432  1.6391
20162SOL    HW266833   4.502   1.323   1.904  1.1645  2.7035  1.4179
20163SOL     OW66834   6.309   1.371   0.812  0.2461 -0.1071  0.3179
20163SOL    HW166835   6.240   1.418   0.859 -0.7108 -0.1001 -1.0502
20163SOL    HW266836   6.287   1.278   0.826  1.1854 -0.1667  1.6202
20164SOL     OW66837   5.145   8.888   3.846 -0.8410  0.1663 -0.2282
20164SOL    HW166838   5.221   8.852   3.892 -0.6278  0.3358 -0.4485
20164SOL    HW266839   5.181   8.955   3.788 -1.2976  1.1826  0.6248
20165SOL     OW66840   2.730   0.899   1.422  0.0922 -0.0180  0.5182
20165SOL    HW166841   2.806   0.845   1.446  0.4840  0.5034  0.4680
20165SOL    HW266842   2.725   0.891   1.327 -0.2839 -0.5339  0.5792
20166SOL     OW66843   6.751   6.498   6.926  0.0677  0.3401  0.5537
20166SOL    HW166844   6.658   6.492   6.903  0.1155  0.4010  0.3454
20166SOL    HW266845   6.756   6.572   6.987  0.2723  1.6305 -0.9675
20167SOL     OW66846   6.381   2.575   1.947 -0.3127  0.3295  0.0874
20167SOL    HW166847   6.383   2.504   1.883 -1.7140  0.8285 -0.5511
20167SOL    HW266848   6.465   2.569   1.992  0.3127 -0.6331 -1.1470
20168SOL     OW66849   3.561   2.023   3.497 -0.4241  0.0400 -0.2663
20168SOL    HW166850   3.528   1.980   3.576 -0.0491 -2.0686 -1.1618
20168SOL    HW266851   3.483   2.043   3.446 -0.5934 -2.4126 -1.1403
20169SOL     OW66852   1.836   7.453   1.476  0.4772 -0.1780  0.2497
20169SOL    HW166853   1.749   7.463   1.514  0.5922  1.3110  0.1810
20169SOL    HW266854   1.875   7.380   1.524 -0.7288 -0.7437  0.4066
20170SOL     OW66855   0.688   0.416   4.672  0.0996 -0.4108  0.3734
20170SOL    HW166856   0.619   0.389   4.611 -0.8788 -1.3395  1.8392
20170SOL    HW266857   0.659   0.383   4.757  1.7913  0.2112  1.2272
20171SOL     OW66858   4.540   3.662   2.022  0.3428  0.7102  0.4643
20171SOL    HW166859   4.494   3.585   1.989  1.9972 -0.8033  1.5515
20171SOL    HW266860   4.516   3.666   2.114  2.7894 -0.5120  1.2292
20172SOL     OW66861   4.287   0.271   1.263  0.3371 -0.3872  0.1415
20172SOL    HW166862   4.363   0.217   1.285  2.9790  1.7769 -2.7504
20172SOL    HW266863   4.240   0.221   1.195 -0.9956 -1.7404  1.9545
20173SOL     OW66864   3.486   6.612   6.252 -0.2818 -0.4486 -1.1054
20173SOL    HW166865   3.415   6.548   6.261 -0.4974  0.0545  2.3089
20173SOL    HW266866   3.450   6.692   6.291  1.7712  0.1398 -0.2836
20174SOL     OW66867   4.362   0.066   3.957  0.7166 -0.2436  0.1194
20174SOL    HW166868   4.278   0.050   3.915  1.4063 -0.6961 -1.1437
20174SOL    HW266869   4.351   0.151   4.000 -0.5430 -0.5416  0.4139
20175SOL     OW66870   4.271   0.258   5.639 -0.2629 -0.0294  0.8805
20175SOL    HW166871   4.223   0.194   5.586  0.9316  0.2392 -0.5880
20175SOL    HW266872   4.204   0.322   5.666 -1.1671 -0.9978  1.0246
20176SOL     OW66873   2.903   2.810   3.649 -0.1032 -0.2486 -0.4942
20176SOL    HW166874   2.974   2.848   3.701  1.5739 -0.6705 -2.3517
20176SOL    HW266875   2.860   2.749   3.709  1.1005  0.0066  0.7023
20177SOL     OW66876   5.322   0.419   5.663  0.4240  0.2970 -0.8904
20177SOL    HW166877   5.378   0.368   5.722 -0.2072  1.1253  0.4728
20177SOL    HW266878   5.248   0.445   5.717  0.3305  1.9829 -1.7598
20178SOL     OW66879   7.104   0.804   6.039  0.3749 -0.0748 -0.4337
20178SOL    HW166880   7.088   0.765   5.953 -2.1685 -2.3349  0.8959
20178SOL    HW266881   7.061   0.890   6.034 -2.1133 -1.2366 -0.7144
20179SOL     OW66882   4.559   6.558   0.893  0.0426  0.0568 -0.5066
20179SOL    HW166883   4.499   6.632   0.891 -0.1093 -0.0218  0.5961
20179SOL    HW266884   4.503   6.481   0.884  0.1099  0.0363 -0.7557
20180SOL     OW66885   5.237   4.982   0.002 -0.0146 -0.0134  0.1569
20180SOL    HW166886   5.187   4.931  -0.061  0.8282 -1.0236  0.2699
20180SOL    HW266887   5.294   4.918   0.045  0.5202  0.9036  0.8598
20181SOL     OW66888   1.472   6.394   8.463 -0.9673 -0.0823  0.2532
20181SOL    HW166889   1.452   6.396   8.369 -0.2657  0.6696  0.1032
20181SOL    HW266890   1.567   6.394   8.467 -0.9921 -0.2568  0.9677
20182SOL     OW66891   0.797   6.608   2.069 -0.1333  0.6209  0.2410
20182SOL    HW166892   0.705   6.601   2.045  0.2622 -1.2909 -0.8484
20182SOL    HW266893   0.816   6.527   2.116  1.0017  0.9890  0.4407
20183SOL     OW66894   6.116   3.479   6.677 -0.1236 -0.3953  0.2486
20183SOL    HW166895   6.198   3.527   6.691 -0.1830  0.3823 -1.7532
20183SOL    HW266896   6.058   3.513   6.745  0.8340 -0.0957  0.9569
20184SOL     OW66897   5.864   1.013   5.309  0.2823 -0.4460  0.3415
20184SOL    HW166898   5.797   0.945   5.316  1.7006 -1.7638  2.7958
20184SOL    HW266899   5.931   0.976   5.252 -0.2434  0.1606 -0.7040
20185SOL     OW66900   6.184   2.187   2.580 -0.1165 -0.6706  0.2054
20185SOL    HW166901   6.237   2.123   2.627  0.9523  1.2465  1.7434
20185SOL    HW266902   6.098   2.182   2.621  0.3451 -0.2035  1.2609
20186SOL     OW66903   2.501   0.811   0.011  0.1569  0.5021 -0.4535
20186SOL    HW166904   2.439   0.770   0.071 -0.4078 -0.5182 -1.6882
20186SOL    HW266905   2.580   0.822   0.062  0.2523 -1.9163  0.0377
20187SOL     OW66906   0.939   5.799   1.760  0.4668  0.1851  0.2371
20187SOL    HW166907   0.960   5.756   1.677  0.1090  0.1887  0.1432
20187SOL    HW266908   1.019   5.844   1.785  1.6577 -2.4538  1.5485
20188SOL     OW66909   0.828   7.153   1.068 -0.5778 -0.2037 -0.4162
20188SOL    HW166910   0.811   7.059   1.068 -2.0993 -0.0035 -1.9360
20188SOL    HW266911   0.847   7.174   0.976  2.9915  0.5290  0.3663
20189SOL     OW66912   8.614   2.778   5.044  0.0893 -0.7568 -1.1971
20189SOL    HW166913   8.710   2.771   5.045  0.4832  2.7519 -1.7524
20189SOL    HW266914   8.587   2.741   5.128  2.4007  1.8837  0.9125
20190SOL     OW66915   9.006   5.201   5.744 -0.3098 -0.1847 -0.3493
20190SOL    HW166916   9.041   5.270   5.799  1.6630 -2.3971  1.3929
20190SOL    HW266917   8.963   5.141   5.805 -0.8249 -1.1493 -1.6160
20191SOL     OW66918   1.824   7.110   1.140 -0.0775  0.2471  0.1083
20191SOL    HW166919   1.801   7.087   1.230 -1.8122  1.5194  0.0373
20191SOL    HW266920   1.825   7.027   1.093 -0.9625 -0.2387  0.9236
20192SOL     OW66921   8.516   6.905   5.726 -0.2411  0.1410 -0.0529
20192SOL    HW166922   8.556   6.894   5.639 -1.3132  1.1718 -0.7166
20192SOL    HW266923   8.479   6.818   5.746  3.5116 -1.3290  1.3078
20193SOL     OW66924   6.708   6.965   0.618  0.0780  0.5585  0.0451
20193SOL    HW166925   6.645   6.898   0.645 -0.4496  1.2042  0.4323
20193SOL    HW266926   6.703   6.966   0.522 -0.2624  0.3871  0.0620
20194SOL     OW66927   2.331   8.303   3.909  0.0407 -0.1782 -0.4473
20194SOL    HW166928   2.237   8.287   3.897 -0.0977  2.1952 -4.1220
20194SOL    HW266929   2.342   8.308   4.004 -4.0457  1.7262  0.1682
20195SOL     OW66930   1.900   4.118   5.822 -0.3447 -0.0771 -0.7283
20195SOL    HW166931   1.993   4.141   5.821 -0.7298  2.0616  1.5035
20195SOL    HW266932   1.872   4.132   5.732  1.1456  1.0082 -1.0795
20196SOL     OW66933   5.346   3.388   0.161 -0.0869  0.1251 -0.3839
20196SOL    HW166934   5.378   3.434   0.083  1.1509 -0.5821 -0.3158
20196SOL    HW266935   5.261   3.429   0.179 -0.0471  0.8280 -1.6414
20197SOL     OW66936   7.822   2.188   8.804  0.2124 -0.0211 -0.4747
20197SOL    HW166937   7.881   2.162   8.876 -0.0958  0.6536  0.0358
20197SOL    HW266938   7.739   2.146   8.825  0.1451  0.1113 -0.4723
20198SOL     OW66939   0.967   2.470   0.220 -0.0778 -0.4122 -0.5413
20198SOL    HW166940   0.961   2.566   0.226 -1.3152 -0.4911 -0.2624
20198SOL    HW266941   0.923   2.438   0.298 -0.3035 -1.2170 -0.9885
20199SOL     OW66942   1.643   2.280   7.729 -0.0291  0.1403  0.7273
20199SOL    HW166943   1.698   2.241   7.661 -0.3368 -1.1518  1.1767
20199SOL    HW266944   1.571   2.321   7.681  0.6827  0.7783  0.1984
20200SOL     OW66945   7.371   6.995   6.204 -0.0375 -0.0864  0.1405
20200SOL    HW166946   7.326   7.037   6.130 -1.4867  0.0646  1.0613
20200SOL    HW266947   7.346   7.047   6.280  1.8039  0.0314  0.7071
20201SOL     OW66948   8.140   4.228   7.192  0.3383 -0.2424  0.4127
20201SOL    HW166949   8.236   4.229   7.191  0.3537 -0.8859  0.7116
20201SOL    HW266950   8.118   4.152   7.246 -0.3412  0.3827  1.0331
20202SOL     OW66951   4.888   0.881   7.080  0.0663 -0.4300 -0.1435
20202SOL    HW166952   4.845   0.885   6.994  1.7435 -0.2977 -1.0268
20202SOL    HW266953   4.977   0.853   7.060  0.6757  0.2430  1.4983
20203SOL     OW66954   4.803   8.371   4.107  0.4134  0.1514  0.3496
20203SOL    HW166955   4.825   8.363   4.200 -0.0462 -3.2863  0.2872
20203SOL    HW266956   4.724   8.425   4.105 -0.2975 -0.7680  2.0856
20204SOL     OW66957   5.282   0.970   3.605 -1.0167 -0.2535  0.2061
20204SOL    HW166958   5.291   0.973   3.700 -1.6074 -1.3702  0.3052
20204SOL    HW266959   5.354   1.025   3.573 -0.5422 -0.2279  1.2776
20205SOL     OW66960   0.997   7.518   6.608  0.0271 -0.5140 -0.9884
20205SOL    HW166961   0.984   7.591   6.548 -0.4962  0.9284  0.7978
20205SOL    HW266962   1.000   7.441   6.551 -0.5720  0.7505 -2.8335
20206SOL     OW66963   7.728   3.260   1.081  0.3684  0.6567 -0.7924
20206SOL    HW166964   7.807   3.280   1.031  0.9118 -3.5720 -2.0439
20206SOL    HW266965   7.663   3.237   1.015 -1.5017  2.4223  0.2941
20207SOL     OW66966   1.575   8.138   7.866  1.0396  0.3803 -0.7023
20207SOL    HW166967   1.601   8.161   7.777  0.7094  0.2706 -0.8317
20207SOL    HW266968   1.554   8.222   7.908 -1.5500  0.3012 -1.6148
20208SOL     OW66969   5.153   7.748   0.288  0.0499  0.8585  0.1511
20208SOL    HW166970   5.062   7.744   0.318  0.0274 -3.5309  0.2334
20208SOL    HW266971   5.148   7.729   0.194  0.8601 -0.1418  0.2869
20209SOL     OW66972   6.763   6.708   8.128  0.0116 -0.3440  0.0154
20209SOL    HW166973   6.695   6.761   8.087 -1.0218 -0.2144  1.7984
20209SOL    HW266974   6.741   6.708   8.221  0.9000 -2.5640  0.2953
20210SOL     OW66975   7.057   0.263   2.864 -0.0650  0.8358 -0.4329
20210SOL    HW166976   7.141   0.239   2.825 -0.5103 -2.2707  0.2938
20210SOL    HW266977   6.992   0.241   2.798 -0.4788  0.5169  0.0687
20211SOL     OW66978   7.777   7.710   3.887 -0.2526  0.3705  0.7737
20211SOL    HW166979   7.812   7.778   3.830 -0.2952 -0.4865 -0.3191
20211SOL    HW266980   7.685   7.701   3.860  0.0730 -0.9755  0.0048
20212SOL     OW66981   3.044   0.781   0.302  0.1492 -0.2863  0.0454
20212SOL    HW166982   3.090   0.865   0.294 -0.6431  0.3249  1.4419
20212SOL    HW266983   2.970   0.788   0.242  0.1719 -0.0347  0.0474
20213SOL     OW66984   7.500   1.076   0.449 -0.7239  0.0498 -0.3638
20213SOL    HW166985   7.487   1.130   0.527  0.5226 -0.2035  0.0416
20213SOL    HW266986   7.581   1.028   0.466 -1.3917 -1.3684 -1.0620
20214SOL     OW66987   0.264   5.125   5.049 -0.0442 -0.4987  0.1048
20214SOL    HW166988   0.253   5.219   5.062  0.6487 -0.3540 -0.2591
20214SOL    HW266989   0.181   5.095   5.012 -0.5595 -0.1822  0.9999
20215SOL     OW66990   7.344   6.534   4.750  0.8660  0.3267 -0.7049
20215SOL    HW166991   7.405   6.470   4.789  0.0126  0.1234  0.3450
20215SOL    HW266992   7.344   6.513   4.657  1.5790 -0.3684 -0.5652
20216SOL     OW66993   5.003   0.358   6.563  0.0751  0.0707 -0.0367
20216SOL    HW166994   4.952   0.293   6.515  0.4560  0.0220 -0.3747
20216SOL    HW266995   4.973   0.349   6.654 -0.7441  0.2638 -0.2861
20217SOL     OW66996   4.149   6.125   2.043 -0.5617 -0.1304  0.0763
20217SOL    HW166997   4.230   6.121   2.093  0.5595  0.2429 -1.6255
20217SOL    HW266998   4.124   6.034   2.029 -1.5977 -0.2541  2.3116
20218SOL     OW66999   0.716   0.573   3.081 -0.1462  0.6794  0.0281
20218SOL    HW167000   0.628   0.535   3.077 -0.7109  1.7090  1.7790
20218SOL    HW267001   0.769   0.504   3.121 -0.3177  0.3706 -0.2575
20219SOL     OW67002   1.564   6.879   5.758 -0.4301 -0.3264  0.0402
20219SOL    HW167003   1.542   6.882   5.664 -0.6300 -0.0466  0.0938
20219SOL    HW267004   1.544   6.790   5.784 -0.1335 -0.4788 -0.2425
20220SOL     OW67005   3.195   8.433   0.363 -0.0812 -0.0690  0.1939
20220SOL    HW167006   3.130   8.376   0.406 -0.1913  1.1359  1.7233
20220SOL    HW267007   3.259   8.373   0.326 -0.7977 -1.2253  0.7609
20221SOL     OW67008   4.265   4.464   7.853 -0.0813 -0.2652 -0.0575
20221SOL    HW167009   4.338   4.410   7.823 -1.5860 -0.8729 -2.9804
20221SOL    HW267010   4.264   4.539   7.794 -1.7695 -0.2409 -0.0565
20222SOL     OW67011   1.198   2.959   4.751 -0.3446  0.1638  0.3417
20222SOL    HW167012   1.280   2.936   4.707 -0.7297  0.9139 -0.8122
20222SOL    HW267013   1.226   2.998   4.834  0.5026  0.9650 -0.2918
20223SOL     OW67014   2.555   3.720   1.911 -0.8891 -0.2214  0.3824
20223SOL    HW167015   2.469   3.696   1.946 -1.1332 -1.2212 -0.8244
20223SOL    HW267016   2.539   3.736   1.818 -0.0670  1.2822  0.4729
20224SOL     OW67017   3.743   1.163   6.885 -0.5020  0.1869 -0.1817
20224SOL    HW167018   3.772   1.215   6.959 -1.0170  2.1144 -1.2708
20224SOL    HW267019   3.700   1.087   6.925 -0.7226  1.1357  1.4788
20225SOL     OW67020   5.000   3.106   8.600  0.0730 -0.0264 -0.0108
20225SOL    HW167021   4.966   3.051   8.670  2.1508  0.5256  1.5111
20225SOL    HW267022   4.978   3.195   8.626  1.6012  0.2481  0.4159
20226SOL     OW67023   6.154   7.630   1.318  0.4359  0.2095 -0.3176
20226SOL    HW167024   6.142   7.690   1.245  1.0309  0.5094 -0.1701
20226SOL    HW267025   6.247   7.608   1.317  0.3235 -0.2920 -0.0475
20227SOL     OW67026   6.346   2.685   4.913  0.1923 -0.2464 -0.1700
20227SOL    HW167027   6.261   2.721   4.939  1.1436  0.9200  1.4734
20227SOL    HW267028   6.393   2.673   4.995  1.1681 -2.1504 -0.9361
20228SOL     OW67029   7.197   3.821   4.059 -0.1656 -0.1041  0.8271
20228SOL    HW167030   7.188   3.902   4.010  1.3385  0.0430  0.7308
20228SOL    HW267031   7.174   3.845   4.149  1.3899  0.7761  1.0417
20229SOL     OW67032   9.177   8.848   6.487  0.3562 -0.0837  0.9836
20229SOL    HW167033   9.126   8.779   6.528 -0.5511  0.2150  0.3902
20229SOL    HW267034   9.174   8.829   6.393  1.7537 -0.3268  0.9645
20230SOL     OW67035   5.663   1.429   3.509 -0.1924 -0.0117  0.2558
20230SOL    HW167036   5.739   1.379   3.478 -0.1018  0.3925 -0.1796
20230SOL    HW267037   5.699   1.486   3.577 -0.4725 -1.2185  1.4503
20231SOL     OW67038   7.024   4.364   8.149  0.2859  0.0340  0.1493
20231SOL    HW167039   6.988   4.437   8.199  0.5861  0.6721 -0.5367
20231SOL    HW267040   7.113   4.352   8.183  0.7135  0.8775 -0.6298
20232SOL     OW67041   7.071   2.566   6.906 -0.1999 -0.1690  0.6597
20232SOL    HW167042   7.105   2.654   6.919 -1.0189  0.0539  1.3829
20232SOL    HW267043   6.992   2.563   6.959  0.3702 -1.6816  1.4873
20233SOL     OW67044   4.055   6.894   0.347  0.0003  0.0339 -0.2890
20233SOL    HW167045   4.066   6.942   0.265  1.1091 -2.9791 -2.0891
20233SOL    HW267046   4.144   6.874   0.375 -0.4109 -0.4212  0.7406
20234SOL     OW67047   0.243   6.256   5.130  0.5489  0.1790  0.0402
20234SOL    HW167048   0.338   6.247   5.144  0.4183  0.1483  1.0261
20234SOL    HW267049   0.219   6.332   5.182  0.2767  1.1561 -1.4812
20235SOL     OW67050   4.077   3.107   6.770  0.6071 -0.8415 -0.3918
20235SOL    HW167051   4.081   3.079   6.678  2.0499 -0.8070 -0.3664
20235SOL    HW267052   4.038   3.033   6.816 -1.9399 -0.1462 -1.2568
20236SOL     OW67053   0.717   9.100   7.949 -0.2339  0.2900  0.1363
20236SOL    HW167054   0.732   9.068   8.037 -0.6093  0.3370  0.2161
20236SOL    HW267055   0.628   9.134   7.950 -0.4471 -0.2429 -0.4248
20237SOL     OW67056   5.548   5.710   6.603  0.8463 -0.0551 -0.0556
20237SOL    HW167057   5.499   5.685   6.524  1.5359  1.4987 -1.0286
20237SOL    HW267058   5.602   5.634   6.623 -0.7965 -1.2256  0.1343
20238SOL     OW67059   5.998   0.955   8.552 -0.2174 -0.4178 -0.2397
20238SOL    HW167060   6.018   1.014   8.624  0.1902  0.1643 -0.8184
20238SOL    HW267061   6.027   0.869   8.583 -1.3402 -0.4428  0.8372
20239SOL     OW67062   8.749   3.714   6.494 -0.0117 -0.2425  0.4090
20239SOL    HW167063   8.814   3.703   6.563 -0.2178  1.0471  0.8308
20239SOL    HW267064   8.666   3.690   6.536 -0.4561  2.4828  1.3207
20240SOL     OW67065   2.849   8.587   2.874  0.3698  0.1006  0.3766
20240SOL    HW167066   2.939   8.615   2.887 -0.1464  1.9398  0.3489
20240SOL    HW267067   2.852   8.527   2.800  1.8892 -2.0366  2.0364
20241SOL     OW67068   1.756   4.984   8.916 -0.3017  0.9313 -0.4240
20241SOL    HW167069   1.802   5.013   8.837 -0.1233  0.6474 -0.4272
20241SOL    HW267070   1.680   5.041   8.922  0.2680  1.6780 -0.1882
20242SOL     OW67071   8.683   0.149   0.609 -0.9740 -0.1749 -0.2053
20242SOL    HW167072   8.621   0.125   0.540 -0.4828 -2.3330  0.0219
20242SOL    HW267073   8.768   0.154   0.565 -1.1144  1.7559 -0.3265
20243SOL     OW67074   4.311   5.835   3.098 -0.2927 -0.0694 -0.1553
20243SOL    HW167075   4.293   5.920   3.138 -2.3537  0.3153 -1.7484
20243SOL    HW267076   4.399   5.844   3.062  0.7101  0.3327  2.1912
20244SOL     OW67077   2.966   7.936   5.399  0.0714 -0.2563  0.5362
20244SOL    HW167078   2.949   7.929   5.493 -0.1835 -0.8513  0.4513
20244SOL    HW267079   2.879   7.945   5.359  0.1359 -0.5566  0.3183
20245SOL     OW67080   2.848   0.592   3.891  0.0819  0.2410 -0.1177
20245SOL    HW167081   2.801   0.675   3.899 -1.6630 -0.7813  0.8032
20245SOL    HW267082   2.850   0.575   3.797  0.1445  1.1170 -0.2917
20246SOL     OW67083   3.797   4.210   0.396  0.0279  0.6409 -0.0926
20246SOL    HW167084   3.884   4.217   0.435 -1.0350  0.1586  2.6134
20246SOL    HW267085   3.813   4.207   0.302  2.8438  1.5465  0.2639
20247SOL     OW67086   0.626   5.725   4.971  0.0486 -0.2078  0.4511
20247SOL    HW167087   0.608   5.810   4.931  2.7109 -0.7802 -2.3527
20247SOL    HW267088   0.659   5.746   5.058 -4.4967  1.1822  2.1568
20248SOL     OW67089   7.835   3.325   4.160 -0.2073 -0.1014  0.0202
20248SOL    HW167090   7.779   3.349   4.234 -0.1213  1.4353 -0.3823
20248SOL    HW267091   7.779   3.336   4.083  0.4262  0.7563 -0.3290
20249SOL     OW67092   4.279   2.799   0.713  0.1305  0.0244  0.2233
20249SOL    HW167093   4.206   2.758   0.667  0.7710  0.8842 -1.6866
20249SOL    HW267094   4.320   2.728   0.763 -1.6780 -0.5633  0.9382
20250SOL     OW67095   6.430   4.115   8.436 -0.0064  0.1657 -0.2370
20250SOL    HW167096   6.419   4.169   8.357 -0.7931 -1.0458 -0.9857
20250SOL    HW267097   6.524   4.115   8.452  0.1185  0.7762 -0.9270
20251SOL     OW67098   1.828   3.100   8.887 -0.2256  0.4019 -0.1451
20251SOL    HW167099   1.822   3.124   8.795  0.6966  0.6817 -0.1418
20251SOL    HW267100   1.805   3.180   8.934  3.1714  1.5433 -0.1316
20252SOL     OW67101   8.639   0.636   8.902 -0.1605  0.5491  0.2740
20252SOL    HW167102   8.642   0.680   8.987 -0.0508  0.3722  0.3617
20252SOL    HW267103   8.703   0.565   8.910 -1.9606 -1.1002  0.9670
20253SOL     OW67104   3.823   7.881   7.567  0.1066  0.2311 -0.2339
20253SOL    HW167105   3.752   7.820   7.585  0.0423  0.0820 -0.9510
20253SOL    HW267106   3.882   7.833   7.509 -0.1698  0.9780 -1.1696
20254SOL     OW67107   2.394   7.061   0.495  0.1602  0.0973 -0.0750
20254SOL    HW167108   2.359   7.151   0.492 -0.4517 -0.1505 -0.6018
20254SOL    HW267109   2.426   7.052   0.584  2.2731  1.5863 -0.6061
20255SOL     OW67110   1.687   8.515   0.295 -0.5130  0.0417 -0.0244
20255SOL    HW167111   1.657   8.583   0.356  0.2112  1.5508 -1.2818
20255SOL    HW267112   1.761   8.474   0.340 -0.3782  0.7180  0.3884
20256SOL     OW67113   4.861   7.060   1.951 -0.3308 -0.1282  0.0228
20256SOL    HW167114   4.827   6.977   1.984 -0.1618 -0.0676  0.3508
20256SOL    HW267115   4.783   7.113   1.935 -0.4304 -0.2859 -0.0267
20257SOL     OW67116   5.776   6.357   4.666 -0.1471 -0.4618 -0.1495
20257SOL    HW167117   5.821   6.331   4.585  0.1898 -0.7530  0.1280
20257SOL    HW267118   5.711   6.288   4.679 -1.2502  0.3945 -0.9980
20258SOL     OW67119   3.287   5.213   4.185 -0.1618 -0.1016  0.4697
20258SOL    HW167120   3.215   5.172   4.137  0.6712 -2.6451  1.2440
20258SOL    HW267121   3.245   5.280   4.239 -1.6814 -0.2531 -0.4769
20259SOL     OW67122   5.463   8.443   3.963 -0.6905 -0.6854 -0.0840
20259SOL    HW167123   5.538   8.461   4.020  0.1536  0.4455 -1.4833
20259SOL    HW267124   5.495   8.460   3.875 -2.5753 -0.2677 -0.7411
20260SOL     OW67125   6.150   8.529   2.219  0.2042 -0.7307  0.6508
20260SOL    HW167126   6.122   8.454   2.166 -0.1335 -0.2296  0.1120
20260SOL    HW267127   6.090   8.530   2.293  0.0499 -0.8472  0.5274
20261SOL     OW67128   8.878   7.385   5.123 -0.0842  0.7813 -0.4639
20261SOL    HW167129   8.941   7.315   5.139 -1.1549  0.1411  1.2037
20261SOL    HW267130   8.859   7.421   5.209 -0.4779  2.3333 -1.1656
20262SOL     OW67131   0.096   7.763   5.052 -0.4045 -0.2834 -0.3170
20262SOL    HW167132   0.038   7.779   4.977 -0.3807  1.1024 -0.0714
20262SOL    HW267133   0.148   7.688   5.026 -2.0204 -1.3301 -0.7173
20263SOL     OW67134   4.898   2.880   5.043  0.4244 -0.1322  0.2505
20263SOL    HW167135   4.901   2.976   5.041  1.7302 -0.1623 -1.1871
20263SOL    HW267136   4.947   2.856   5.121  2.0860  0.3770 -0.5772
20264SOL     OW67137   1.579   8.256   5.080  1.1121  0.2621 -0.2317
20264SOL    HW167138   1.584   8.336   5.028  2.9810 -0.2670 -0.9625
20264SOL    HW267139   1.654   8.204   5.050  0.5940 -1.2749  1.0219
20265SOL     OW67140   2.736   7.429   2.542 -0.3624  0.2427 -0.7302
20265SOL    HW167141   2.715   7.395   2.629  1.7676 -1.3948 -0.7571
20265SOL    HW267142   2.793   7.504   2.559 -0.0272 -0.0170 -0.6767
20266SOL     OW67143   3.994   1.360   8.508  0.1020  0.0201 -0.1990
20266SOL    HW167144   3.931   1.423   8.545  1.5041  0.8245  0.9351
20266SOL    HW267145   3.945   1.316   8.438 -1.9492  0.0817  1.0934
20267SOL     OW67146   8.855   2.833   5.322  0.5842 -0.3096 -0.0682
20267SOL    HW167147   8.781   2.772   5.320  0.3510 -0.0130 -1.5128
20267SOL    HW267148   8.916   2.800   5.256  1.3244 -0.0187  0.4513
20268SOL     OW67149   3.857   6.120   1.972  0.3654 -0.0013  0.1423
20268SOL    HW167150   3.917   6.126   2.046 -1.9808  0.0095  2.1887
20268SOL    HW267151   3.859   6.028   1.948 -0.1451 -0.3822  1.4468
20269SOL     OW67152   1.509   0.278   6.580  0.3027  0.2630 -0.4909
20269SOL    HW167153   1.483   0.358   6.534  3.3161  2.1794  0.7976
20269SOL    HW267154   1.584   0.246   6.530 -0.1561 -1.1481 -0.3139
20270SOL     OW67155   4.570   0.047   6.711 -0.0470 -0.4785 -0.0506
20270SOL    HW167156   4.569   0.005   6.626  3.9966  0.3122 -0.6769
20270SOL    HW267157   4.524   0.130   6.698  0.9558 -0.1391 -1.6594
20271SOL     OW67158   7.385   6.447   4.478  0.0162 -0.2711  0.1664
20271SOL    HW167159   7.414   6.408   4.395  1.4630  0.0013  0.5211
20271SOL    HW267160   7.292   6.424   4.484 -0.2227  0.0440 -1.7225
20272SOL     OW67161   2.503   8.877   4.421  0.0633  0.0316 -0.3396
20272SOL    HW167162   2.577   8.880   4.361  1.8413 -1.4168  1.6064
20272SOL    HW267163   2.533   8.821   4.493 -2.0511  1.3361  1.7108
20273SOL     OW67164   8.152   7.253   9.107 -0.1818 -0.3429 -0.8735
20273SOL    HW167165   8.084   7.295   9.160  0.0674  0.2956 -1.0476
20273SOL    HW267166   8.234   7.275   9.151  0.0490  0.3676 -1.6115
20274SOL     OW67167   5.242   7.741   7.046  0.2599 -0.5577  0.2492
20274SOL    HW167168   5.205   7.770   7.130 -0.1696  0.6487 -0.3404
20274SOL    HW267169   5.272   7.651   7.063 -3.6240 -1.9911  0.5778
20275SOL     OW67170   0.660   5.780   1.359  0.5707 -0.1622  0.4796
20275SOL    HW167171   0.745   5.810   1.327  0.5104  0.0325  0.4991
20275SOL    HW267172   0.617   5.743   1.282  0.0953  1.0535  0.1393
20276SOL     OW67173   2.284   8.624   8.410  0.0142  0.3742  0.0669
20276SOL    HW167174   2.363   8.624   8.464 -0.5302  1.0221  0.8962
20276SOL    HW267175   2.226   8.561   8.453 -0.5008  1.0477  0.3859
20277SOL     OW67176   8.995   3.155   0.779  0.3084  0.4987 -0.6048
20277SOL    HW167177   8.985   3.176   0.687  1.4193 -0.9664 -1.1078
20277SOL    HW267178   9.057   3.082   0.781  1.5507  1.5123  1.4130
20278SOL     OW67179   0.997   3.178   7.350 -0.0220  0.0251  0.0301
20278SOL    HW167180   1.069   3.208   7.294 -0.4904  0.0747 -0.5662
20278SOL    HW267181   0.985   3.249   7.413 -0.9450  1.0103 -1.2091
20279SOL     OW67182   3.521   8.330   2.926  0.0503  0.2220 -0.1642
20279SOL    HW167183   3.474   8.413   2.924  0.1328  0.2646 -0.3811
20279SOL    HW267184   3.466   8.271   2.874  0.7893  0.5656 -1.3712
20280SOL     OW67185   3.568   8.979   6.711 -0.0416  0.6610 -0.3838
20280SOL    HW167186   3.496   8.960   6.771 -0.2815  0.9709 -0.5664
20280SOL    HW267187   3.525   8.991   6.626  0.4260 -1.3791 -0.9760
20281SOL     OW67188   0.627   8.934   2.369 -0.0063 -0.4367  0.2567
20281SOL    HW167189   0.559   8.890   2.420 -0.0209 -0.5556  0.1340
20281SOL    HW267190   0.579   8.985   2.303  0.0515 -3.5071 -2.3861
20282SOL     OW67191   8.149   8.202   4.446 -0.6663 -0.3172  0.3677
20282SOL    HW167192   8.230   8.254   4.451  0.6076 -2.1071 -0.4689
20282SOL    HW267193   8.162   8.132   4.510 -1.5553 -0.6579  0.1894
20283SOL     OW67194   2.697   1.633   5.620 -0.2164  0.3217 -0.2665
20283SOL    HW167195   2.783   1.656   5.656  1.2341  0.7154 -3.6018
20283SOL    HW267196   2.681   1.544   5.650  0.5460  0.7858  1.6897
20284SOL     OW67197   6.498   3.404   4.215  0.1716 -0.0816  0.5921
20284SOL    HW167198   6.511   3.424   4.308  2.2980 -0.3363  0.4058
20284SOL    HW267199   6.440   3.328   4.214  0.4929 -0.3581  1.7382
20285SOL     OW67200   3.974   6.581   6.384  0.4860 -0.0733 -0.0123
20285SOL    HW167201   3.990   6.662   6.431  0.1171 -0.0635  0.0978
20285SOL    HW267202   4.029   6.516   6.428 -0.3258 -0.2024  0.8372
20286SOL     OW67203   5.604   8.223   8.890  0.1883  0.0232 -0.0029
20286SOL    HW167204   5.617   8.174   8.972  0.4978 -0.5109 -0.3650
20286SOL    HW267205   5.545   8.168   8.838 -0.4030  0.5956  0.0531
20287SOL     OW67206   0.628   1.852   2.579  0.2912 -0.2874 -0.0735
20287SOL    HW167207   0.630   1.945   2.600 -2.6616 -0.1829  0.1844
20287SOL    HW267208   0.543   1.839   2.538  1.0437 -2.7190 -1.0217
20288SOL     OW67209   9.036   8.814   6.819  0.3543 -0.7049 -0.0733
20288SOL    HW167210   9.078   8.827   6.904 -0.2162 -2.4935  0.5279
20288SOL    HW267211   9.030   8.902   6.781  1.1184  0.0541  1.4885
20289SOL     OW67212   3.024   3.686   5.402  0.4766 -0.2658  0.2212
20289SOL    HW167213   2.978   3.756   5.357 -1.7153 -0.2680  2.2565
20289SOL    HW267214   3.076   3.731   5.469 -0.0821 -0.4685  0.8121
20290SOL     OW67215   1.242   8.168   7.798  0.8140  0.1078  0.7084
20290SOL    HW167216   1.153   8.135   7.808  0.3384  1.2237  0.3627
20290SOL    HW267217   1.298   8.093   7.815 -0.1950 -0.6115  0.9252
20291SOL     OW67218   3.071   0.933   3.803  0.2396 -0.1148 -0.4717
20291SOL    HW167219   3.052   0.867   3.736 -0.8581 -0.2650 -0.0411
20291SOL    HW267220   3.097   1.011   3.753 -3.3338  0.7109 -1.3197
20292SOL     OW67221   3.772   3.686   4.389  0.2823 -0.0009 -0.7033
20292SOL    HW167222   3.747   3.761   4.443 -1.1504 -1.2141  0.4021
20292SOL    HW267223   3.689   3.643   4.368  1.0827 -1.3494 -1.2127
20293SOL     OW67224   9.187   2.316   4.323  0.2478 -0.2818 -0.4063
20293SOL    HW167225   9.227   2.361   4.398  0.3316 -0.8785 -0.0850
20293SOL    HW267226   9.096   2.301   4.350  0.1162  0.0368 -0.6678
20294SOL     OW67227   1.713   5.468   3.884 -0.3190 -0.5669  0.3782
20294SOL    HW167228   1.723   5.378   3.913  1.1306 -0.2566  0.9220
20294SOL    HW267229   1.799   5.508   3.897 -0.8498  0.8242 -0.1065
20295SOL     OW67230   6.417   5.451   0.106 -0.0436  0.2480 -0.1095
20295SOL    HW167231   6.475   5.461   0.182 -0.7518 -1.9199  0.7902
20295SOL    HW267232   6.473   5.416   0.037  0.6215  2.2995 -0.6839
20296SOL     OW67233   2.947   5.518   7.367  0.3588  0.1612 -0.1814
20296SOL    HW167234   2.883   5.450   7.386  2.1015 -1.5536 -0.0312
20296SOL    HW267235   2.932   5.585   7.433 -1.9597  0.3701 -0.8426
20297SOL     OW67236   3.736   1.772   8.864  0.3189 -0.5588  0.4752
20297SOL    HW167237   3.829   1.755   8.878  0.0380 -1.2518  1.6054
20297SOL    HW267238   3.728   1.781   8.769  1.3074 -1.9505  0.2225
20298SOL     OW67239   5.430   2.549   5.132 -0.3338 -0.6033  0.6073
20298SOL    HW167240   5.465   2.554   5.221  1.7553 -0.7613 -0.1569
20298SOL    HW267241   5.442   2.637   5.097 -1.3358 -0.4882  0.5259
20299SOL     OW67242   3.252   3.689   8.227 -0.1202 -0.3874 -0.3311
20299SOL    HW167243   3.329   3.739   8.199  0.1458 -0.8013 -0.3383
20299SOL    HW267244   3.258   3.686   8.322  0.1112 -0.7992 -0.3573
20300SOL     OW67245   7.347   8.522   6.869  0.1593 -0.0610  0.2856
20300SOL    HW167246   7.355   8.469   6.790  2.1028  0.4542  0.0637
20300SOL    HW267247   7.263   8.497   6.907  0.3302 -2.2014 -0.5850
20301SOL     OW67248   0.925   3.191   6.110 -0.0469 -0.2575  0.7715
20301SOL    HW167249   0.836   3.225   6.106 -0.1738 -0.3377  2.1928
20301SOL    HW267250   0.938   3.171   6.203  0.9408 -1.6105  0.3746
20302SOL     OW67251   3.775   2.377   2.663  0.1632  0.8134 -0.0375
20302SOL    HW167252   3.823   2.352   2.742  0.3234  2.5707  0.4531
20302SOL    HW267253   3.691   2.331   2.670  0.6401  0.0208  0.5544
20303SOL     OW67254   5.019   8.932   4.072 -0.1566 -0.4250 -0.0042
20303SOL    HW167255   5.044   8.938   3.980 -1.8401 -1.1288 -0.5457
20303SOL    HW267256   4.972   8.849   4.079 -0.4546 -0.1608  1.3897
20304SOL     OW67257   0.529   5.310   0.646 -0.3196 -0.4762  0.0535
20304SOL    HW167258   0.518   5.404   0.658  1.7231 -0.1247 -0.4895
20304SOL    HW267259   0.492   5.292   0.560 -1.0731 -0.2660  0.3235
20305SOL     OW67260   8.926   4.258   0.303  0.5388  0.2542 -0.1531
20305SOL    HW167261   8.916   4.288   0.213 -0.9653  0.9081  0.2034
20305SOL    HW267262   9.020   4.244   0.314  0.8155  0.8670 -1.5999
20306SOL     OW67263   1.817   6.653   5.960  0.4464 -0.2994  0.4534
20306SOL    HW167264   1.833   6.640   5.866  0.1592 -1.9048  0.5870
20306SOL    HW267265   1.890   6.707   5.990  1.4568 -1.1295 -0.3987
20307SOL     OW67266   0.068   5.563   6.573 -0.5181  0.8558  0.7385
20307SOL    HW167267   0.080   5.643   6.522 -1.1265 -0.4114 -1.5382
20307SOL    HW267268   0.078   5.591   6.664  0.5930  3.2564 -0.0324
20308SOL     OW67269   2.243   1.684   2.321 -0.1899 -0.5089  0.6040
20308SOL    HW167270   2.282   1.687   2.234  0.0818  0.5884  0.7522
20308SOL    HW267271   2.290   1.613   2.365  0.1179 -0.6488  0.0609
20309SOL     OW67272   7.040   8.002   8.137 -0.2047 -0.1944  0.4322
20309SOL    HW167273   7.122   8.016   8.090 -0.6661  1.4628  0.0784
20309SOL    HW267274   6.974   8.047   8.085 -1.4625 -1.9229  0.4395
20310SOL     OW67275   4.645   6.967   2.705 -0.4752  0.1022 -0.2161
20310SOL    HW167276   4.712   6.927   2.649  0.5351 -0.1091  1.1153
20310SOL    HW267277   4.626   7.051   2.663  1.1396  0.4758 -0.2477
20311SOL     OW67278   2.878   0.388   1.185 -0.1274  0.1747  0.1143
20311SOL    HW167279   2.855   0.465   1.132  2.4762  0.0455 -1.3636
20311SOL    HW267280   2.910   0.324   1.121 -0.1430 -1.3212  1.5416
20312SOL     OW67281   8.123   6.231   7.582  0.3612 -0.0385 -0.0429
20312SOL    HW167282   8.078   6.150   7.556  1.1135  0.1473 -2.1852
20312SOL    HW267283   8.068   6.268   7.650 -0.5210 -1.8656  0.3157
20313SOL     OW67284   1.875   2.791   0.849 -0.4585  0.1775  0.0930
20313SOL    HW167285   1.882   2.801   0.944  0.2147 -1.2096  0.2099
20313SOL    HW267286   1.811   2.721   0.837 -0.9603  0.7266 -0.5034
20314SOL     OW67287   2.282   8.821   6.548 -0.0457 -0.1068  0.8826
20314SOL    HW167288   2.340   8.801   6.475 -0.5989  0.0108  0.3998
20314SOL    HW267289   2.317   8.902   6.586  0.4910 -0.4020  1.0200
20315SOL     OW67290   6.628   2.350   2.856  0.3587 -0.1441 -0.2523
20315SOL    HW167291   6.655   2.290   2.786  0.0053 -1.0059  0.3316
20315SOL    HW267292   6.536   2.330   2.870  0.4350 -0.0006  0.4824
20316SOL     OW67293   0.105   4.446   4.850 -0.1654  0.8940  0.2106
20316SOL    HW167294   0.088   4.458   4.943 -0.5532  1.5631  0.0587
20316SOL    HW267295   0.035   4.387   4.820  1.1146 -0.9713  0.7349
20317SOL     OW67296   4.903   8.739   7.315 -0.4711 -0.1030  0.8665
20317SOL    HW167297   4.878   8.647   7.309 -1.3012  0.1239  0.6245
20317SOL    HW267298   4.851   8.782   7.247  0.7252  0.3821  0.2297
20318SOL     OW67299   5.990   1.996   6.869  0.0477  0.3948 -0.1497
20318SOL    HW167300   6.042   1.922   6.837 -0.2384  1.1554 -2.5519
20318SOL    HW267301   5.900   1.965   6.865  0.0535  0.2251  0.7761
20319SOL     OW67302   5.979   8.638   9.130  0.1055  0.1718 -0.1210
20319SOL    HW167303   6.073   8.646   9.146  0.1308 -2.1536  1.4356
20319SOL    HW267304   5.972   8.600   9.043  0.8587 -2.6115  0.9119
20320SOL     OW67305   7.376   3.369   5.336  0.4123  0.3824 -0.4512
20320SOL    HW167306   7.467   3.361   5.365 -0.2389 -0.4082  1.5079
20320SOL    HW267307   7.349   3.280   5.315  0.2659  0.6977 -1.7141
20321SOL     OW67308   6.170   0.565   7.404  0.1583  0.0651 -0.2717
20321SOL    HW167309   6.164   0.557   7.500  1.7418 -0.2813 -0.1797
20321SOL    HW267310   6.224   0.644   7.391  1.7216 -1.0507 -0.8112
20322SOL     OW67311   0.604   8.875   5.770  0.6216 -0.0229 -0.4163
20322SOL    HW167312   0.603   8.942   5.839  0.4521  0.2388 -0.6701
20322SOL    HW267313   0.561   8.917   5.695  1.6215  0.0347 -0.9867
20323SOL     OW67314   0.644   8.971   8.454  0.4615  0.3658 -0.3775
20323SOL    HW167315   0.676   8.991   8.542  0.9807  1.9505 -0.8910
20323SOL    HW267316   0.557   8.933   8.468  1.5350 -1.7686  0.9198
20324SOL     OW67317   3.245   1.861   7.880 -0.0510 -0.0151  0.2619
20324SOL    HW167318   3.171   1.862   7.940 -0.1212 -1.4965  0.2387
20324SOL    HW267319   3.218   1.803   7.809  0.6213  0.4791 -0.4124
20325SOL     OW67320   4.555   2.727   2.825  0.5162  0.8402  0.4217
20325SOL    HW167321   4.629   2.785   2.841  1.4460 -0.2318  0.1028
20325SOL    HW267322   4.487   2.784   2.789  1.8201  1.5502 -1.0558
20326SOL     OW67323   4.843   7.516   3.659  0.0333  0.1847 -0.0597
20326SOL    HW167324   4.808   7.579   3.596 -0.9263 -0.4573 -0.2016
20326SOL    HW267325   4.901   7.460   3.607 -0.8672 -0.4325 -0.4348
20327SOL     OW67326   3.354   6.887   0.799 -0.7720  0.7159  0.1165
20327SOL    HW167327   3.273   6.937   0.813 -1.0112  0.5316 -0.5972
20327SOL    HW267328   3.332   6.825   0.730  0.1611  1.0598 -0.4964
20328SOL     OW67329   1.646   2.941   6.519  0.2271 -0.6000  0.0383
20328SOL    HW167330   1.564   2.965   6.562  0.9439  0.1637  1.0441
20328SOL    HW267331   1.670   3.018   6.467  0.6231 -0.5676  0.2629
20329SOL     OW67332   8.199   3.887   4.930 -0.4646 -0.3043 -0.0931
20329SOL    HW167333   8.218   3.916   5.019  0.4134  1.2614 -0.7641
20329SOL    HW267334   8.251   3.807   4.919 -0.8454 -0.6978  0.9009
20330SOL     OW67335   3.374   1.814   6.992  0.8301 -1.1254  0.1414
20330SOL    HW167336   3.391   1.746   7.056  2.7172  0.3931  1.3693
20330SOL    HW267337   3.448   1.875   7.000 -0.7006  1.0407 -0.9136
20331SOL     OW67338   3.864   4.935   7.913 -0.2030 -0.2892  0.3182
20331SOL    HW167339   3.952   4.970   7.895  0.0446 -1.1076 -0.1311
20331SOL    HW267340   3.835   4.982   7.991  1.3134 -1.1606  1.4642
20332SOL     OW67341   3.178   5.585   4.180 -0.2564 -0.2920  0.2378
20332SOL    HW167342   3.091   5.615   4.155  0.1369 -0.3354 -1.2674
20332SOL    HW267343   3.163   5.499   4.219 -0.7966 -0.8506 -1.1318
20333SOL     OW67344   5.984   2.168   7.568 -0.2765  0.6380 -0.5786
20333SOL    HW167345   5.944   2.242   7.522 -0.3595 -0.0011 -1.5563
20333SOL    HW267346   5.918   2.140   7.631 -0.6049  0.8150 -0.8405
20334SOL     OW67347   0.466   9.103   8.769  0.7620 -0.5009 -0.0494
20334SOL    HW167348   0.429   9.016   8.778 -2.2550  0.6191 -0.4823
20334SOL    HW267349   0.435   9.151   8.847 -1.6541  1.3897 -2.0094
20335SOL     OW67350   0.296   0.026   2.988  0.3889 -0.2632  0.3133
20335SOL    HW167351   0.383  -0.005   2.963 -0.4716 -2.4964 -0.0698
20335SOL    HW267352   0.235  -0.032   2.942 -1.3350  1.1463  0.6962
20336SOL     OW67353   0.191   2.646   7.384 -0.0912  0.1245  0.0807
20336SOL    HW167354   0.098   2.638   7.406 -0.1591 -3.2971 -0.9385
20336SOL    HW267355   0.193   2.694   7.301 -0.8228  1.1037  0.6106
20337SOL     OW67356   7.810   3.416   0.503 -0.2319  0.0583 -0.2269
20337SOL    HW167357   7.766   3.413   0.587  0.0998 -1.7532 -0.0807
20337SOL    HW267358   7.901   3.435   0.524 -0.4423  1.2206 -0.3228
20338SOL     OW67359   0.891   7.040   0.015  0.4714  0.5700  0.2045
20338SOL    HW167360   0.869   7.133   0.029 -0.8842  0.0930  1.5451
20338SOL    HW267361   0.950   7.018   0.087  1.8818  0.6974 -0.8720
20339SOL     OW67362   0.294   2.384   3.171  0.1295 -0.0689 -0.5499
20339SOL    HW167363   0.335   2.402   3.255 -1.8961  1.7834  0.1295
20339SOL    HW267364   0.206   2.421   3.178 -0.6326 -1.1784 -2.9763
20340SOL     OW67365   7.300   4.834   0.420  0.6240 -0.4556  0.1401
20340SOL    HW167366   7.248   4.879   0.486 -0.5638 -1.6790  0.0759
20340SOL    HW267367   7.329   4.753   0.463 -0.2974 -1.3473 -0.8307
20341SOL     OW67368   0.872   0.645   7.550 -0.1551 -0.1234  0.0129
20341SOL    HW167369   0.834   0.733   7.544  0.3623  0.0015 -2.0779
20341SOL    HW267370   0.958   0.653   7.510 -0.3761 -1.7238 -0.8534
20342SOL     OW67371   1.639   6.482   4.512 -0.2853 -0.5833  0.0416
20342SOL    HW167372   1.549   6.498   4.538  0.7680  3.3255  2.0780
20342SOL    HW267373   1.635   6.470   4.417 -2.9286 -1.3023  0.1608
20343SOL     OW67374   7.568   2.989   1.661 -0.0883  0.7259  0.7303
20343SOL    HW167375   7.507   3.019   1.728 -0.2234  0.4689  0.7264
20343SOL    HW267376   7.655   3.007   1.697 -0.0254 -2.2383  2.4196
20344SOL     OW67377   5.138   2.542   0.489 -0.1247 -0.1228  0.1773
20344SOL    HW167378   5.185   2.619   0.457 -0.2059 -0.7274 -1.4939
20344SOL    HW267379   5.050   2.551   0.453  0.0258 -1.2691 -0.5286
20345SOL     OW67380   2.768   2.410   4.239  0.8789  0.0594  0.1059
20345SOL    HW167381   2.838   2.377   4.184 -0.9124  0.2940 -2.4870
20345SOL    HW267382   2.709   2.335   4.250  0.0707  0.6273 -0.2643
20346SOL     OW67383   5.219   3.075   7.940 -0.2083 -0.0886 -0.3724
20346SOL    HW167384   5.223   3.041   8.029 -0.5722 -1.7987 -0.9706
20346SOL    HW267385   5.293   3.033   7.895 -2.0282 -2.0740 -1.7379
20347SOL     OW67386   7.984   1.103   4.093 -0.3642  0.0443  0.6644
20347SOL    HW167387   7.980   1.021   4.143 -1.7317 -0.2863  0.0461
20347SOL    HW267388   7.902   1.147   4.113 -1.3777 -0.5023 -1.9389
20348SOL     OW67389   4.326   5.325   6.030  0.0431 -0.3239  0.4595
20348SOL    HW167390   4.375   5.404   6.008  1.2953 -1.2631 -0.2415
20348SOL    HW267391   4.393   5.260   6.050 -0.9112 -1.6064 -0.3637
20349SOL     OW67392   8.093   1.195   7.647  0.3259  0.5728  0.2478
20349SOL    HW167393   8.136   1.158   7.570  0.2810  0.8565  0.0850
20349SOL    HW267394   8.076   1.286   7.623 -2.6975 -0.1326 -0.6962
20350SOL     OW67395   8.137   4.361   8.364  0.2714 -0.0398 -0.0661
20350SOL    HW167396   8.041   4.368   8.365  0.0845 -1.4412 -1.8210
20350SOL    HW267397   8.168   4.451   8.355 -0.8829  0.4237  0.4474
20351SOL     OW67398   7.460   4.107   8.149 -0.5097 -0.6174 -0.5730
20351SOL    HW167399   7.411   4.173   8.198 -0.8419 -0.0298 -1.6435
20351SOL    HW267400   7.397   4.035   8.136  0.0324 -1.4276  1.1002
20352SOL     OW67401   4.208   1.157   4.606 -0.0338 -0.1417 -0.4167
20352SOL    HW167402   4.252   1.124   4.684  1.1853  2.3883  0.0489
20352SOL    HW267403   4.116   1.131   4.618  0.5408 -1.8895  0.6140
20353SOL     OW67404   8.929   7.410   7.179  0.1891  0.4732  0.0562
20353SOL    HW167405   9.004   7.461   7.208  0.6747 -0.5496  0.6459
20353SOL    HW267406   8.906   7.356   7.254 -0.4328 -0.0436 -0.4913
20354SOL     OW67407   7.521   7.673   6.707 -0.2915 -0.1494 -0.1383
20354SOL    HW167408   7.485   7.727   6.637  0.6369 -1.8295 -1.9852
20354SOL    HW267409   7.615   7.689   6.704 -0.2723  0.1403  1.1095
20355SOL     OW67410   0.683   3.664   4.993  0.2943 -0.0605 -0.3069
20355SOL    HW167411   0.755   3.673   5.056  0.2629 -0.1379 -0.2587
20355SOL    HW267412   0.643   3.750   4.990 -0.2788 -0.2894  0.4778
20356SOL     OW67413   0.441   9.175   8.301 -0.0138 -0.3513  0.6167
20356SOL    HW167414   0.455   9.187   8.395  2.2661 -0.0919  0.3203
20356SOL    HW267415   0.387   9.096   8.294 -1.1626  0.2610  2.1510
20357SOL     OW67416   8.762   1.526   4.284 -0.6526  0.2073 -0.2520
20357SOL    HW167417   8.825   1.455   4.295  0.4686  1.1300 -0.4679
20357SOL    HW267418   8.722   1.536   4.370 -1.3836 -1.1773 -0.4117
20358SOL     OW67419   3.708   0.332   3.764  0.0708  0.0870 -0.6776
20358SOL    HW167420   3.753   0.257   3.726 -1.5434 -0.7354 -1.0523
20358SOL    HW267421   3.760   0.354   3.842  0.1996 -1.8668 -0.1543
20359SOL     OW67422   5.658   2.950   7.778 -0.3056 -0.4915 -0.1589
20359SOL    HW167423   5.612   3.017   7.828 -0.6782 -0.5034 -0.4786
20359SOL    HW267424   5.748   2.980   7.775  0.0412 -1.1706  1.7119
20360SOL     OW67425   8.452   7.640   0.330  0.0095 -0.1095 -0.0967
20360SOL    HW167426   8.496   7.606   0.409 -0.3423  1.3845  0.7800
20360SOL    HW267427   8.411   7.563   0.291  2.3054 -1.3432 -0.2542
20361SOL     OW67428   4.307   3.099   4.080  0.2593 -0.4234 -0.7273
20361SOL    HW167429   4.243   3.169   4.065 -0.1812 -1.0560 -2.0227
20361SOL    HW267430   4.360   3.130   4.153 -0.9099  0.5598 -0.2472
20362SOL     OW67431   1.352   1.794   4.878 -0.2378 -0.3393 -0.4634
20362SOL    HW167432   1.447   1.781   4.876 -0.2733 -0.5664 -0.6406
20362SOL    HW267433   1.331   1.798   4.972 -0.3259 -2.3408 -0.3578
20363SOL     OW67434   6.863   4.534   2.764 -0.0981  0.6363  0.0204
20363SOL    HW167435   6.842   4.624   2.788 -0.2437  0.1162  2.0579
20363SOL    HW267436   6.780   4.498   2.733  0.4648  1.8179 -3.1804
20364SOL     OW67437   2.254   1.470   2.006  0.6361  0.3094 -0.1561
20364SOL    HW167438   2.268   1.469   1.911 -1.6136  1.0052 -0.5595
20364SOL    HW267439   2.204   1.550   2.022 -0.1728 -0.4636  1.4038
20365SOL     OW67440   4.404   8.472   2.760 -0.1224  0.0546  0.5398
20365SOL    HW167441   4.373   8.383   2.777  1.0844 -0.4581  0.1953
20365SOL    HW267442   4.363   8.525   2.828  1.2167 -1.2245  2.4645
20366SOL     OW67443   6.945   2.477   2.985 -0.1342  0.0334 -0.3796
20366SOL    HW167444   6.946   2.404   2.923 -1.0692 -1.5858  1.4186
20366SOL    HW267445   7.024   2.464   3.038  0.0292  0.7250 -0.4438
20367SOL     OW67446   3.725   3.565   2.101  0.1886  0.1158  0.3069
20367SOL    HW167447   3.692   3.508   2.032  1.3546 -1.1655  0.7637
20367SOL    HW267448   3.716   3.653   2.065 -1.3874 -0.3428 -0.5256
20368SOL     OW67449   1.641   2.768   4.515 -0.5883  0.3690 -0.1854
20368SOL    HW167450   1.718   2.719   4.487  0.6279  0.9350  1.9504
20368SOL    HW267451   1.629   2.834   4.448  1.1025  0.5711 -0.3319
20369SOL     OW67452   2.126   6.633   8.250 -0.2252  0.7281  0.0025
20369SOL    HW167453   2.086   6.574   8.186 -1.1738 -0.4263  1.5898
20369SOL    HW267454   2.053   6.668   8.300  0.5753  0.3830  1.4738
20370SOL     OW67455   3.848   0.073   2.535 -0.0699 -0.4337 -0.2582
20370SOL    HW167456   3.759   0.097   2.562  0.7857  0.9531  1.5378
20370SOL    HW267457   3.886   0.032   2.613  1.2072 -0.0371 -0.6484
20371SOL     OW67458   8.508   1.000   5.388 -0.7538 -0.1457 -0.2707
20371SOL    HW167459   8.433   1.022   5.332 -0.8587 -0.1613 -0.1341
20371SOL    HW267460   8.532   0.911   5.362 -0.7668 -0.1317 -0.3314
20372SOL     OW67461   0.645   5.047   6.857  0.5572 -0.1489  0.4449
20372SOL    HW167462   0.734   5.080   6.850 -0.1900  1.9913  0.2354
20372SOL    HW267463   0.592   5.113   6.812 -1.1880 -1.1049  1.0084
20373SOL     OW67464   8.527   3.303   7.557 -0.0662  0.2447 -0.0553
20373SOL    HW167465   8.450   3.262   7.517 -1.0265  0.8174  1.1356
20373SOL    HW267466   8.560   3.363   7.490 -0.7687  0.1364 -0.5127
20374SOL     OW67467   8.729   0.083   1.040 -0.1676 -0.5818  0.4925
20374SOL    HW167468   8.721   0.174   1.011 -0.0175 -0.8562 -0.4395
20374SOL    HW267469   8.716   0.031   0.960  1.7602 -1.3185  0.5907
20375SOL     OW67470   6.011   8.303   5.550  0.6396  0.5952  0.2416
20375SOL    HW167471   5.967   8.364   5.491  0.9421  0.4091 -0.1788
20375SOL    HW267472   5.943   8.278   5.613  0.5199  1.3899  0.4410
20376SOL     OW67473   3.797   6.947   3.011 -0.1273  0.4573  0.0784
20376SOL    HW167474   3.892   6.954   3.002 -0.2960  2.6766 -0.6400
20376SOL    HW267475   3.778   6.990   3.094 -0.4989 -0.0763  0.2725
20377SOL     OW67476   7.804   2.517   8.693  0.0017  0.2169 -0.2125
20377SOL    HW167477   7.820   2.438   8.640 -2.5543 -0.3024 -0.3492
20377SOL    HW267478   7.767   2.580   8.631 -0.9359  0.3855  0.5033
20378SOL     OW67479   1.509   3.756   0.371  0.0002 -0.0029 -0.1174
20378SOL    HW167480   1.589   3.803   0.348 -0.2998  0.1196 -0.9407
20378SOL    HW267481   1.458   3.819   0.421 -0.8457  0.9580 -2.0606
20379SOL     OW67482   4.583   4.239   7.104 -0.0741  0.1427 -0.0000
20379SOL    HW167483   4.673   4.241   7.071  0.3273  1.4322  1.1096
20379SOL    HW267484   4.584   4.172   7.172  0.5776  1.4806  1.3652
20380SOL     OW67485   4.137   1.714   8.293 -0.0187 -0.6192  0.0064
20380SOL    HW167486   4.210   1.719   8.232 -2.0818 -2.3188 -2.8385
20380SOL    HW267487   4.138   1.623   8.324 -2.4550 -1.5864 -2.3577
20381SOL     OW67488   5.247   7.527   3.830  0.0228  0.4777 -0.6463
20381SOL    HW167489   5.341   7.534   3.815  0.5398  0.6298  2.1126
20381SOL    HW267490   5.208   7.579   3.759  1.9381 -0.0820 -2.2102
20382SOL     OW67491   1.337   1.515   0.964 -0.3940 -0.5265 -0.4293
20382SOL    HW167492   1.430   1.536   0.965 -0.0978 -1.7126 -1.0256
20382SOL    HW267493   1.293   1.600   0.968  0.6739  0.0111  1.5942
20383SOL     OW67494   5.885   4.870   3.354  0.6366 -0.1714 -0.1685
20383SOL    HW167495   5.839   4.884   3.271 -1.8488  1.5122  1.3578
20383SOL    HW267496   5.970   4.910   3.341  0.3907 -0.1303 -1.9638
20384SOL     OW67497   3.435   7.048   1.398 -0.0734  1.1092 -0.1404
20384SOL    HW167498   3.469   6.969   1.440 -0.5650  0.7413 -0.4249
20384SOL    HW267499   3.512   7.091   1.363  0.0396 -0.1909 -1.5878
20385SOL     OW67500   2.186   5.698   1.698 -0.3717 -0.0614  0.0808
20385SOL    HW167501   2.193   5.680   1.604  1.6340 -0.1460  0.2114
20385SOL    HW267502   2.258   5.758   1.717 -0.8536  0.0938  1.5475
20386SOL     OW67503   2.680   7.481   2.801  0.3258  0.3496  0.1281
20386SOL    HW167504   2.696   7.481   2.896 -1.0513  3.1771  0.4582
20386SOL    HW267505   2.585   7.483   2.793  0.4364  1.1319 -1.2599
20387SOL     OW67506   2.982   5.021   2.416 -0.0306 -0.0786 -0.0552
20387SOL    HW167507   2.942   4.935   2.404  1.5896 -0.7124 -1.3062
20387SOL    HW267508   2.975   5.063   2.330 -0.1090  0.7422  0.3432
20388SOL     OW67509   3.224   6.044   3.433 -0.8310 -0.2464 -0.0608
20388SOL    HW167510   3.149   6.069   3.380 -0.1960 -0.7270 -1.2219
20388SOL    HW267511   3.187   5.998   3.508 -1.6374 -1.6986 -1.3040
20389SOL     OW67512   5.197   1.223   1.710  0.1109  0.0261 -0.2563
20389SOL    HW167513   5.224   1.134   1.734 -0.4735  0.1616  0.9826
20389SOL    HW267514   5.277   1.265   1.679  0.6349 -0.5881  0.2384
20390SOL     OW67515   3.349   8.336   5.894 -0.2650 -0.0601  0.6130
20390SOL    HW167516   3.285   8.270   5.867 -2.0398  1.9209 -0.3193
20390SOL    HW267517   3.364   8.388   5.815  0.4417  1.1365  1.5082
20391SOL     OW67518   3.415   9.204   1.181 -0.0884  0.3643 -0.5079
20391SOL    HW167519   3.375   9.290   1.195 -2.3276 -0.4688 -1.3007
20391SOL    HW267520   3.412   9.162   1.267  1.5246  1.2245  0.0098
20392SOL     OW67521   3.417   3.495   6.166  0.0597  0.1845  0.0311
20392SOL    HW167522   3.465   3.578   6.160  1.5211 -0.5894  0.3572
20392SOL    HW267523   3.461   3.447   6.237 -0.5464 -0.9887 -0.3558
20393SOL     OW67524   8.151   2.216   0.699  0.0584  0.3576  0.1714
20393SOL    HW167525   8.139   2.139   0.755 -3.3141  0.4470 -0.2336
20393SOL    HW267526   8.088   2.279   0.733 -0.6349  1.1603 -2.4208
20394SOL     OW67527   3.563   2.570   0.487 -0.4649 -0.3972 -0.0182
20394SOL    HW167528   3.488   2.512   0.501  0.3888 -1.2239  1.3096
20394SOL    HW267529   3.527   2.658   0.497 -1.7472 -0.6449 -1.9154
20395SOL     OW67530   0.433   7.646   7.728 -0.0489  0.1540  0.8347
20395SOL    HW167531   0.362   7.595   7.689  0.9220  0.2401 -1.1684
20395SOL    HW267532   0.395   7.683   7.808 -1.7816 -0.9833  0.5956
20396SOL     OW67533   4.639   1.154   2.673  0.1026 -0.5118 -0.3503
20396SOL    HW167534   4.679   1.091   2.733  0.3357  1.6180  1.9084
20396SOL    HW267535   4.712   1.185   2.619  0.2244 -1.2382 -0.6126
20397SOL     OW67536   5.677   0.852   5.782  0.8796 -0.1189  0.5462
20397SOL    HW167537   5.725   0.894   5.710 -0.7804  2.4712  0.8415
20397SOL    HW267538   5.594   0.824   5.742  0.7378 -0.4096  1.0427
20398SOL     OW67539   1.397   7.391   6.592 -0.0845  0.3948  0.4249
20398SOL    HW167540   1.385   7.486   6.591  2.1958  0.7365  0.4086
20398SOL    HW267541   1.407   7.369   6.685  0.3678  0.3193  0.3586
20399SOL     OW67542   5.878   7.978   8.829  0.5312 -0.1108 -0.0313
20399SOL    HW167543   5.866   7.967   8.735 -1.2490 -1.5081  0.2951
20399SOL    HW267544   5.863   8.071   8.844  1.5953  0.2733 -1.2095
20400SOL     OW67545   5.236   7.808   8.030  0.1696 -0.6024  0.0548
20400SOL    HW167546   5.283   7.826   7.949  0.3701 -1.4575 -0.0274
20400SOL    HW267547   5.189   7.726   8.013 -2.0642  0.6268 -0.1717
20401SOL     OW67548   5.064   8.452   3.238 -0.2473 -0.1271  0.0702
20401SOL    HW167549   5.133   8.491   3.291 -0.9469  0.4426  0.5916
20401SOL    HW267550   4.993   8.516   3.241 -1.2507 -1.2226  0.5480
20402SOL     OW67551   6.098   1.393   6.368  0.2193 -0.4488 -0.1258
20402SOL    HW167552   6.055   1.309   6.358 -0.4827 -0.0464 -0.6024
20402SOL    HW267553   6.118   1.420   6.278  0.0980  0.0610 -0.0042
20403SOL     OW67554   6.391   0.737   7.285  0.2561  0.6509 -0.3533
20403SOL    HW167555   6.472   0.778   7.315  0.3624  0.2996 -0.1592
20403SOL    HW267556   6.329   0.809   7.279  0.0318  0.6624  1.3691
20404SOL     OW67557   4.550   9.143   5.897 -0.1605  0.1703 -0.1218
20404SOL    HW167558   4.580   9.088   5.969  0.7426 -0.6195 -1.0571
20404SOL    HW267559   4.454   9.143   5.904 -0.2084 -1.8787 -0.3295
20405SOL     OW67560   0.629   7.704   1.956  0.0636  0.4282 -0.6104
20405SOL    HW167561   0.686   7.747   2.020 -0.5356 -1.4158  1.2911
20405SOL    HW267562   0.683   7.634   1.919  0.0490  0.7893 -1.3405
20406SOL     OW67563   5.224   2.369   2.366 -0.2131  0.1043 -0.1654
20406SOL    HW167564   5.226   2.367   2.270 -0.5864  0.3224 -0.1826
20406SOL    HW267565   5.171   2.293   2.391  0.6334 -0.4757 -0.0905
20407SOL     OW67566   6.842   0.301   0.011  0.4303  0.2588  0.0331
20407SOL    HW167567   6.778   0.373   0.014  0.4323  0.3482 -1.5137
20407SOL    HW267568   6.796   0.227   0.050 -0.4887  0.4182 -0.7223
20408SOL     OW67569   5.451   8.980   8.572 -0.4727 -0.1347  0.6408
20408SOL    HW167570   5.497   9.058   8.603  1.4046 -1.0916  0.3958
20408SOL    HW267571   5.504   8.907   8.604 -0.9840 -1.2609 -0.9859
20409SOL     OW67572   1.269   1.119   3.622  0.3785 -0.1617 -0.0533
20409SOL    HW167573   1.226   1.034   3.610 -0.5773  0.2177  0.6432
20409SOL    HW267574   1.346   1.114   3.565  0.6296 -1.6922  0.3627
20410SOL     OW67575   7.551   3.511   6.796 -0.2609  0.1262  0.0084
20410SOL    HW167576   7.612   3.585   6.792 -1.8208  1.4440 -0.4538
20410SOL    HW267577   7.512   3.516   6.883  1.0076 -1.3750  0.7231
20411SOL     OW67578   2.199   7.160   0.196  0.4555 -0.5470  0.0417
20411SOL    HW167579   2.198   7.253   0.176  0.2105 -0.4676  0.4117
20411SOL    HW267580   2.178   7.117   0.112  2.0588 -0.3492 -0.4817
20412SOL     OW67581   1.516   6.085   4.666  0.1298  0.1397 -0.2808
20412SOL    HW167582   1.441   6.127   4.624 -0.0965 -0.3604 -0.3825
20412SOL    HW267583   1.571   6.056   4.593  0.6660  0.9253 -0.2028
20413SOL     OW67584   6.676   0.765   4.354  0.5287 -0.5972  0.0932
20413SOL    HW167585   6.632   0.778   4.439 -0.5715  0.2307 -0.5779
20413SOL    HW267586   6.732   0.689   4.368  1.2734  0.2065  1.9249
20414SOL     OW67587   6.598   0.735   5.446  0.0335 -0.1877  0.0753
20414SOL    HW167588   6.685   0.755   5.412  0.3645 -1.3307  0.2094
20414SOL    HW267589   6.573   0.655   5.401 -0.7846 -0.0794  0.3345
20415SOL     OW67590   1.304   3.911   4.865 -0.6892 -0.1131 -0.5836
20415SOL    HW167591   1.285   3.819   4.846 -0.9796 -0.7210  2.2663
20415SOL    HW267592   1.219   3.953   4.874 -0.5562  0.2873 -1.0847
20416SOL     OW67593   2.413   3.422   8.060  0.1205  0.3165 -0.2246
20416SOL    HW167594   2.443   3.388   7.976 -0.5071  1.1479 -0.7876
20416SOL    HW267595   2.422   3.347   8.120 -0.4825 -0.6169 -1.2658
20417SOL     OW67596   6.091   4.147   0.322 -0.4158 -0.2429  0.2583
20417SOL    HW167597   6.020   4.141   0.259  0.6876  0.2930 -1.0865
20417SOL    HW267598   6.166   4.105   0.279  0.8776  1.7745  0.3843
20418SOL     OW67599   4.673   3.725   6.635  0.7498 -0.0820  0.5440
20418SOL    HW167600   4.733   3.678   6.578  0.2713 -0.2212  0.1484
20418SOL    HW267601   4.642   3.799   6.582 -0.6512 -0.9039  0.1620
20419SOL     OW67602   7.448   7.355   8.001 -0.1226 -0.3622  0.0780
20419SOL    HW167603   7.403   7.277   8.032 -0.8942  0.3194  0.7498
20419SOL    HW267604   7.521   7.323   7.949 -0.5929 -1.5157  0.1155
20420SOL     OW67605   6.044   4.831   0.243 -0.3371  0.0340  0.3236
20420SOL    HW167606   6.014   4.881   0.319 -0.8469  1.6968 -0.9142
20420SOL    HW267607   6.043   4.894   0.171  2.4627 -0.8514 -0.6115
20421SOL     OW67608   7.646   4.094   5.169  0.9926  0.0826  0.5429
20421SOL    HW167609   7.555   4.099   5.198  0.8600  1.5208 -0.0405
20421SOL    HW267610   7.672   4.003   5.186 -0.5505 -0.3517  0.6907
20422SOL     OW67611   0.994   8.903   1.693 -0.2318 -1.0093  0.0674
20422SOL    HW167612   1.047   8.899   1.614  1.5562 -1.2783  1.2099
20422SOL    HW267613   0.957   8.991   1.693 -0.9653 -1.2921 -1.4661
20423SOL     OW67614   2.400   4.491   6.811  0.1703  0.2103  0.7700
20423SOL    HW167615   2.313   4.530   6.808  0.1824  0.1984 -1.5919
20423SOL    HW267616   2.423   4.477   6.719  2.1547 -0.9432  1.3871
20424SOL     OW67617   3.336   8.423   8.597 -0.3531 -0.2286  0.6075
20424SOL    HW167618   3.317   8.401   8.506 -2.1579 -0.5379  1.0117
20424SOL    HW267619   3.292   8.355   8.648 -1.0701  1.0352  1.7369
20425SOL     OW67620   1.605   8.193   3.907 -0.8950 -0.2572 -0.1734
20425SOL    HW167621   1.665   8.172   3.978  0.0565  0.5403 -0.7107
20425SOL    HW267622   1.524   8.148   3.930 -0.4668 -0.3916  1.1661
20426SOL     OW67623   2.884   5.686   7.581 -0.3754  0.0074  0.0165
20426SOL    HW167624   2.869   5.747   7.653 -2.7706 -0.6331  0.1711
20426SOL    HW267625   2.796   5.659   7.554  0.4051  0.4370 -3.3803
20427SOL     OW67626   6.339   3.518   2.993  0.5258 -0.6335  0.3957
20427SOL    HW167627   6.406   3.498   3.058  1.0818 -1.7069 -0.4856
20427SOL    HW267628   6.272   3.565   3.043  2.6522  2.0717  0.9802
20428SOL     OW67629   1.447   2.816   7.918 -0.0676  0.3898 -0.2916
20428SOL    HW167630   1.507   2.888   7.936 -0.2327  0.9746 -1.9403
20428SOL    HW267631   1.368   2.837   7.969 -1.0105  2.6447 -2.4924
20429SOL     OW67632   3.699   0.459   7.768 -0.5018  0.4439  0.5467
20429SOL    HW167633   3.732   0.492   7.851 -2.0570 -0.9182  1.7651
20429SOL    HW267634   3.702   0.364   7.777 -0.6938  0.2641 -0.9759
20430SOL     OW67635   3.592   2.900   3.346 -0.7738  0.3956  0.2250
20430SOL    HW167636   3.617   2.927   3.434  1.9495 -1.2313  0.0994
20430SOL    HW267637   3.507   2.858   3.356  0.0873 -1.0005  2.3944
20431SOL     OW67638   3.209   6.358   1.229 -0.2312  0.3984 -0.3131
20431SOL    HW167639   3.254   6.319   1.154 -1.3007 -1.3050 -0.1302
20431SOL    HW267640   3.207   6.452   1.211  1.9121  0.3462 -1.0926
20432SOL     OW67641   0.048   5.721   1.088  0.2741 -0.3223  0.0619
20432SOL    HW167642   0.009   5.784   1.150  1.0474 -2.4013  2.8917
20432SOL    HW267643   0.108   5.774   1.035 -1.0413  1.7273  0.4855
20433SOL     OW67644   4.151   2.362   5.583 -0.5647  0.5183 -0.3056
20433SOL    HW167645   4.227   2.420   5.582  0.3781 -0.6593 -0.7797
20433SOL    HW267646   4.090   2.401   5.521 -0.6881  1.8852  0.6327
20434SOL     OW67647   8.070   6.644   4.541  0.0129  0.0213 -0.5390
20434SOL    HW167648   8.015   6.642   4.462  1.8583 -1.0659 -1.8763
20434SOL    HW267649   8.092   6.552   4.557  0.2955  0.3018  0.8280
20435SOL     OW67650   0.545   4.695   9.114  0.1354  0.4188  0.7272
20435SOL    HW167651   0.596   4.665   9.189  0.4100 -0.5959  0.1434
20435SOL    HW267652   0.610   4.729   9.052 -0.0608  0.8958  0.7729
20436SOL     OW67653   7.898   3.230   8.489 -0.3965 -0.3129 -0.0083
20436SOL    HW167654   7.870   3.320   8.505  0.1204 -0.1588  0.0319
20436SOL    HW267655   7.890   3.218   8.395 -0.9305 -0.3843  0.0414
20437SOL     OW67656   7.063   6.971   2.974 -0.1848 -0.2554  0.0388
20437SOL    HW167657   7.025   6.990   2.889  0.9035 -2.8549 -1.1371
20437SOL    HW267658   7.023   6.889   3.001  1.3273 -0.7735  0.8381
20438SOL     OW67659   3.268   4.512   0.511 -0.0781  0.4538 -0.2747
20438SOL    HW167660   3.226   4.515   0.425 -1.0564  1.6024  0.2207
20438SOL    HW267661   3.290   4.419   0.524 -0.0476  0.2446 -1.6852
20439SOL     OW67662   0.247   8.531   8.722  0.4300  0.1385 -0.4649
20439SOL    HW167663   0.182   8.481   8.771  0.9251  0.6816  0.7907
20439SOL    HW267664   0.197   8.596   8.673  0.0450  1.5618  1.6558
20440SOL     OW67665   3.706   3.191   6.157  0.0662 -0.1164  0.2067
20440SOL    HW167666   3.737   3.115   6.107  0.1391  0.2382 -0.2871
20440SOL    HW267667   3.611   3.180   6.160 -0.1166  0.7491 -1.4842
20441SOL     OW67668   7.587   2.850   8.816 -0.0049  0.1083  0.3184
20441SOL    HW167669   7.646   2.780   8.842 -0.7150  1.1963  6.0836
20441SOL    HW267670   7.624   2.929   8.856 -2.0589  2.0663 -1.3716
20442SOL     OW67671   8.901   5.436   2.165  0.7417 -0.6128  0.3550
20442SOL    HW167672   8.846   5.382   2.108  0.0755  1.4941 -1.1356
20442SOL    HW267673   8.847   5.450   2.244  0.1361 -0.5435 -0.0661
20443SOL     OW67674   3.427   6.279   2.519 -0.0775  0.0654 -0.4309
20443SOL    HW167675   3.454   6.272   2.611 -1.5013 -1.5364 -0.0671
20443SOL    HW267676   3.385   6.195   2.500 -0.6102  0.6957 -2.2928
20444SOL     OW67677   3.163   6.940   3.007  0.0497  0.1775 -0.7913
20444SOL    HW167678   3.117   6.879   3.065  0.5998  1.3183  0.9038
20444SOL    HW267679   3.093   6.996   2.972 -0.3137 -0.6630 -1.4585
20445SOL     OW67680   4.705   6.961   8.009 -0.2800  0.6133  0.0810
20445SOL    HW167681   4.697   6.880   7.959  2.3370  0.6275 -0.4909
20445SOL    HW267682   4.624   6.965   8.060 -0.7252 -2.1094 -0.2260
20446SOL     OW67683   5.885   0.123   6.393  0.2080 -0.0116  0.5911
20446SOL    HW167684   5.852   0.174   6.319 -0.3372 -0.4284  0.5365
20446SOL    HW267685   5.921   0.044   6.352 -0.8892 -0.6568  0.8104
20447SOL     OW67686   2.648   4.579   3.667  0.2457 -0.7448 -0.1673
20447SOL    HW167687   2.610   4.519   3.603  0.6988  0.4786 -1.6467
20447SOL    HW267688   2.742   4.579   3.648  0.4013 -0.4194  0.5422
20448SOL     OW67689   0.884   8.559   3.978 -0.8480  0.3550  0.4760
20448SOL    HW167690   0.914   8.607   3.901 -0.9129 -1.6502 -0.8690
20448SOL    HW267691   0.959   8.559   4.037  0.6057 -1.3649 -1.2536
20449SOL     OW67692   8.755   2.306   1.204  0.1066 -0.0911 -0.0849
20449SOL    HW167693   8.739   2.370   1.273 -0.1407 -0.0497 -0.1791
20449SOL    HW267694   8.833   2.339   1.159  1.2669 -1.0081  1.2086
20450SOL     OW67695   0.296   3.486   4.180  0.1500  0.4528 -0.1719
20450SOL    HW167696   0.259   3.574   4.177  1.1904  0.9157 -0.0289
20450SOL    HW267697   0.233   3.434   4.229  0.0171  1.3766  0.6540
20451SOL     OW67698   6.191   4.138   6.611  0.1471  0.0043 -0.1147
20451SOL    HW167699   6.134   4.189   6.555 -0.0205  0.2934  0.3136
20451SOL    HW267700   6.280   4.161   6.583  0.1212  1.5485  0.9254
20452SOL     OW67701   7.782   4.844   6.781  0.0995 -0.5590  0.3266
20452SOL    HW167702   7.689   4.866   6.774 -1.0586 -4.4046  1.2487
20452SOL    HW267703   7.816   4.856   6.693 -1.2007  0.9233 -0.0330
20453SOL     OW67704   2.708   5.751   3.154  0.5392  0.4662 -0.5925
20453SOL    HW167705   2.725   5.758   3.248 -1.5675 -1.1897 -0.0164
20453SOL    HW267706   2.712   5.841   3.122  0.4756  1.1511  1.2313
20454SOL     OW67707   1.348   5.553   8.997  0.4718 -0.4404 -0.5683
20454SOL    HW167708   1.303   5.484   9.046 -0.3435  1.4374  1.4812
20454SOL    HW267709   1.441   5.531   9.005  0.2719 -0.9220  0.7001
20455SOL     OW67710   0.383   1.236   0.312 -0.0899  0.3123 -0.0377
20455SOL    HW167711   0.317   1.167   0.320  0.4246  0.0190  2.3017
20455SOL    HW267712   0.336   1.317   0.330  0.3156 -0.0174  3.1995
20456SOL     OW67713   8.662   7.676   9.159 -0.1000  0.2511  0.0937
20456SOL    HW167714   8.647   7.679   9.065 -1.4139  1.7356  0.2944
20456SOL    HW267715   8.757   7.683   9.169 -0.0535  2.3848 -1.1164
20457SOL     OW67716   6.783   5.266   0.922 -0.1231  0.4396  0.6269
20457SOL    HW167717   6.707   5.322   0.935 -1.5464 -1.6327  1.7635
20457SOL    HW267718   6.839   5.284   0.998  0.0005  1.1605  0.3709
20458SOL     OW67719   7.074   3.478   1.457 -0.2173  0.8101 -0.1264
20458SOL    HW167720   7.134   3.536   1.411  0.4217  0.0548 -0.2541
20458SOL    HW267721   6.992   3.527   1.460 -0.0401  1.2208 -1.3205
20459SOL     OW67722   1.518   3.133   1.646  0.3119 -0.0673  0.5389
20459SOL    HW167723   1.446   3.190   1.673 -0.6464 -1.1505  0.3530
20459SOL    HW267724   1.548   3.170   1.563  0.8136  1.1154  1.2272
20460SOL     OW67725   2.346   9.111   2.015  0.2120  0.1280  0.4499
20460SOL    HW167726   2.397   9.030   2.012  0.1630  0.1159 -0.1906
20460SOL    HW267727   2.255   9.082   2.005  0.1351  0.2074  0.9009
20461SOL     OW67728   4.408   8.780   6.636 -0.2865  0.1201  0.1155
20461SOL    HW167729   4.440   8.785   6.725  1.9634 -0.3788 -0.6131
20461SOL    HW267730   4.353   8.702   6.635 -2.2001  1.3542  1.5483
20462SOL     OW67731   1.338   0.939   6.905  0.3553  0.0184  0.5713
20462SOL    HW167732   1.342   0.844   6.904 -1.8532 -0.1276  0.6526
20462SOL    HW267733   1.316   0.961   6.996  0.6099  0.5854  0.4998
20463SOL     OW67734   3.155   1.510   2.625 -0.0069  0.0142  0.3163
20463SOL    HW167735   3.138   1.541   2.536 -1.1691 -2.2202 -0.3027
20463SOL    HW267736   3.104   1.430   2.633  1.5041 -0.8197  2.3975
20464SOL     OW67737   8.126   5.918   9.244  0.3763  0.4927  0.1119
20464SOL    HW167738   8.088   5.832   9.231 -0.8011  1.1597 -1.0823
20464SOL    HW267739   8.106   5.966   9.163  1.2259  1.7961  0.6427
20465SOL     OW67740   2.241   2.591   3.368 -0.2346  0.6531 -0.3030
20465SOL    HW167741   2.295   2.646   3.312  0.7973 -0.3495 -0.3313
20465SOL    HW267742   2.263   2.502   3.342 -2.8426  0.1816 -1.2106
20466SOL     OW67743   2.763   6.762   8.916 -0.0643 -0.1258 -0.3715
20466SOL    HW167744   2.697   6.831   8.916 -1.3224 -1.2782 -0.6535
20466SOL    HW267745   2.718   6.687   8.956  1.1912 -0.8347 -0.2633
20467SOL     OW67746   1.925   1.725   5.771 -0.6391  0.0770  0.1860
20467SOL    HW167747   1.972   1.642   5.781  1.8809  1.5026  1.2147
20467SOL    HW267748   1.857   1.722   5.839  0.9307 -0.2325  1.8248
20468SOL     OW67749   0.257   6.392   0.381 -0.2151  0.3645  0.0423
20468SOL    HW167750   0.178   6.397   0.327 -0.0563  0.6053 -0.1729
20468SOL    HW267751   0.273   6.483   0.408 -0.6401  0.1648  1.0040
20469SOL     OW67752   8.675   8.885   8.884  0.1926  0.0019 -0.0025
20469SOL    HW167753   8.591   8.900   8.840  0.4090 -0.3278 -0.5363
20469SOL    HW267754   8.739   8.882   8.813  0.8043  1.2379  0.4739
20470SOL     OW67755   1.613   3.571   0.825 -0.3942  0.4702 -1.0292
20470SOL    HW167756   1.702   3.557   0.856 -1.2739 -0.7288  1.1710
20470SOL    HW267757   1.579   3.482   0.811 -1.6451  0.8527 -0.5394
20471SOL     OW67758   4.834   8.793   8.398 -0.2636 -0.2325 -0.0991
20471SOL    HW167759   4.923   8.776   8.366  0.0896  1.8529 -0.3499
20471SOL    HW267760   4.779   8.782   8.321  0.2137  1.6456 -0.7715
20472SOL     OW67761   6.005   2.603   1.896  0.2904 -0.0765 -0.0326
20472SOL    HW167762   5.934   2.658   1.863 -0.2992 -1.3482 -0.9729
20472SOL    HW267763   6.049   2.657   1.961  1.1549  2.3725 -2.4828
20473SOL     OW67764   8.677   1.669   0.223 -0.3478 -0.7073  0.1861
20473SOL    HW167765   8.647   1.664   0.313  0.6128  2.5520  0.8098
20473SOL    HW267766   8.597   1.672   0.170 -0.9262 -1.4606  1.0007
20474SOL     OW67767   4.001   1.654   0.299  0.8019 -0.1316  0.1571
20474SOL    HW167768   3.991   1.679   0.391  0.4449 -2.3329  0.7589
20474SOL    HW267769   3.912   1.638   0.268  1.0278 -0.9454 -0.0963
20475SOL     OW67770   1.313   1.953   5.932 -0.0047  0.3097 -0.1982
20475SOL    HW167771   1.369   1.939   6.008 -1.0820 -1.3184  0.3365
20475SOL    HW267772   1.271   2.038   5.950  0.8830  0.6729  0.2623
20476SOL     OW67773   2.494   9.013   5.926 -0.0800 -0.1963 -0.0635
20476SOL    HW167774   2.441   9.050   5.855 -0.5930 -0.0869  0.3624
20476SOL    HW267775   2.527   9.089   5.973  1.5716 -0.2320 -1.0993
20477SOL     OW67776   5.527   8.237   0.778 -0.1374  0.1645 -0.1868
20477SOL    HW167777   5.470   8.264   0.706 -0.9939 -0.2987  0.3019
20477SOL    HW267778   5.549   8.146   0.758 -1.6978 -0.4951  0.9344
20478SOL     OW67779   3.686   3.222   8.948 -0.5932  0.3198  0.1553
20478SOL    HW167780   3.712   3.312   8.969 -1.2265  0.4161  0.5606
20478SOL    HW267781   3.606   3.208   8.999  0.2559 -0.9436  1.1873
20479SOL     OW67782   3.535   6.952   6.826 -0.0531  0.1347  0.2631
20479SOL    HW167783   3.595   6.993   6.889  0.8031 -4.2387  2.7592
20479SOL    HW267784   3.448   6.977   6.855  0.4125 -0.0282  1.8841
20480SOL     OW67785   8.215   0.292   3.514  0.0205 -0.0605  0.5479
20480SOL    HW167786   8.200   0.322   3.604  2.5034  0.2405  0.9231
20480SOL    HW267787   8.181   0.363   3.459 -0.1085  0.4734  1.2974
20481SOL     OW67788   8.204   2.563   0.217 -0.2516  0.2325  0.7416
20481SOL    HW167789   8.168   2.568   0.128 -2.2122 -1.7301  1.3387
20481SOL    HW267790   8.263   2.488   0.214  0.5536  0.8504  0.8436
20482SOL     OW67791   5.479   2.465   0.027  0.1578 -0.1471 -0.4488
20482SOL    HW167792   5.481   2.436   0.118 -1.5395  0.8719 -0.0329
20482SOL    HW267793   5.551   2.418  -0.015  0.9648 -0.6549  1.4027
20483SOL     OW67794   9.118   6.454   6.282 -0.4748 -0.1094 -0.4704
20483SOL    HW167795   9.190   6.477   6.341 -1.5087  2.0119  0.0380
20483SOL    HW267796   9.053   6.523   6.295 -2.3788 -1.6540 -1.3331
20484SOL     OW67797   8.679   7.835   5.163 -0.4041  0.0397  0.3465
20484SOL    HW167798   8.742   7.823   5.234  0.4005  0.9113 -0.1912
20484SOL    HW267799   8.675   7.750   5.120  2.9181  0.6604 -1.5910
20485SOL     OW67800   3.640   8.169   6.431 -0.4605  0.5883  0.1513
20485SOL    HW167801   3.619   8.246   6.483  0.6269 -0.7043  2.6706
20485SOL    HW267802   3.569   8.163   6.367 -2.7457  1.4837  2.4274
20486SOL     OW67803   5.939   2.226   1.140 -0.2656  0.2790 -0.2149
20486SOL    HW167804   5.846   2.247   1.140 -0.5834 -0.8590 -2.0732
20486SOL    HW267805   5.955   2.190   1.053  1.4637 -1.4689  0.7413
20487SOL     OW67806   5.606   0.933   7.330  0.4659  0.4272  0.1658
20487SOL    HW167807   5.518   0.920   7.366  0.7082  0.5927  0.8309
20487SOL    HW267808   5.653   0.853   7.354  0.7830  0.7695  0.6966
20488SOL     OW67809   7.143   4.574   1.040 -0.4633 -0.4563 -0.2220
20488SOL    HW167810   7.098   4.602   0.960 -1.3509  0.9242  0.7151
20488SOL    HW267811   7.194   4.497   1.013  2.3895  2.1451 -3.1027
20489SOL     OW67812   2.540   6.421   4.123 -0.6393  0.0821 -0.5712
20489SOL    HW167813   2.465   6.477   4.145 -1.6119  0.6390 -4.5317
20489SOL    HW267814   2.503   6.354   4.066  1.0841 -2.8699  1.5163
20490SOL     OW67815   0.713   8.033   3.427 -0.4149 -0.7368  0.1209
20490SOL    HW167816   0.711   8.075   3.342 -0.8223  1.1099  1.0021
20490SOL    HW267817   0.776   7.961   3.417  1.2994  0.8571 -1.0804
20491SOL     OW67818   4.937   8.827   3.325  0.0850  0.1735 -0.9549
20491SOL    HW167819   4.868   8.892   3.315 -0.9409 -0.8087 -0.4866
20491SOL    HW267820   4.895   8.744   3.303  1.4195 -0.3223 -1.7195
20492SOL     OW67821   8.719   3.362   5.312  0.6518  0.0714  0.8806
20492SOL    HW167822   8.640   3.363   5.258  0.3537  1.5887  1.2955
20492SOL    HW267823   8.744   3.270   5.317  0.0295 -0.2288 -0.8782
20493SOL     OW67824   2.626   1.843   9.041 -0.4196 -0.3807  0.2620
20493SOL    HW167825   2.577   1.833   8.959 -1.7643 -0.9799  1.1057
20493SOL    HW267826   2.715   1.815   9.019 -0.6598 -0.1893 -1.0695
20494SOL     OW67827   6.575   2.873   7.602  0.1572 -0.5183 -0.1402
20494SOL    HW167828   6.636   2.832   7.540  0.3354  0.8048 -0.8827
20494SOL    HW267829   6.544   2.951   7.557  0.0032  0.2855  1.3033
20495SOL     OW67830   5.416   3.608   4.917 -0.6330 -0.1936 -0.3277
20495SOL    HW167831   5.402   3.546   4.845  0.8279 -1.9418  0.7934
20495SOL    HW267832   5.498   3.580   4.957 -1.2318  0.8977  1.8361
20496SOL     OW67833   8.670   8.404   7.693 -0.0419 -0.2404  0.4257
20496SOL    HW167834   8.681   8.341   7.764  0.8937 -0.1029  0.4141
20496SOL    HW267835   8.638   8.352   7.619  0.4367 -0.6554  0.5049
20497SOL     OW67836   7.448   3.659   5.638  0.5668 -0.0922  0.7238
20497SOL    HW167837   7.451   3.703   5.723  0.5786  2.5219 -0.5098
20497SOL    HW267838   7.540   3.652   5.612  0.5552 -0.7411  0.8573
20498SOL     OW67839   6.240   8.609   6.024 -0.1328 -0.1403  0.6517
20498SOL    HW167840   6.244   8.694   5.980 -0.8329 -0.4640 -0.0638
20498SOL    HW267841   6.268   8.627   6.113  0.9094  0.6115  0.1939
20499SOL     OW67842   0.005   8.044   4.515  0.3353 -0.2380  0.2075
20499SOL    HW167843   0.100   8.055   4.516  0.1305  2.0881  1.1897
20499SOL    HW267844  -0.028   8.113   4.572 -1.9141 -1.8060  0.9512
20500SOL     OW67845   2.279   7.070   2.340 -0.2342  0.6464 -0.0517
20500SOL    HW167846   2.351   7.078   2.276  0.2026  0.8478  0.4608
20500SOL    HW267847   2.245   6.982   2.325 -1.4623  1.3674 -1.9350
20501SOL     OW67848   2.271   8.521   2.052 -0.2060  0.2635  0.0800
20501SOL    HW167849   2.239   8.585   2.115  0.3041  0.3361  0.2742
20501SOL    HW267850   2.315   8.574   1.985 -1.2926  0.2324 -0.6737
20502SOL     OW67851   6.064   2.823   6.701  0.0332 -0.2772 -0.6107
20502SOL    HW167852   6.143   2.770   6.689 -0.7916 -1.2976 -1.7478
20502SOL    HW267853   5.991   2.763   6.682 -1.0783  0.3798  1.3314
20503SOL     OW67854   2.447   8.801   0.459 -0.6198  0.1891  0.2192
20503SOL    HW167855   2.503   8.864   0.504 -0.4644  1.3705 -1.5160
20503SOL    HW267856   2.506   8.729   0.437  0.3031  1.3953 -1.5437
20504SOL     OW67857   3.324   5.886   6.603  0.0849 -0.0460 -0.1620
20504SOL    HW167858   3.321   5.976   6.570 -0.9036 -0.3530 -0.9827
20504SOL    HW267859   3.383   5.889   6.678 -0.1162  1.3319 -0.0408
20505SOL     OW67860   6.153   6.326   9.039 -0.1539  0.2898  0.6488
20505SOL    HW167861   6.226   6.268   9.018 -0.5025  0.3051 -0.6809
20505SOL    HW267862   6.115   6.289   9.119 -0.4408 -1.4006 -0.2338
20506SOL     OW67863   8.715   4.342   3.918 -0.1740  0.7159  0.4247
20506SOL    HW167864   8.769   4.380   3.988 -1.1764  0.2483  1.5025
20506SOL    HW267865   8.681   4.261   3.957 -0.2595  0.1198 -0.8495
20507SOL     OW67866   5.006   1.076   9.059 -0.4849  0.0768 -0.1423
20507SOL    HW167867   5.053   1.070   9.142  0.0699  0.3651 -0.4309
20507SOL    HW267868   4.986   0.986   9.036 -2.0798  0.0776  1.1074
20508SOL     OW67869   8.482   1.762   5.065 -0.0682 -0.2380  0.4677
20508SOL    HW167870   8.412   1.703   5.037  0.3512 -1.0336  1.0478
20508SOL    HW267871   8.487   1.749   5.160  0.8867 -0.2089  0.4266
20509SOL     OW67872   7.834   6.223   5.240  0.2464 -0.1229 -0.4492
20509SOL    HW167873   7.754   6.201   5.193  0.6365  0.2523 -1.2980
20509SOL    HW267874   7.804   6.268   5.319 -0.3920 -0.2849 -0.5987
20510SOL     OW67875   4.336   7.511   8.512 -0.1003  0.2899  0.1480
20510SOL    HW167876   4.291   7.528   8.429  0.7815 -1.7865 -0.8055
20510SOL    HW267877   4.272   7.463   8.564  0.4159 -1.3412 -0.6436
20511SOL     OW67878   4.991   6.196   7.708 -0.4573 -0.0392  0.5791
20511SOL    HW167879   4.900   6.177   7.685  0.0178 -0.1566 -1.3624
20511SOL    HW267880   5.003   6.287   7.680  0.1142 -0.1343  0.5205
20512SOL     OW67881   4.665   0.719   1.960 -0.1189 -0.5729  0.0021
20512SOL    HW167882   4.665   0.705   2.054  0.3102 -0.2631  0.0493
20512SOL    HW267883   4.649   0.813   1.949  1.5231 -0.2897 -0.1737
20513SOL     OW67884   7.634   9.232   9.178 -0.1285  0.2521 -0.2486
20513SOL    HW167885   7.667   9.143   9.192  0.3032  0.8052  2.8334
20513SOL    HW267886   7.571   9.223   9.106 -1.9960 -3.0530  1.5552
20514SOL     OW67887   8.422   1.725   9.097  0.5560  0.1269 -0.2170
20514SOL    HW167888   8.420   1.630   9.092  0.0978  0.1342 -0.1901
20514SOL    HW267889   8.383   1.746   9.181 -1.0518  0.4009 -0.9907
20515SOL     OW67890   6.708   2.137   4.835  0.3615 -0.6737  0.3429
20515SOL    HW167891   6.650   2.198   4.880  2.3027 -0.7930  3.2457
20515SOL    HW267892   6.649   2.076   4.791 -1.6392  1.0079  0.5593
20516SOL     OW67893   7.032   5.200   3.421  0.2617  0.4551  0.1192
20516SOL    HW167894   7.067   5.123   3.376 -0.5896  0.4973 -0.6315
20516SOL    HW267895   6.952   5.222   3.373  0.0484  1.3055  0.8417
20517SOL     OW67896   3.268   7.597   2.896  0.3222 -0.1351  0.0605
20517SOL    HW167897   3.312   7.644   2.825  2.3949 -0.9101  0.7673
20517SOL    HW267898   3.176   7.593   2.869  0.5633  1.9268 -1.2799
20518SOL     OW67899   2.149   1.787   6.803  0.6847 -0.1273  0.2712
20518SOL    HW167900   2.108   1.729   6.739 -0.0406  0.9718 -0.3071
20518SOL    HW267901   2.100   1.869   6.795  0.2216 -0.1025  2.6011
20519SOL     OW67902   7.455   8.533   4.650  0.1935  0.4124  0.2556
20519SOL    HW167903   7.367   8.520   4.615 -0.3844  1.3173  1.3017
20519SOL    HW267904   7.503   8.453   4.625 -0.4425  0.5888 -1.6890
20520SOL     OW67905   8.915   8.142   0.955 -0.0169  0.0899  0.3389
20520SOL    HW167906   8.909   8.071   0.892  0.2680  1.0861 -0.8476
20520SOL    HW267907   8.939   8.099   1.037 -0.5254 -1.2483 -0.1867
20521SOL     OW67908   8.317   6.510   9.193 -0.0308  0.1002 -0.7341
20521SOL    HW167909   8.327   6.517   9.098  1.4523  1.5297 -0.5208
20521SOL    HW267910   8.282   6.422   9.207  1.6591 -0.9388 -2.4856
20522SOL     OW67911   4.383   2.891   1.062  0.7961 -0.5076 -0.1176
20522SOL    HW167912   4.346   2.932   0.983 -0.1593 -1.4743 -0.1918
20522SOL    HW267913   4.325   2.817   1.080  0.1792  0.4606  2.2581
20523SOL     OW67914   6.076   6.663   0.443 -0.3003  0.4872 -0.4222
20523SOL    HW167915   6.076   6.653   0.539 -2.6132  0.1482 -0.3883
20523SOL    HW267916   6.144   6.604   0.413  2.3024  2.4717  1.0908
20524SOL     OW67917   5.648   4.016   2.015 -0.7289 -0.2242 -1.0965
20524SOL    HW167918   5.662   3.921   2.022 -0.0544 -0.0753 -0.2160
20524SOL    HW267919   5.557   4.025   1.986 -1.1293 -1.1362 -0.2066
20525SOL     OW67920   5.457   8.379   1.162 -1.0422  0.1649  0.3660
20525SOL    HW167921   5.551   8.367   1.175 -1.4092 -1.4076  1.9626
20525SOL    HW267922   5.451   8.437   1.086  1.1971 -0.3037 -0.2667
20526SOL     OW67923   0.351   5.090   0.942  0.0955 -0.6611  0.1998
20526SOL    HW167924   0.351   5.012   0.999  1.2151 -0.0290  1.1191
20526SOL    HW267925   0.399   5.156   0.993  0.3649  0.2030 -1.1329
20527SOL     OW67926   1.722   2.862   9.090  0.1232  0.4169  0.1365
20527SOL    HW167927   1.757   2.907   9.013 -0.3302  0.5591  0.0141
20527SOL    HW267928   1.664   2.794   9.055  0.1028  0.3229  0.3477
20528SOL     OW67929   6.461   1.090   1.232  0.3135  0.0403  0.5011
20528SOL    HW167930   6.443   1.127   1.318 -0.5686  1.6007 -0.3315
20528SOL    HW267931   6.383   1.040   1.210 -0.5382  1.6952 -0.4255
20529SOL     OW67932   0.511   4.165   3.202  0.1180  0.3600 -0.1257
20529SOL    HW167933   0.513   4.083   3.251 -0.7964  1.0186  1.0722
20529SOL    HW267934   0.595   4.208   3.222  0.6463 -0.3019 -0.8454
20530SOL     OW67935   3.204   4.820   9.048  0.4761  0.0960  0.0264
20530SOL    HW167936   3.181   4.841   9.139  0.3811 -0.2013  0.0731
20530SOL    HW267937   3.296   4.844   9.040 -0.0684  2.1892 -0.4333
20531SOL     OW67938   2.587   8.699   4.799 -0.2473 -0.0773  0.7991
20531SOL    HW167939   2.608   8.791   4.812 -0.4465 -0.1550  1.7572
20531SOL    HW267940   2.656   8.666   4.741 -1.4050  1.1750 -1.4576
20532SOL     OW67941   8.333   8.354   7.076  0.1303 -0.7024 -0.3555
20532SOL    HW167942   8.352   8.418   7.007 -1.7574  0.4544  0.1231
20532SOL    HW267943   8.261   8.302   7.041 -0.6886 -0.2614  0.6069
20533SOL     OW67944   1.104   1.774   2.790 -0.1018 -0.0923 -0.5595
20533SOL    HW167945   1.056   1.857   2.794 -1.4121 -0.8612  0.5491
20533SOL    HW267946   1.053   1.721   2.728 -0.4934 -0.7797  0.3311
20534SOL     OW67947   9.027   0.720   6.351 -0.6355  0.4085 -0.2594
20534SOL    HW167948   9.060   0.805   6.381 -1.3588 -0.2905  2.8777
20534SOL    HW267949   8.933   0.732   6.343 -0.6648  0.0739 -0.4251
20535SOL     OW67950   2.904   4.304   3.672  0.5396  0.0376 -0.4032
20535SOL    HW167951   2.820   4.312   3.717  0.8233 -0.4362  0.2280
20535SOL    HW267952   2.921   4.391   3.637  0.7429  0.6758  1.2076
20536SOL     OW67953   3.731   1.243   5.590 -0.2447  0.2330  0.4322
20536SOL    HW167954   3.729   1.281   5.677  1.9549 -1.2186  1.1902
20536SOL    HW267955   3.739   1.148   5.604  1.6893  0.0607 -1.2697
20537SOL     OW67956   3.209   3.459   3.083 -0.4880 -0.5067  0.5216
20537SOL    HW167957   3.256   3.500   3.011  0.1409  0.6617  1.5588
20537SOL    HW267958   3.123   3.437   3.046  0.1254 -0.7895 -0.8147
20538SOL     OW67959   4.976   1.025   6.320 -0.2116 -0.0365 -0.1784
20538SOL    HW167960   5.050   1.084   6.308  1.4207 -1.8805  0.3620
20538SOL    HW267961   4.942   1.011   6.232  1.0451 -0.3047 -0.6490
20539SOL     OW67962   3.188   3.240   7.304 -0.4002 -0.1351 -0.0611
20539SOL    HW167963   3.145   3.165   7.263 -1.7578  0.8485 -0.5097
20539SOL    HW267964   3.219   3.206   7.389 -1.2045 -1.1321 -0.1398
20540SOL     OW67965   7.908   2.603   2.707  0.3090 -0.4541  0.3664
20540SOL    HW167966   7.826   2.561   2.732  0.0168  0.0527  0.2706
20540SOL    HW267967   7.960   2.605   2.787 -0.3625  0.5739  0.7989
20541SOL     OW67968   3.880   1.785   8.217 -0.5122  0.0249 -0.2899
20541SOL    HW167969   3.970   1.783   8.250 -0.1876  2.1879 -0.9200
20541SOL    HW267970   3.833   1.723   8.273  1.3272 -1.0699  0.1258
20542SOL     OW67971   7.380   1.120   4.184 -0.3541 -0.1878  0.0268
20542SOL    HW167972   7.354   1.199   4.231  2.4391  1.0850 -0.3606
20542SOL    HW267973   7.370   1.049   4.247  1.6955  1.2241  2.0854
20543SOL     OW67974   3.923   6.927   4.070  0.6559 -0.6783  0.1757
20543SOL    HW167975   3.854   6.880   4.117 -1.0168  1.7262  0.3084
20543SOL    HW267976   3.982   6.956   4.139  0.3180 -0.4454  0.3718
20544SOL     OW67977   4.643   1.056   3.618 -0.3822  0.2195 -0.7444
20544SOL    HW167978   4.650   0.964   3.640  0.8181  0.5859  0.5498
20544SOL    HW267979   4.643   1.058   3.522  2.2864 -1.0052 -0.8747
20545SOL     OW67980   9.092   8.168   8.015 -0.2880  1.1016 -0.6317
20545SOL    HW167981   9.007   8.127   8.001 -1.1852  2.7369 -0.1921
20545SOL    HW267982   9.075   8.241   8.074  1.6446  0.7170  0.4935
20546SOL     OW67983   2.543   8.585   5.620 -0.3203  0.2937  0.3827
20546SOL    HW167984   2.469   8.636   5.586 -1.1980 -0.9751  0.3237
20546SOL    HW267985   2.515   8.494   5.613  1.8126 -0.3390 -0.9972
20547SOL     OW67986   4.386   4.178   5.595 -0.1417  0.1461  0.1514
20547SOL    HW167987   4.438   4.258   5.605  0.1902 -0.1573  1.0236
20547SOL    HW267988   4.332   4.194   5.518  2.4147 -0.1807 -1.8427
20548SOL     OW67989   4.578   8.673   8.771 -0.0491  0.3742  0.3845
20548SOL    HW167990   4.666   8.677   8.810  0.4744 -2.3207 -0.2581
20548SOL    HW267991   4.530   8.614   8.829 -1.0632  0.8527  0.0405
20549SOL     OW67992   4.307   5.323   7.480 -0.3857  0.0216 -0.4019
20549SOL    HW167993   4.221   5.359   7.461  1.0373  2.7350 -2.3305
20549SOL    HW267994   4.348   5.386   7.539  1.0686  0.0254 -1.3389
20550SOL     OW67995   2.886   3.417   4.867  0.5373 -0.0208  0.0323
20550SOL    HW167996   2.915   3.492   4.919  1.1571 -1.3765  1.7592
20550SOL    HW267997   2.941   3.418   4.789  1.1548  0.8141  0.4611
20551SOL     OW67998   0.139   6.271   1.360 -0.0129 -0.0815  0.2945
20551SOL    HW167999   0.110   6.213   1.430 -1.6189 -1.2002 -1.2102
20551SOL    HW268000   0.231   6.247   1.344  0.3918  0.2403  2.0072
20552SOL     OW68001   8.166   5.224   7.411 -0.4004  0.0649  0.5099
20552SOL    HW168002   8.199   5.310   7.438 -0.2826 -0.1363  1.0044
20552SOL    HW268003   8.108   5.244   7.337  0.2436  0.4889  0.1050
20553SOL     OW68004   7.389   8.808   4.929  0.2786  0.4327  0.1456
20553SOL    HW168005   7.446   8.732   4.920  0.5806  0.8664 -2.6439
20553SOL    HW268006   7.449   8.883   4.931 -0.0807  0.7835 -1.0806
20554SOL     OW68007   2.249   5.689   5.986 -0.1520 -0.0355 -0.2709
20554SOL    HW168008   2.326   5.634   5.996  0.8046  1.2401 -0.3219
20554SOL    HW268009   2.209   5.661   5.904  0.0105 -0.9823 -0.0340
20555SOL     OW68010   0.493   7.041   3.456 -0.4062  0.5175 -0.5223
20555SOL    HW168011   0.500   7.118   3.400  1.5836  0.4345 -0.4768
20555SOL    HW268012   0.422   6.990   3.419  0.1130  1.0114 -2.2860
20556SOL     OW68013   6.369   0.462   2.326 -0.0833 -0.0334  0.4507
20556SOL    HW168014   6.288   0.412   2.333  0.3909 -0.7052  1.4609
20556SOL    HW268015   6.356   0.520   2.251 -2.5383  1.8017  2.1217
20557SOL     OW68016   7.112   4.836   4.611  0.1144 -0.0333  0.6638
20557SOL    HW168017   7.056   4.905   4.647  0.2438  0.8272 -0.7042
20557SOL    HW268018   7.074   4.816   4.525  1.6207  0.2770 -0.1147
20558SOL     OW68019   6.186   2.152   9.145  0.0596  0.4037 -0.4817
20558SOL    HW168020   6.234   2.100   9.210 -1.3490 -0.6146 -0.2271
20558SOL    HW268021   6.148   2.224   9.194 -2.3325 -1.2326  0.1922
20559SOL     OW68022   7.664   7.945   0.601 -0.2999 -0.2755  0.6742
20559SOL    HW168023   7.655   7.850   0.604  0.3078 -0.3055  2.1653
20559SOL    HW268024   7.727   7.961   0.530 -0.2434 -0.9816  0.5580
20560SOL     OW68025   5.590   7.638   8.939 -0.0078 -0.1161 -0.2025
20560SOL    HW168026   5.552   7.571   8.995 -0.2135 -0.2035 -0.4467
20560SOL    HW268027   5.596   7.598   8.852 -1.5966  0.6915 -0.7203
20561SOL     OW68028   0.587   7.140   9.089  0.1685 -0.2867  0.7158
20561SOL    HW168029   0.676   7.133   9.055  0.1939 -0.2864  0.7824
20561SOL    HW268030   0.580   7.230   9.121 -0.2409  0.0857 -0.3709
20562SOL     OW68031   5.076   6.629   1.165 -0.6029  0.1261 -0.4342
20562SOL    HW168032   5.159   6.581   1.171 -1.1289 -1.0099 -1.7974
20562SOL    HW268033   5.051   6.623   1.073 -2.4803 -0.0321  0.0452
20563SOL     OW68034   5.233   1.555   0.810  0.4868 -0.4292  0.0910
20563SOL    HW168035   5.160   1.616   0.826  0.2497 -0.8291  0.5643
20563SOL    HW268036   5.253   1.566   0.717 -0.7441 -0.9347 -0.2563
20564SOL     OW68037   1.806   8.440   4.796 -0.0402 -0.1777  0.1016
20564SOL    HW168038   1.853   8.520   4.816 -0.1515 -0.1518  0.2610
20564SOL    HW268039   1.723   8.469   4.759 -1.0049 -0.1651  2.1554
20565SOL     OW68040   1.467   1.000   1.827  0.5655 -0.3727 -0.3349
20565SOL    HW168041   1.465   0.987   1.922  1.0694  0.5837 -0.1776
20565SOL    HW268042   1.560   1.004   1.806  0.5099  2.2293 -0.4235
20566SOL     OW68043   6.171   3.586   4.631 -0.0955  0.7445  0.0850
20566SOL    HW168044   6.091   3.545   4.665 -0.3428  0.6256 -0.6146
20566SOL    HW268045   6.169   3.566   4.537  0.6412  0.9389  0.0267
20567SOL     OW68046   6.312   7.933   0.242  0.3177 -0.0070 -0.2068
20567SOL    HW168047   6.361   8.010   0.271  0.0356  0.6242 -1.3648
20567SOL    HW268048   6.226   7.943   0.282  0.9808 -0.9610  1.5782
20568SOL     OW68049   2.940   6.410   2.428 -0.0835  0.3914 -0.6659
20568SOL    HW168050   3.020   6.463   2.430  0.1087  0.1504  1.8856
20568SOL    HW268051   2.870   6.473   2.448 -0.3060  0.2851 -1.1042
20569SOL     OW68052   4.186   1.552   1.550 -0.0267  0.7698  0.4284
20569SOL    HW168053   4.269   1.599   1.543  0.4521  0.1263  1.6386
20569SOL    HW268054   4.211   1.462   1.574 -1.1025  0.8431  1.9566
20570SOL     OW68055   6.265   0.254   6.554  0.5321 -0.1076  0.1949
20570SOL    HW168056   6.358   0.234   6.542  0.1429 -1.0647 -1.6612
20570SOL    HW268057   6.239   0.205   6.631  1.5377  0.0806  0.6625
20571SOL     OW68058   4.930   5.354   8.536  0.0371  0.9956  0.4742
20571SOL    HW168059   4.838   5.352   8.510  0.4634  3.3140 -1.5737
20571SOL    HW268060   4.970   5.279   8.490 -0.6818  0.3686  0.8542
20572SOL     OW68061   2.778   3.481   8.330  0.0598  0.2666  0.2630
20572SOL    HW168062   2.715   3.550   8.349  1.8831  1.6838  1.4580
20572SOL    HW268063   2.776   3.424   8.406 -1.0276 -0.7344 -0.4776
20573SOL     OW68064   4.164   0.384   2.002 -0.0942 -0.5330  0.3684
20573SOL    HW168065   4.239   0.372   1.943 -0.7606 -3.6295 -0.0172
20573SOL    HW268066   4.102   0.437   1.953  0.1469 -1.4628 -0.9773
20574SOL     OW68067   5.759   0.603   1.098 -0.4303 -0.4827  0.1297
20574SOL    HW168068   5.698   0.549   1.148  1.7022 -0.6606  2.8182
20574SOL    HW268069   5.758   0.688   1.142 -0.5479  0.3162 -1.3478
20575SOL     OW68070   2.460   6.848   1.021 -0.4182  0.2367  0.1052
20575SOL    HW168071   2.413   6.801   0.953 -0.7139  0.3913  0.2030
20575SOL    HW268072   2.405   6.923   1.041 -0.4957  0.0089  0.7536
20576SOL     OW68073   2.184   6.319   4.762 -0.0748  0.9999  0.5590
20576SOL    HW168074   2.182   6.352   4.672  1.9817 -0.0218  0.0865
20576SOL    HW268075   2.093   6.294   4.780 -0.5096  1.1096 -1.2742
20577SOL     OW68076   3.948   8.691   1.912 -0.3936 -0.3635  0.2412
20577SOL    HW168077   4.021   8.750   1.928  0.5045 -1.0290 -1.1928
20577SOL    HW268078   3.912   8.720   1.828 -0.5919 -1.1812  0.0316
20578SOL     OW68079   2.769   6.506   8.605  0.2842  0.0923 -0.4227
20578SOL    HW168080   2.839   6.555   8.563 -0.7084 -0.4806 -2.9125
20578SOL    HW268081   2.813   6.433   8.647  1.3033  0.4604 -0.8141
20579SOL     OW68082   3.921   8.367   0.315  0.2668 -0.0301  0.1231
20579SOL    HW168083   3.971   8.285   0.320 -0.4598 -0.4607  0.6209
20579SOL    HW268084   3.968   8.427   0.373  1.6972  0.4279 -1.4394
20580SOL     OW68085   5.085   3.437   0.220 -0.0215  0.2884 -0.3299
20580SOL    HW168086   5.033   3.362   0.250 -3.2291  1.6219 -2.0000
20580SOL    HW268087   5.052   3.511   0.271  1.1366  1.0164 -0.6088
20581SOL     OW68088   5.566   0.832   3.843 -0.2191  0.0280 -0.7174
20581SOL    HW168089   5.655   0.804   3.865 -0.1494  1.0510  0.4194
20581SOL    HW268090   5.576   0.884   3.764 -0.0277 -1.1137 -1.4602
20582SOL     OW68091   0.241   4.498   8.881  0.0567 -0.2495 -0.4890
20582SOL    HW168092   0.317   4.486   8.938 -0.2459 -1.2280 -0.2655
20582SOL    HW268093   0.224   4.592   8.882 -0.8090 -0.3459  2.2020
20583SOL     OW68094   6.743   1.710   7.856  0.3931  0.3049  0.2252
20583SOL    HW168095   6.706   1.673   7.936  1.0247  0.3372  0.5354
20583SOL    HW268096   6.720   1.647   7.787  0.6575 -0.1923  0.5901
20584SOL     OW68097   7.394   8.034   1.814  0.0112  0.0527  0.0204
20584SOL    HW168098   7.449   8.107   1.843 -1.8904  1.0534  1.3090
20584SOL    HW268099   7.305   8.060   1.837 -0.8795 -2.1350 -0.6625
20585SOL     OW68100   2.093   1.179   5.675  0.4833  0.0388 -0.1856
20585SOL    HW168101   2.165   1.177   5.738 -0.8412  1.0666  1.4385
20585SOL    HW268102   2.083   1.272   5.653 -0.4170 -0.0741 -0.2940
20586SOL     OW68103   1.309   3.971   7.374  0.0762  0.4102  0.9139
20586SOL    HW168104   1.250   3.923   7.316 -0.9680 -0.2138  2.4169
20586SOL    HW268105   1.347   3.904   7.430  2.1466  0.8340  0.0857
20587SOL     OW68106   8.992   6.607   0.821 -0.1945 -0.3503 -0.0376
20587SOL    HW168107   9.079   6.639   0.846 -1.2413 -0.2985  4.2601
20587SOL    HW268108   8.945   6.686   0.792  0.2434  0.2158  0.7476
20588SOL     OW68109   7.948   4.290   1.020 -0.3477  0.0600  0.5785
20588SOL    HW168110   7.964   4.352   0.949 -1.5348 -0.2988 -0.0227
20588SOL    HW268111   7.973   4.337   1.099  1.4010  0.3253 -0.0854
20589SOL     OW68112   7.293   5.612   0.181  0.2299 -0.0108  0.2957
20589SOL    HW168113   7.214   5.651   0.216  0.2531  1.3576 -1.0835
20589SOL    HW268114   7.288   5.520   0.208 -1.4125  0.2257  0.9079
20590SOL     OW68115   3.466   3.500   8.948 -0.2335  0.3183 -0.1189
20590SOL    HW168116   3.536   3.534   9.004  0.7331  1.0013 -1.6845
20590SOL    HW268117   3.405   3.573   8.939 -0.3386  0.2405 -0.0387
20591SOL     OW68118   1.033   6.553   0.255  0.2747  0.5632  0.2874
20591SOL    HW168119   1.048   6.512   0.170 -1.6862  0.7556 -0.2052
20591SOL    HW268120   1.020   6.480   0.315  2.8351  0.3927  0.7243
20592SOL     OW68121   8.533   5.158   1.067  0.4377  0.2750  0.1516
20592SOL    HW168122   8.511   5.123   1.153 -0.6564 -0.4693 -0.4068
20592SOL    HW268123   8.617   5.202   1.079 -0.2411  1.1764  1.8616
20593SOL     OW68124   2.895   8.183   3.675 -0.2433 -0.3756 -0.5031
20593SOL    HW168125   2.980   8.221   3.652 -0.2170 -0.5761 -0.7395
20593SOL    HW268126   2.840   8.198   3.597 -0.4322 -0.2196 -0.3402
20594SOL     OW68127   3.919   6.177   3.756  0.6537 -0.0001 -0.3005
20594SOL    HW168128   3.890   6.268   3.766 -0.7424 -0.4528  0.0104
20594SOL    HW268129   3.968   6.158   3.836 -1.0337 -0.1971  0.7479
20595SOL     OW68130   3.138   7.703   3.921  0.3085 -0.4441 -0.1981
20595SOL    HW168131   3.222   7.702   3.877  0.6410 -0.9555  0.4212
20595SOL    HW268132   3.156   7.669   4.009 -0.8149 -2.2675 -0.6001
20596SOL     OW68133   5.178   4.045   8.279  0.1775 -0.4095 -0.5764
20596SOL    HW168134   5.240   4.031   8.351  0.4434  0.1266 -0.6995
20596SOL    HW268135   5.104   3.987   8.300  0.2362 -0.2370  0.1520
20597SOL     OW68136   1.028   0.001   5.589  0.3757 -0.0890 -0.0442
20597SOL    HW168137   1.123  -0.014   5.594  0.0062 -2.5230  1.0618
20597SOL    HW268138   1.000   0.007   5.680 -0.3245  2.9194 -0.3367
20598SOL     OW68139   7.591   6.702   0.136 -0.5618  0.2096  0.2397
20598SOL    HW168140   7.623   6.624   0.091 -0.6436 -0.1990  0.8660
20598SOL    HW268141   7.508   6.723   0.093 -0.2373  0.3140 -0.3339
20599SOL     OW68142   5.458   1.272   3.896 -0.4824 -0.2796 -0.0377
20599SOL    HW168143   5.393   1.297   3.831  1.2601  2.4371 -0.8921
20599SOL    HW268144   5.527   1.229   3.846  0.4310  0.9761  0.1001
20600SOL     OW68145   9.080   5.912   8.071 -0.1567 -0.0016  0.4369
20600SOL    HW168146   9.120   5.915   8.158  2.5120 -0.6647 -0.6533
20600SOL    HW268147   9.038   5.998   8.061  0.5236  0.5434  1.9136
20601SOL     OW68148   5.015   8.317   1.188 -0.0417 -0.4154 -0.0470
20601SOL    HW168149   5.033   8.381   1.120  1.4068  0.3289  0.9914
20601SOL    HW268150   4.921   8.326   1.205 -0.1405  0.3641 -0.9536
20602SOL     OW68151   1.038   5.510   4.989  0.3371 -0.3569  0.3595
20602SOL    HW168152   1.115   5.512   4.932 -0.7666  0.3432 -1.1633
20602SOL    HW268153   1.073   5.523   5.077  1.8607  1.0951 -0.4142
20603SOL     OW68154   8.151   0.629   6.078  0.3808 -0.6238  0.0217
20603SOL    HW168155   8.092   0.704   6.071  0.7622 -0.4247 -1.3243
20603SOL    HW268156   8.233   0.667   6.110  0.8842 -0.2579 -1.6022
20604SOL     OW68157   0.565   7.645   8.594 -0.2596 -0.0737 -0.0241
20604SOL    HW168158   0.502   7.716   8.585 -0.6935 -0.5450 -0.7700
20604SOL    HW268159   0.603   7.658   8.681 -1.8861 -0.1833  0.7409
20605SOL     OW68160   7.984   1.063   8.345  0.5929  0.3105 -0.0812
20605SOL    HW168161   8.011   1.000   8.278  2.9567  1.5030 -0.3113
20605SOL    HW268162   8.012   1.024   8.428 -1.7839 -0.8694  0.2790
20606SOL     OW68163   3.634   2.962   2.482  0.3297 -0.1523 -0.0474
20606SOL    HW168164   3.728   2.948   2.476  0.0845 -2.9349  1.2932
20606SOL    HW268165   3.613   2.949   2.574 -1.4299  0.0092 -0.3875
20607SOL     OW68166   6.833   4.168   8.105  0.0266  0.3057  0.6277
20607SOL    HW168167   6.883   4.248   8.123  0.7943  0.0789 -0.4111
20607SOL    HW268168   6.795   4.182   8.018 -0.5857 -0.1008  0.8196
20608SOL     OW68169   0.545   7.640   0.436  0.3624  0.5924 -0.2071
20608SOL    HW168170   0.523   7.733   0.442 -2.1728  0.0800 -0.6855
20608SOL    HW268171   0.631   7.639   0.392  0.9904  2.7057  0.8282
20609SOL     OW68172   1.213   4.528   3.448 -0.0501 -0.3314  0.1353
20609SOL    HW168173   1.237   4.488   3.364  1.6103 -0.8609  0.8113
20609SOL    HW268174   1.196   4.454   3.506  0.4665 -0.0186  0.7008
20610SOL     OW68175   5.461   8.705   5.008 -0.4128 -0.6210 -0.7387
20610SOL    HW168176   5.418   8.635   4.958  0.4734 -1.4760 -0.3322
20610SOL    HW268177   5.426   8.786   4.970 -1.8313 -1.2731 -0.8978
20611SOL     OW68178   3.896   1.164   2.789  0.2586  0.4355  0.0395
20611SOL    HW168179   3.952   1.091   2.816 -0.1745 -0.7185 -2.0140
20611SOL    HW268180   3.873   1.207   2.871  0.7670 -1.5646  1.3141
20612SOL     OW68181   7.211   4.294   3.256  0.2235  0.0659 -0.4032
20612SOL    HW168182   7.302   4.302   3.285  0.4335  0.2232 -1.0973
20612SOL    HW268183   7.198   4.199   3.249  0.1788  0.0238  0.1568
20613SOL     OW68184   0.032   0.662   9.031 -0.4934  0.0334  0.2611
20613SOL    HW168185   0.076   0.607   9.096  2.1167  1.4295 -0.2080
20613SOL    HW268186   0.040   0.751   9.064 -1.6041  0.5189 -0.6656
20614SOL     OW68187   3.878   5.545   3.254  0.3377  0.6507 -0.5234
20614SOL    HW168188   3.938   5.615   3.230  1.3716  0.4434  1.2110
20614SOL    HW268189   3.913   5.467   3.211  1.6406  0.4475  0.8099
20615SOL     OW68190   2.212   7.925   1.988 -0.0399  0.1278 -0.1435
20615SOL    HW168191   2.264   7.845   1.978  0.5361  0.4561  0.1808
20615SOL    HW268192   2.121   7.896   1.976  0.1995 -0.4783 -0.5621
20616SOL     OW68193   0.705   4.349   5.088  0.7003  0.3222 -0.6801
20616SOL    HW168194   0.764   4.338   5.013  2.2172  0.7753  0.4062
20616SOL    HW268195   0.754   4.316   5.163 -1.3340 -1.4867 -0.0338
20617SOL     OW68196   0.041   5.334   5.135 -0.5786 -0.0613 -0.3262
20617SOL    HW168197  -0.009   5.256   5.159 -2.8112  1.5315  0.5260
20617SOL    HW268198  -0.021   5.407   5.145  1.3795  1.8390 -1.1494
20618SOL     OW68199   7.920   5.181   6.500 -0.1212  0.3263  0.7102
20618SOL    HW168200   7.846   5.200   6.557  0.1159  0.7609  0.8802
20618SOL    HW268201   7.948   5.093   6.526 -2.3293 -1.0667 -1.2812
20619SOL     OW68202   8.371   7.048   3.312 -0.4321 -0.5700  0.1610
20619SOL    HW168203   8.295   6.993   3.329  0.1006 -1.2860  0.2657
20619SOL    HW268204   8.433   6.990   3.267  0.4400 -0.2786  0.9510
20620SOL     OW68205   0.614   0.350   7.132  0.7164 -0.0142  0.5128
20620SOL    HW168206   0.590   0.259   7.151  0.0229  0.0636  0.0524
20620SOL    HW268207   0.538   0.401   7.160  0.6229  0.3106 -0.3010
20621SOL     OW68208   6.450   2.805   4.703 -0.3972  0.1312  0.1090
20621SOL    HW168209   6.386   2.803   4.632 -0.5705 -2.3705  0.2608
20621SOL    HW268210   6.405   2.767   4.778  0.8969 -0.6819  0.5138
20622SOL     OW68211   7.136   3.183   5.246  0.0038  0.6030  0.4193
20622SOL    HW168212   7.204   3.123   5.276  0.1418  0.7661  0.4295
20622SOL    HW268213   7.102   3.142   5.167 -1.0515 -0.3523  1.3235
20623SOL     OW68214   9.155   6.865   1.387  0.2692  0.1711  0.5553
20623SOL    HW168215   9.155   6.789   1.446 -0.3629  0.9313  1.5815
20623SOL    HW268216   9.067   6.902   1.398 -0.5883 -0.7414 -2.3345
20624SOL     OW68217   0.410   4.694   2.420  0.2137 -0.0890 -0.0378
20624SOL    HW168218   0.422   4.757   2.349  0.3812 -0.8377 -0.6899
20624SOL    HW268219   0.316   4.700   2.441 -0.3034 -1.2837 -1.7260
20625SOL     OW68220   6.238   0.283   7.050  0.0576  0.1140 -0.2557
20625SOL    HW168221   6.249   0.358   6.991 -0.2117  0.1528 -0.2584
20625SOL    HW268222   6.163   0.236   7.015  0.5618 -0.4665 -0.5792
20626SOL     OW68223   4.752   2.780   3.400 -0.2759 -0.1019  0.8640
20626SOL    HW168224   4.797   2.846   3.347 -0.7077  1.7145  2.6386
20626SOL    HW268225   4.821   2.744   3.456  0.1176 -1.7972 -0.6222
20627SOL     OW68226   3.377   4.063   1.282  0.3435  0.3306 -0.3842
20627SOL    HW168227   3.458   4.014   1.269  2.3746  3.3258 -0.0339
20627SOL    HW268228   3.348   4.086   1.194 -0.2951 -0.8646 -0.5178
20628SOL     OW68229   7.433   2.923   6.659 -0.3891  0.6263  0.3994
20628SOL    HW168230   7.468   2.883   6.579 -0.8384 -1.0905  1.0045
20628SOL    HW268231   7.491   2.893   6.728 -1.6076 -0.2817  1.0785
20629SOL     OW68232   3.811   6.763   5.293 -0.4234  0.0216 -0.1175
20629SOL    HW168233   3.881   6.707   5.261 -1.8327 -1.1468 -1.2991
20629SOL    HW268234   3.819   6.759   5.388  1.2023  0.0681 -0.2265
20630SOL     OW68235   8.804   1.186   2.210  0.0155  0.2609  0.0243
20630SOL    HW168236   8.865   1.221   2.275  0.9944  1.5383 -1.5207
20630SOL    HW268237   8.789   1.258   2.149 -1.2606 -0.7463 -0.9234
20631SOL     OW68238   0.254   8.951   1.499  0.1369 -0.0362  0.0007
20631SOL    HW168239   0.251   9.047   1.506 -0.5136  0.0441 -1.1512
20631SOL    HW268240   0.181   8.929   1.441  1.0465 -1.1286 -0.7659
20632SOL     OW68241   7.533   7.400   5.131 -0.1306 -0.1070  0.1270
20632SOL    HW168242   7.594   7.331   5.155  1.3351  1.0526 -0.1047
20632SOL    HW268243   7.449   7.373   5.168  0.8954 -0.9056  1.9498
20633SOL     OW68244   0.681   8.687   0.273  0.4438  0.0999  0.3978
20633SOL    HW168245   0.755   8.626   0.264  1.0012  0.4038  2.5664
20633SOL    HW268246   0.712   8.754   0.333 -1.8852 -0.2385  2.0836
20634SOL     OW68247   8.513   2.896   7.622  0.0115 -0.1858 -0.2116
20634SOL    HW168248   8.532   2.812   7.662  0.8479 -0.5160 -1.2322
20634SOL    HW268249   8.513   2.959   7.694  0.9289 -0.8360  0.3768
20635SOL     OW68250   0.233   8.449   3.868  0.6764 -0.5388 -0.3504
20635SOL    HW168251   0.210   8.442   3.960 -0.8258 -1.3382 -0.7507
20635SOL    HW268252   0.221   8.541   3.847  3.4403  0.1620  0.8014
20636SOL     OW68253   1.018   6.828   8.473  0.5463  0.2231 -0.7877
20636SOL    HW168254   1.080   6.902   8.480  0.6430  0.5247 -3.7044
20636SOL    HW268255   0.942   6.864   8.428 -1.5332 -0.3735  1.9661
20637SOL     OW68256   2.462   0.088   3.794  0.3417  0.2544  1.0255
20637SOL    HW168257   2.402   0.149   3.751  2.5043  1.2363 -0.8384
20637SOL    HW268258   2.500   0.139   3.866  0.0346  0.1303  1.2765
20638SOL     OW68259   9.177   5.365   6.160  0.0478  0.2231  0.4876
20638SOL    HW168260   9.127   5.284   6.148  1.7051 -0.9046  0.8910
20638SOL    HW268261   9.234   5.348   6.235  1.4398  1.2399 -0.2808
20639SOL     OW68262   2.915   4.389   7.014  0.1744 -0.0230 -0.0296
20639SOL    HW168263   2.860   4.312   6.998  0.9566 -0.8212  1.0067
20639SOL    HW268264   2.853   4.463   7.013 -1.1166 -0.9787  1.9851
20640SOL     OW68265   6.047   6.964   4.532 -0.2949  0.2521 -0.9149
20640SOL    HW168266   6.112   6.909   4.576 -0.5778 -0.9465 -1.9288
20640SOL    HW268267   5.968   6.955   4.586 -0.5572 -0.9780 -1.4697
20641SOL     OW68268   2.819   8.733   5.083 -0.3575  0.4648 -0.2278
20641SOL    HW168269   2.734   8.690   5.070  0.6120 -1.6479  0.0130
20641SOL    HW268270   2.806   8.791   5.158 -1.7871  0.8072 -0.7147
20642SOL     OW68271   7.116   5.002   1.426 -0.5195 -0.3491 -0.3662
20642SOL    HW168272   7.054   5.065   1.461  1.0059  1.1001 -0.1253
20642SOL    HW268273   7.119   5.021   1.332 -0.3158 -0.2926 -0.3487
20643SOL     OW68274   6.759   1.080   1.682  0.6059 -0.1104 -0.4326
20643SOL    HW168275   6.761   1.173   1.702  0.4655 -0.2116  0.0526
20643SOL    HW268276   6.800   1.073   1.596  0.6267  0.3970 -0.4637
20644SOL     OW68277   1.217   2.448   0.489  0.0524  0.3127 -0.7380
20644SOL    HW168278   1.219   2.368   0.437  0.5669 -0.7395  0.8264
20644SOL    HW268279   1.289   2.438   0.552 -1.3842  0.8636  1.0869
20645SOL     OW68280   7.910   4.993   0.146  0.1911 -0.2755  0.5073
20645SOL    HW168281   7.988   5.039   0.117  0.5157  1.2799  3.5624
20645SOL    HW268282   7.842   5.018   0.083  1.4453  0.7013 -0.4868
20646SOL     OW68283   8.345   1.086   6.837  0.2181  0.0642 -0.3853
20646SOL    HW168284   8.262   1.133   6.834  0.6572  0.8935  0.1061
20646SOL    HW268285   8.351   1.052   6.926 -1.1633 -2.9728 -1.3442
20647SOL     OW68286   3.676   8.164   0.288 -0.4415 -0.3756  0.1974
20647SOL    HW168287   3.654   8.156   0.195  0.3472 -0.0545 -0.0232
20647SOL    HW268288   3.772   8.165   0.290 -0.3853 -2.7931  1.2221
20648SOL     OW68289   5.313   1.129   5.968  0.0673  0.4912 -0.2100
20648SOL    HW168290   5.282   1.165   6.052 -0.0240  2.6307 -1.1025
20648SOL    HW268291   5.248   1.063   5.945 -0.1819  0.2264  1.1532
20649SOL     OW68292   0.796   8.888   1.095  0.0706  0.0889 -0.2270
20649SOL    HW168293   0.732   8.838   1.044  1.2619 -0.5718 -1.1310
20649SOL    HW268294   0.761   8.977   1.095 -0.6441 -0.1711 -1.0691
20650SOL     OW68295   8.989   7.718   7.680 -0.0237  0.6207  0.3122
20650SOL    HW168296   9.042   7.664   7.621  1.4726  1.8263  0.4867
20650SOL    HW268297   8.902   7.716   7.641  0.9290  1.4621 -2.0645
20651SOL     OW68298   8.482   8.645   7.332 -0.1339  0.5129  0.2135
20651SOL    HW168299   8.466   8.613   7.420  1.5315  1.2325  0.8223
20651SOL    HW268300   8.552   8.589   7.298  1.4252  2.1468  0.5636
20652SOL     OW68301   3.881   4.351   2.140 -0.6028 -0.1263 -0.1277
20652SOL    HW168302   3.825   4.367   2.216  1.6675 -0.5924  1.7400
20652SOL    HW268303   3.930   4.272   2.161  0.5118  0.0374 -1.8440
20653SOL     OW68304   5.431   6.020   6.906 -0.4515  0.4184 -0.0767
20653SOL    HW168305   5.366   5.953   6.928  0.5373  0.3996  3.4926
20653SOL    HW268306   5.390   6.103   6.931  0.5729  0.4602  1.6448
20654SOL     OW68307   2.564   6.006   8.489  0.2898  0.4519  0.8368
20654SOL    HW168308   2.637   5.948   8.510  0.3370  0.5667  0.9877
20654SOL    HW268309   2.520   6.020   8.573  0.6489  1.1500  0.9071
20655SOL     OW68310   3.691   2.216   3.190 -0.4227  0.5305 -0.1347
20655SOL    HW168311   3.629   2.195   3.120  0.7940 -0.3577 -0.9765
20655SOL    HW268312   3.740   2.136   3.204  0.5959  1.2292  0.4586
20656SOL     OW68313   1.660   1.058   2.180 -0.1906  0.2618  0.3038
20656SOL    HW168314   1.707   0.990   2.132  0.6200  0.9022  0.1744
20656SOL    HW268315   1.710   1.138   2.164 -0.0784  0.5535  1.9395
20657SOL     OW68316   1.842   1.849   3.616  0.1588  0.1475 -0.4498
20657SOL    HW168317   1.801   1.908   3.680  0.3780  0.7263 -0.8329
20657SOL    HW268318   1.915   1.809   3.663  0.4534  0.7362 -0.3991
20658SOL     OW68319   1.909   4.038   5.532 -0.1727 -0.4019  0.7777
20658SOL    HW168320   1.993   4.016   5.492 -0.0965 -1.0845  1.2877
20658SOL    HW268321   1.859   3.957   5.527 -2.9710  1.1919 -4.5280
20659SOL     OW68322   9.154   3.806   7.687 -0.5382 -0.5390 -0.5795
20659SOL    HW168323   9.240   3.793   7.727 -1.1534  0.2079  1.0792
20659SOL    HW268324   9.154   3.897   7.658 -0.8594 -0.4647 -0.3512
20660SOL     OW68325   4.052   2.101   2.610 -0.1529 -0.1125 -0.0783
20660SOL    HW168326   3.998   2.163   2.658 -1.9586 -1.5172 -0.1763
20660SOL    HW268327   4.015   2.102   2.521 -0.3306 -1.4051 -0.0370
20661SOL     OW68328   2.978   0.598   6.994 -0.7332 -0.3281 -0.6110
20661SOL    HW168329   2.891   0.636   7.002 -0.6401  1.1637 -4.4336
20661SOL    HW268330   2.965   0.505   7.011 -3.0526 -0.1373 -1.0013
20662SOL     OW68331   4.004   1.518   5.109  0.6497  0.0668 -0.0309
20662SOL    HW168332   3.979   1.601   5.069  2.3649  0.9047  0.5672
20662SOL    HW268333   4.091   1.534   5.146  0.7720 -1.8290  0.5965
20663SOL     OW68334   6.990   5.827   0.850  0.0934  0.0505 -0.3655
20663SOL    HW168335   6.921   5.763   0.833 -1.3227  1.1509  0.9826
20663SOL    HW268336   7.035   5.837   0.766  0.2737 -2.5724 -0.6548
20664SOL     OW68337   2.419   5.256   5.725 -0.1301 -0.0705 -0.3397
20664SOL    HW168338   2.417   5.217   5.813 -0.9233  1.1342  0.2065
20664SOL    HW268339   2.412   5.350   5.741 -0.4155  0.1547 -1.7023
20665SOL     OW68340   0.082   5.841   4.819  0.1703 -0.1551  0.0693
20665SOL    HW168341   0.042   5.917   4.862  1.2457  0.2898  0.3079
20665SOL    HW268342   0.154   5.878   4.768 -0.6320 -0.7603 -1.5520
20666SOL     OW68343   4.860   0.211   2.531 -0.2252  0.0424 -0.3640
20666SOL    HW168344   4.888   0.276   2.596  0.8583 -0.2157 -0.5575
20666SOL    HW268345   4.823   0.263   2.460 -0.8213  0.3604  0.1659
20667SOL     OW68346   8.231   3.308   7.218  0.1054 -0.4473  0.5854
20667SOL    HW168347   8.136   3.318   7.229 -0.1554 -1.4096 -0.6202
20667SOL    HW268348   8.263   3.397   7.202 -0.7024 -0.2092  0.2396
20668SOL     OW68349   2.905   1.501   2.954  0.8469 -0.1847  0.6342
20668SOL    HW168350   2.893   1.435   2.886 -1.0738 -0.2366  0.9555
20668SOL    HW268351   2.995   1.489   2.983  1.0369 -1.6060 -0.3922
20669SOL     OW68352   9.010   7.942   0.649 -0.0251 -0.1270  0.3018
20669SOL    HW168353   8.980   7.998   0.577 -0.3691 -0.9729 -0.2286
20669SOL    HW268354   9.106   7.946   0.644 -0.0453 -0.1853 -0.2192
20670SOL     OW68355   7.388   4.278   3.541 -1.3816 -0.3961 -0.2938
20670SOL    HW168356   7.320   4.251   3.602  0.3808 -0.5010  1.7314
20670SOL    HW268357   7.403   4.371   3.561 -0.5668 -0.5103 -0.3535
20671SOL     OW68358   2.086   8.199   3.854  0.1455 -0.0162  0.2233
20671SOL    HW168359   2.115   8.234   3.770  1.1549  0.6681  0.8413
20671SOL    HW268360   2.030   8.268   3.891  2.5082  1.2411  1.6500
20672SOL     OW68361   9.017   8.882   2.901  0.8076 -0.2660 -0.0240
20672SOL    HW168362   8.988   8.808   2.848  2.1371 -0.6564 -0.2524
20672SOL    HW268363   9.093   8.849   2.949 -0.6218 -0.1008  2.5635
20673SOL     OW68364   7.246   1.962   2.773  0.2360  0.4506 -0.2291
20673SOL    HW168365   7.245   1.936   2.682 -0.0923 -3.1235  0.6715
20673SOL    HW268366   7.338   1.978   2.793  0.7301 -1.9062 -0.4483
20674SOL     OW68367   3.346   6.941   8.900  0.4706  0.0515 -0.5447
20674SOL    HW168368   3.399   7.015   8.928  1.9986 -0.9198 -0.7495
20674SOL    HW268369   3.403   6.865   8.908  0.0843 -0.6870 -3.4580
20675SOL     OW68370   0.926   5.887   1.217 -0.5721 -0.3931  0.1398
20675SOL    HW168371   0.957   5.936   1.293 -0.9598  1.1008 -0.6358
20675SOL    HW268372   1.000   5.889   1.156 -1.1635  0.7507 -0.5809
20676SOL     OW68373   3.528   7.487   2.942  0.2107 -0.3866  0.1229
20676SOL    HW168374   3.449   7.533   2.972  0.7282 -0.5878  1.9522
20676SOL    HW268375   3.592   7.556   2.927  0.8467 -0.3707  2.4329
20677SOL     OW68376   7.823   5.900   1.185 -0.1206 -0.3843 -0.1102
20677SOL    HW168377   7.746   5.956   1.185  0.1963  0.2592 -2.9952
20677SOL    HW268378   7.889   5.949   1.234 -1.0424 -0.1858  0.9607
20678SOL     OW68379   6.076   7.970   3.088 -0.0916  0.4516 -0.0513
20678SOL    HW168380   6.150   7.946   3.032 -0.2322 -0.2953  0.0669
20678SOL    HW268381   6.048   8.056   3.056  0.6365  0.6051 -0.2886
20679SOL     OW68382   2.017   2.857   6.392 -0.2649  0.3841  0.0371
20679SOL    HW168383   2.022   2.857   6.297 -0.7603  1.1141  0.0077
20679SOL    HW268384   1.955   2.927   6.414 -1.2011 -0.6497  0.8347
20680SOL     OW68385   3.272   0.413   4.973 -0.4364 -0.1632 -0.0091
20680SOL    HW168386   3.254   0.321   4.991 -1.1326  0.0338  0.3248
20680SOL    HW268387   3.289   0.452   5.059  1.3849 -0.2811 -0.2757
20681SOL     OW68388   1.329   7.008   2.680  0.2308  0.4758 -0.4566
20681SOL    HW168389   1.410   7.036   2.637  0.3529  0.6462 -0.1162
20681SOL    HW268390   1.269   6.989   2.608  1.3100 -1.9985 -0.8298
20682SOL     OW68391   7.647   5.552   4.315  0.5294  0.0325  0.6454
20682SOL    HW168392   7.700   5.622   4.277  1.4271 -1.2109 -0.5193
20682SOL    HW268393   7.646   5.484   4.248 -2.7932  0.0530  0.5119
20683SOL     OW68394   3.195   3.541   7.534 -0.0865 -0.9040 -0.2666
20683SOL    HW168395   3.291   3.541   7.532 -0.0308  1.5428 -0.9512
20683SOL    HW268396   3.173   3.585   7.616 -0.5472  0.4160 -1.0664
20684SOL     OW68397   5.944   3.818   0.596 -0.0012 -0.2874  0.5310
20684SOL    HW168398   5.879   3.867   0.645 -0.4785  0.2294 -0.5946
20684SOL    HW268399   6.027   3.841   0.637 -0.3326  0.5925  0.7256
20685SOL     OW68400   2.923   6.098   7.883 -0.0844  0.8382 -0.0611
20685SOL    HW168401   2.851   6.132   7.938 -1.8188 -0.4431 -1.4145
20685SOL    HW268402   2.953   6.020   7.930 -0.2974  0.7923  0.0045
20686SOL     OW68403   7.468   4.414   3.945 -0.1102 -0.2505  0.1848
20686SOL    HW168404   7.374   4.436   3.948 -0.0392  0.0897 -0.0507
20686SOL    HW268405   7.472   4.336   3.889 -0.1681  0.1977 -0.4494
20687SOL     OW68406   0.761   2.599   3.738  0.3900  0.5346  0.0800
20687SOL    HW168407   0.777   2.567   3.649 -1.7679 -3.0702  0.7677
20687SOL    HW268408   0.835   2.568   3.789  0.5311  0.6704 -0.0388
20688SOL     OW68409   2.595   2.471   2.191  0.3777 -0.4469  0.2035
20688SOL    HW168410   2.616   2.497   2.101 -0.1696 -1.2417 -0.1706
20688SOL    HW268411   2.619   2.378   2.195 -0.0796 -0.5453  0.7185
20689SOL     OW68412   4.958   8.775   2.252 -0.7947  0.0989 -0.5870
20689SOL    HW168413   5.045   8.755   2.218 -0.3418  1.8305 -0.5022
20689SOL    HW268414   4.966   8.862   2.289 -2.6559  0.4205 -0.8609
20690SOL     OW68415   0.890   6.977   0.595 -0.1004 -0.2655 -0.5070
20690SOL    HW168416   0.949   7.024   0.654 -1.5350  0.6678  0.2367
20690SOL    HW268417   0.896   7.024   0.512  1.1449 -0.9610 -0.8356
20691SOL     OW68418   6.485   7.919   7.946  0.0148 -0.1391 -0.1873
20691SOL    HW168419   6.435   7.966   7.879 -0.3450  1.1019  0.9056
20691SOL    HW268420   6.461   7.962   8.028  0.2747 -1.7525  0.7798
20692SOL     OW68421   8.835   0.550   6.941  0.4264 -0.0343 -0.2654
20692SOL    HW168422   8.844   0.548   6.846  0.6925  0.1075 -0.2434
20692SOL    HW268423   8.807   0.639   6.961  0.1707 -0.1232 -0.2281
20693SOL     OW68424   6.131   9.193   2.377 -0.7804 -0.5242  0.1473
20693SOL    HW168425   6.099   9.217   2.290  0.9547  0.3282 -0.2902
20693SOL    HW268426   6.062   9.223   2.436 -1.4972 -0.1303 -0.8539
20694SOL     OW68427   4.427   0.780   0.792 -0.2034 -0.0317  0.5393
20694SOL    HW168428   4.495   0.739   0.844  0.2437  0.5052  0.3815
20694SOL    HW268429   4.423   0.727   0.712 -0.8253 -0.7982  1.0572
20695SOL     OW68430   4.160   3.435   5.449 -0.1342  0.0678  0.2197
20695SOL    HW168431   4.149   3.499   5.519  0.4685 -0.1301  0.5037
20695SOL    HW268432   4.136   3.481   5.369 -1.9995 -0.0333  0.6633
20696SOL     OW68433   1.435   6.159   1.988 -0.0408 -0.1725  0.0205
20696SOL    HW168434   1.346   6.175   2.019  0.4249  0.2022  1.2029
20696SOL    HW268435   1.490   6.219   2.038  0.9833 -1.0052 -0.0675
20697SOL     OW68436   6.493   8.913   1.271  0.2925  0.4642  0.2686
20697SOL    HW168437   6.421   8.974   1.254 -0.7414 -0.9606 -0.8054
20697SOL    HW268438   6.459   8.828   1.242  2.4571 -0.2565 -0.3222
20698SOL     OW68439   3.401   6.881   3.156 -0.2303 -0.4973  0.1981
20698SOL    HW168440   3.442   6.965   3.180 -0.7570 -0.4999  1.1442
20698SOL    HW268441   3.320   6.905   3.112  0.3393 -0.5083 -0.9157
20699SOL     OW68442   1.182   1.802   8.922  0.3310 -0.0187  0.2298
20699SOL    HW168443   1.277   1.789   8.931 -0.1002 -2.8499  1.6955
20699SOL    HW268444   1.170   1.824   8.829  2.3266 -0.3882 -0.1613
20700SOL     OW68445   1.889   3.427   2.365  0.3310 -1.2423 -0.5386
20700SOL    HW168446   1.794   3.416   2.353  0.3913 -1.4509 -0.8490
20700SOL    HW268447   1.899   3.516   2.397  0.1490 -0.6798 -1.9976
20701SOL     OW68448   9.011   7.810   3.079 -0.5151  0.2454 -0.3728
20701SOL    HW168449   8.939   7.749   3.066 -1.2947  1.2502 -0.8902
20701SOL    HW268450   9.056   7.813   2.994  0.3056 -0.5711  0.0189
20702SOL     OW68451   8.936   5.594   8.921 -0.6553  0.6443 -0.2392
20702SOL    HW168452   8.969   5.552   8.842 -1.0403  1.5264 -0.8779
20702SOL    HW268453   8.988   5.674   8.929  0.0122  0.1186  0.9184
20703SOL     OW68454   2.733   7.694   3.757  0.5263  0.1828 -0.2184
20703SOL    HW168455   2.701   7.733   3.838  1.3006  0.4562 -0.0378
20703SOL    HW268456   2.711   7.601   3.765  3.1995 -0.3948  1.6655
20704SOL     OW68457   3.151   5.257   0.889 -0.2576 -0.0567  0.0453
20704SOL    HW168458   3.191   5.236   0.804 -0.3360  0.2682 -0.0724
20704SOL    HW268459   3.131   5.350   0.884  1.7900  0.5169  1.2670
20705SOL     OW68460   3.403   3.030   6.268  0.0630  0.3893 -0.1540
20705SOL    HW168461   3.443   2.966   6.209 -0.1014 -0.4801  0.6584
20705SOL    HW268462   3.383   3.105   6.211  0.2117 -0.2902 -1.1384
20706SOL     OW68463   2.767   4.658   6.021 -0.2987 -0.6239  0.1941
20706SOL    HW168464   2.800   4.747   6.029  0.8991 -1.0436  0.1912
20706SOL    HW268465   2.697   4.652   6.086  1.2240 -0.3826  1.9547
20707SOL     OW68466   5.852   5.976   7.571 -0.3640 -0.0626 -0.1242
20707SOL    HW168467   5.860   5.884   7.598 -0.2695  0.7652  3.0094
20707SOL    HW268468   5.922   5.988   7.506  0.8242 -1.7567  0.7600
20708SOL     OW68469   0.224   7.037   5.620 -0.4135  0.4345 -0.0941
20708SOL    HW168470   0.224   7.047   5.715 -1.3331  0.6897 -0.1059
20708SOL    HW268471   0.256   7.121   5.587  2.5355 -0.5350  0.0085
20709SOL     OW68472   9.039   8.951   5.326 -0.1840 -0.3035  0.0519
20709SOL    HW168473   9.091   9.010   5.380 -0.5063 -0.7917  0.9258
20709SOL    HW268474   8.957   8.940   5.375 -0.6330 -0.4664 -0.7241
20710SOL     OW68475   0.014   8.589   5.226 -0.1569  0.1238  0.3099
20710SOL    HW168476   0.080   8.527   5.194 -0.2614 -1.0695  2.2600
20710SOL    HW268477   0.058   8.674   5.221  0.6324 -0.3155 -0.7346
20711SOL     OW68478   1.024   0.945   7.566 -0.4060  0.1196 -0.8829
20711SOL    HW168479   1.009   1.016   7.503 -1.0439  1.4208  0.6585
20711SOL    HW268480   1.013   0.987   7.652  1.4233 -1.3530  0.1352
20712SOL     OW68481   8.572   4.638   3.475 -1.1021  0.0007  0.3850
20712SOL    HW168482   8.627   4.636   3.553  1.5150  1.2388 -1.3062
20712SOL    HW268483   8.586   4.553   3.434 -0.6508  0.2152  0.0920
20713SOL     OW68484   5.100   8.548   8.397  0.3065  0.7717 -1.0187
20713SOL    HW168485   5.016   8.532   8.439  0.6687 -3.0030 -1.3675
20713SOL    HW268486   5.161   8.562   8.469 -0.0939  0.2648 -0.5782
20714SOL     OW68487   3.006   0.460   5.458 -0.1773 -0.2614 -0.5777
20714SOL    HW168488   2.924   0.417   5.483  0.0106 -0.4815 -0.3409
20714SOL    HW268489   2.989   0.494   5.371 -1.2001  1.4325  0.2373
20715SOL     OW68490   1.858   6.488   4.966 -0.1708  0.5218 -0.0276
20715SOL    HW168491   1.820   6.410   4.925  2.1820 -0.0692 -1.2341
20715SOL    HW268492   1.801   6.505   5.042 -3.9468  0.8867 -2.6694
20716SOL     OW68493   3.232   0.804   2.058  0.1137 -0.4626  0.1217
20716SOL    HW168494   3.323   0.783   2.081  0.7198  0.9161 -0.8609
20716SOL    HW268495   3.217   0.757   1.975  0.3994  0.3594 -0.4101
20717SOL     OW68496   8.012   7.785   8.958  0.4245 -0.1515  0.1031
20717SOL    HW168497   7.966   7.702   8.968  0.7685 -0.6722 -2.0644
20717SOL    HW268498   7.957   7.849   9.004 -0.9947 -1.2117 -0.0534
20718SOL     OW68499   1.237   7.628   7.460 -0.0925  0.1051 -0.0853
20718SOL    HW168500   1.243   7.565   7.389  0.5536  1.3281 -1.1600
20718SOL    HW268501   1.143   7.642   7.473 -0.2219 -0.6075 -0.2585
20719SOL     OW68502   3.202   6.093   7.948 -0.3835 -0.1745 -0.0477
20719SOL    HW168503   3.146   6.157   7.902  0.0243  1.0979  1.1544
20719SOL    HW268504   3.272   6.074   7.885 -0.1798  1.0435 -0.2129
20720SOL     OW68505   1.347   5.412   0.132  0.2742  0.2927 -0.3850
20720SOL    HW168506   1.320   5.371   0.214  0.9814 -0.0057 -0.2952
20720SOL    HW268507   1.285   5.379   0.067  0.4544 -0.4338 -0.1973
20721SOL     OW68508   2.559   1.869   3.487 -0.3900 -0.8376  0.1965
20721SOL    HW168509   2.477   1.912   3.463 -0.1470 -1.2874 -1.6168
20721SOL    HW268510   2.537   1.776   3.494  0.0303 -1.0341 -0.8318
20722SOL     OW68511   2.458   1.470   2.999 -0.3848 -0.4077  0.3272
20722SOL    HW168512   2.537   1.524   3.002 -0.6875  0.0187  1.8682
20722SOL    HW268513   2.491   1.380   3.000  0.0937 -0.2627 -0.7623
20723SOL     OW68514   8.031   7.744   6.849  0.4145  0.4123  0.2756
20723SOL    HW168515   8.069   7.669   6.894  0.4806 -0.2849 -0.8850
20723SOL    HW268516   8.101   7.775   6.791 -0.6227 -0.7554 -1.7340
20724SOL     OW68517   0.846   9.242   0.309  0.0177  0.5444 -0.2165
20724SOL    HW168518   0.906   9.262   0.237  2.0925 -0.1859  1.1935
20724SOL    HW268519   0.777   9.190   0.269  0.8490  0.5856 -1.7821
20725SOL     OW68520   0.836   7.481   8.160  0.1918  0.1846 -0.7389
20725SOL    HW168521   0.814   7.545   8.227 -1.8646 -1.2102  0.0110
20725SOL    HW268522   0.757   7.475   8.106 -0.5696 -3.1752  0.4898
20726SOL     OW68523   1.423   1.332   7.651 -0.1444 -0.0733  0.1067
20726SOL    HW168524   1.434   1.419   7.613  1.1775 -0.7475 -1.1687
20726SOL    HW268525   1.441   1.343   7.744  0.7988  0.8764 -0.1748
20727SOL     OW68526   5.027   8.814   5.412 -0.1794 -0.1067 -0.5558
20727SOL    HW168527   5.029   8.718   5.420 -0.5067 -0.1248 -0.6825
20727SOL    HW268528   5.029   8.845   5.502  0.1880 -0.2270 -0.5204
20728SOL     OW68529   2.637   6.287   5.905  0.4154 -0.4282  0.2014
20728SOL    HW168530   2.703   6.346   5.868  0.2206 -0.6024 -0.4428
20728SOL    HW268531   2.652   6.291   5.999  0.8394  0.1327  0.1197
20729SOL     OW68532   2.320   3.891   7.250  0.0882 -0.1860 -0.1109
20729SOL    HW168533   2.401   3.888   7.301  0.0603  0.9668  0.0358
20729SOL    HW268534   2.320   3.979   7.211 -0.3615 -0.7062 -1.3287
20730SOL     OW68535   9.233   0.363   7.086 -0.4536  0.1379 -0.6990
20730SOL    HW168536   9.147   0.376   7.125  0.2292  0.3956  0.8088
20730SOL    HW268537   9.288   0.332   7.158  0.9303  0.8290 -1.4095
20731SOL     OW68538   0.894   7.474   3.436 -0.3350 -0.0142 -0.0718
20731SOL    HW168539   0.983   7.494   3.408 -0.2685  0.0492  0.1735
20731SOL    HW268540   0.889   7.509   3.525 -1.0983  1.4033 -0.6337
20732SOL     OW68541   5.545   7.305   4.270 -0.0051  0.0311  0.5265
20732SOL    HW168542   5.553   7.400   4.272  0.4103  0.0261 -0.3538
20732SOL    HW268543   5.458   7.287   4.307 -0.2423  0.7764  0.3405
20733SOL     OW68544   2.558   2.970   4.275  0.0556  0.4663 -0.0737
20733SOL    HW168545   2.475   2.951   4.318 -0.0058  0.3876 -0.2239
20733SOL    HW268546   2.608   2.889   4.281 -0.1601  0.2853 -0.6109
20734SOL     OW68547   6.676   1.907   6.167 -0.3554  0.2979 -0.2471
20734SOL    HW168548   6.707   1.907   6.077 -0.2495 -1.1648 -0.2231
20734SOL    HW268549   6.640   1.995   6.179 -1.8576  0.0082 -2.2188
20735SOL     OW68550   0.737   1.197   2.054  0.2870  0.1169  0.1344
20735SOL    HW168551   0.672   1.237   1.996  0.0356 -0.4778 -0.0059
20735SOL    HW268552   0.786   1.138   1.997  0.5337  0.0863  0.3762
20736SOL     OW68553   3.074   3.391   4.030  0.3063  0.2837 -0.1426
20736SOL    HW168554   3.144   3.435   3.982 -1.3791  2.5163 -0.6559
20736SOL    HW268555   3.118   3.355   4.108  2.3387 -0.0664 -1.3779
20737SOL     OW68556   9.206   5.512   7.245  0.0203 -0.5035  0.3159
20737SOL    HW168557   9.145   5.556   7.186  0.2416  0.5450  0.8250
20737SOL    HW268558   9.165   5.429   7.266 -0.4445 -0.5254 -0.6533
20738SOL     OW68559   8.674   3.201   7.763  0.3604  0.3937  0.1224
20738SOL    HW168560   8.633   3.211   7.677  0.8233 -0.5846 -0.2325
20738SOL    HW268561   8.684   3.291   7.796 -3.0993  0.6709  0.7646
20739SOL     OW68562   0.605   4.220   2.157  0.0250 -0.0172  0.0667
20739SOL    HW168563   0.636   4.297   2.205  0.0572  0.2544 -0.3843
20739SOL    HW268564   0.683   4.189   2.110 -0.7990  2.0209 -2.9229
20740SOL     OW68565   8.384   6.729   4.108  0.4825 -0.2274  0.0741
20740SOL    HW168566   8.442   6.710   4.035 -0.5919 -2.4936 -0.2823
20740SOL    HW268567   8.337   6.808   4.083 -0.0481 -1.1051 -1.8417
20741SOL     OW68568   6.799   2.143   9.034 -0.0325 -0.3010  0.4789
20741SOL    HW168569   6.800   2.235   9.061 -0.7825 -0.5555  1.3956
20741SOL    HW268570   6.824   2.146   8.941  1.0072  0.7235  0.7545
20742SOL     OW68571   3.502   3.823   8.193  0.0969 -0.1743  0.1656
20742SOL    HW168572   3.495   3.918   8.201  1.4530  0.1058 -1.5547
20742SOL    HW268573   3.539   3.794   8.277 -0.6807  0.7484  0.8416
20743SOL     OW68574   8.596   4.964   6.245 -0.1542  0.3384 -0.3362
20743SOL    HW168575   8.603   4.890   6.305 -1.4739  1.2965  1.0721
20743SOL    HW268576   8.536   4.934   6.177  0.5212 -0.3880 -0.6312
20744SOL     OW68577   0.509   6.141   7.333  0.2378 -0.1783 -0.5334
20744SOL    HW168578   0.485   6.228   7.302  0.1363 -0.3757 -1.0177
20744SOL    HW268579   0.550   6.156   7.419  0.8515  0.4109 -0.9245
20745SOL     OW68580   5.990   1.954   8.785 -0.1321  0.3613 -0.2727
20745SOL    HW168581   5.950   1.876   8.823 -1.2184 -0.2866 -2.5750
20745SOL    HW268582   5.953   2.027   8.834 -0.4457 -0.4853  0.7765
20746SOL     OW68583   2.095   7.712   0.858  0.0883  0.2246  0.3087
20746SOL    HW168584   2.145   7.652   0.914  1.3737  0.1142 -0.8962
20746SOL    HW268585   2.051   7.771   0.919  0.0086 -0.9937  1.4783
20747SOL     OW68586   4.120   8.022   3.529 -0.0772 -0.2249  0.2004
20747SOL    HW168587   4.127   7.994   3.620 -0.7406 -0.5052  0.1677
20747SOL    HW268588   4.100   7.942   3.481 -0.7385  0.0900 -0.0603
20748SOL     OW68589   1.536   8.537   3.529  0.0328 -0.3062  0.0628
20748SOL    HW168590   1.452   8.507   3.564  0.3514 -1.8908 -0.4927
20748SOL    HW268591   1.588   8.557   3.607 -0.3136 -0.8442  0.4372
20749SOL     OW68592   2.040   4.518   7.490  0.0132 -0.1261  0.7394
20749SOL    HW168593   2.001   4.449   7.436 -0.3061  0.6419 -0.0282
20749SOL    HW268594   2.102   4.471   7.547 -0.1395 -1.0354  0.1836
20750SOL     OW68595   7.243   1.921   8.974 -0.9772  0.3380  0.0526
20750SOL    HW168596   7.287   1.994   9.018 -0.3089  0.2540 -0.4730
20750SOL    HW268597   7.231   1.952   8.883  0.0785 -0.5303 -0.3937
20751SOL     OW68598   5.994   1.105   6.613  0.5050 -0.3079  0.6508
20751SOL    HW168599   5.918   1.164   6.611 -0.2035 -1.2207 -0.5302
20751SOL    HW268600   5.967   1.033   6.671  0.6330 -0.4259  0.5640
20752SOL     OW68601   3.317   3.603   9.217  0.3536 -0.0673  0.9452
20752SOL    HW168602   3.256   3.529   9.213  1.1015 -0.6308 -1.5434
20752SOL    HW268603   3.317   3.639   9.129  2.9239  0.5125  1.1157
20753SOL     OW68604   7.595   4.529   3.582  0.2017  0.5400  0.6110
20753SOL    HW168605   7.651   4.593   3.625 -1.6422  1.3261  1.9246
20753SOL    HW268606   7.625   4.529   3.491  1.8670  1.4024  1.1173
20754SOL     OW68607   2.580   6.637   5.746 -0.7433 -0.7126 -0.7096
20754SOL    HW168608   2.617   6.705   5.690  0.4902 -0.9547 -0.2185
20754SOL    HW268609   2.595   6.555   5.698  2.1585 -1.1786  0.7499
20755SOL     OW68610   4.272   2.727   1.380  0.0399  0.3917 -0.3180
20755SOL    HW168611   4.294   2.634   1.386 -1.8055 -0.0735 -0.1681
20755SOL    HW268612   4.333   2.770   1.441  0.9088 -0.6972 -0.3761
20756SOL     OW68613   0.875   2.346   4.369  0.4246 -0.0275 -0.0450
20756SOL    HW168614   0.900   2.291   4.294  3.0829  0.1158  0.6179
20756SOL    HW268615   0.784   2.323   4.387 -0.3134 -0.1252 -3.2417
20757SOL     OW68616   1.264   3.211   7.312  0.3801 -0.2699  0.0319
20757SOL    HW168617   1.327   3.139   7.312  0.0247 -0.6260  1.3319
20757SOL    HW268618   1.257   3.236   7.405  0.1209  1.1160 -0.3367
20758SOL     OW68619   0.795   7.998   6.580  0.1204  0.1224 -0.7011
20758SOL    HW168620   0.717   7.973   6.630  0.3503 -1.2940 -1.0004
20758SOL    HW268621   0.786   8.092   6.566 -0.4222  0.3826  1.1742
20759SOL     OW68622   6.786   0.939   1.908  0.1699 -0.0242 -0.0268
20759SOL    HW168623   6.781   0.999   1.982 -0.3236 -1.1403  0.8816
20759SOL    HW268624   6.755   0.990   1.833 -0.1738  0.8603  0.7055
20760SOL     OW68625   2.526   9.216   6.099 -0.2707 -0.1151  1.0558
20760SOL    HW168626   2.615   9.241   6.074 -0.4741  0.0546  0.4744
20760SOL    HW268627   2.488   9.296   6.135 -0.0455 -0.3058  1.7344
20761SOL     OW68628   4.172   2.251   6.004  0.1581  0.5858 -0.0788
20761SOL    HW168629   4.178   2.198   6.083  0.8422  0.8212  0.0359
20761SOL    HW268630   4.205   2.337   6.030  1.9793  0.2187 -1.0083
20762SOL     OW68631   7.074   3.570   3.933 -0.3603  0.3652 -0.3030
20762SOL    HW168632   7.036   3.576   4.021  0.6378  0.8013  0.1158
20762SOL    HW268633   7.136   3.642   3.929 -1.0181  0.8853 -1.7024
20763SOL     OW68634   9.235   0.788   2.067 -0.0599  0.2960  0.0063
20763SOL    HW168635   9.267   0.699   2.050 -0.7722 -0.2433  1.3418
20763SOL    HW268636   9.144   0.787   2.037  0.1780  0.8458 -0.7658
20764SOL     OW68637   3.319   8.707   6.395  0.1458  0.3900  0.1062
20764SOL    HW168638   3.278   8.737   6.476  1.0924  0.1044  0.7043
20764SOL    HW268639   3.413   8.705   6.415  0.2858 -0.8668 -0.6016
20765SOL     OW68640   1.548   8.166   8.807 -0.2328  0.4762 -0.0398
20765SOL    HW168641   1.543   8.261   8.801 -1.4943  0.3370 -2.2690
20765SOL    HW268642   1.641   8.146   8.812  0.1587  1.7773 -1.5796
20766SOL     OW68643   2.711   8.332   0.162 -0.0062 -0.7194  0.2783
20766SOL    HW168644   2.719   8.324   0.067  1.4328 -1.3248  0.4296
20766SOL    HW268645   2.712   8.242   0.193 -0.1593 -0.5110  0.8875
20767SOL     OW68646   2.333   0.189   7.133 -0.1096  0.1534 -0.2220
20767SOL    HW168647   2.381   0.113   7.100  0.9828  0.3831  0.7430
20767SOL    HW268648   2.343   0.255   7.066  1.6854  0.4671  0.3036
20768SOL     OW68649   5.587   4.291   2.799 -0.4288  0.0219  0.4270
20768SOL    HW168650   5.558   4.296   2.890  0.1542 -0.7076  0.6630
20768SOL    HW268651   5.613   4.380   2.777 -4.6153  1.2393 -0.4397
20769SOL     OW68652   4.886   8.541   8.585  0.1662  0.4823 -0.5325
20769SOL    HW168653   4.807   8.582   8.550 -0.8175 -0.9278 -0.0586
20769SOL    HW268654   4.872   8.539   8.680  0.7390  0.1484 -0.4499
20770SOL     OW68655   6.859   6.618   1.239  0.3927 -0.1359  0.5544
20770SOL    HW168656   6.876   6.650   1.327  2.5344  1.2483 -0.2879
20770SOL    HW268657   6.943   6.625   1.193 -0.7590 -0.2722 -1.7547
20771SOL     OW68658   3.914   1.886   4.275 -0.0797 -0.1200 -0.0772
20771SOL    HW168659   3.880   1.825   4.341  1.6116 -1.0027  0.0408
20771SOL    HW268660   3.953   1.957   4.325 -0.4429  0.1551 -0.1793
20772SOL     OW68661   3.198   2.502   0.312  0.2776  0.0799  0.2248
20772SOL    HW168662   3.263   2.515   0.382  1.2201  3.2376 -1.0226
20772SOL    HW268663   3.249   2.469   0.238 -0.1317 -0.3697  0.1447
20773SOL     OW68664   2.019   3.642   5.334 -0.0606 -0.5897 -0.1938
20773SOL    HW168665   1.996   3.693   5.412  0.5024  1.3651 -1.2545
20773SOL    HW268666   2.113   3.627   5.342 -0.3867 -2.4369  0.6264
20774SOL     OW68667   8.734   3.792   4.152 -0.3252 -0.2359 -0.5392
20774SOL    HW168668   8.671   3.847   4.106  1.1943  0.3007 -2.0855
20774SOL    HW268669   8.781   3.746   4.083 -0.0084 -1.7567  0.6351
20775SOL     OW68670   7.186   4.247   1.250 -0.3650  0.0409 -0.2702
20775SOL    HW168671   7.250   4.201   1.195  0.0321 -0.7665  0.8381
20775SOL    HW268672   7.102   4.204   1.230 -0.2697 -0.0804 -0.4153
20776SOL     OW68673   2.701   3.814   8.122 -0.4034  0.3066 -0.5899
20776SOL    HW168674   2.732   3.880   8.060  0.2258  0.5954  0.0274
20776SOL    HW268675   2.778   3.760   8.140 -1.0229 -0.9209 -1.4751
20777SOL     OW68676   3.218   1.318   6.762  0.5980  0.0464 -0.6397
20777SOL    HW168677   3.213   1.248   6.827 -0.8919  0.4281 -0.3188
20777SOL    HW268678   3.183   1.395   6.807  2.1165  1.0041 -1.0153
20778SOL     OW68679   2.702   1.319   0.406  0.0827  0.2457 -0.3369
20778SOL    HW168680   2.706   1.415   0.410  2.3577  0.1895  0.3043
20778SOL    HW268681   2.609   1.299   0.401 -0.4967  2.4721  0.3242
20779SOL     OW68682   4.618   5.401   7.932 -0.5581 -0.3911 -0.1447
20779SOL    HW168683   4.703   5.361   7.914  0.6052  1.3730  1.1223
20779SOL    HW268684   4.577   5.342   7.995  0.7453 -0.1085  1.0210
20780SOL     OW68685   1.983   9.070   1.099 -0.1982 -0.0752 -0.0885
20780SOL    HW168686   1.913   9.107   1.153 -0.7523 -1.7154  0.3548
20780SOL    HW268687   2.041   9.026   1.161  1.1658  1.0987 -0.4666
20781SOL     OW68688   7.385   8.801   2.491 -0.2164 -0.1274 -0.4202
20781SOL    HW168689   7.374   8.765   2.403  0.6599 -0.3125 -0.4578
20781SOL    HW268690   7.397   8.724   2.547 -1.5097 -0.0595 -0.0112
20782SOL     OW68691   5.568   1.033   6.268  0.7670  0.3942 -0.0821
20782SOL    HW168692   5.504   1.049   6.338  0.5466 -0.3633 -0.1118
20782SOL    HW268693   5.529   0.964   6.215 -0.1700  2.4708 -2.3334
20783SOL     OW68694   7.958   0.136   4.531 -0.0003 -0.2893  0.2959
20783SOL    HW168695   7.918   0.170   4.611  0.0550 -1.1231  0.6789
20783SOL    HW268696   8.044   0.178   4.528  0.3074 -0.8532  1.0865
20784SOL     OW68697   7.503   8.046   9.214 -0.5045 -0.6444 -0.3137
20784SOL    HW168698   7.437   7.977   9.207 -0.7695 -0.3100 -1.4468
20784SOL    HW268699   7.519   8.072   9.123  1.5317 -1.0208 -0.1119
20785SOL     OW68700   8.763   3.524   4.659 -0.1045  0.1361 -0.4758
20785SOL    HW168701   8.825   3.584   4.617  0.6606  0.4561  1.0449
20785SOL    HW268702   8.705   3.582   4.709 -0.8765 -0.2530 -0.9009
20786SOL     OW68703   7.306   5.248   5.282 -0.3201 -0.1641 -0.8109
20786SOL    HW168704   7.308   5.167   5.232  1.1013 -0.3032 -0.5696
20786SOL    HW268705   7.375   5.302   5.244 -0.2922  0.3637 -0.0429
20787SOL     OW68706   0.417   8.428   3.086 -0.5825 -0.0340  0.7689
20787SOL    HW168707   0.450   8.462   3.169 -1.3138 -0.1090  1.0937
20787SOL    HW268708   0.362   8.354   3.110  1.5821 -2.0247  0.0421
20788SOL     OW68709   3.869   6.188   4.919 -0.5921 -0.2941  0.2194
20788SOL    HW168710   3.824   6.207   5.002 -0.3401  1.0919  0.0669
20788SOL    HW268711   3.804   6.210   4.852 -0.2898  0.0474  0.0328
20789SOL     OW68712   6.585   5.954   0.031 -0.2034 -0.3800  0.0523
20789SOL    HW168713   6.662   6.006   0.051 -1.0470  0.8259  0.2808
20789SOL    HW268714   6.517   6.018   0.010 -2.0162 -1.2159  2.7633
20790SOL     OW68715   9.001   4.982   7.232 -0.0904 -0.6259  0.3915
20790SOL    HW168716   9.017   4.916   7.300 -0.1673 -1.1734 -0.1114
20790SOL    HW268717   9.012   4.934   7.149 -2.1704 -0.5159  0.0038
20791SOL     OW68718   6.542   1.432   1.402  0.6165 -0.6276  0.1594
20791SOL    HW168719   6.512   1.477   1.323 -0.6239 -0.6992  0.5528
20791SOL    HW268720   6.637   1.426   1.393  0.7012  1.0206 -0.4637
20792SOL     OW68721   5.860   5.288   3.354 -0.3291  0.2110  0.6289
20792SOL    HW168722   5.861   5.308   3.447 -0.6120  0.4132  0.5904
20792SOL    HW268723   5.950   5.302   3.325 -0.6803  2.4005  0.4004
20793SOL     OW68724   3.949   6.021   4.297 -0.4842 -0.4301  0.4919
20793SOL    HW168725   3.903   6.078   4.358 -0.2269 -0.0499  0.3370
20793SOL    HW268726   3.946   5.934   4.338 -1.3351 -0.4193  0.4804
20794SOL     OW68727   1.641   7.523   4.186 -0.4358  0.2554  0.3716
20794SOL    HW168728   1.620   7.445   4.136  0.3188  0.1977  0.1212
20794SOL    HW268729   1.728   7.549   4.153  0.0619  0.2313  1.6183
20795SOL     OW68730   5.548   3.656   0.582  0.0792 -0.0311  0.6008
20795SOL    HW168731   5.491   3.631   0.509  0.5392  0.7483 -0.0343
20795SOL    HW268732   5.554   3.576   0.635 -0.4592 -0.5381 -0.0730
20796SOL     OW68733   0.573   3.909   5.972  0.0210 -1.0607 -0.1377
20796SOL    HW168734   0.507   3.877   5.911  0.3765 -0.7454 -0.7009
20796SOL    HW268735   0.626   3.971   5.920 -1.5930  1.7016  1.2871
20797SOL     OW68736   8.030   6.785   3.730  0.1408  0.3335  0.1198
20797SOL    HW168737   8.045   6.878   3.751 -0.5796  0.7041 -0.8980
20797SOL    HW268738   8.117   6.746   3.729  0.4624  1.0195  0.4666
20798SOL     OW68739   0.492   4.537   8.607 -0.1131 -0.0324 -0.5070
20798SOL    HW168740   0.480   4.622   8.566 -0.1994 -0.3672 -1.1818
20798SOL    HW268741   0.587   4.527   8.615 -0.1040  0.1479 -0.3735
20799SOL     OW68742   0.905   7.553   4.549  0.8300 -0.3552  0.5527
20799SOL    HW168743   0.942   7.535   4.635  2.5426 -0.6494 -0.2068
20799SOL    HW268744   0.855   7.474   4.528 -2.3728  0.9188  2.5595
20800SOL     OW68745   1.664   4.581   0.316 -0.3338 -0.1853  0.2918
20800SOL    HW168746   1.585   4.528   0.302 -0.7995  0.2661  1.1259
20800SOL    HW268747   1.635   4.671   0.302 -0.0430  0.0093  0.9057
20801SOL     OW68748   0.871   7.650   2.711  0.2570 -0.0985  0.3759
20801SOL    HW168749   0.965   7.667   2.703  0.1128  0.4280 -0.2906
20801SOL    HW268750   0.865   7.586   2.781  1.0725  0.2428  0.7786
20802SOL     OW68751   5.564   4.832   7.390  0.3795  0.1020  0.0143
20802SOL    HW168752   5.497   4.896   7.413  0.1203  0.4262 -1.5461
20802SOL    HW268753   5.518   4.765   7.340  0.8052 -0.8928  0.9276
20803SOL     OW68754   6.169   5.821   0.318  0.1119  0.3385 -0.6848
20803SOL    HW168755   6.155   5.728   0.299  0.2633  0.4979 -1.6072
20803SOL    HW268756   6.255   5.840   0.281  0.8398  0.4585  0.9804
20804SOL     OW68757   4.903   0.122   4.890  0.2640  0.6950  0.0641
20804SOL    HW168758   4.936   0.059   4.825 -0.2046 -0.9751  1.3805
20804SOL    HW268759   4.910   0.076   4.974  0.6328  2.7115  1.2009
20805SOL     OW68760   3.573   1.159   1.535  0.2371  0.0632 -0.3317
20805SOL    HW168761   3.629   1.214   1.480  0.2227  0.6028  0.1920
20805SOL    HW268762   3.614   1.072   1.530  1.9593  0.7320  1.1507
20806SOL     OW68763   5.032   7.599   1.192  0.1504 -0.3484 -0.2243
20806SOL    HW168764   5.059   7.573   1.104  1.1915  0.6716 -0.2363
20806SOL    HW268765   4.958   7.657   1.178 -0.7123 -1.4456 -0.3204
20807SOL     OW68766   0.685   0.230   8.618 -0.3279  0.4706 -0.2720
20807SOL    HW168767   0.677   0.315   8.662  0.3625  0.1918  0.4260
20807SOL    HW268768   0.773   0.200   8.641 -0.1749  0.0393 -1.3773
20808SOL     OW68769   6.273   8.251   9.043  0.2850 -0.1057  0.3093
20808SOL    HW168770   6.254   8.249   9.137 -0.3111 -0.0922  0.1969
20808SOL    HW268771   6.307   8.339   9.027 -2.4592  1.0086  0.0185
20809SOL     OW68772   2.157   5.808   6.661 -0.2935  0.5074  0.4325
20809SOL    HW168773   2.226   5.802   6.594 -2.2567 -0.0174 -1.6504
20809SOL    HW268774   2.200   5.850   6.735  1.8491  1.7058 -1.3623
20810SOL     OW68775   9.239   5.882   6.057 -1.0488 -0.8626  0.3322
20810SOL    HW168776   9.213   5.791   6.068 -0.7639 -1.3962 -2.5649
20810SOL    HW268777   9.309   5.880   5.991 -0.7539  1.4130  0.4739
20811SOL     OW68778   8.757   8.870   4.532  0.1875 -0.2365  0.2546
20811SOL    HW168779   8.772   8.788   4.580  0.3556 -0.1238  0.3935
20811SOL    HW268780   8.818   8.932   4.571  0.9311 -0.3640 -0.6804
20812SOL     OW68781   1.371   8.041   0.644  0.3758 -0.4948 -0.2346
20812SOL    HW168782   1.320   8.066   0.721  0.8220 -0.9277  0.2104
20812SOL    HW268783   1.462   8.041   0.674  0.5634 -0.5878 -0.7836
20813SOL     OW68784   1.398   8.795   0.659 -0.0272  0.1161  0.0706
20813SOL    HW168785   1.316   8.831   0.693  0.3725  0.7875  0.3287
20813SOL    HW268786   1.446   8.871   0.626 -0.4045 -0.4918 -2.0437
20814SOL     OW68787   0.267   5.740   8.140 -0.1685 -0.0572  0.4021
20814SOL    HW168788   0.247   5.655   8.100 -3.0401  0.1438  1.2274
20814SOL    HW268789   0.350   5.726   8.185 -0.3807 -2.3138  0.2006
20815SOL     OW68790   5.253   8.448   1.330 -0.0189  0.4455 -0.2933
20815SOL    HW168791   5.211   8.531   1.307 -0.1087  0.4313 -0.1781
20815SOL    HW268792   5.333   8.447   1.278  0.1006  0.7124 -0.1146
20816SOL     OW68793   8.134   1.139   8.771 -0.5379 -0.4100 -0.2231
20816SOL    HW168794   8.085   1.207   8.724 -2.6511 -1.7596 -0.1341
20816SOL    HW268795   8.145   1.069   8.706  1.7528  0.0234 -0.3684
20817SOL     OW68796   6.592   8.064   0.900 -0.2538 -0.0255 -0.2628
20817SOL    HW168797   6.515   8.075   0.844 -0.5102  1.1374  0.2954
20817SOL    HW268798   6.580   7.977   0.939 -2.0514  0.6659  0.8914
20818SOL     OW68799   2.449   5.825   1.818  0.1019  0.2182 -0.0752
20818SOL    HW168800   2.480   5.770   1.890 -1.3405 -0.4848  0.0481
20818SOL    HW268801   2.512   5.810   1.747  0.4606 -0.5792  0.3985
20819SOL     OW68802   7.822   8.057   3.139 -0.5015  0.4569  0.1082
20819SOL    HW168803   7.824   7.982   3.079 -0.4983 -0.3738  1.1257
20819SOL    HW268804   7.852   8.022   3.223 -0.7881  1.5323  0.6786
20820SOL     OW68805   8.403   0.325   9.049 -0.4977 -0.2095 -0.2974
20820SOL    HW168806   8.373   0.414   9.033 -2.2288 -0.6894  0.1037
20820SOL    HW268807   8.471   0.334   9.117 -0.4418  0.8138 -0.4763
20821SOL     OW68808   6.373   0.863   8.393 -0.1565 -0.4186  0.0183
20821SOL    HW168809   6.283   0.889   8.372 -0.7404 -0.2080  2.4950
20821SOL    HW268810   6.367   0.769   8.411  0.1488 -0.4255  0.0854
20822SOL     OW68811   8.689   0.022   8.734 -0.5213 -0.3432  0.2115
20822SOL    HW168812   8.684   0.089   8.666 -0.4862  0.2038  0.7436
20822SOL    HW268813   8.651  -0.056   8.694 -1.0273  0.1343 -0.2406
20823SOL     OW68814   7.685   6.562   3.411 -0.1257 -0.4285  0.0222
20823SOL    HW168815   7.686   6.513   3.329  0.5310 -1.4451  0.6110
20823SOL    HW268816   7.678   6.653   3.384  1.0765 -0.6625 -1.2157
20824SOL     OW68817   8.290   5.127   4.826 -0.3523  0.4363 -0.1080
20824SOL    HW168818   8.245   5.044   4.813  0.0426  0.1776  0.1525
20824SOL    HW268819   8.382   5.107   4.815 -0.1278  0.5348  1.3150
20825SOL     OW68820   3.639   4.103   3.791  0.2052  0.2471 -0.4125
20825SOL    HW168821   3.667   4.194   3.801 -0.2371  0.2252  1.4597
20825SOL    HW268822   3.640   4.068   3.880 -2.9783 -0.5509 -0.5663
20826SOL     OW68823   1.431   4.370   6.605  0.3786 -0.0581  0.0670
20826SOL    HW168824   1.449   4.309   6.677 -0.4520 -0.2945  0.0859
20826SOL    HW268825   1.417   4.454   6.647 -0.8275 -0.3402  0.2638
20827SOL     OW68826   3.127   6.177   7.455 -0.3108 -0.7306  0.7611
20827SOL    HW168827   3.217   6.196   7.429 -0.7983 -0.4400 -0.8418
20827SOL    HW268828   3.103   6.249   7.514 -0.1885  0.4594 -0.5647
20828SOL     OW68829   7.261   2.965   3.853 -0.5110  0.3109  0.4550
20828SOL    HW168830   7.269   2.890   3.795  3.3381  0.7816  0.1471
20828SOL    HW268831   7.226   2.929   3.934 -2.6133 -0.9795 -0.9060
20829SOL     OW68832   2.532   6.076   7.221 -0.2608  0.4562 -0.2876
20829SOL    HW168833   2.479   6.016   7.169 -0.4381  0.3411  0.0261
20829SOL    HW268834   2.539   6.155   7.166 -1.0947  0.6265 -0.1662
20830SOL     OW68835   5.794   3.534   7.663  0.2628  0.1827  0.0469
20830SOL    HW168836   5.819   3.470   7.730 -0.6313 -0.0637  0.1645
20830SOL    HW268837   5.802   3.619   7.706 -2.2187 -0.0667  1.1701
20831SOL     OW68838   0.801   3.653   6.631  0.3181  0.0521 -0.3627
20831SOL    HW168839   0.840   3.621   6.549 -0.1850  0.3697 -0.7292
20831SOL    HW268840   0.863   3.625   6.699 -0.6452 -2.7260 -0.5095
20832SOL     OW68841   8.156   7.220   3.184  0.0118 -0.1482 -0.6911
20832SOL    HW168842   8.184   7.283   3.118  0.1954 -0.3833 -0.8385
20832SOL    HW268843   8.237   7.185   3.219 -0.0896 -0.8316 -1.1179
20833SOL     OW68844   0.930   3.042   8.147  0.3319 -0.0262  0.4023
20833SOL    HW168845   0.906   3.075   8.234 -0.3939 -0.0962  0.2336
20833SOL    HW268846   0.948   2.949   8.160  3.8479  0.6254  1.1706
20834SOL     OW68847   5.118   0.655   8.412  0.2209  0.1302 -1.0511
20834SOL    HW168848   5.192   0.597   8.430 -0.7052 -0.4700  1.2623
20834SOL    HW268849   5.043   0.597   8.404 -0.2870  0.8396 -1.5959
20835SOL     OW68850   1.901   1.384   6.317 -0.6076  0.0560 -0.4383
20835SOL    HW168851   1.822   1.376   6.371  0.5227 -1.1945  1.1070
20835SOL    HW268852   1.899   1.475   6.286 -2.0161  0.4189  0.5897
20836SOL     OW68853   2.996   2.335   8.057  0.0567 -0.3689 -0.1769
20836SOL    HW168854   3.033   2.423   8.054 -0.8223  0.0921  1.5402
20836SOL    HW268855   3.066   2.279   8.022  0.4251  1.0313 -1.8232
20837SOL     OW68856   8.388   7.686   9.166 -0.5007 -0.0191 -0.2858
20837SOL    HW168857   8.352   7.711   9.251 -1.2533  0.6472 -0.7848
20837SOL    HW268858   8.479   7.716   9.169 -0.3385 -0.5480  0.5008
20838SOL     OW68859   8.673   6.359   3.376 -0.2618  0.1796 -0.1585
20838SOL    HW168860   8.613   6.431   3.358  0.4819  1.4040  1.9360
20838SOL    HW268861   8.759   6.401   3.386  0.5636 -1.2573 -0.8832
20839SOL     OW68862   4.021   4.795   6.636 -0.6319  0.4021 -0.1074
20839SOL    HW168863   4.076   4.873   6.629  0.4950 -0.2476  1.1005
20839SOL    HW268864   3.931   4.828   6.639 -0.1794  1.6284  0.1310
20840SOL     OW68865   0.594   1.822   5.929  0.2817  0.3026 -0.8370
20840SOL    HW168866   0.588   1.875   6.009 -0.3341 -1.1645  0.1482
20840SOL    HW268867   0.680   1.780   5.934 -0.4792 -1.2528  0.0835
20841SOL     OW68868   8.082   2.822   1.837 -0.3580  0.0378  0.3202
20841SOL    HW168869   8.088   2.902   1.890 -1.3286  0.7015 -0.5459
20841SOL    HW268870   8.110   2.752   1.897  0.8013  1.0406  1.0073
20842SOL     OW68871   6.779   7.628   5.139 -1.1664  0.1366 -0.6821
20842SOL    HW168872   6.765   7.604   5.048 -0.7091  0.6422 -0.8885
20842SOL    HW268873   6.850   7.691   5.137  0.0435 -1.1430  0.2002
20843SOL     OW68874   2.998   6.343   0.153 -0.0361  0.7617  0.2139
20843SOL    HW168875   3.012   6.359   0.060  1.4494 -0.0700  0.2673
20843SOL    HW268876   2.945   6.263   0.157  1.6138 -0.3813  0.0761
20844SOL     OW68877   8.590   4.947   7.207  0.1314  0.3171  0.2602
20844SOL    HW168878   8.638   4.996   7.274  0.4886 -0.0528  0.2794
20844SOL    HW268879   8.499   4.977   7.215  0.5146  1.6908 -0.3902
20845SOL     OW68880   8.916   7.862   6.612 -0.3755  0.0843  0.8891
20845SOL    HW168881   8.904   7.768   6.595 -1.3834  0.3953 -0.2648
20845SOL    HW268882   8.835   7.888   6.657  0.4594  0.1542  2.3937
20846SOL     OW68883   3.435   6.558   0.797 -0.5090 -0.0873 -0.3043
20846SOL    HW168884   3.509   6.615   0.775 -0.4457 -0.5628 -1.4176
20846SOL    HW268885   3.441   6.487   0.734 -3.2181  0.9982 -1.9952
20847SOL     OW68886   1.739   5.614   7.868 -0.1025  0.2556  0.0246
20847SOL    HW168887   1.714   5.549   7.802 -0.7510 -1.1046  1.5436
20847SOL    HW268888   1.695   5.586   7.948 -1.3280  3.1995  0.5413
20848SOL     OW68889   1.756   5.311   1.985  0.5104 -0.1627 -0.1348
20848SOL    HW168890   1.804   5.319   2.068 -2.3065  0.4589  1.5415
20848SOL    HW268891   1.695   5.384   1.985 -1.6501 -1.8472 -1.2753
20849SOL     OW68892   4.480   1.706   5.839 -0.2895  0.0525  0.1559
20849SOL    HW168893   4.530   1.765   5.784 -0.3960 -0.6251 -0.6902
20849SOL    HW268894   4.444   1.761   5.908  1.0875  0.6564  0.4098
20850SOL     OW68895   7.259   4.843   7.141  0.3049  0.7191  0.1203
20850SOL    HW168896   7.208   4.802   7.211  0.8324 -1.6058 -0.7438
20850SOL    HW268897   7.349   4.815   7.158  0.7067  1.6388 -0.4664
20851SOL     OW68898   8.961   4.131   8.873  0.1655  0.1403  0.1153
20851SOL    HW168899   9.000   4.069   8.935  0.0954 -0.1551 -0.1361
20851SOL    HW268900   8.929   4.203   8.928  1.2105  0.4676  0.3121
20852SOL     OW68901   3.155   5.462   6.675  0.6120  0.3119  0.2472
20852SOL    HW168902   3.163   5.553   6.705  0.0583  2.1253 -4.3400
20852SOL    HW268903   3.074   5.461   6.625  2.1207 -1.8254 -2.3967
20853SOL     OW68904   5.329   7.687   8.637 -0.0161  0.0491 -0.2979
20853SOL    HW168905   5.332   7.712   8.730  1.5593  1.5055 -0.6707
20853SOL    HW268906   5.311   7.769   8.591  1.9710 -0.0482 -1.3983
20854SOL     OW68907   4.331   8.266   5.993 -0.0077 -0.0347 -0.4536
20854SOL    HW168908   4.275   8.220   5.930 -0.6467  0.6005 -0.3727
20854SOL    HW268909   4.370   8.337   5.942 -1.0097  0.8578 -0.0196
20855SOL     OW68910   6.972   0.151   9.058  0.5256 -0.0421 -0.3795
20855SOL    HW168911   6.939   0.238   9.079 -0.4691 -0.2676 -0.9171
20855SOL    HW268912   7.052   0.166   9.009  0.8769  0.5426  0.3553
20856SOL     OW68913   7.612   7.278   4.812  0.7585 -0.3074  0.1810
20856SOL    HW168914   7.668   7.206   4.842 -1.4235 -1.8602  0.7900
20856SOL    HW268915   7.528   7.262   4.854 -1.0191  0.3025 -2.8426
20857SOL     OW68916   2.257   6.691   5.641 -0.1718 -0.1325 -0.3211
20857SOL    HW168917   2.244   6.626   5.573 -0.0275 -0.6369  0.1238
20857SOL    HW268918   2.214   6.769   5.608  0.4039 -0.1865 -1.2496
20858SOL     OW68919   7.989   5.226   1.833 -0.0221  0.1465 -0.4526
20858SOL    HW168920   8.016   5.306   1.880 -0.8473 -2.0528  4.3840
20858SOL    HW268921   8.071   5.182   1.812  0.4062  0.6393  0.1421
20859SOL     OW68922   2.952   3.218   0.947 -0.0485  0.3898 -0.6795
20859SOL    HW168923   2.944   3.128   0.976 -0.1402  0.8906  0.9530
20859SOL    HW268924   3.016   3.215   0.875  1.2414 -0.7665  0.4560
20860SOL     OW68925   5.233   6.618   6.165  0.0193 -0.4245 -0.6554
20860SOL    HW168926   5.315   6.596   6.209  0.1131  0.1558 -0.5391
20860SOL    HW268927   5.227   6.713   6.171 -1.6817 -0.5618  1.2050
20861SOL     OW68928   5.575   6.181   3.678 -0.0290  0.6123 -0.1107
20861SOL    HW168929   5.593   6.214   3.590  0.7200 -1.0516 -0.6036
20861SOL    HW268930   5.651   6.127   3.700 -0.5710  0.3579  1.2472
20862SOL     OW68931   2.840   2.382   5.584 -0.2068  0.1897 -0.1088
20862SOL    HW168932   2.934   2.384   5.565 -0.2385 -2.3230 -0.8279
20862SOL    HW268933   2.798   2.366   5.499 -1.1414 -0.5193  0.4585
20863SOL     OW68934   0.929   2.221   7.703 -0.6499  0.3626 -0.2461
20863SOL    HW168935   0.998   2.155   7.710 -0.1602  0.8894 -0.0626
20863SOL    HW268936   0.914   2.230   7.609 -0.0579  0.6633 -0.3146
20864SOL     OW68937   2.125   6.419   0.145  0.0771 -0.5048  0.0427
20864SOL    HW168938   2.182   6.408   0.221 -2.0908  0.9942  2.0066
20864SOL    HW268939   2.106   6.513   0.142 -0.4827 -0.6271 -1.9526
20865SOL     OW68940   4.484   3.922   8.310  0.0621 -0.4878 -0.1380
20865SOL    HW168941   4.397   3.902   8.344  0.0388  2.7450  2.0905
20865SOL    HW268942   4.468   3.960   8.224 -0.6708 -0.4068  0.0324
20866SOL     OW68943   3.405   8.409   1.445  0.6891  0.4519  0.2766
20866SOL    HW168944   3.399   8.451   1.530 -4.3018 -0.1153  0.4603
20866SOL    HW268945   3.361   8.469   1.385  0.2283 -1.1025 -1.0073
20867SOL     OW68946   3.156   2.938   1.014  0.5798 -0.0676  0.5061
20867SOL    HW168947   3.221   2.953   1.082 -1.1309  0.6342  2.0710
20867SOL    HW268948   3.206   2.939   0.932  2.4337  0.9791  1.5783
20868SOL     OW68949   7.261   2.488   2.415  0.2135 -0.0872  0.4301
20868SOL    HW168950   7.195   2.558   2.410 -1.4498 -1.6605 -1.0033
20868SOL    HW268951   7.333   2.520   2.361 -0.4005  0.6643  0.0245
20869SOL     OW68952   7.545   1.309   6.310  0.0966 -0.0996  0.3266
20869SOL    HW168953   7.457   1.273   6.317  0.1246 -0.0410  1.0210
20869SOL    HW268954   7.568   1.298   6.218 -0.1453 -1.2742  0.3891
20870SOL     OW68955   4.068   7.658   8.467  0.2513  0.1752  0.6537
20870SOL    HW168956   4.102   7.582   8.514 -0.5451  0.6827  2.1055
20870SOL    HW268957   4.087   7.640   8.375  1.5669 -0.9975  1.1295
20871SOL     OW68958   2.926   4.208   4.044 -0.5897  0.5079  0.1259
20871SOL    HW168959   2.992   4.212   3.975 -0.6814  2.0559  0.0921
20871SOL    HW268960   2.932   4.119   4.077 -0.1033 -0.0819 -1.4475
20872SOL     OW68961   0.955   5.471   8.393 -0.1734 -0.2400 -0.0518
20872SOL    HW168962   0.918   5.512   8.471  2.9534  1.0047  0.9718
20872SOL    HW268963   0.933   5.531   8.321 -1.2980 -0.3043  0.2206
20873SOL     OW68964   1.495   7.355   3.337  0.3837  0.3055 -0.3971
20873SOL    HW168965   1.459   7.319   3.418  3.4914  0.4267  1.1948
20873SOL    HW268966   1.459   7.299   3.268 -1.0790 -0.8248  1.1940
20874SOL     OW68967   4.567   2.661   5.392  0.2609 -0.5539  0.0372
20874SOL    HW168968   4.494   2.717   5.416 -1.2728 -2.1397 -0.6828
20874SOL    HW268969   4.625   2.717   5.341 -0.2298  0.8565  0.9892
20875SOL     OW68970   7.812   1.466   5.800 -0.0260  0.0969 -0.2095
20875SOL    HW168971   7.890   1.520   5.791 -0.8385  1.4079  0.2261
20875SOL    HW268972   7.814   1.436   5.891 -1.0867  1.9573  0.5053
20876SOL     OW68973   3.328   2.372   1.290  0.1258 -0.1336  0.2868
20876SOL    HW168974   3.276   2.297   1.318 -1.0116  0.1060 -1.0481
20876SOL    HW268975   3.286   2.447   1.332 -1.3232  0.1768 -1.5611
20877SOL     OW68976   3.538   8.523   7.625  0.0593 -0.1590  0.1954
20877SOL    HW168977   3.500   8.608   7.647 -0.5656 -0.0074 -1.3813
20877SOL    HW268978   3.633   8.538   7.631 -0.0427  0.6662 -0.1333
20878SOL     OW68979   7.331   0.430   6.441  0.0799 -0.5083  0.1244
20878SOL    HW168980   7.412   0.480   6.438  0.7043 -1.5151 -1.3184
20878SOL    HW268981   7.284   0.463   6.517  1.8911  0.0181  1.0607
20879SOL     OW68982   3.051   4.798   3.064 -0.0358 -0.0067 -0.8301
20879SOL    HW168983   3.107   4.839   2.998  0.5537  0.4951 -0.0265
20879SOL    HW268984   2.972   4.772   3.015  0.3791  0.3719 -1.7239
20880SOL     OW68985   5.014   2.032   6.087  0.4637  0.4747 -0.0827
20880SOL    HW168986   4.994   1.955   6.140  1.2683 -0.7023 -1.4138
20880SOL    HW268987   4.934   2.048   6.037 -0.1216  1.2801  1.0629
20881SOL     OW68988   3.823   8.829   5.790 -0.4588 -0.1740 -0.0191
20881SOL    HW168989   3.868   8.882   5.723  2.2593 -3.2817 -0.9569
20881SOL    HW268990   3.730   8.842   5.772  0.1130 -0.0775 -3.8859
20882SOL     OW68991   8.731   7.362   4.888 -0.0531  0.0409 -0.0551
20882SOL    HW168992   8.769   7.386   4.973 -1.7919 -1.3775  1.2116
20882SOL    HW268993   8.807   7.346   4.832  1.1563  1.1267  1.1902
20883SOL     OW68994   8.447   2.771   1.452  0.4777  0.5466 -0.2815
20883SOL    HW168995   8.353   2.768   1.439  0.5749 -2.0331 -0.8448
20883SOL    HW268996   8.463   2.856   1.493 -1.9303  1.4974 -1.1695
20884SOL     OW68997   4.463   5.815   3.572 -0.4427  0.3232 -0.1872
20884SOL    HW168998   4.489   5.820   3.480  1.3294 -1.4666  0.1555
20884SOL    HW268999   4.482   5.902   3.607 -0.3059  0.7618 -1.3009
20885SOL     OW69000   7.011   8.674   5.392  0.6422  0.8910 -0.1891
20885SOL    HW169001   7.036   8.670   5.299 -3.3412  2.7605 -1.5421
20885SOL    HW269002   6.994   8.767   5.408 -1.3038  0.2815  1.6451
20886SOL     OW69003   2.252   2.437   8.554 -0.7274  0.1187  0.2220
20886SOL    HW169004   2.253   2.368   8.488  1.7969 -0.3026  0.5952
20886SOL    HW269005   2.263   2.391   8.637  0.6851  0.9123  0.5082
20887SOL     OW69006   0.616   8.198   2.714 -0.6749  0.0432 -0.0259
20887SOL    HW169007   0.583   8.116   2.751  1.1324 -1.0667 -0.7196
20887SOL    HW269008   0.626   8.180   2.620 -0.9182  1.3063 -0.3152
20888SOL     OW69009   5.681   5.557   1.981 -0.1330  0.4232  0.1764
20888SOL    HW169010   5.680   5.501   2.059 -0.3006 -0.7182 -0.6149
20888SOL    HW269011   5.676   5.646   2.015 -0.5373 -0.0646  1.4492
20889SOL     OW69012   3.641   8.863   8.777 -0.6330 -0.3359 -0.0262
20889SOL    HW169013   3.555   8.905   8.778 -0.2497  0.5329 -1.7363
20889SOL    HW269014   3.640   8.808   8.699  0.5587  0.0730 -0.3345
20890SOL     OW69015   0.743   1.460   5.183 -0.3205  0.0524  0.2162
20890SOL    HW169016   0.687   1.397   5.230 -0.3494  0.3847  0.6282
20890SOL    HW269017   0.684   1.502   5.121 -0.5306  0.3986  0.6472
20891SOL     OW69018   4.169   2.902   8.040  0.5387 -0.2661  0.2295
20891SOL    HW169019   4.074   2.899   8.024  0.7561 -2.1903 -1.0672
20891SOL    HW269020   4.177   2.892   8.134 -0.5481 -0.0918  0.3617
20892SOL     OW69021   5.003   8.164   5.451  0.7377  0.0216 -0.2068
20892SOL    HW169022   4.972   8.211   5.529  1.7741 -0.7923  0.7272
20892SOL    HW269023   5.092   8.137   5.473  0.7503 -0.9582 -1.3521
20893SOL     OW69024   0.980   5.461   6.398  0.0160  0.1279 -0.3993
20893SOL    HW169025   1.075   5.453   6.388  0.0212 -0.6512  0.1878
20893SOL    HW269026   0.960   5.550   6.367  0.9594  0.3744 -0.3390
20894SOL     OW69027   2.372   6.527   1.220 -0.5604  0.3076 -0.8010
20894SOL    HW169028   2.448   6.578   1.247 -1.0667  0.5000  0.3179
20894SOL    HW269029   2.308   6.592   1.191 -0.9353  0.2823 -0.0652
20895SOL     OW69030   1.162   6.623   2.403 -0.1011 -0.1231 -0.5941
20895SOL    HW169031   1.119   6.547   2.362  2.0927 -1.0585 -1.3203
20895SOL    HW269032   1.174   6.597   2.494 -0.1616 -0.2884 -0.6326
20896SOL     OW69033   8.203   3.908   5.202  0.4484 -0.4738 -0.0164
20896SOL    HW169034   8.153   3.963   5.263 -0.4418 -0.0590 -1.1031
20896SOL    HW269035   8.151   3.829   5.192 -0.3074  0.1927 -1.5865
20897SOL     OW69036   8.085   1.403   5.506 -0.1724 -0.1721 -0.0698
20897SOL    HW169037   7.991   1.403   5.487  0.1645 -1.0156 -1.9135
20897SOL    HW269038   8.121   1.470   5.447  0.7050 -1.7217 -1.3520
20898SOL     OW69039   3.418   7.517   7.029  0.2437 -0.3616  0.1407
20898SOL    HW169040   3.444   7.450   7.092  1.1357  2.1277  2.6595
20898SOL    HW269041   3.500   7.562   7.006 -0.4585  0.6642 -0.4616
20899SOL     OW69042   1.313   8.507   1.919  0.4938 -0.2633 -0.2097
20899SOL    HW169043   1.311   8.577   1.853  1.2870 -0.6338 -0.6505
20899SOL    HW269044   1.300   8.426   1.869 -0.0051 -0.4635  0.2403
20900SOL     OW69045   4.895   2.900   8.136 -0.2976  0.1725  0.2634
20900SOL    HW169046   4.900   2.873   8.045 -1.2207  0.0623  0.2351
20900SOL    HW269047   4.985   2.920   8.160  0.1847 -1.2714 -0.2266
20901SOL     OW69048   4.819   9.157   1.218  0.8322  0.0631  0.8988
20901SOL    HW169049   4.781   9.158   1.131 -1.0381  1.2206  1.6662
20901SOL    HW269050   4.859   9.071   1.226  1.0843 -0.0525 -1.0955
20902SOL     OW69051   4.058   0.680   2.289 -0.7422  0.0526 -0.2352
20902SOL    HW169052   4.073   0.586   2.297 -2.2777 -0.1918  0.0076
20902SOL    HW269053   4.096   0.717   2.369 -0.6455 -0.4236 -0.0565
20903SOL     OW69054   8.746   1.892   6.539  0.4452  0.4200 -0.1147
20903SOL    HW169055   8.809   1.864   6.473  1.0795  0.7041  0.3677
20903SOL    HW269056   8.799   1.920   6.614 -0.2542  0.0981  0.5249
20904SOL     OW69057   5.124   2.772   4.573 -0.2670  0.4149 -0.4921
20904SOL    HW169058   5.049   2.829   4.590 -0.2565  0.3203 -0.1354
20904SOL    HW269059   5.142   2.729   4.656 -0.3179 -0.1659 -0.7732
20905SOL     OW69060   1.072   8.257   3.415  0.3304 -0.6127 -0.0945
20905SOL    HW169061   0.994   8.302   3.447  2.3018  3.0900  0.1081
20905SOL    HW269062   1.067   8.265   3.320  0.5185 -0.2178 -0.0737
20906SOL     OW69063   3.719   7.883   3.035 -0.0092 -0.0015 -0.5089
20906SOL    HW169064   3.758   7.854   3.118  0.1249 -1.5651 -1.0691
20906SOL    HW269065   3.632   7.914   3.059  0.2653  0.1808  0.2947
20907SOL     OW69066   2.762   7.481   5.309  0.0013 -0.3029 -0.4573
20907SOL    HW169067   2.716   7.405   5.272 -1.6667  0.3920  0.0549
20907SOL    HW269068   2.697   7.521   5.368  1.1374  1.0173 -0.0581
20908SOL     OW69069   5.034   2.702   3.392 -0.1184 -0.1654  0.0959
20908SOL    HW169070   5.114   2.655   3.368  0.1828  0.5891 -0.4284
20908SOL    HW269071   5.053   2.793   3.372 -0.9074  0.1013  0.5248
20909SOL     OW69072   4.796   8.778   8.989 -0.0269 -0.1636  0.4221
20909SOL    HW169073   4.766   8.690   9.011 -1.4269  0.4895  1.2553
20909SOL    HW269074   4.831   8.813   9.072 -2.7882  1.3120  1.0894
20910SOL     OW69075   8.357   6.109   6.560  0.4928 -0.4005  0.3730
20910SOL    HW169076   8.331   6.028   6.517  0.8769  0.2337 -1.1363
20910SOL    HW269077   8.385   6.166   6.488  2.1824  0.3550  1.5629
20911SOL     OW69078   1.547   2.963   4.340 -0.2948 -0.4240 -0.2639
20911SOL    HW169079   1.581   3.053   4.336  0.8017 -0.7249  1.1956
20911SOL    HW269080   1.561   2.928   4.252  1.9191 -0.0381 -0.1297
20912SOL     OW69081   3.192   8.027   6.246  0.0139 -0.4480 -0.2150
20912SOL    HW169082   3.130   8.036   6.318 -0.6682 -0.2165 -0.8178
20912SOL    HW269083   3.236   7.944   6.263  0.8036  0.2167  1.1754
20913SOL     OW69084   8.722   2.422   7.817  0.2143  0.2796 -0.1440
20913SOL    HW169085   8.731   2.352   7.753 -1.6555  0.3539 -0.5509
20913SOL    HW269086   8.690   2.379   7.896  0.4056  0.4826  0.0458
20914SOL     OW69087   3.802   8.478   0.905 -0.0951  0.9028 -0.0385
20914SOL    HW169088   3.879   8.436   0.869 -0.3448  0.7394 -0.3863
20914SOL    HW269089   3.835   8.529   0.979 -0.0062 -1.1792  1.4468
20915SOL     OW69090   2.487   4.723   2.946  0.0881  0.1354 -0.4260
20915SOL    HW169091   2.504   4.789   3.013  0.3530  0.9978 -1.3379
20915SOL    HW269092   2.468   4.772   2.867 -2.5760 -0.8048 -0.4872
20916SOL     OW69093   4.438   5.216   4.539 -0.1347  0.2338 -0.0927
20916SOL    HW169094   4.450   5.136   4.589 -0.6833  0.1064 -0.1517
20916SOL    HW269095   4.404   5.279   4.603 -1.2708 -0.0601 -0.3871
20917SOL     OW69096   0.408   0.724   0.826  0.1762 -0.7317  0.6406
20917SOL    HW169097   0.420   0.803   0.774  0.5787 -2.1319 -1.5098
20917SOL    HW269098   0.380   0.756   0.912  0.0876  1.7081 -0.2216
20918SOL     OW69099   5.328   3.458   7.494  0.2680 -0.0817  0.4529
20918SOL    HW169100   5.366   3.526   7.439 -0.3212  1.0163  1.3684
20918SOL    HW269101   5.403   3.420   7.540  0.7774 -1.0409 -1.0781
20919SOL     OW69102   6.431   3.596   3.430  0.1359  0.3129  0.1820
20919SOL    HW169103   6.356   3.655   3.440 -0.9203 -1.1891  1.9913
20919SOL    HW269104   6.494   3.625   3.496  0.7428  0.9757 -0.6776
20920SOL     OW69105   8.890   4.924   7.610 -0.0217 -0.2325  0.1018
20920SOL    HW169106   8.850   4.842   7.639  0.3215 -1.0011 -1.4888
20920SOL    HW269107   8.841   4.992   7.656 -1.9337 -1.2209 -0.3767
20921SOL     OW69108   6.201   4.973   3.624  0.1598 -0.3990  0.2105
20921SOL    HW169109   6.108   4.977   3.601 -0.1911 -2.1645  1.1871
20921SOL    HW269110   6.237   5.055   3.590 -1.4611 -0.2980 -1.4313
20922SOL     OW69111   0.685   2.755   5.192 -0.5580 -0.0356 -0.0879
20922SOL    HW169112   0.667   2.797   5.277 -1.4429  0.1578 -0.3519
20922SOL    HW269113   0.739   2.679   5.213  0.3961  0.7761  0.4975
20923SOL     OW69114   3.042   2.254   0.886 -0.0618  0.0018 -0.1957
20923SOL    HW169115   2.985   2.225   0.957  0.0012  0.7875  0.1755
20923SOL    HW269116   3.092   2.326   0.923  0.5137 -0.0753 -0.8086
20924SOL     OW69117   0.670   5.242   7.551  0.3770 -0.4237  0.3220
20924SOL    HW169118   0.671   5.168   7.491  1.1566  0.9981 -1.5329
20924SOL    HW269119   0.754   5.237   7.596 -0.4695 -1.8574  1.8468
20925SOL     OW69120   7.730   3.160   1.329 -0.0002 -0.2766 -0.4531
20925SOL    HW169121   7.745   3.194   1.241  0.5351 -1.1502 -0.7137
20925SOL    HW269122   7.638   3.179   1.347  0.1922  0.9835 -0.7137
20926SOL     OW69123   6.721   0.676   7.040 -0.0415 -0.4715  0.2463
20926SOL    HW169124   6.772   0.646   6.965  0.1408 -0.5812  0.4159
20926SOL    HW269125   6.746   0.767   7.051  0.7425 -0.7480  0.8452
20927SOL     OW69126   7.658   0.317   3.053  0.0707  0.6131  0.4942
20927SOL    HW169127   7.718   0.298   3.126 -0.6167 -0.7269  0.7403
20927SOL    HW269128   7.572   0.326   3.094  0.0074  2.0716  0.0883
20928SOL     OW69129   8.994   1.647   5.245  0.1632  0.1870  0.8402
20928SOL    HW169130   9.036   1.690   5.319  0.6535 -0.0816  0.7149
20928SOL    HW269131   8.967   1.562   5.278  0.1536  0.1671  0.7824
20929SOL     OW69132   2.928   5.574   0.997 -0.3152 -0.2256  0.7874
20929SOL    HW169133   2.949   5.553   1.088  0.6098 -0.1865  0.5980
20929SOL    HW269134   3.007   5.619   0.965  0.4901 -2.6149 -0.8181
20930SOL     OW69135   2.790   1.931   3.610 -0.2443 -0.2919  0.4521
20930SOL    HW169136   2.709   1.912   3.564 -0.5529  1.3650  0.2741
20930SOL    HW269137   2.767   2.000   3.673  0.9156 -0.1305  0.7229
20931SOL     OW69138   4.865   6.816   2.559 -0.1997 -0.5089 -0.0043
20931SOL    HW169139   4.849   6.746   2.623 -0.9166  0.8736  1.3890
20931SOL    HW269140   4.950   6.853   2.585  0.4308 -1.1483 -1.0573
20932SOL     OW69141   1.707   2.050   8.807  0.7642  0.2692  0.0108
20932SOL    HW169142   1.743   2.017   8.889  1.7246  1.7717  0.2311
20932SOL    HW269143   1.640   2.113   8.834  0.8778  0.5521 -0.3530
20933SOL     OW69144   3.677   1.272   1.291  0.3163  0.8202 -0.0337
20933SOL    HW169145   3.747   1.212   1.265 -0.2250  0.1814 -0.0382
20933SOL    HW269146   3.712   1.359   1.274  1.0777  0.5011 -0.1171
20934SOL     OW69147   1.250   4.191   5.405  0.2823  0.0451  0.5639
20934SOL    HW169148   1.301   4.139   5.467  0.1632 -2.1300 -1.0032
20934SOL    HW269149   1.168   4.210   5.451  0.4798 -0.8880  1.3407
20935SOL     OW69150   8.050   2.323   6.651  0.2044  0.2135 -0.3646
20935SOL    HW169151   8.136   2.321   6.693  0.0230 -0.6278 -0.0255
20935SOL    HW269152   8.026   2.416   6.652  0.1435  0.2146  1.5346
20936SOL     OW69153   6.053   8.785   0.310 -0.3173  0.1714  0.1866
20936SOL    HW169154   6.000   8.851   0.266 -0.6990 -0.1377  0.1717
20936SOL    HW269155   6.137   8.828   0.327 -0.5780  0.6700  0.2243
20937SOL     OW69156   8.945   4.987   2.026 -0.2685  0.0117  0.2675
20937SOL    HW169157   8.977   5.076   2.016 -1.4710  0.3857 -0.5193
20937SOL    HW269158   8.875   4.994   2.091 -0.7711 -0.2306 -0.2319
20938SOL     OW69159   7.927   8.147   0.740 -0.7748  0.0009 -0.0755
20938SOL    HW169160   7.837   8.158   0.773 -0.0256 -0.3835  2.2812
20938SOL    HW269161   7.960   8.236   0.731 -1.4056  0.1546 -1.1331
20939SOL     OW69162   0.842   6.984   3.481 -0.1762 -0.0482  0.0177
20939SOL    HW169163   0.934   7.003   3.494 -0.4122  0.4535  1.0901
20939SOL    HW269164   0.840   6.898   3.438  0.7513 -0.7049  1.2532
20940SOL     OW69165   4.428   7.832   6.503 -0.0892 -0.2160  0.3418
20940SOL    HW169166   4.333   7.821   6.498  0.0684 -1.2578 -0.9203
20940SOL    HW269167   4.442   7.883   6.582 -1.9766  3.4488 -1.4215
20941SOL     OW69168   3.551   2.386   4.032 -0.0512  0.9818 -0.4896
20941SOL    HW169169   3.510   2.471   4.013  2.5396  1.8204 -2.8312
20941SOL    HW269170   3.569   2.348   3.947 -0.5313 -1.7116  0.5165
20942SOL     OW69171   6.121   0.446   3.197 -0.4899 -0.1483  0.2661
20942SOL    HW169172   6.095   0.490   3.116 -1.1206  0.7046  0.9227
20942SOL    HW269173   6.207   0.482   3.217 -0.1328 -0.6893 -0.2502
20943SOL     OW69174   4.143   1.362   8.713 -0.0800 -0.9122  0.5241
20943SOL    HW169175   4.084   1.381   8.786 -0.7971  0.6655 -0.4051
20943SOL    HW269176   4.090   1.378   8.634  0.9707 -1.5508 -0.3438
20944SOL     OW69177   2.848   1.736   6.092  0.2005  0.3008  0.3082
20944SOL    HW169178   2.944   1.738   6.088  0.1910 -0.5167 -0.4455
20944SOL    HW269179   2.828   1.684   6.170  0.3444  2.5662  1.9628
20945SOL     OW69180   1.426   1.547   7.892 -1.1874 -0.2152  0.1342
20945SOL    HW169181   1.358   1.504   7.944 -1.4925 -0.8075 -0.7415
20945SOL    HW269182   1.378   1.601   7.829 -0.8120  2.0043  1.6467
20946SOL     OW69183   6.395   2.341   6.397 -0.1439 -0.3809 -0.0471
20946SOL    HW169184   6.331   2.385   6.339  1.0052 -0.4640 -1.4393
20946SOL    HW269185   6.454   2.411   6.425  1.2383 -0.8211 -1.6594
20947SOL     OW69186   5.449   8.671   8.956  0.3547  0.2613 -0.8907
20947SOL    HW169187   5.367   8.643   8.916  0.1196  0.1094 -0.3120
20947SOL    HW269188   5.498   8.712   8.885 -0.3201  0.5674 -1.1809
20948SOL     OW69189   3.503   5.113   5.625 -0.3701 -0.1049 -0.5085
20948SOL    HW169190   3.502   5.090   5.532 -1.4019  2.0408 -1.0837
20948SOL    HW269191   3.411   5.117   5.651 -0.1622  0.8766  0.1695
20949SOL     OW69192   4.573   3.431   6.279  0.1785 -0.2615 -0.4940
20949SOL    HW169193   4.586   3.390   6.365  0.2488 -0.4404 -0.5886
20949SOL    HW269194   4.517   3.506   6.296 -0.6725 -0.8978 -0.4469
20950SOL     OW69195   0.492   2.070   6.502  0.1490 -0.1587 -0.9689
20950SOL    HW169196   0.489   2.145   6.562  1.0740 -0.2165 -0.8259
20950SOL    HW269197   0.414   2.020   6.521 -0.6824  0.9611 -1.3130
20951SOL     OW69198   0.308   1.904   3.536 -0.2873  0.1748 -0.5486
20951SOL    HW169199   0.294   1.986   3.584 -0.5293 -0.4697  0.5073
20951SOL    HW269200   0.221   1.866   3.528 -0.1118 -0.2159 -0.6071
20952SOL     OW69201   1.395   9.151   2.457  0.4319 -0.5793  0.6562
20952SOL    HW169202   1.310   9.136   2.416 -0.5115  0.9748  1.8963
20952SOL    HW269203   1.374   9.167   2.549  2.1267 -0.6311  1.0789
20953SOL     OW69204   7.113   1.420   5.344 -0.3058  0.3307  0.4293
20953SOL    HW169205   7.186   1.426   5.282 -0.5972  2.3531  0.2222
20953SOL    HW269206   7.148   1.367   5.416  1.2661  0.9495  0.1684
20954SOL     OW69207   8.851   9.067   8.094  0.1379  0.1390 -0.9635
20954SOL    HW169208   8.802   9.055   8.013 -0.6067 -2.3106 -0.2157
20954SOL    HW269209   8.939   9.034   8.074  0.1631  0.1995 -0.9562
20955SOL     OW69210   0.802   7.631   1.597  0.0144  0.1042  0.4017
20955SOL    HW169211   0.885   7.616   1.552 -1.1842  0.3497 -2.0873
20955SOL    HW269212   0.786   7.725   1.588 -0.8260 -0.0446  0.2408
20956SOL     OW69213   5.269   7.955   2.742 -0.3169 -0.1867 -0.0525
20956SOL    HW169214   5.246   7.985   2.830 -2.8721  2.8614 -1.5526
20956SOL    HW269215   5.342   8.012   2.716  0.0404 -0.6775 -0.1313
20957SOL     OW69216   2.450   2.419   3.634  0.0795  0.0286  0.2030
20957SOL    HW169217   2.437   2.372   3.552  3.0530  0.1196 -0.4239
20957SOL    HW269218   2.386   2.381   3.694 -1.8323 -0.3858 -1.9785
20958SOL     OW69219   8.663   4.085   6.651 -0.1561 -0.4748 -0.2254
20958SOL    HW169220   8.751   4.088   6.612 -0.1305  0.3941 -0.1181
20958SOL    HW269221   8.657   3.997   6.689  1.1555 -0.1266  0.8736
20959SOL     OW69222   3.570   8.573   4.177  0.3278 -0.3691  0.1616
20959SOL    HW169223   3.532   8.616   4.253 -2.5012  0.0151 -1.3331
20959SOL    HW269224   3.558   8.479   4.194  3.5019 -0.5600  1.9424
20960SOL     OW69225   1.668   4.151   0.710  0.5681  0.1202  0.3307
20960SOL    HW169226   1.738   4.094   0.740 -0.8039 -1.5170  0.5584
20960SOL    HW269227   1.590   4.121   0.758 -0.6879  0.6244 -1.3023
20961SOL     OW69228   1.491   3.017   9.246  0.7200  0.6868 -0.8204
20961SOL    HW169229   1.524   3.094   9.201 -0.0220  1.4001 -0.1879
20961SOL    HW269230   1.397   3.034   9.256  0.8044  0.4029  0.6562
20962SOL     OW69231   3.563   6.323   3.796 -0.2444 -0.3775  0.2285
20962SOL    HW169232   3.605   6.338   3.880  1.1281 -1.3601 -0.2527
20962SOL    HW269233   3.561   6.228   3.786 -0.5519 -0.2841 -0.7621
20963SOL     OW69234   1.680   0.763   4.349 -0.5375  0.2782  0.3333
20963SOL    HW169235   1.604   0.705   4.342  0.0606 -0.4136 -0.7581
20963SOL    HW269236   1.680   0.813   4.268  0.7497 -0.4998 -0.1826
20964SOL     OW69237   3.092   4.608   0.299  0.1217 -0.4717  0.3857
20964SOL    HW169238   3.005   4.603   0.260  0.7835 -2.5084 -1.0132
20964SOL    HW269239   3.119   4.699   0.288 -0.7586 -0.4088 -1.7034
20965SOL     OW69240   7.880   1.974   1.826  0.1453 -0.4577  0.4111
20965SOL    HW169241   7.916   1.886   1.841  1.6146  0.1424  0.5127
20965SOL    HW269242   7.796   1.958   1.783  1.1625 -1.8815 -1.1629
20966SOL     OW69243   3.303   5.019   3.830  0.2661  0.0272 -0.3077
20966SOL    HW169244   3.232   5.073   3.797  0.2492  0.5636  0.5622
20966SOL    HW269245   3.267   4.976   3.908  0.5612 -0.5409 -0.4767
20967SOL     OW69246   3.810   1.140   8.850  0.0430  0.1448 -0.1695
20967SOL    HW169247   3.806   1.095   8.935  0.3819  1.0153  0.3243
20967SOL    HW269248   3.887   1.196   8.856  0.3561 -0.1454 -1.2543
20968SOL     OW69249   4.829   6.598   5.439  0.5885  0.3707 -0.0681
20968SOL    HW169250   4.736   6.608   5.461  0.2869 -1.3309 -0.4391
20968SOL    HW269251   4.831   6.603   5.343  0.8354  0.0678 -0.0766
20969SOL     OW69252   7.753   6.629   8.783  0.0208  0.0532 -0.0225
20969SOL    HW169253   7.727   6.541   8.756  0.3556 -0.2984  0.7930
20969SOL    HW269254   7.678   6.662   8.833 -0.4496  0.5670 -1.0268
20970SOL     OW69255   5.833   0.797   5.062  0.4387  0.0733  0.2467
20970SOL    HW169256   5.763   0.732   5.057 -0.3545  0.9055  0.1904
20970SOL    HW269257   5.895   0.761   5.126  0.2819 -0.9703 -0.1718
20971SOL     OW69258   6.334   0.102   1.941  0.3427 -0.3148 -0.9533
20971SOL    HW169259   6.293   0.185   1.964 -0.7597 -0.5112 -2.1097
20971SOL    HW269260   6.377   0.119   1.857  0.8837 -0.6790 -0.7597
20972SOL     OW69261   9.219   6.003   2.905  0.1330  0.0041  0.4053
20972SOL    HW169262   9.270   6.012   2.985  0.1199  1.4462  0.2778
20972SOL    HW269263   9.282   5.969   2.840  0.4881  0.1476  0.6711
20973SOL     OW69264   1.107   7.846   1.071 -0.5229  0.2900 -0.0276
20973SOL    HW169265   1.032   7.798   1.107  1.7459 -2.8747  0.8929
20973SOL    HW269266   1.164   7.779   1.035  3.1596  2.1419  1.7725
20974SOL     OW69267   4.658   0.459   4.272  0.1786 -0.4818 -0.2078
20974SOL    HW169268   4.737   0.499   4.309 -0.0398  1.5552 -1.7452
20974SOL    HW269269   4.637   0.513   4.196 -2.3393 -1.3583 -0.2397
20975SOL     OW69270   5.027   4.621   6.824 -0.0641 -0.1643 -0.0715
20975SOL    HW169271   5.094   4.554   6.817 -0.7943 -0.7695 -1.4828
20975SOL    HW269272   4.991   4.609   6.912 -0.4575 -1.9022 -0.4341
20976SOL     OW69273   8.641   0.031   8.155 -0.1019 -0.0118 -0.4946
20976SOL    HW169274   8.597   0.080   8.086 -1.0998  0.2912  0.3271
20976SOL    HW269275   8.705  -0.023   8.109 -1.5400 -0.6971 -1.7634
20977SOL     OW69276   7.711   7.044   8.220  0.3162  0.3082  0.5129
20977SOL    HW169277   7.799   7.021   8.190  0.0411  0.0347 -0.0934
20977SOL    HW269278   7.719   7.135   8.250  0.7064  0.4325  0.0465
20978SOL     OW69279   1.549   0.143   2.449 -0.0898 -0.1389  0.4782
20978SOL    HW169280   1.507   0.061   2.474 -0.0571  0.0939  1.3123
20978SOL    HW269281   1.511   0.208   2.508 -1.9767  0.9453 -1.7310
20979SOL     OW69282   5.621   2.288   0.236  0.4105  0.1271 -0.2447
20979SOL    HW169283   5.596   2.285   0.143 -4.8356  1.5085  0.8069
20979SOL    HW269284   5.625   2.196   0.262  2.2894 -0.3050 -1.7638
20980SOL     OW69285   0.354   2.557   2.810  0.4431 -0.1877 -0.5276
20980SOL    HW169286   0.335   2.469   2.842 -1.9970 -0.2128 -1.8192
20980SOL    HW269287   0.431   2.546   2.754  1.7213 -0.9940  1.3027
20981SOL     OW69288   7.456   7.255   7.167  0.3220 -0.0535  0.3167
20981SOL    HW169289   7.405   7.195   7.222  1.6909 -0.7193  0.9155
20981SOL    HW269290   7.437   7.228   7.078 -0.1133 -0.4958  0.5342
20982SOL     OW69291   7.520   8.276   2.809 -0.1645 -0.8071  0.3146
20982SOL    HW169292   7.470   8.349   2.774 -1.0068 -1.2219  0.6009
20982SOL    HW269293   7.461   8.200   2.799  0.6311 -1.4141  0.1475
20983SOL     OW69294   8.065   7.301   8.406  0.0257 -0.0531  0.4905
20983SOL    HW169295   8.157   7.320   8.389  0.3697 -1.2873  0.8765
20983SOL    HW269296   8.044   7.351   8.485  0.6066 -0.4154  0.8797
20984SOL     OW69297   6.273   6.577   7.581  0.3528 -0.1138  0.0538
20984SOL    HW169298   6.214   6.503   7.587  0.1148  0.1495  1.0656
20984SOL    HW269299   6.353   6.541   7.541  0.0401 -0.7856  0.0280
20985SOL     OW69300   6.397   3.851   8.581 -0.3444  0.5938 -0.2344
20985SOL    HW169301   6.320   3.907   8.590 -0.2394  0.8789 -1.0148
20985SOL    HW269302   6.403   3.834   8.487  0.8101  0.9591 -0.2354
20986SOL     OW69303   7.257   2.203   4.550  0.4598  0.1803 -0.4804
20986SOL    HW169304   7.274   2.235   4.461 -0.6898 -0.1496 -0.8272
20986SOL    HW269305   7.229   2.113   4.538 -0.5625  0.4074  0.1444
20987SOL     OW69306   7.793   2.922   7.720 -0.4181  0.1874 -0.3909
20987SOL    HW169307   7.725   2.915   7.653 -0.3197 -1.2702 -0.3739
20987SOL    HW269308   7.753   2.884   7.799  0.3379 -0.4956 -0.3277
20988SOL     OW69309   3.267   3.873   7.001  0.2709  0.5121  0.2840
20988SOL    HW169310   3.328   3.942   7.024 -1.0467  1.8649 -0.0928
20988SOL    HW269311   3.186   3.896   7.047  0.2191 -1.6567  1.4297
20989SOL     OW69312   7.660   6.010   6.159  0.0846 -0.4992 -0.0131
20989SOL    HW169313   7.614   5.948   6.104  1.0771 -0.3553 -1.0446
20989SOL    HW269314   7.734   5.961   6.195 -0.7682 -0.7108  1.5640
20990SOL     OW69315   1.242   6.543   6.354  0.1514  0.4277 -0.3207
20990SOL    HW169316   1.197   6.597   6.419 -1.1393 -0.8581 -0.0944
20990SOL    HW269317   1.334   6.543   6.382 -0.4874 -0.7642  2.0304
20991SOL     OW69318   9.070   4.658   7.928  0.7255 -0.3984 -0.3389
20991SOL    HW169319   9.083   4.753   7.923  0.5731 -0.3230  0.6413
20991SOL    HW269320   9.040   4.642   8.017  0.5127 -1.3467 -0.5715
20992SOL     OW69321   0.892   3.258   2.590  0.1503 -0.4419 -0.0040
20992SOL    HW169322   0.820   3.206   2.625 -0.7041  0.7354  0.0556
20992SOL    HW269323   0.969   3.230   2.640 -1.3222  2.7923  4.7878
20993SOL     OW69324   8.080   0.962   2.594  0.6359 -0.1819  0.1664
20993SOL    HW169325   8.033   0.897   2.541 -0.7083  0.2872  0.7163
20993SOL    HW269326   8.161   0.918   2.619  0.1684 -1.3265 -0.2241
20994SOL     OW69327   4.130   4.990   3.539 -0.1763  0.4986 -0.5845
20994SOL    HW169328   4.218   5.013   3.510 -0.3599 -0.9524 -2.4732
20994SOL    HW269329   4.072   5.023   3.469 -1.0867  0.7680  0.2664
20995SOL     OW69330   8.054   6.072   0.862 -0.1036  0.1285 -0.5755
20995SOL    HW169331   8.028   6.155   0.821  0.5101  0.5853 -0.0697
20995SOL    HW269332   8.146   6.085   0.886 -0.7781  0.4684  2.2808
20996SOL     OW69333   0.133   5.783   8.814 -0.4369 -0.0644  0.0777
20996SOL    HW169334   0.129   5.736   8.897 -1.6416  1.4402  0.9077
20996SOL    HW269335   0.217   5.829   8.815  1.5194 -3.2517 -1.4249
20997SOL     OW69336   1.654   5.434   1.210 -0.2608 -0.5989 -0.0207
20997SOL    HW169337   1.740   5.424   1.250 -0.1029 -1.0743 -0.4845
20997SOL    HW269338   1.601   5.475   1.279  0.5094  0.3318  0.0361
20998SOL     OW69339   1.982   5.916   6.286  0.1914 -0.3777  0.9472
20998SOL    HW169340   1.969   5.920   6.381 -0.6844 -0.9473  0.8681
20998SOL    HW269341   1.927   5.986   6.252  0.6955 -0.0186  0.8758
20999SOL     OW69342   2.267   6.394   7.325  0.1897 -0.1603  0.2727
20999SOL    HW169343   2.345   6.346   7.351  0.9277  1.2228  0.6579
20999SOL    HW269344   2.284   6.485   7.348 -0.8574  0.4495 -1.1306
21000SOL     OW69345   0.039   4.394   9.062  0.4874 -0.3715  0.2118
21000SOL    HW169346   0.085   4.439   8.991  0.3548 -0.0697  0.3155
21000SOL    HW269347   0.092   4.412   9.140  1.1432 -1.4676  0.0474
21001SOL     OW69348   7.608   3.197   0.836 -0.3906 -0.0024 -0.1838
21001SOL    HW169349   7.550   3.136   0.881 -0.8984  1.3533  1.0680
21001SOL    HW269350   7.638   3.149   0.758 -0.7136 -1.8385  0.7781
21002SOL     OW69351   7.361   3.325   9.032  0.3777  0.0510  0.6327
21002SOL    HW169352   7.353   3.241   9.076 -0.2354 -0.9146 -1.2323
21002SOL    HW269353   7.275   3.366   9.042  0.9416  0.9134  2.3305
21003SOL     OW69354   6.204   8.845   5.912 -0.3684 -0.2556  0.2132
21003SOL    HW169355   6.164   8.875   5.994  1.0980  0.4555  0.7095
21003SOL    HW269356   6.132   8.844   5.849 -1.3345  0.1024  1.2736
21004SOL     OW69357   2.308   0.805   1.893 -0.4255 -0.0339 -0.3077
21004SOL    HW169358   2.359   0.874   1.935  0.1829  1.0100 -2.6480
21004SOL    HW269359   2.242   0.851   1.841 -2.3119 -1.3216  0.8032
21005SOL     OW69360   0.921   7.023   4.951  0.0798  0.1869 -0.0662
21005SOL    HW169361   0.881   6.951   4.904 -1.1915  1.4186 -0.9670
21005SOL    HW269362   0.942   7.088   4.883 -0.8194  1.5766  0.9181
21006SOL     OW69363   4.154   6.188   1.664  0.3850  0.0187 -0.1668
21006SOL    HW169364   4.171   6.126   1.735  1.6210  1.6560  1.0599
21006SOL    HW269365   4.071   6.158   1.625  0.9358 -2.3644  0.3285
21007SOL     OW69366   6.094   0.105   1.071  0.4457  0.1048 -0.0672
21007SOL    HW169367   6.150   0.164   1.122  0.3223 -0.6391  0.9527
21007SOL    HW269368   6.014   0.096   1.123  0.7984 -1.6229  0.2394
21008SOL     OW69369   5.143   7.577   6.494  0.4571 -0.2390  0.1033
21008SOL    HW169370   5.089   7.627   6.555  0.5701  0.4738 -0.3681
21008SOL    HW269371   5.145   7.629   6.414 -1.1527 -1.9973 -1.1662
21009SOL     OW69372   0.085   4.853   7.104  0.3318  0.2684  0.2034
21009SOL    HW169373  -0.006   4.869   7.080  0.0073  0.7021  1.6052
21009SOL    HW269374   0.133   4.924   7.063 -0.2898  1.3561  1.2806
21010SOL     OW69375   2.444   1.092   4.889 -0.6031 -0.1268 -0.2969
21010SOL    HW169376   2.476   1.119   4.803 -2.6728  0.6067 -0.8975
21010SOL    HW269377   2.385   1.020   4.870  0.3812 -1.2363  0.7391
21011SOL     OW69378   6.257   2.654   8.178 -0.0427 -0.0902  0.1502
21011SOL    HW169379   6.262   2.689   8.267 -0.2752 -0.4174  0.2950
21011SOL    HW269380   6.316   2.579   8.178 -0.7158 -0.6340  0.2924
21012SOL     OW69381   0.385   4.445   6.080  0.0331 -0.1320 -0.2346
21012SOL    HW169382   0.357   4.369   6.031 -2.3424 -0.3480  1.2845
21012SOL    HW269383   0.326   4.515   6.052  0.8248  0.6068 -0.1068
21013SOL     OW69384   5.123   2.532   1.124 -0.0930  0.0836 -0.2000
21013SOL    HW169385   5.115   2.452   1.176 -1.1708  0.6999  0.6216
21013SOL    HW269386   5.070   2.516   1.046 -0.1323 -0.0844 -0.1376
21014SOL     OW69387   6.109   6.277   4.010  0.3782  0.2786  0.3626
21014SOL    HW169388   6.066   6.340   3.952  1.0343  0.6567  0.2831
21014SOL    HW269389   6.180   6.240   3.958 -0.5585 -1.2329  0.0879
21015SOL     OW69390   1.593   5.086   4.483 -0.3362  0.1937  0.5047
21015SOL    HW169391   1.663   5.131   4.530  0.7319  0.7091 -1.4759
21015SOL    HW269392   1.616   4.993   4.489  0.1443  0.3084  0.4171
21016SOL     OW69393   7.654   9.217   7.136 -0.4059 -0.2126 -0.0846
21016SOL    HW169394   7.705   9.283   7.183 -0.0527 -1.5178  1.4200
21016SOL    HW269395   7.715   9.180   7.072 -0.1506 -0.1723  0.1368
21017SOL     OW69396   5.859   1.158   2.786  0.1570  0.1784  0.4932
21017SOL    HW169397   5.788   1.138   2.847 -1.3629 -0.0934 -1.2745
21017SOL    HW269398   5.896   1.240   2.819 -1.4871  0.7507  1.0556
21018SOL     OW69399   5.000   0.872   8.238 -0.2096  0.3283 -0.2804
21018SOL    HW169400   5.023   0.823   8.317 -2.0524  1.0312  0.7631
21018SOL    HW269401   4.989   0.805   8.171  0.9230 -0.3236  0.1589
21019SOL     OW69402   8.544   8.912   2.025 -0.7036  0.0140  0.3188
21019SOL    HW169403   8.526   8.942   2.115 -0.2488  0.1088  0.3803
21019SOL    HW269404   8.460   8.921   1.980 -0.0607  4.1487 -0.4766
21020SOL     OW69405   7.378   1.436   0.537 -0.2430  0.2411 -0.1238
21020SOL    HW169406   7.362   1.444   0.443  1.7758  0.9002 -0.4665
21020SOL    HW269407   7.442   1.504   0.556 -0.0823 -0.3415  1.6121
21021SOL     OW69408   1.785   7.989   2.044  0.0432 -0.8760 -0.3517
21021SOL    HW169409   1.867   7.941   2.050 -1.0637 -3.0757 -1.4023
21021SOL    HW269410   1.765   7.990   1.950 -1.7079 -1.5735 -0.0433
21022SOL     OW69411   5.189   1.292   8.044  0.5390 -0.9420 -0.5435
21022SOL    HW169412   5.120   1.256   7.989 -0.0688  1.5928 -1.5919
21022SOL    HW269413   5.260   1.313   7.982 -0.2103  2.0843 -0.5524
21023SOL     OW69414   3.770   2.657   4.003  0.4953 -0.4211 -0.0337
21023SOL    HW169415   3.820   2.733   3.975  0.7861 -1.0375 -1.2484
21023SOL    HW269416   3.689   2.662   3.953 -0.6540  0.4909  1.8123
21024SOL     OW69417   0.882   4.041   8.920 -0.8641  0.0362  0.3997
21024SOL    HW169418   0.872   4.039   9.015 -0.4236 -1.1474  0.4444
21024SOL    HW269419   0.967   4.084   8.906  0.0109 -1.4980  0.6734
21025SOL     OW69420   6.111   6.273   7.972  0.2061  0.2264  0.0992
21025SOL    HW169421   6.188   6.320   7.941 -0.4987  1.5850  0.3174
21025SOL    HW269422   6.137   6.237   8.057  0.3343  1.4542  0.5975
21026SOL     OW69423   4.675   8.355   7.056  0.1547 -0.3176 -0.1448
21026SOL    HW169424   4.751   8.311   7.017 -0.5238 -0.5854 -1.2250
21026SOL    HW269425   4.600   8.302   7.029 -0.3701 -0.5457  1.6186
21027SOL     OW69426   2.829   1.296   8.534 -0.3483 -0.5457  0.0294
21027SOL    HW169427   2.744   1.338   8.524 -1.0383 -1.0481  2.8113
21027SOL    HW269428   2.811   1.202   8.522  0.4508 -0.4689 -2.3143
21028SOL     OW69429   8.615   1.424   7.631 -0.2101  0.6407  0.1347
21028SOL    HW169430   8.588   1.515   7.637  0.9939  1.1200 -1.1645
21028SOL    HW269431   8.650   1.403   7.717  1.8495  2.2272 -0.2368
21029SOL     OW69432   7.736   1.787   5.253 -0.2075 -0.2423 -0.3048
21029SOL    HW169433   7.660   1.752   5.208  0.5628 -0.6649 -1.3282
21029SOL    HW269434   7.771   1.853   5.193  0.5213 -0.4157 -0.0853
21030SOL     OW69435   6.125   6.532   4.974  0.3669 -0.1677  0.5960
21030SOL    HW169436   6.138   6.446   4.934  1.2566 -0.0282  0.5686
21030SOL    HW269437   6.193   6.587   4.936 -0.9998  0.9231 -0.4125
21031SOL     OW69438   6.169   8.281   0.054  0.5807 -0.5398 -0.1554
21031SOL    HW169439   6.162   8.232   0.135 -0.9485 -0.4640 -0.2223
21031SOL    HW269440   6.203   8.367   0.080 -0.0359 -0.4717  0.4147
21032SOL     OW69441   2.323   5.781   2.496  0.0898  0.0985  0.5489
21032SOL    HW169442   2.310   5.691   2.466 -1.2189  0.0306  1.2687
21032SOL    HW269443   2.247   5.799   2.551  0.2068  1.7292  0.2131
21033SOL     OW69444   6.474   6.472   5.059  0.1708  0.1647 -0.2955
21033SOL    HW169445   6.435   6.466   5.146 -1.3152 -0.3637 -0.9506
21033SOL    HW269446   6.567   6.457   5.072 -0.1715 -0.9434  1.0780
21034SOL     OW69447   0.039   4.886   1.677  0.1933 -0.0112 -0.0721
21034SOL    HW169448   0.000   4.938   1.607  0.5447 -0.7075 -0.7941
21034SOL    HW269449  -0.034   4.871   1.738 -0.3906 -0.3161 -0.8308
21035SOL     OW69450   4.679   2.246   4.487 -0.3771  0.8932 -0.3427
21035SOL    HW169451   4.657   2.153   4.495  1.0483  0.4702 -0.8578
21035SOL    HW269452   4.613   2.282   4.428 -1.2354  0.3302  0.2532
21036SOL     OW69453   9.054   0.796   7.405 -0.4266  0.3788 -0.0910
21036SOL    HW169454   9.144   0.805   7.374 -0.3052  1.9934  0.6070
21036SOL    HW269455   9.061   0.795   7.500 -1.0344 -1.3375 -0.0342
21037SOL     OW69456   4.510   1.455   3.735  0.2350  0.0362  0.2115
21037SOL    HW169457   4.488   1.548   3.736 -0.9595 -0.1874 -1.0406
21037SOL    HW269458   4.476   1.424   3.651  1.1011 -1.4167  0.3737
21038SOL     OW69459   4.496   8.844   4.645  0.3848 -0.2340 -0.0273
21038SOL    HW169460   4.456   8.757   4.644 -1.4772  0.5732 -0.7107
21038SOL    HW269461   4.465   8.885   4.564  0.7311  1.2634  0.5696
21039SOL     OW69462   2.505   4.406   3.515  0.8730 -0.2535 -0.0131
21039SOL    HW169463   2.473   4.428   3.427  0.7948  1.3741  0.4018
21039SOL    HW269464   2.426   4.384   3.564  1.1032 -3.8296 -0.9858
21040SOL     OW69465   0.898   3.223   3.222 -0.2111 -0.0584  0.1961
21040SOL    HW169466   0.843   3.216   3.300 -0.3883 -1.2926 -0.0211
21040SOL    HW269467   0.916   3.133   3.197 -0.4233  0.2983 -1.3891
21041SOL     OW69468   7.830   4.940   5.094  0.4982 -0.1527  0.3542
21041SOL    HW169469   7.873   4.872   5.043 -0.3734 -0.2969 -0.2150
21041SOL    HW269470   7.769   4.893   5.151  0.7298  0.0783  0.7992
21042SOL     OW69471   0.044   2.983   2.377 -0.0231  0.0017 -0.0790
21042SOL    HW169472   0.049   2.888   2.386 -0.7275 -0.0669 -0.3847
21042SOL    HW269473   0.061   3.016   2.466  0.3906 -0.3933 -0.0045
21043SOL     OW69474   3.591   4.578   2.685 -0.8163 -0.3706 -0.0961
21043SOL    HW169475   3.532   4.507   2.710  0.1575 -0.7503  1.2490
21043SOL    HW269476   3.651   4.539   2.622 -2.3241  0.1822 -1.9709
21044SOL     OW69477   8.419   4.771   2.069  0.3101 -1.0936 -0.5736
21044SOL    HW169478   8.410   4.770   1.973  1.2995 -0.9483 -0.6753
21044SOL    HW269479   8.349   4.714   2.100 -2.2457  1.4578 -1.1939
21045SOL     OW69480   8.757   7.947   7.353 -0.3473 -0.4384 -0.8937
21045SOL    HW169481   8.816   7.882   7.315 -1.3753 -1.5726 -0.6135
21045SOL    HW269482   8.673   7.932   7.309 -0.3923  1.3454 -1.5042
21046SOL     OW69483   5.778   1.262   8.236 -0.0274 -0.3824 -0.0147
21046SOL    HW169484   5.838   1.284   8.308 -0.2932 -0.7074  0.3047
21046SOL    HW269485   5.820   1.189   8.192 -1.6036 -2.6751  2.0342
21047SOL     OW69486   4.656   4.036   0.403 -0.3621 -0.1971  0.0892
21047SOL    HW169487   4.633   4.129   0.395 -2.8655 -0.7063  0.4420
21047SOL    HW269488   4.589   4.000   0.461  0.6587 -2.2140  0.0979
21048SOL     OW69489   7.498   9.142   3.174  0.4442 -0.3253  0.0578
21048SOL    HW169490   7.506   9.100   3.089 -0.6336  0.5584 -0.5125
21048SOL    HW269491   7.404   9.154   3.186  0.6464  4.0874 -0.9829
21049SOL     OW69492   8.972   2.878   4.539  0.1824 -0.2590  0.3859
21049SOL    HW169493   9.044   2.863   4.601  1.5801 -2.9458 -1.7140
21049SOL    HW269494   8.951   2.791   4.505 -0.5685  1.0421 -2.8239
21050SOL     OW69495   7.957   7.229   7.158  0.1498  0.3997 -0.2800
21050SOL    HW169496   7.862   7.225   7.168  0.3584  0.1456  2.0769
21050SOL    HW269497   7.980   7.321   7.176  0.5155  0.0013  1.5058
21051SOL     OW69498   0.442   4.066   5.513 -0.1598  0.0630 -0.4707
21051SOL    HW169499   0.522   4.041   5.558 -0.3347  0.3606  0.0105
21051SOL    HW269500   0.379   4.083   5.583 -0.6276 -0.1192 -0.8448
21052SOL     OW69501   8.354   3.354   6.813 -0.4159 -0.0966 -0.3869
21052SOL    HW169502   8.424   3.301   6.851 -1.5699 -1.0085  0.5614
21052SOL    HW269503   8.280   3.340   6.872 -1.3822  0.8779 -1.3395
21053SOL     OW69504   6.638   6.905   3.911 -0.0520 -0.1119 -0.0696
21053SOL    HW169505   6.596   6.865   3.987 -0.6093 -0.1293 -0.3742
21053SOL    HW269506   6.699   6.838   3.879 -0.6464 -0.5570 -0.3068
21054SOL     OW69507   7.705   4.027   3.809 -0.1360  0.6300  0.9330
21054SOL    HW169508   7.662   4.112   3.799 -0.5941  0.1031 -2.8032
21054SOL    HW269509   7.633   3.964   3.805  0.5226 -0.0752 -1.6110
21055SOL     OW69510   1.064   0.722   3.018 -0.1220  0.4658 -0.1455
21055SOL    HW169511   1.083   0.660   3.088 -0.0005  1.8348  1.0756
21055SOL    HW269512   1.021   0.670   2.950  2.2414 -1.4748 -0.2934
21056SOL     OW69513   6.172   1.713   2.591 -0.3698 -0.4739  0.2933
21056SOL    HW169514   6.092   1.723   2.539 -0.6421 -0.3986  0.7223
21056SOL    HW269515   6.243   1.717   2.527 -0.5244  2.2251  0.1538
21057SOL     OW69516   4.481   4.312   6.489 -0.1868 -0.2016 -0.0561
21057SOL    HW169517   4.537   4.262   6.430  0.0074 -0.5943  0.4514
21057SOL    HW269518   4.400   4.325   6.440  0.5318  0.8532 -1.0160
21058SOL     OW69519   8.883   8.033   3.630  0.1244 -0.2315  0.0273
21058SOL    HW169520   8.898   8.078   3.547 -1.7439 -0.7384 -0.6479
21058SOL    HW269521   8.874   8.104   3.694 -0.4826  0.2886 -0.6020
21059SOL     OW69522   3.805   0.148   0.359  0.5070 -0.9130  0.0220
21059SOL    HW169523   3.771   0.216   0.301  2.5475 -0.1262 -0.3345
21059SOL    HW269524   3.739   0.078   0.356 -0.4795  0.0325 -1.5070
21060SOL     OW69525   1.350   1.525   3.921  0.4060 -0.3627 -0.5926
21060SOL    HW169526   1.345   1.578   4.000 -1.4997  0.9485 -1.4975
21060SOL    HW269527   1.408   1.574   3.863  0.0836 -0.2023 -0.7805
21061SOL     OW69528   2.605   9.215   2.861 -0.2040 -0.0071  0.2535
21061SOL    HW169529   2.582   9.173   2.944 -1.3467  1.2903  0.6274
21061SOL    HW269530   2.576   9.154   2.794  1.2733 -1.3558  0.7670
21062SOL     OW69531   7.216   3.201   4.954 -0.4414 -0.0725  0.2607
21062SOL    HW169532   7.262   3.215   4.871 -0.7946  1.7171  0.3231
21062SOL    HW269533   7.127   3.231   4.937 -1.0003 -1.3656  0.7977
21063SOL     OW69534   2.514   1.449   6.295  0.3888  0.7504  0.3055
21063SOL    HW169535   2.445   1.510   6.322  1.0193  0.1425  3.6953
21063SOL    HW269536   2.595   1.493   6.320  1.0030 -0.3285  0.2513
21064SOL     OW69537   2.137   4.484   4.012 -0.2163  0.3917 -0.4305
21064SOL    HW169538   2.149   4.519   4.100 -0.4975  0.2464 -0.3317
21064SOL    HW269539   2.194   4.537   3.957  0.5590 -0.0162 -0.0428
21065SOL     OW69540   5.136   5.945   5.265 -0.4765 -0.1349  0.1565
21065SOL    HW169541   5.095   6.007   5.205 -1.5601 -1.6089 -0.7014
21065SOL    HW269542   5.081   5.948   5.344 -0.4798  0.0529  0.1470
21066SOL     OW69543   5.326   2.232   8.247  0.0284 -0.2900 -0.1027
21066SOL    HW169544   5.316   2.325   8.266  0.1758 -0.3686  0.3975
21066SOL    HW269545   5.237   2.200   8.237 -0.1640 -0.4830  1.7520
21067SOL     OW69546   5.100   7.977   6.694  0.1580 -0.5412  0.5967
21067SOL    HW169547   5.106   7.884   6.716 -0.4027 -0.7884 -0.2139
21067SOL    HW269548   5.031   8.011   6.751  0.5856 -0.5455  1.1197
21068SOL     OW69549   5.208   8.062   7.567  0.2842  0.0948 -0.1538
21068SOL    HW169550   5.226   7.978   7.610 -0.6626  0.3876  0.8553
21068SOL    HW269551   5.255   8.056   7.484  0.5400 -1.2863  0.0534
21069SOL     OW69552   8.552   2.183   5.280 -0.1812  0.1523  0.3340
21069SOL    HW169553   8.617   2.141   5.223  0.1858  1.0835  0.0442
21069SOL    HW269554   8.519   2.112   5.335  0.9307 -0.3828  0.3373
21070SOL     OW69555   8.733   5.059   2.213 -0.2516  0.1503  0.0515
21070SOL    HW169556   8.679   5.036   2.137  0.1621  1.2650 -0.6105
21070SOL    HW269557   8.737   4.979   2.265 -0.5095 -0.6578 -1.1304
21071SOL     OW69558   5.929   5.674   7.132  0.0584 -0.3514  0.2871
21071SOL    HW169559   5.988   5.600   7.125 -2.0517 -2.2673  1.3663
21071SOL    HW269560   5.899   5.672   7.223 -0.1701  1.7732  0.3127
21072SOL     OW69561   1.109   7.517   8.236  0.1828  0.2339 -0.1158
21072SOL    HW169562   1.018   7.501   8.210 -0.0150  0.4170  0.4554
21072SOL    HW269563   1.152   7.432   8.227 -0.5705 -0.3758  1.7343
21073SOL     OW69564   6.457   3.211   5.902 -0.5983 -0.0757  0.0066
21073SOL    HW169565   6.536   3.252   5.867  0.0550 -1.7664 -0.6093
21073SOL    HW269566   6.436   3.143   5.838 -1.8686 -0.4244  0.7736
21074SOL     OW69567   3.545   4.338   6.926  0.1948  0.4076  0.2164
21074SOL    HW169568   3.505   4.416   6.963  0.2024  0.6854 -0.3460
21074SOL    HW269569   3.471   4.286   6.894  0.1026 -0.3507  1.5665
21075SOL     OW69570   8.573   7.868   6.493 -0.2203 -0.3253 -0.2360
21075SOL    HW169571   8.490   7.911   6.515 -0.4372  0.0145 -1.6448
21075SOL    HW269572   8.640   7.932   6.516 -0.5660  1.1802 -3.0034
21076SOL     OW69573   1.299   2.775   6.098 -0.6664  0.0712 -0.4237
21076SOL    HW169574   1.338   2.689   6.080  0.4465  0.8119 -1.6694
21076SOL    HW269575   1.257   2.801   6.016 -0.9483  0.7554 -0.0726
21077SOL     OW69576   0.674   4.607   1.442  0.2999  0.1036 -0.4765
21077SOL    HW169577   0.647   4.523   1.479 -0.9962  0.5620 -0.3378
21077SOL    HW269578   0.628   4.672   1.495 -0.7376  0.8015 -2.1594
21078SOL     OW69579   5.701   2.124   4.509 -0.2768 -0.0318 -0.1847
21078SOL    HW169580   5.626   2.075   4.475 -0.5848 -0.3110  0.8595
21078SOL    HW269581   5.737   2.067   4.577 -0.2494  0.8995  0.5988
21079SOL     OW69582   2.109   7.798   6.852 -0.0682 -0.0846 -0.6309
21079SOL    HW169583   2.060   7.734   6.904 -0.3806  0.8347  0.2543
21079SOL    HW269584   2.138   7.750   6.775 -0.7975 -1.1295 -0.2748
21080SOL     OW69585   5.606   0.280   5.436 -0.6073  0.5194  0.2642
21080SOL    HW169586   5.544   0.347   5.408 -1.9570 -0.9516 -0.4434
21080SOL    HW269587   5.555   0.224   5.495  0.5378  0.2137  0.9813
21081SOL     OW69588   8.798   4.543   6.646 -0.2477 -0.2185 -0.2066
21081SOL    HW169589   8.784   4.587   6.730  0.5552  0.2697 -0.3244
21081SOL    HW269590   8.879   4.494   6.657  0.1016  0.2054 -0.8435
21082SOL     OW69591   9.166   2.520   7.852 -0.4325  0.1779 -0.3596
21082SOL    HW169592   9.225   2.456   7.812 -0.1860 -0.0013  0.2901
21082SOL    HW269593   9.193   2.604   7.814 -0.7947 -0.0957 -1.2590
21083SOL     OW69594   4.461   7.737   1.458  0.1939 -0.4261 -0.3626
21083SOL    HW169595   4.426   7.714   1.372  0.7846  1.5388 -1.1919
21083SOL    HW269596   4.534   7.677   1.471 -0.3237 -1.1948 -0.9165
21084SOL     OW69597   7.060   1.818   4.912  0.1398 -0.2242 -0.4553
21084SOL    HW169598   6.965   1.808   4.905  0.1619  0.1155 -1.3544
21084SOL    HW269599   7.095   1.767   4.839  0.6601 -0.4772 -0.0311
21085SOL     OW69600   6.261   0.107   7.590  0.1930 -0.0477  0.4468
21085SOL    HW169601   6.322   0.180   7.581 -0.1589  0.2197  0.1805
21085SOL    HW269602   6.274   0.055   7.512  0.4990 -0.3135  0.6745
21086SOL     OW69603   9.020   5.123   2.518  0.4430  0.5109  0.0235
21086SOL    HW169604   9.046   5.034   2.494 -1.4194  0.2886 -1.4613
21086SOL    HW269605   9.066   5.141   2.600  0.3036 -2.1109  0.7750
21087SOL     OW69606   8.721   7.519   8.668  0.3045 -0.7031  0.0431
21087SOL    HW169607   8.802   7.519   8.720  1.2434  1.1348 -1.3114
21087SOL    HW269608   8.750   7.512   8.577 -1.1439 -1.0810 -0.4253
21088SOL     OW69609   7.645   1.969   8.111  0.4935 -0.1493  0.2979
21088SOL    HW169610   7.652   1.900   8.177  1.0411 -0.3395  0.0461
21088SOL    HW269611   7.607   2.044   8.158  1.2646 -0.1501  0.9330
21089SOL     OW69612   6.273   2.015   1.907 -0.0952  0.2328 -0.4210
21089SOL    HW169613   6.199   2.075   1.916 -0.0516  0.1453  0.6408
21089SOL    HW269614   6.267   1.958   1.983  2.0631  1.3521  0.6862
21090SOL     OW69615   2.580   9.163   4.551  0.1637 -0.6992  0.2349
21090SOL    HW169616   2.540   9.078   4.531  0.0815 -1.0919  1.9673
21090SOL    HW269617   2.632   9.147   4.630  2.5616  0.1590 -1.0586
21091SOL     OW69618   4.091   2.678   3.524  0.2219 -0.0023  0.6812
21091SOL    HW169619   4.126   2.690   3.436 -1.5635  1.2235  0.0746
21091SOL    HW269620   4.133   2.598   3.556  2.4400  0.6223 -0.4640
21092SOL     OW69621   1.526   8.377   1.349  0.4390 -0.0293 -0.6504
21092SOL    HW169622   1.616   8.362   1.319  0.9192  0.5928  0.4249
21092SOL    HW269623   1.498   8.456   1.303  0.6878  0.1526 -0.4945
21093SOL     OW69624   6.602   0.740   4.614  0.1622  0.2495  0.1709
21093SOL    HW169625   6.507   0.730   4.617  0.2043  0.0287  1.2614
21093SOL    HW269626   6.636   0.655   4.645  0.7704 -0.3923 -2.0176
21094SOL     OW69627   4.528   4.787   2.729 -0.3762  0.1350  0.2425
21094SOL    HW169628   4.581   4.858   2.766  1.0233 -1.4776  1.4788
21094SOL    HW269629   4.529   4.803   2.634  1.5627  0.6881  0.3210
21095SOL     OW69630   0.909   9.079   2.417 -0.1542 -0.4887  0.1700
21095SOL    HW169631   0.865   8.994   2.415 -1.4077  0.1528 -0.4776
21095SOL    HW269632   0.996   9.061   2.381 -0.8078 -1.2833 -1.0970
21096SOL     OW69633   1.876   7.619   8.808  0.1856  0.2153 -0.4891
21096SOL    HW169634   1.846   7.585   8.892  0.4422  1.8190  0.2908
21096SOL    HW269635   1.797   7.624   8.754  0.0713 -1.1150 -0.4670
21097SOL     OW69636   2.755   4.774   2.719  0.0368  1.1491  0.0417
21097SOL    HW169637   2.726   4.688   2.748 -2.6068  2.3217  1.2990
21097SOL    HW269638   2.848   4.778   2.742 -0.2624 -0.6373  1.8680
21098SOL     OW69639   0.540   7.258   6.596  0.1434 -0.1862  0.1857
21098SOL    HW169640   0.488   7.317   6.651 -0.1323  0.4755 -0.7448
21098SOL    HW269641   0.621   7.244   6.645  1.4538  3.2531 -0.7043
21099SOL     OW69642   0.379   0.238   8.413  0.4354  0.1592  0.0027
21099SOL    HW169643   0.399   0.157   8.460 -2.6557  0.3401  1.8787
21099SOL    HW269644   0.299   0.218   8.364  0.4260  1.6645 -0.6380
21100SOL     OW69645   2.042   0.171   8.883  0.3332 -0.3421  0.0077
21100SOL    HW169646   1.958   0.212   8.861  0.7022  0.2578 -0.3117
21100SOL    HW269647   2.030   0.138   8.972 -0.3934 -0.6820 -0.2047
21101SOL     OW69648   2.950   0.864   8.768 -0.0373 -0.3823  0.2669
21101SOL    HW169649   2.945   0.780   8.722 -2.3011 -0.7199  1.0035
21101SOL    HW269650   2.931   0.929   8.701  1.5436 -0.4266 -0.2685
21102SOL     OW69651   5.178   7.763   3.682  0.2241 -0.4389 -0.7532
21102SOL    HW169652   5.205   7.699   3.616 -1.0335 -2.7527  0.8104
21102SOL    HW269653   5.159   7.843   3.633  0.5367 -1.6675 -2.9990
21103SOL     OW69654   0.373   5.678   0.513  0.5479  0.1790 -0.0482
21103SOL    HW169655   0.335   5.617   0.449  0.3497  1.1621 -0.8833
21103SOL    HW269656   0.383   5.625   0.592 -0.3876 -0.7274 -0.5070
21104SOL     OW69657   6.012   0.140   5.532 -0.6930  0.2464 -0.3320
21104SOL    HW169658   5.922   0.117   5.509 -1.2476 -0.3442  2.1111
21104SOL    HW269659   6.003   0.217   5.589  0.4461  0.8135 -0.8885
21105SOL     OW69660   2.175   0.654   3.904 -0.2705  0.4164 -0.0869
21105SOL    HW169661   2.153   0.643   3.996  0.2390  0.5888  0.0602
21105SOL    HW269662   2.223   0.737   3.901  0.0217  0.2388 -0.4492
21106SOL     OW69663   3.510   6.693   2.991  0.8804 -0.0728 -0.0888
21106SOL    HW169664   3.427   6.736   3.014  1.0919  0.6186 -0.5859
21106SOL    HW269665   3.576   6.740   3.042  1.0555 -0.1228 -0.2674
21107SOL     OW69666   7.983   1.044   3.097 -0.0448 -0.1077  0.3934
21107SOL    HW169667   7.945   1.099   3.028  1.5934  1.5968  0.7691
21107SOL    HW269668   8.024   0.972   3.050 -1.1892 -0.4006 -0.1983
21108SOL     OW69669   6.461   3.350   5.264  0.1595  0.0082 -0.1584
21108SOL    HW169670   6.496   3.283   5.322 -0.3781 -0.0871  0.0602
21108SOL    HW269671   6.538   3.387   5.220  0.6182  0.3839  0.9337
21109SOL     OW69672   2.900   2.936   1.067  0.6585 -0.1019 -0.2966
21109SOL    HW169673   2.866   2.850   1.041  1.4466 -0.8730  1.1060
21109SOL    HW269674   2.991   2.936   1.038  1.5310 -0.9430  2.1597
21110SOL     OW69675   5.652   2.445   6.800  0.8044 -0.0208 -0.2430
21110SOL    HW169676   5.705   2.379   6.845 -0.7306  0.3611  2.3914
21110SOL    HW269677   5.674   2.528   6.844 -0.2083  0.5150 -0.6976
21111SOL     OW69678   5.405   6.605   6.432 -0.3986  0.3822  0.1972
21111SOL    HW169679   5.324   6.556   6.447  0.7209 -2.2243 -1.5281
21111SOL    HW269680   5.461   6.584   6.507 -0.6673  0.7627  0.5091
21112SOL     OW69681   7.467   8.520   2.265  0.0177  0.0680 -0.1537
21112SOL    HW169682   7.465   8.605   2.221  0.0206  0.8707  1.3242
21112SOL    HW269683   7.531   8.532   2.336 -1.2631 -0.6052  1.1598
21113SOL     OW69684   5.322   0.905   2.892  0.7098 -0.3429  0.7849
21113SOL    HW169685   5.285   0.882   2.977  0.6556  0.1768  0.9023
21113SOL    HW269686   5.273   0.852   2.829 -0.2446  0.3303  0.9351
21114SOL     OW69687   9.041   4.427   7.809  0.0508  0.2308  0.6820
21114SOL    HW169688   9.041   4.512   7.854 -0.0263 -0.1827  1.4736
21114SOL    HW269689   9.009   4.447   7.721 -0.5886  0.9226  1.0607
21115SOL     OW69690   7.475   5.013   0.327  0.0404  0.1461  0.0782
21115SOL    HW169691   7.402   5.062   0.290 -0.4577  1.2589  2.3350
21115SOL    HW269692   7.435   4.933   0.363 -0.0206  0.5184  0.8694
21116SOL     OW69693   5.552   8.592   2.168 -0.1573  0.1899  0.3415
21116SOL    HW169694   5.532   8.634   2.084 -0.3372  1.8541  1.1650
21116SOL    HW269695   5.482   8.529   2.181 -0.4053  0.2693 -0.5262
21117SOL     OW69696   6.774   0.181   1.588  0.3605 -0.1090  0.2068
21117SOL    HW169697   6.786   0.250   1.522 -1.9284 -0.0779 -0.2482
21117SOL    HW269698   6.817   0.105   1.550 -0.4918  0.0420 -1.1466
21118SOL     OW69699   3.113   4.064   2.826 -0.3673  0.1084 -0.6215
21118SOL    HW169700   3.201   4.059   2.863 -0.5785 -1.8526 -0.2612
21118SOL    HW269701   3.056   4.030   2.896 -1.4068  1.2769 -0.8735
21119SOL     OW69702   5.241   4.761   2.257 -0.0666  0.2170  0.0634
21119SOL    HW169703   5.238   4.699   2.331  1.9189  0.7120  0.6272
21119SOL    HW269704   5.303   4.721   2.196 -0.6592  0.4846 -0.7258
21120SOL     OW69705   3.912   3.886   7.209  0.1956  0.1808 -0.4174
21120SOL    HW169706   3.931   3.794   7.230 -1.2717 -0.2302 -0.7517
21120SOL    HW269707   3.855   3.881   7.132  1.1292  1.4367 -1.2294
21121SOL     OW69708   0.474   6.575   6.328 -0.2425 -0.5633  0.6265
21121SOL    HW169709   0.508   6.499   6.375  0.2199 -0.5807  0.2659
21121SOL    HW269710   0.497   6.650   6.383  0.0029 -0.6141  0.5923
21122SOL     OW69711   5.216   5.653   9.175  0.1849  0.4732 -0.1885
21122SOL    HW169712   5.282   5.720   9.155  2.2953 -1.1612  0.8718
21122SOL    HW269713   5.160   5.652   9.098  3.0776  0.0507 -2.4692
21123SOL     OW69714   0.508   2.412   1.242 -0.3129  0.1591 -0.3885
21123SOL    HW169715   0.416   2.434   1.229 -0.0778  1.5183  0.0434
21123SOL    HW269716   0.540   2.389   1.155 -0.8803  0.4365 -0.6735
21124SOL     OW69717   1.132   0.158   6.501 -0.2699 -0.2406 -0.1736
21124SOL    HW169718   1.137   0.238   6.450  1.7158  0.1174  0.4766
21124SOL    HW269719   1.127   0.088   6.435  0.5483  0.2940 -0.8245
21125SOL     OW69720   6.397   1.813   3.768 -0.1766  0.4993 -0.3836
21125SOL    HW169721   6.315   1.861   3.756 -1.2558 -1.2489 -0.3341
21125SOL    HW269722   6.385   1.732   3.719  1.6437  0.3056 -0.5819
21126SOL     OW69723   5.339   1.844   4.442  0.0963 -0.1669 -0.3673
21126SOL    HW169724   5.372   1.756   4.426 -0.1506 -0.3732  0.2593
21126SOL    HW269725   5.357   1.891   4.360  3.4561  0.2063  0.4263
21127SOL     OW69726   5.032   0.082   4.005  0.1940 -0.2724 -0.0252
21127SOL    HW169727   5.004   0.041   4.087 -1.3327 -0.5914 -0.6862
21127SOL    HW269728   5.014   0.017   3.938  1.6510 -0.1008 -0.6218
21128SOL     OW69729   9.210   4.414   2.486 -0.0561 -0.2141 -0.0680
21128SOL    HW169730   9.245   4.481   2.546  0.2402  0.0689 -0.5522
21128SOL    HW269731   9.130   4.454   2.451 -1.5713 -1.3128  1.9174
21129SOL     OW69732   0.145   0.486   4.337 -0.3043 -0.1104 -0.2594
21129SOL    HW169733   0.055   0.486   4.368 -0.9995 -2.7049 -1.9792
21129SOL    HW269734   0.198   0.479   4.416 -1.6537  0.1606  0.7026
21130SOL     OW69735   9.073   8.722   0.526 -0.2253  0.0568 -0.1946
21130SOL    HW169736   9.012   8.663   0.482  2.4001 -1.3155 -2.2232
21130SOL    HW269737   9.116   8.669   0.593 -1.3997  1.1348  1.5389
21131SOL     OW69738   1.030   1.762   5.725 -0.1801  0.2500  0.1996
21131SOL    HW169739   0.940   1.736   5.743 -0.3753  0.4656 -0.4482
21131SOL    HW269740   1.064   1.692   5.669 -1.0668  1.8766 -2.5312
21132SOL     OW69741   2.632   6.982   1.918  0.2170  0.4967 -0.6251
21132SOL    HW169742   2.714   6.934   1.909  0.8015  1.6236 -1.5628
21132SOL    HW269743   2.640   7.028   2.001 -0.2322 -0.7755  0.1467
21133SOL     OW69744   2.923   8.343   1.106 -0.1687 -0.2632 -0.2659
21133SOL    HW169745   2.944   8.406   1.175 -0.0191  0.3057 -0.8275
21133SOL    HW269746   2.875   8.273   1.151  0.5714 -0.2658  0.5524
21134SOL     OW69747   6.332   7.400   2.800 -0.3495  0.0828 -0.1069
21134SOL    HW169748   6.311   7.411   2.707  1.8553  0.2169 -0.6511
21134SOL    HW269749   6.327   7.488   2.837 -0.3311  0.1704 -0.3138
21135SOL     OW69750   8.039   1.627   7.120  0.5466 -0.3578  0.1304
21135SOL    HW169751   8.020   1.593   7.033  1.5825 -2.5425  0.6734
21135SOL    HW269752   8.123   1.673   7.110  1.5874 -2.1357  0.2526
21136SOL     OW69753   3.183   6.894   4.616 -0.6398 -0.8046 -0.3340
21136SOL    HW169754   3.146   6.922   4.699  3.0627  2.5278  0.5301
21136SOL    HW269755   3.199   6.976   4.568  0.5710 -2.3533 -2.7835
21137SOL     OW69756   0.173   8.283   0.858 -0.2791  0.0063 -0.2070
21137SOL    HW169757   0.245   8.295   0.795  0.1660 -2.2313 -0.1849
21137SOL    HW269758   0.216   8.278   0.943 -0.4430 -1.3513 -0.1935
21138SOL     OW69759   0.193   4.092   6.460 -0.0847 -0.1590 -0.3823
21138SOL    HW169760   0.147   4.142   6.392 -0.6230  0.3137  0.3170
21138SOL    HW269761   0.126   4.075   6.526  0.4464 -0.5842  0.0523
21139SOL     OW69762   2.546   0.546   0.186  0.2590  0.2929  0.2168
21139SOL    HW169763   2.605   0.523   0.258 -0.2363 -1.5835  0.0727
21139SOL    HW269764   2.459   0.520   0.216 -0.2586  1.3508 -0.2963
21140SOL     OW69765   8.861   8.810   1.732 -0.1575 -0.1920  0.3605
21140SOL    HW169766   8.918   8.766   1.669  1.2773  1.1781  0.6537
21140SOL    HW269767   8.803   8.864   1.677  0.6514  0.4967  0.1732
21141SOL     OW69768   3.435   8.845   8.453  0.3218  0.6168  0.2662
21141SOL    HW169769   3.376   8.851   8.378  0.8712 -1.8764 -0.4408
21141SOL    HW269770   3.378   8.823   8.526  0.0803  0.4551  0.0332
21142SOL     OW69771   1.627   3.435   2.288 -0.1883  0.2786  0.6649
21142SOL    HW169772   1.564   3.366   2.307 -0.5139  0.8785  1.9713
21142SOL    HW269773   1.576   3.502   2.242 -0.1314  0.0840  0.3254
21143SOL     OW69774   6.459   5.785   3.773  0.7334 -0.0910  0.2408
21143SOL    HW169775   6.506   5.867   3.758  1.4792 -0.8099 -1.7216
21143SOL    HW269776   6.505   5.743   3.846 -0.6730  1.9064  2.3930
21144SOL     OW69777   0.050   2.943   6.898  0.4220 -0.2949  0.4736
21144SOL    HW169778   0.120   3.008   6.896  1.3890 -1.3385 -0.2422
21144SOL    HW269779  -0.026   2.992   6.931  1.1948  1.1115  0.2650
21145SOL     OW69780   1.734   3.670   4.579 -0.4389 -0.2607 -0.5300
21145SOL    HW169781   1.639   3.677   4.577 -0.4205 -0.0749 -0.7212
21145SOL    HW269782   1.759   3.644   4.490 -0.4747 -2.4364  0.0364
21146SOL     OW69783   6.649   8.435   0.492 -0.3337 -0.0411  0.4794
21146SOL    HW169784   6.571   8.382   0.503  0.1882 -1.0517 -0.4432
21146SOL    HW269785   6.696   8.426   0.575 -0.7718 -0.1325  0.7213
21147SOL     OW69786   5.019   3.883   2.361 -0.3637  0.2681 -0.4831
21147SOL    HW169787   5.043   3.975   2.369 -0.1831  0.3605 -1.8786
21147SOL    HW269788   5.024   3.865   2.268 -0.0987 -1.2394 -0.2020
21148SOL     OW69789   0.469   4.750   6.952 -0.0388 -0.1061 -0.4637
21148SOL    HW169790   0.482   4.685   6.883  1.1097 -1.6402  1.1096
21148SOL    HW269791   0.446   4.831   6.905 -1.0376 -1.4873 -2.5167
21149SOL     OW69792   5.578   3.152   1.771  0.3547 -0.4630 -0.3177
21149SOL    HW169793   5.513   3.143   1.841  0.8360  0.6718  0.2997
21149SOL    HW269794   5.593   3.246   1.764  0.1199 -0.5349 -2.1462
21150SOL     OW69795   3.094   7.947   6.497  0.0288  0.3138  0.3476
21150SOL    HW169796   3.039   7.877   6.462  0.0223  0.5038 -0.0361
21150SOL    HW269797   3.168   7.902   6.537 -0.1450  0.0754  0.4035
21151SOL     OW69798   1.769   5.197   6.140 -0.5603  0.3774  1.0225
21151SOL    HW169799   1.819   5.116   6.154  0.5854  1.0629  1.0595
21151SOL    HW269800   1.790   5.221   6.049 -2.0957 -0.1492  0.5052
21152SOL     OW69801   8.822   8.789   7.172  0.4882 -0.4659 -0.7508
21152SOL    HW169802   8.896   8.740   7.209  1.4436  1.2063 -0.3528
21152SOL    HW269803   8.840   8.791   7.077  0.8276 -0.2901 -0.6858
21153SOL     OW69804   6.014   0.410   6.081  0.0032  0.3676 -0.6308
21153SOL    HW169805   6.086   0.419   6.018  0.1528 -1.2029 -0.7243
21153SOL    HW269806   6.009   0.496   6.123  1.7039  0.6277 -0.8621
21154SOL     OW69807   6.236   5.335   3.782 -0.0750 -0.1173  0.5906
21154SOL    HW169808   6.261   5.296   3.698 -1.6878 -0.7277  0.3537
21154SOL    HW269809   6.255   5.428   3.773  0.0566 -0.2331 -0.3452
21155SOL     OW69810   7.919   8.027   9.015  0.0951 -0.1913  0.3980
21155SOL    HW169811   7.947   8.093   8.952  2.0432 -3.5709 -2.6877
21155SOL    HW269812   7.992   8.018   9.076 -0.1927  0.4704  0.8511
21156SOL     OW69813   1.765   2.017   4.585  0.2115 -0.2179  0.7092
21156SOL    HW169814   1.753   2.080   4.514  0.4038 -0.3753  0.5360
21156SOL    HW269815   1.699   2.041   4.650 -0.4398 -0.5197  0.1654
21157SOL     OW69816   1.782   3.523   5.340 -0.2239 -0.0664 -0.4332
21157SOL    HW169817   1.794   3.429   5.355 -0.4766  0.3041  2.8876
21157SOL    HW269818   1.870   3.556   5.320 -0.2850 -1.0736 -2.6159
21158SOL     OW69819   8.706   5.466   1.265 -0.3617 -0.2394 -0.5208
21158SOL    HW169820   8.719   5.428   1.352 -0.3286  0.2829 -0.2979
21158SOL    HW269821   8.795   5.477   1.230 -0.2679  1.2069  0.0966
21159SOL     OW69822   3.017   3.150   6.052 -0.0776  0.3944 -0.0529
21159SOL    HW169823   2.927   3.170   6.026 -0.7057  0.8779  2.2840
21159SOL    HW269824   3.058   3.236   6.064  0.2273  0.1848  0.4192
21160SOL     OW69825   7.508   5.751   6.864  0.2886  0.6463  0.3679
21160SOL    HW169826   7.423   5.734   6.903  1.4079  1.1096  3.2504
21160SOL    HW269827   7.566   5.683   6.899  1.5599  1.6080  0.2466
21161SOL     OW69828   2.587   4.407   2.411 -0.1836  0.0408  0.1638
21161SOL    HW169829   2.526   4.471   2.447  0.7298  0.3298  1.2227
21161SOL    HW269830   2.603   4.437   2.322 -0.7050  0.5879  0.2508
21162SOL     OW69831   4.533   6.237   4.113 -0.2349  0.0001  0.0948
21162SOL    HW169832   4.514   6.324   4.150 -1.1183 -0.4172  0.6422
21162SOL    HW269833   4.498   6.241   4.024 -1.0597 -0.0856  0.4144
21163SOL     OW69834   7.637   7.230   2.741 -0.1655  0.0080 -0.1160
21163SOL    HW169835   7.559   7.284   2.731  0.4242  0.6113 -2.0840
21163SOL    HW269836   7.705   7.279   2.693  0.9122 -1.4581 -0.1395
21164SOL     OW69837   6.089   6.484   2.195 -0.0764 -0.0155  0.2428
21164SOL    HW169838   6.033   6.429   2.250  0.0847 -0.5589 -0.1375
21164SOL    HW269839   6.098   6.436   2.113  0.6109  0.2653  0.1485
21165SOL     OW69840   5.351   4.543   0.788 -0.0028 -0.3689  0.3905
21165SOL    HW169841   5.444   4.529   0.768 -0.4266 -0.8773 -1.4067
21165SOL    HW269842   5.351   4.579   0.876  2.0033  1.0039 -0.0905
21166SOL     OW69843   5.145   1.377   2.746  0.3245  0.0344 -0.4301
21166SOL    HW169844   5.129   1.290   2.782  0.3622 -0.2624 -1.1087
21166SOL    HW269845   5.059   1.407   2.716  0.5063 -0.3206 -1.3682
21167SOL     OW69846   5.289   1.143   0.605 -0.1932 -0.2395 -0.1219
21167SOL    HW169847   5.213   1.086   0.613  0.4206 -1.0821 -0.1655
21167SOL    HW269848   5.343   1.103   0.537  1.2782 -0.8304  1.3318
21168SOL     OW69849   3.923   2.488   9.051 -0.8413 -0.0318 -0.0281
21168SOL    HW169850   3.945   2.569   9.098 -1.4608  0.2308 -0.1840
21168SOL    HW269851   4.006   2.440   9.047 -0.6748  0.1548  0.9080
21169SOL     OW69852   4.959   6.422   5.594  0.3944 -0.2505 -0.3674
21169SOL    HW169853   4.926   6.426   5.684  0.1030 -0.8730 -0.4388
21169SOL    HW269854   4.910   6.488   5.546 -0.0553 -0.4949 -0.2517
21170SOL     OW69855   4.647   7.296   6.906  0.4446  0.2709  0.1951
21170SOL    HW169856   4.717   7.362   6.911 -0.8346  1.5553  2.6636
21170SOL    HW269857   4.686   7.217   6.942  1.9367 -0.4132 -2.6157
21171SOL     OW69858   6.851   5.311   5.303 -0.2311  0.4068 -0.3957
21171SOL    HW169859   6.774   5.361   5.329 -0.1203  1.2877 -1.6580
21171SOL    HW269860   6.843   5.303   5.208  0.3288 -1.0413 -0.3393
21172SOL     OW69861   7.395   4.087   1.124  0.1291  0.3586  0.2708
21172SOL    HW169862   7.460   4.136   1.073 -0.1553 -1.0638 -1.5760
21172SOL    HW269863   7.447   4.026   1.176  0.3398  0.1759 -0.1504
21173SOL     OW69864   5.271   3.379   0.861 -0.6286  0.6340 -0.3660
21173SOL    HW169865   5.363   3.406   0.861  0.0119 -1.3359 -1.3043
21173SOL    HW269866   5.242   3.392   0.951  0.7946  0.6344  0.1130
21174SOL     OW69867   1.180   5.170   2.764  0.7403 -0.0101  0.3772
21174SOL    HW169868   1.245   5.238   2.780  1.8818 -0.3497 -2.2825
21174SOL    HW269869   1.217   5.092   2.804  0.2337  0.5271  1.9514
21175SOL     OW69870   0.363   8.336   7.721  0.1271 -0.0083  0.0188
21175SOL    HW169871   0.416   8.369   7.648  0.7449  0.4313  0.6571
21175SOL    HW269872   0.350   8.411   7.778  1.7670 -0.8679  1.6295
21176SOL     OW69873   1.774   1.756   4.627 -0.4888 -0.0436 -0.1722
21176SOL    HW169874   1.852   1.731   4.578  1.3036  1.0337  1.9670
21176SOL    HW269875   1.757   1.847   4.601  1.0758  0.8831  1.7875
21177SOL     OW69876   4.958   8.517   6.526 -0.0309 -0.0094  0.6592
21177SOL    HW169877   4.883   8.457   6.533  0.5810 -0.6720  1.6468
21177SOL    HW269878   4.994   8.522   6.614  0.9267  0.5320  0.2527
21178SOL     OW69879   6.979   5.652   2.441 -0.1661 -0.8787  0.1581
21178SOL    HW169880   6.949   5.629   2.353  0.9079  1.6015 -0.9515
21178SOL    HW269881   7.059   5.702   2.427  0.4564 -1.0396  2.6134
21179SOL     OW69882   4.933   0.890   8.888 -0.1692 -0.2245  0.1484
21179SOL    HW169883   4.957   0.816   8.833 -1.2380 -1.4810  1.2677
21179SOL    HW269884   4.899   0.956   8.827  2.2498  0.0161 -1.0219
21180SOL     OW69885   8.079   0.924   1.846  0.5757 -0.0556  0.4271
21180SOL    HW169886   8.164   0.936   1.803  0.7242 -1.4105  0.2951
21180SOL    HW269887   8.097   0.865   1.919 -0.2997 -0.6715  0.1687
21181SOL     OW69888   4.441   0.166   0.965 -0.6564  0.2091  0.2114
21181SOL    HW169889   4.447   0.244   0.911  1.1012 -0.0732 -0.0624
21181SOL    HW269890   4.443   0.198   1.055 -1.0946  0.5305  0.1096
21182SOL     OW69891   5.088   0.169   1.531 -0.1288  0.5346 -0.0519
21182SOL    HW169892   5.143   0.097   1.500 -1.1370  0.0551 -0.7914
21182SOL    HW269893   5.141   0.247   1.516  0.0628  0.1585 -1.4867
21183SOL     OW69894   5.095   2.225   7.325  0.3978  0.1479 -0.0871
21183SOL    HW169895   5.071   2.240   7.234  0.6368 -0.7700 -0.3113
21183SOL    HW269896   5.033   2.279   7.375  1.0493  1.6246 -0.8050
21184SOL     OW69897   6.664   1.630   8.972 -0.3436 -0.0988 -0.1168
21184SOL    HW169898   6.618   1.552   8.941 -0.7617  0.4646 -0.9558
21184SOL    HW269899   6.716   1.658   8.897  0.2612  0.0927  0.3709
21185SOL     OW69900   8.721   2.275   3.525 -0.0366 -1.0896  0.2079
21185SOL    HW169901   8.661   2.213   3.484 -1.3870  0.8591 -0.9353
21185SOL    HW269902   8.668   2.320   3.591  0.8969 -1.1195  0.9943
21186SOL     OW69903   5.016   4.192   0.721 -0.3195  0.0217  0.0425
21186SOL    HW169904   5.037   4.122   0.784 -0.6951  1.5704  1.9766
21186SOL    HW269905   5.098   4.241   0.712 -0.3799  0.0481 -0.3770
21187SOL     OW69906   7.791   1.413   2.500  0.5275 -0.2623  0.0085
21187SOL    HW169907   7.837   1.472   2.441  0.8340 -0.1244  0.3811
21187SOL    HW269908   7.800   1.454   2.587 -0.2237 -0.2746  0.0981
21188SOL     OW69909   4.768   4.730   7.757  0.1328  0.6072 -0.1037
21188SOL    HW169910   4.744   4.810   7.804 -1.4268 -0.5624  1.2277
21188SOL    HW269911   4.772   4.663   7.825 -0.9071 -0.8879 -1.4390
21189SOL     OW69912   0.202   3.596   5.121  0.2017 -0.1886  0.3797
21189SOL    HW169913   0.106   3.596   5.123  0.1718  0.2382 -0.4957
21189SOL    HW269914   0.226   3.503   5.117 -0.3408 -0.3428 -3.4211
21190SOL     OW69915   7.412   4.894   4.676  0.4224  0.3903  0.5229
21190SOL    HW169916   7.364   4.967   4.716 -2.1472 -0.8349 -0.0829
21190SOL    HW269917   7.345   4.844   4.630  1.9048 -2.8147  1.5542
21191SOL     OW69918   2.939   1.504   4.861 -0.6576 -0.4337 -0.0912
21191SOL    HW169919   2.958   1.417   4.897  1.4520  0.9068  2.3248
21191SOL    HW269920   2.978   1.502   4.773 -0.3002 -1.7953  0.0752
21192SOL     OW69921   8.239   6.250   1.046 -0.4367 -0.3498 -0.0857
21192SOL    HW169922   8.280   6.336   1.032  1.4247 -1.1597  0.1024
21192SOL    HW269923   8.158   6.269   1.092 -1.0977  1.4618 -1.8414
21193SOL     OW69924   0.367   8.503   4.588  0.3240  0.1559 -0.2071
21193SOL    HW169925   0.359   8.597   4.607 -0.3873  0.5127 -2.0373
21193SOL    HW269926   0.422   8.469   4.658  2.3014  2.3317 -0.5797
21194SOL     OW69927   2.146   8.157   1.004 -0.3511 -0.1416 -0.3190
21194SOL    HW169928   2.092   8.233   1.022 -0.3965 -0.4700  1.0898
21194SOL    HW269929   2.226   8.172   1.055  0.3976 -0.2157 -1.4368
21195SOL     OW69930   6.344   7.492   6.116  0.3466  0.5992 -0.2274
21195SOL    HW169931   6.302   7.520   6.196  0.3433  0.0462 -0.0279
21195SOL    HW269932   6.383   7.571   6.080  0.6704  0.7848  0.5149
21196SOL     OW69933   3.665   7.767   5.507  0.1754  0.7537 -0.3473
21196SOL    HW169934   3.703   7.782   5.421 -1.4488  1.0295 -1.0485
21196SOL    HW269935   3.652   7.672   5.511  0.2773  0.7381 -0.3815
21197SOL     OW69936   1.569   7.044   2.893 -0.0757  0.0947  0.3390
21197SOL    HW169937   1.555   7.116   2.831 -0.7115 -0.1717  0.1648
21197SOL    HW269938   1.631   7.079   2.957  0.4786  0.4290 -0.3623
21198SOL     OW69939   2.500   7.161   4.451  0.2432 -0.5507 -0.1162
21198SOL    HW169940   2.568   7.095   4.464 -0.4934 -1.2154  0.4521
21198SOL    HW269941   2.482   7.193   4.540  0.4299  0.2600 -0.3619
21199SOL     OW69942   6.384   1.532   6.791 -0.1529  0.0407 -0.1219
21199SOL    HW169943   6.423   1.445   6.791 -0.2627 -0.0329  1.1564
21199SOL    HW269944   6.407   1.569   6.877 -0.0532  1.2982 -0.6611
21200SOL     OW69945   4.158   3.080   0.554  0.5338 -0.1309 -0.4279
21200SOL    HW169946   4.190   3.169   0.572  1.4715 -0.3992 -0.7380
21200SOL    HW269947   4.208   3.051   0.478 -1.8571  0.1691 -2.2433
21201SOL     OW69948   7.502   8.010   8.302  0.1645  0.1323 -0.0739
21201SOL    HW169949   7.516   7.988   8.394 -0.3401  0.7413  0.1597
21201SOL    HW269950   7.453   8.092   8.304 -0.2046 -0.0547 -0.8839
21202SOL     OW69951   8.672   6.963   8.719  0.2931  0.0087 -0.5484
21202SOL    HW169952   8.661   7.056   8.698 -2.1921  0.3008  1.5067
21202SOL    HW269953   8.703   6.962   8.809  0.1346 -1.1487 -0.4906
21203SOL     OW69954   6.816   3.640   7.926 -0.7895  0.2746 -0.2889
21203SOL    HW169955   6.780   3.626   7.839 -2.8586 -0.5930  0.6453
21203SOL    HW269956   6.817   3.553   7.966 -1.9210  0.9387  1.2738
21204SOL     OW69957   3.506   6.395   8.828  0.6507 -0.5470 -0.4506
21204SOL    HW169958   3.581   6.452   8.815  3.0630 -3.3961  0.0024
21204SOL    HW269959   3.464   6.427   8.908  1.9541  0.5368 -0.1768
21205SOL     OW69960   7.734   6.257   4.191  0.2854  0.1616  0.6365
21205SOL    HW169961   7.805   6.216   4.240  0.0883 -1.3613 -0.2725
21205SOL    HW269962   7.776   6.288   4.110  0.2634  1.0287  0.9438
21206SOL     OW69963   8.492   7.880   7.254  0.1891  0.1598  0.5127
21206SOL    HW169964   8.401   7.852   7.242 -0.0884  1.3572 -0.4211
21206SOL    HW269965   8.494   7.970   7.221  1.9359 -0.1801 -0.4379
21207SOL     OW69966   2.955   7.123   9.081 -0.0800  0.1844  0.2156
21207SOL    HW169967   2.867   7.158   9.099  0.2939  0.8997  0.7130
21207SOL    HW269968   2.951   7.094   8.990  0.2468  3.7590 -1.1058
21208SOL     OW69969   1.671   6.949   0.477 -0.2302  0.0772  0.0660
21208SOL    HW169970   1.598   7.008   0.495 -0.4556  0.2641 -1.3206
21208SOL    HW269971   1.640   6.863   0.506 -0.4384  0.4052  0.8169
21209SOL     OW69972   7.294   3.818   5.381  0.3442 -0.1820 -0.0699
21209SOL    HW169973   7.340   3.763   5.444 -0.4745 -1.0570 -0.2052
21209SOL    HW269974   7.266   3.757   5.312 -0.6536  0.3804 -0.1818
21210SOL     OW69975   7.162   2.722   3.765  0.0877 -0.0917  0.4008
21210SOL    HW169976   7.108   2.715   3.844  0.4162 -1.5457  0.5195
21210SOL    HW269977   7.098   2.735   3.694 -0.1409  2.6876  0.9963
21211SOL     OW69978   3.769   5.038   5.718 -0.0843 -0.1407  0.5062
21211SOL    HW169979   3.684   5.039   5.672 -0.3623  1.7157  0.9873
21211SOL    HW269980   3.759   5.103   5.787  1.8317  0.2742  0.4273
21212SOL     OW69981   6.640   8.055   7.220  0.2597  0.2677 -0.1708
21212SOL    HW169982   6.579   7.982   7.216 -0.0313  0.4563  0.6559
21212SOL    HW269983   6.611   8.115   7.151 -0.2808  0.2016 -0.0029
21213SOL     OW69984   5.099   6.829   1.349  0.1250  0.3035 -0.3166
21213SOL    HW169985   5.103   6.777   1.269 -0.0233  0.2697 -0.3031
21213SOL    HW269986   5.157   6.784   1.410 -1.2031 -0.7667  0.2171
21214SOL     OW69987   7.144   2.677   5.308 -0.2633 -0.0023  0.2060
21214SOL    HW169988   7.061   2.647   5.345  0.0970 -0.0947  0.9751
21214SOL    HW269989   7.182   2.731   5.377  1.5934 -2.2086  1.0306
21215SOL     OW69990   6.768   7.858   7.612  0.6275  0.2135 -0.1390
21215SOL    HW169991   6.811   7.922   7.554  0.6350  0.8644  0.5805
21215SOL    HW269992   6.828   7.849   7.686  0.2866 -0.1068  0.0985
21216SOL     OW69993   2.568   2.718   6.797  0.4692  0.3931  0.2815
21216SOL    HW169994   2.567   2.752   6.886 -0.5096  1.0391  0.0404
21216SOL    HW269995   2.633   2.771   6.751  2.8889 -1.6126  1.2010
21217SOL     OW69996   8.975   0.560   0.027  0.4206  0.2198 -0.3824
21217SOL    HW169997   8.937   0.473   0.042 -0.5157  0.9544  1.8388
21217SOL    HW269998   9.027   0.577   0.106  1.6737  1.1508 -1.3768
21218SOL     OW69999   6.911   4.178   2.676 -0.5559 -0.2190 -0.5116
21218SOL    HW170000   6.971   4.237   2.630 -1.0294  0.7653  0.0976
21218SOL    HW270001   6.922   4.200   2.769 -2.9286  1.1003 -0.4450
21219SOL     OW70002   8.941   1.148   5.820  0.5878  0.2857 -0.0888
21219SOL    HW170003   8.957   1.054   5.833 -0.2919 -0.0791 -1.4049
21219SOL    HW270004   8.859   1.164   5.864 -0.2193 -0.0108 -1.4167
21220SOL     OW70005   4.884   1.859   8.539 -0.1623  0.2459 -0.1282
21220SOL    HW170006   4.924   1.819   8.462 -0.9967 -1.3578  0.2203
21220SOL    HW270007   4.792   1.830   8.536 -0.0615 -0.4461  1.8130
21221SOL     OW70008   4.500   2.185   5.801  0.8080 -0.0579  0.2197
21221SOL    HW170009   4.561   2.187   5.727  0.5934 -0.6564  0.0223
21221SOL    HW270010   4.530   2.255   5.859 -0.0149  1.5793 -1.2274
21222SOL     OW70011   7.602   0.063   1.064 -0.0630  0.1881 -0.0653
21222SOL    HW170012   7.663   0.128   1.030  1.5611 -1.5200 -0.5700
21222SOL    HW270013   7.587   0.089   1.155  1.8366  0.3961  0.2254
21223SOL     OW70014   6.364   9.131   1.663 -0.0236 -0.0756  0.3226
21223SOL    HW170015   6.432   9.160   1.723 -0.4562 -0.2898  0.9205
21223SOL    HW270016   6.341   9.210   1.613  0.0602  0.1970  0.7082
21224SOL     OW70017   4.067   5.219   8.974 -0.2196 -0.7510 -0.4487
21224SOL    HW170018   4.022   5.189   9.053  0.8745  1.4026  1.1071
21224SOL    HW270019   4.122   5.146   8.949  0.0582 -1.2092  1.3423
21225SOL     OW70020   2.482   6.934   6.210 -0.5825  0.0361 -0.0234
21225SOL    HW170021   2.418   6.903   6.147 -1.5347 -0.4647  1.1499
21225SOL    HW270022   2.522   7.010   6.168 -2.6652  0.9894 -0.4036
21226SOL     OW70023   0.508   8.084   7.685  0.3076 -0.2103 -0.2318
21226SOL    HW170024   0.484   8.008   7.632 -0.2699 -1.3050  1.5213
21226SOL    HW270025   0.426   8.133   7.694  0.4801  0.1519 -0.6158
21227SOL     OW70026   7.946   7.522   7.194 -0.4637  0.0271  0.7480
21227SOL    HW170027   7.935   7.607   7.236 -0.3519 -0.0882  1.0180
21227SOL    HW270028   7.872   7.470   7.227  0.2430 -0.4175  1.7174
21228SOL     OW70029   5.486   7.947   7.881 -0.5907 -0.0182  0.5430
21228SOL    HW170030   5.498   8.024   7.936 -1.0251 -1.4360  2.7552
21228SOL    HW270031   5.536   7.878   7.925 -1.7220 -1.4365 -0.3213
21229SOL     OW70032   0.750   7.937   1.118 -0.7941  0.1234  0.1304
21229SOL    HW170033   0.784   8.021   1.148 -1.3804  0.7567 -0.9042
21229SOL    HW270034   0.814   7.872   1.148  0.1813  1.0431  0.0937
21230SOL     OW70035   3.178   6.601   4.257 -0.8744 -0.2908 -0.0682
21230SOL    HW170036   3.106   6.631   4.313 -0.9836  0.7732 -0.7557
21230SOL    HW270037   3.249   6.662   4.274 -0.1336 -1.3083  0.5641
21231SOL     OW70038   1.956   6.143   4.903 -0.4976  0.3622  0.2533
21231SOL    HW170039   1.962   6.151   4.808 -1.7063  1.5051  0.2408
21231SOL    HW270040   1.866   6.116   4.920 -0.4106  0.5464  1.0898
21232SOL     OW70041   0.270   3.874   2.015 -0.0171 -0.2175  0.6134
21232SOL    HW170042   0.215   3.847   1.941  0.4302  1.5047 -0.4048
21232SOL    HW270043   0.360   3.865   1.982  0.1767  0.8739  0.8042
21233SOL     OW70044   0.110   4.875   1.352  1.0783 -0.1528 -0.2696
21233SOL    HW170045   0.116   4.780   1.362  1.2569  0.0837  3.9619
21233SOL    HW270046   0.024   4.897   1.389  0.8591  1.3315 -1.5602
21234SOL     OW70047   2.491   4.270   3.017 -0.5810 -0.4451 -0.3965
21234SOL    HW170048   2.543   4.350   3.013 -0.8066 -0.2671  0.0977
21234SOL    HW270049   2.427   4.287   3.087 -0.0414 -1.3913  0.3544
21235SOL     OW70050   3.642   3.384   7.007 -0.6151 -0.1061 -0.0619
21235SOL    HW170051   3.667   3.446   7.077 -0.4154  2.3966 -2.1862
21235SOL    HW270052   3.547   3.395   6.999 -0.4474  0.6977 -1.0940
21236SOL     OW70053   4.371   4.090   4.086 -0.0558 -0.1259  0.0764
21236SOL    HW170054   4.431   4.163   4.071 -0.4929  0.5651  1.4551
21236SOL    HW270055   4.291   4.115   4.039 -0.2903  0.4420  0.7403
21237SOL     OW70056   0.340   8.694   8.284  0.4377  0.6780  0.1186
21237SOL    HW170057   0.291   8.623   8.243 -0.5508  1.1748  0.3840
21237SOL    HW270058   0.417   8.652   8.322 -0.5196 -0.3928  0.9544
21238SOL     OW70059   8.850   2.209   0.281  0.6292  0.0486  0.2273
21238SOL    HW170060   8.944   2.210   0.299  0.7979 -1.4592 -0.4333
21238SOL    HW270061   8.843   2.173   0.193 -0.5759 -0.2255  0.4229
21239SOL     OW70062   6.898   0.611   4.846 -0.1329  0.5222  0.8192
21239SOL    HW170063   6.840   0.572   4.781  1.1891 -0.0739 -0.0421
21239SOL    HW270064   6.893   0.705   4.830 -1.7033  0.5850  1.5079
21240SOL     OW70065   0.288   6.507   1.998 -0.3879  0.3541 -0.2896
21240SOL    HW170066   0.223   6.455   2.045 -1.1361  1.5497  0.0543
21240SOL    HW270067   0.237   6.557   1.934  0.2999  0.7470 -0.5430
21241SOL     OW70068   8.555   5.193   0.090 -0.0655 -0.4231 -0.1534
21241SOL    HW170069   8.542   5.287   0.076 -0.4035 -0.4635 -0.1246
21241SOL    HW270070   8.592   5.162   0.007  0.2927 -0.2207 -0.0722
21242SOL     OW70071   1.400   2.532   6.028 -0.6983  0.4450  0.2097
21242SOL    HW170072   1.449   2.461   6.067 -0.1319  0.3966 -0.5578
21242SOL    HW270073   1.459   2.568   5.961 -1.1320  1.3616  0.3005
21243SOL     OW70074   4.270   9.116   8.405  0.1470  0.0640 -0.3995
21243SOL    HW170075   4.304   9.167   8.332  0.7187 -0.0317 -0.2063
21243SOL    HW270076   4.186   9.156   8.425  0.5130  0.8351 -0.3584
21244SOL     OW70077   1.744   6.926   6.151  0.5891  0.4661 -0.1757
21244SOL    HW170078   1.801   6.865   6.104  0.0640  0.6388 -1.0445
21244SOL    HW270079   1.683   6.869   6.199  1.6155  0.2773  0.9403
21245SOL     OW70080   6.484   7.661   0.333  0.0074 -0.1341  0.1693
21245SOL    HW170081   6.556   7.605   0.305  0.8016  0.6460  0.6197
21245SOL    HW270082   6.512   7.750   0.310 -0.9281  0.1573  0.1019
21246SOL     OW70083   2.394   4.538   4.430  0.2887  0.2431 -0.1771
21246SOL    HW170084   2.438   4.494   4.503  0.2772 -0.4180 -0.5555
21246SOL    HW270085   2.357   4.617   4.468  1.2239  0.4678  0.2964
21247SOL     OW70086   6.716   4.280   3.995  0.3829 -0.2396 -0.3022
21247SOL    HW170087   6.747   4.205   4.045  0.8226  0.4547  0.4758
21247SOL    HW270088   6.794   4.333   3.978  0.3988 -0.8503 -2.4456
21248SOL     OW70089   7.104   0.627   5.100 -0.4169 -0.2920  0.4354
21248SOL    HW170090   7.172   0.679   5.143  0.0138 -0.6474  0.1887
21248SOL    HW270091   7.028   0.686   5.096  0.3138  0.6355 -0.5942
21249SOL     OW70092   2.913   6.140   9.067  0.0130 -0.9740  0.5113
21249SOL    HW170093   2.870   6.089   9.135 -0.1902  0.5453  1.5713
21249SOL    HW270094   3.005   6.144   9.094 -0.3249  0.8224  1.5017
21250SOL     OW70095   2.178   1.648   0.367 -0.2377  0.1947  0.3924
21250SOL    HW170096   2.115   1.590   0.410  0.2710 -1.5659 -1.1058
21250SOL    HW270097   2.249   1.659   0.431 -0.7842 -0.0298  1.0527
21251SOL     OW70098   4.422   5.630   6.618 -0.4986  0.8408 -0.5174
21251SOL    HW170099   4.468   5.547   6.602 -1.3159  0.1763  0.4467
21251SOL    HW270100   4.421   5.639   6.713 -1.0292  1.6126 -0.5875
21252SOL     OW70101   4.527   3.350   8.249 -0.1996 -0.1681  0.7804
21252SOL    HW170102   4.466   3.340   8.322  1.7832  1.6148  2.8628
21252SOL    HW270103   4.591   3.280   8.262  0.6711  0.7138  1.3520
21253SOL     OW70104   1.724   7.815   6.658 -0.3895  0.2706  0.1978
21253SOL    HW170105   1.769   7.839   6.738 -1.2452 -1.9994  1.4585
21253SOL    HW270106   1.645   7.870   6.658  0.4713  1.5563 -0.0710
21254SOL     OW70107   6.138   8.888   3.883 -0.4331  0.0606 -0.0870
21254SOL    HW170108   6.121   8.977   3.914 -0.1082 -0.0151  0.3249
21254SOL    HW270109   6.126   8.892   3.788  0.8282  0.8465 -0.2283
21255SOL     OW70110   6.522   3.723   4.213  0.1131 -0.3058 -0.1434
21255SOL    HW170111   6.444   3.778   4.207 -0.0521 -0.6204 -1.2872
21255SOL    HW270112   6.564   3.732   4.127 -0.4224 -2.6224 -0.7405
21256SOL     OW70113   8.995   2.378   1.108  0.1058  0.1268 -0.2374
21256SOL    HW170114   9.044   2.306   1.148 -1.4932 -0.9642 -0.1206
21256SOL    HW270115   9.061   2.445   1.089  1.4856 -0.9244  0.6404
21257SOL     OW70116   0.186   2.717   8.694  0.0510  0.1049  0.3150
21257SOL    HW170117   0.113   2.778   8.703 -0.6112 -0.7046  0.5623
21257SOL    HW270118   0.254   2.768   8.649 -0.5889  0.9271  0.2411
21258SOL     OW70119   2.631   7.881   7.206  0.2862  0.0519  0.6064
21258SOL    HW170120   2.553   7.839   7.169  1.0606 -0.0799 -0.9356
21258SOL    HW270121   2.629   7.857   7.299 -0.5538 -1.4272  0.2353
21259SOL     OW70122   2.233   9.099   4.337  0.1902 -0.1171  0.0609
21259SOL    HW170123   2.194   9.077   4.253  0.2334  0.5844 -0.1414
21259SOL    HW270124   2.244   9.194   4.336  0.0471 -0.0787  0.9206
21260SOL     OW70125   3.178   4.748   7.992 -0.2354  0.0824 -0.4905
21260SOL    HW170126   3.184   4.818   7.927 -0.1547 -0.0127 -0.5860
21260SOL    HW270127   3.109   4.777   8.052 -0.2826  0.1890 -0.5957
21261SOL     OW70128   3.077   0.524   9.212 -0.3280 -0.5478  0.2336
21261SOL    HW170129   3.065   0.448   9.155  0.6284  0.5072 -1.4477
21261SOL    HW270130   2.989   0.556   9.228 -0.6316 -1.0116 -0.4651
21262SOL     OW70131   1.339   4.475   3.817 -0.5493 -0.4945 -0.5722
21262SOL    HW170132   1.399   4.500   3.887  1.5959 -0.3849 -2.3420
21262SOL    HW270133   1.279   4.549   3.808 -1.0763 -0.6436  1.2865
21263SOL     OW70134   3.856   8.390   1.916 -0.1097 -0.0831 -0.1927
21263SOL    HW170135   3.787   8.423   1.857 -0.4293  2.1623  1.2943
21263SOL    HW270136   3.905   8.468   1.941  2.3018 -1.4762 -0.2741
21264SOL     OW70137   1.072   3.903   5.648 -0.0108  0.9392 -0.3354
21264SOL    HW170138   1.115   3.890   5.563  0.5445  0.6598 -0.0180
21264SOL    HW270139   1.142   3.889   5.712 -0.6365  0.1884  0.1954
21265SOL     OW70140   0.156   8.880   8.901 -0.1025  1.1498 -0.2964
21265SOL    HW170141   0.179   8.861   8.992 -1.5053  0.7611 -0.0036
21265SOL    HW270142   0.239   8.875   8.854  0.6917  1.6361  0.9996
21266SOL     OW70143   3.734   8.420   7.887  0.2278  0.2909 -0.2522
21266SOL    HW170144   3.756   8.350   7.825  0.4941 -1.1973  1.4280
21266SOL    HW270145   3.810   8.426   7.945 -1.3816 -1.0558  2.2279
21267SOL     OW70146   2.756   8.913   1.488  0.3045  0.0657  0.0905
21267SOL    HW170147   2.767   8.868   1.404  2.2722  0.5337  0.0347
21267SOL    HW270148   2.765   9.006   1.466 -2.9732  0.5384  0.3134
21268SOL     OW70149   6.703   2.075   5.439  0.5881  0.0459 -0.4913
21268SOL    HW170150   6.708   1.984   5.410  2.0953  0.1934 -0.7559
21268SOL    HW270151   6.741   2.075   5.527 -0.9258  0.1610  0.1909
21269SOL     OW70152   1.288   4.400   0.762 -0.0549  0.2314 -0.6276
21269SOL    HW170153   1.208   4.444   0.789  0.2926  0.1156  0.6435
21269SOL    HW270154   1.355   4.468   0.764  0.0797  0.1028 -0.7043
21270SOL     OW70155   2.709   1.588   0.262 -0.2781  0.0858 -0.5482
21270SOL    HW170156   2.763   1.615   0.336 -0.6718  0.6828 -0.4738
21270SOL    HW270157   2.744   1.637   0.187 -0.3059 -0.0116 -0.6254
21271SOL     OW70158   9.178   7.287   7.514  0.5227  0.3822  0.3055
21271SOL    HW170159   9.172   7.236   7.594  1.2883 -0.3657 -0.0939
21271SOL    HW270160   9.269   7.277   7.486  0.1381  0.1590 -0.9496
21272SOL     OW70161   3.588   8.535   5.886 -0.0967 -0.3145  0.2754
21272SOL    HW170162   3.575   8.629   5.894 -0.2303 -0.4305  1.5763
21272SOL    HW270163   3.503   8.497   5.907 -0.1854 -0.7250 -0.7483
21273SOL     OW70164   2.114   0.644   3.616  0.1604 -0.4265  0.1419
21273SOL    HW170165   2.029   0.606   3.636  0.0004 -1.1475 -1.7503
21273SOL    HW270166   2.127   0.710   3.685 -3.0439  1.4430 -0.8491
21274SOL     OW70167   3.938   5.582   2.503 -0.2563  0.0648 -0.0042
21274SOL    HW170168   3.929   5.643   2.576 -0.1716 -1.1301  1.0322
21274SOL    HW270169   3.890   5.504   2.530  2.3194 -1.5692  0.1204
21275SOL     OW70170   0.543   2.720   8.420  0.1666  0.3318  0.2050
21275SOL    HW170171   0.467   2.712   8.478 -0.9042  1.1804 -1.0193
21275SOL    HW270172   0.525   2.659   8.349  1.3417 -0.4971  0.5703
21276SOL     OW70173   1.630   2.650   0.839 -0.2600 -0.3300 -0.3007
21276SOL    HW170174   1.589   2.615   0.918 -1.4263 -0.8599 -1.1004
21276SOL    HW270175   1.570   2.625   0.768  1.0642 -0.4426 -1.4344
21277SOL     OW70176   2.783   4.220   8.402  0.2206  0.2600 -0.1274
21277SOL    HW170177   2.805   4.311   8.382  0.7711  0.0495 -0.5353
21277SOL    HW270178   2.789   4.213   8.497  2.4076  0.1309 -0.2191
21278SOL     OW70179   5.638   4.103   7.247  0.1415  0.2385 -0.4505
21278SOL    HW170180   5.549   4.116   7.279  0.7325  0.3835  1.2557
21278SOL    HW270181   5.654   4.010   7.256  0.4538  0.3407  0.0790
21279SOL     OW70182   7.119   3.466   1.140 -0.0264  0.0704 -0.0651
21279SOL    HW170183   7.125   3.423   1.054 -1.5303 -1.3480  0.4867
21279SOL    HW270184   7.028   3.454   1.166 -0.1597  2.4602  0.7710
21280SOL     OW70185   4.325   6.806   6.566 -0.2048 -0.0167  0.3807
21280SOL    HW170186   4.366   6.721   6.576 -1.3482 -0.6199  0.1409
21280SOL    HW270187   4.366   6.861   6.633  1.2820 -0.4488 -0.1409
21281SOL     OW70188   3.499   6.585   1.082 -0.3073  0.4970 -0.6229
21281SOL    HW170189   3.477   6.587   0.989  0.1910  0.7683 -0.7371
21281SOL    HW270190   3.466   6.667   1.117  1.7832  1.6109 -1.0977
21282SOL     OW70191   3.093   8.727   5.373 -0.1934 -0.1655  0.2614
21282SOL    HW170192   3.090   8.645   5.422 -0.7508 -0.9502 -1.0228
21282SOL    HW270193   3.002   8.749   5.356 -0.0231  0.1698 -0.2613
21283SOL     OW70194   1.617   0.661   4.054  0.2973 -0.1720  0.0443
21283SOL    HW170195   1.653   0.641   3.968  1.8258 -0.6273  0.7627
21283SOL    HW270196   1.557   0.588   4.072  0.8904 -0.7080 -0.1238
21284SOL     OW70197   2.003   5.973   8.379  0.4981 -0.1859 -0.3605
21284SOL    HW170198   2.080   5.940   8.333  0.4972  1.3834 -1.5881
21284SOL    HW270199   2.032   6.055   8.419 -1.0100  1.6580 -2.7499
21285SOL     OW70200   1.052   5.997   2.197 -0.2461 -0.2825  0.2496
21285SOL    HW170201   1.111   6.046   2.254  0.6327  0.1754 -1.0055
21285SOL    HW270202   1.017   5.927   2.252 -0.6490  1.0506  1.7633
21286SOL     OW70203   8.692   8.077   2.893  0.2079  0.0325  0.3962
21286SOL    HW170204   8.646   8.023   2.829 -0.4077  0.6045  0.3427
21286SOL    HW270205   8.723   8.153   2.844 -0.2045  0.4405  0.7498
21287SOL     OW70206   5.657   3.533   3.064 -0.2796 -0.4451 -0.0631
21287SOL    HW170207   5.697   3.617   3.089 -0.5050 -0.3771  0.0720
21287SOL    HW270208   5.654   3.536   2.968  1.2819 -1.0275 -0.1573
21288SOL     OW70209   1.599   3.573   5.803 -0.0059 -0.3762 -0.0349
21288SOL    HW170210   1.667   3.511   5.829 -0.7686 -0.5960  1.6084
21288SOL    HW270211   1.646   3.649   5.769  1.0327 -0.7421  0.5448
21289SOL     OW70212   5.906   4.299   8.068  0.1561  0.2120  0.0463
21289SOL    HW170213   5.847   4.322   8.139  2.2215  3.8825  0.8126
21289SOL    HW270214   5.986   4.269   8.112  0.2542 -0.9265 -0.8606
21290SOL     OW70215   0.380   7.523   1.768 -0.3723  0.1932 -0.0021
21290SOL    HW170216   0.451   7.554   1.824  0.3327 -1.6842  0.2161
21290SOL    HW270217   0.379   7.428   1.781 -0.8057 -0.2051 -2.4683
21291SOL     OW70218   4.578   5.993   4.824  0.3739 -0.2129  0.4358
21291SOL    HW170219   4.501   6.050   4.824  0.8129  0.3930  0.4156
21291SOL    HW270220   4.544   5.906   4.842 -0.5234 -0.2303 -1.2155
21292SOL     OW70221   0.795   8.752   2.659 -0.3496  0.3917  0.2474
21292SOL    HW170222   0.871   8.789   2.613 -0.1431  1.9088  1.7124
21292SOL    HW270223   0.771   8.674   2.608  2.4748 -0.4211  0.0127
21293SOL     OW70224   2.080   2.946   0.030 -0.2336  0.1659 -0.1702
21293SOL    HW170225   2.061   3.037   0.052 -0.9539  0.1074 -0.5067
21293SOL    HW270226   2.019   2.925  -0.041 -0.1511 -0.6093 -0.0298
21294SOL     OW70227   3.556   4.598   0.477 -0.2136 -0.2744  0.3346
21294SOL    HW170228   3.576   4.567   0.388 -1.5265  0.6870 -0.3138
21294SOL    HW270229   3.469   4.563   0.496 -0.2627  0.1659  0.9393
21295SOL     OW70230   3.103   6.936   0.518  0.0220  0.2660 -0.6288
21295SOL    HW170231   3.162   6.880   0.569 -0.5410  0.6302  0.4554
21295SOL    HW270232   3.063   6.878   0.454 -0.7903 -0.6498  0.6793
21296SOL     OW70233   7.136   8.645   0.233  0.1516  0.2774 -0.0637
21296SOL    HW170234   7.080   8.575   0.200 -1.4016  0.7452  1.4588
21296SOL    HW270235   7.215   8.600   0.264 -0.2684 -0.6425 -0.2831
21297SOL     OW70236   5.820   3.025   6.667 -0.5617 -0.0412 -0.9638
21297SOL    HW170237   5.900   2.999   6.713 -0.8353  0.8794  0.0387
21297SOL    HW270238   5.847   3.098   6.611 -0.5469 -0.2328 -1.2125
21298SOL     OW70239   0.883   5.670   7.519 -0.1075 -0.1397  0.5340
21298SOL    HW170240   0.889   5.764   7.504  0.3294 -0.3767 -0.9391
21298SOL    HW270241   0.889   5.631   7.432  0.6952 -1.5751  1.1906
21299SOL     OW70242   9.208   7.094   8.378  0.6777  0.9292  0.0345
21299SOL    HW170243   9.187   7.053   8.461  0.2628  1.1417  0.0350
21299SOL    HW270244   9.214   7.187   8.398  0.3380  1.0062 -0.2239
21300SOL     OW70245   5.197   2.500   5.697 -0.4467  0.3202  0.2741
21300SOL    HW170246   5.173   2.577   5.646 -0.5077  0.3559  0.3562
21300SOL    HW270247   5.247   2.535   5.771  1.2650  0.1234 -0.7363
21301SOL     OW70248   6.646   2.744   0.173  0.2815 -0.9309  0.3478
21301SOL    HW170249   6.580   2.811   0.191 -1.1210 -1.4215 -2.4204
21301SOL    HW270250   6.701   2.782   0.105  1.1355 -1.5867  0.6532
21302SOL     OW70251   4.551   1.717   6.695 -0.0201  0.5158  0.2983
21302SOL    HW170252   4.568   1.777   6.768  0.8788 -1.0294  1.4006
21302SOL    HW270253   4.555   1.630   6.734 -0.0040 -0.3350 -1.5234
21303SOL     OW70254   2.629   2.226   7.004 -0.3045 -0.1818  0.0547
21303SOL    HW170255   2.543   2.248   7.038  0.5368  0.2452  2.0673
21303SOL    HW270256   2.646   2.291   6.937 -1.2535  0.1663  0.1403
21304SOL     OW70257   2.513   8.188   6.031 -0.6173 -0.2771  0.3080
21304SOL    HW170258   2.462   8.227   5.960 -2.8102 -1.8451  0.9189
21304SOL    HW270259   2.452   8.185   6.105  0.8006 -1.0276  1.4907
21305SOL     OW70260   7.333   4.551   6.417  0.2312  1.0957  0.3678
21305SOL    HW170261   7.292   4.636   6.404 -1.6773  0.1958  0.1950
21305SOL    HW270262   7.411   4.554   6.361 -0.3569  2.3505 -0.4376
21306SOL     OW70263   8.117   9.119   2.283 -0.5446 -0.1404  0.6901
21306SOL    HW170264   8.136   9.086   2.196  0.6652 -1.9368  1.5624
21306SOL    HW270265   8.022   9.108   2.293 -0.5771 -0.6285 -0.1232
21307SOL     OW70266   7.341   6.749   3.910 -0.3946 -0.1526  0.1056
21307SOL    HW170267   7.322   6.794   3.992  0.4850  1.4270 -0.5139
21307SOL    HW270268   7.436   6.738   3.910 -0.5778 -1.8663  0.1437
21308SOL     OW70269   5.205   0.111   7.175  0.2764 -0.1296  0.7679
21308SOL    HW170270   5.120   0.067   7.175  0.0712  0.2695  1.1207
21308SOL    HW270271   5.229   0.116   7.082  1.2905 -2.8653  0.7818
21309SOL     OW70272   4.664   1.547   2.933  0.0606 -0.3719  0.4605
21309SOL    HW170273   4.712   1.578   3.010  1.5454 -2.3986  0.4376
21309SOL    HW270274   4.645   1.626   2.883  0.0202  0.8793  2.3597
21310SOL     OW70275   5.408   8.288   6.927 -0.6225  0.1233 -0.7597
21310SOL    HW170276   5.346   8.239   6.981 -0.6858  0.7649 -0.2425
21310SOL    HW270277   5.384   8.265   6.837 -0.3551 -1.1474 -0.5275
21311SOL     OW70278   1.933   0.067   5.454  0.6149 -0.1743 -0.2104
21311SOL    HW170279   1.979   0.063   5.370 -1.1781 -0.4520 -1.2258
21311SOL    HW270280   1.866   0.135   5.442  2.5698  2.4238  2.2144
21312SOL     OW70281   0.753   3.679   8.053 -0.1913  0.6488  0.1657
21312SOL    HW170282   0.681   3.732   8.021  0.0820  1.3839  0.7310
21312SOL    HW270283   0.712   3.608   8.102 -0.5404  1.8124  1.6489
21313SOL     OW70284   1.913   4.338   8.347 -0.0302 -0.4750 -0.1379
21313SOL    HW170285   1.986   4.351   8.407  0.0945  0.2987 -0.4401
21313SOL    HW270286   1.837   4.328   8.403  0.0184  0.6635  0.1658
21314SOL     OW70287   8.360   6.671   5.757  0.1955  0.2051 -0.3786
21314SOL    HW170288   8.324   6.645   5.841  0.2820  0.2715 -0.3199
21314SOL    HW270289   8.301   6.633   5.692  1.0735 -1.2749 -0.3350
21315SOL     OW70290   7.807   0.866   6.681  0.2274 -0.2663 -0.1166
21315SOL    HW170291   7.803   0.816   6.600 -1.3131 -0.2514 -0.0728
21315SOL    HW270292   7.800   0.801   6.751 -0.0395 -0.1445 -0.0277
21316SOL     OW70293   4.412   3.229   6.176 -0.4136  0.2751 -0.3705
21316SOL    HW170294   4.336   3.280   6.149  1.2305  3.3929  0.4187
21316SOL    HW270295   4.481   3.294   6.187  1.4538 -1.9414  2.2688
21317SOL     OW70296   2.386   3.979   4.309  0.3123 -0.0596 -0.1528
21317SOL    HW170297   2.391   3.992   4.404  0.7673  0.1684 -0.2062
21317SOL    HW270298   2.411   3.888   4.296  0.0464 -0.1511 -0.0392
21318SOL     OW70299   2.900   8.059   7.305 -0.3550 -0.1305  0.2386
21318SOL    HW170300   2.995   8.054   7.295 -0.4622 -0.3654 -0.6956
21318SOL    HW270301   2.886   8.137   7.359  0.3238  0.3574 -0.2741
21319SOL     OW70302   6.600   2.995   2.543  0.2975 -0.0783 -0.7432
21319SOL    HW170303   6.524   3.031   2.498 -0.4428  1.8503  1.7653
21319SOL    HW270304   6.569   2.913   2.581  0.2815 -0.6072 -1.8699
21320SOL     OW70305   5.744   7.948   6.340  0.0670  0.4154 -0.8685
21320SOL    HW170306   5.782   8.028   6.377  0.8637 -1.2126  2.1416
21320SOL    HW270307   5.818   7.888   6.332 -0.7277 -0.4662 -1.9002
21321SOL     OW70308   3.339   2.637   1.206 -0.3077  0.2328  0.3592
21321SOL    HW170309   3.292   2.716   1.234 -2.6359 -1.0188  0.2015
21321SOL    HW270310   3.413   2.670   1.155 -0.4764  2.3263  1.3597
21322SOL     OW70311   5.792   3.885   1.629  0.0415  0.3420 -0.3280
21322SOL    HW170312   5.700   3.877   1.657 -0.4885 -3.6654 -2.5000
21322SOL    HW270313   5.791   3.953   1.562 -1.0776  1.1828  0.5076
21323SOL     OW70314   9.159   2.897   2.713  0.1686  0.1884 -0.3752
21323SOL    HW170315   9.099   2.970   2.695  1.0151  0.3787 -2.8266
21323SOL    HW270316   9.244   2.939   2.722  0.1682 -0.1841  2.1232
21324SOL     OW70317   2.705   3.359   1.859  0.4565  0.0734  0.2455
21324SOL    HW170318   2.689   3.407   1.940 -1.1357 -0.4249  0.2702
21324SOL    HW270319   2.682   3.421   1.789 -1.2882 -0.4683  0.2728
21325SOL     OW70320   6.102   1.099   3.488 -0.1789 -0.3046  0.0306
21325SOL    HW170321   6.172   1.045   3.452 -0.2265 -0.0134 -0.5041
21325SOL    HW270322   6.122   1.188   3.459 -0.1201 -0.0273  0.8785
21326SOL     OW70323   0.131   6.625   2.750  0.1522  0.1197 -0.1434
21326SOL    HW170324   0.079   6.681   2.808 -1.4630 -0.6693 -0.7730
21326SOL    HW270325   0.109   6.655   2.662 -0.8180 -1.5542 -0.4943
21327SOL     OW70326   3.164   1.096   4.949 -0.0199 -0.0188  0.1933
21327SOL    HW170327   3.160   1.081   4.854  1.3643  3.9713 -0.6847
21327SOL    HW270328   3.256   1.083   4.972 -0.4527 -1.5871  1.2092
21328SOL     OW70329   8.855   3.417   6.659  0.1439 -0.2145  0.3728
21328SOL    HW170330   8.943   3.394   6.631 -0.1615 -1.9118  0.6882
21328SOL    HW270331   8.867   3.460   6.743  0.7095  0.2155  0.0783
21329SOL     OW70332   0.739   7.854   7.722  0.4750  0.0694 -0.4249
21329SOL    HW170333   0.745   7.807   7.805 -0.5828 -0.3336 -0.5593
21329SOL    HW270334   0.675   7.923   7.739 -0.3981 -0.5417 -1.1336
21330SOL     OW70335   2.282   6.013   2.370 -0.0485 -0.4581 -0.0574
21330SOL    HW170336   2.316   5.935   2.414  1.0486  1.0022  1.8991
21330SOL    HW270337   2.277   6.079   2.440 -0.2898  1.4029 -1.7359
21331SOL     OW70338   6.627   5.545   8.846  0.1127  0.2202 -0.6799
21331SOL    HW170339   6.546   5.503   8.817 -0.4115  0.4634  0.4072
21331SOL    HW270340   6.686   5.472   8.866 -1.2418 -0.1331  2.5162
21332SOL     OW70341   2.258   5.107   6.393 -0.0766 -0.2390 -0.8276
21332SOL    HW170342   2.183   5.155   6.357  0.2998  1.7724  0.9010
21332SOL    HW270343   2.222   5.021   6.415 -1.4134  0.0565 -1.6739
21333SOL     OW70344   6.893   5.973   7.016  0.8129 -0.3622 -0.8122
21333SOL    HW170345   6.883   5.891   7.063  0.6778 -0.3525 -0.8227
21333SOL    HW270346   6.932   6.033   7.080 -0.9742  0.1559 -0.1456
21334SOL     OW70347   1.786   0.393   6.376  0.0790  0.2979 -0.3179
21334SOL    HW170348   1.837   0.355   6.304 -1.1760 -2.6888  0.2160
21334SOL    HW270349   1.831   0.364   6.455 -0.6590  0.3394  0.1307
21335SOL     OW70350   5.651   1.906   1.565 -0.3609 -0.3107  0.2443
21335SOL    HW170351   5.711   1.963   1.517 -0.6373 -0.9580 -0.9045
21335SOL    HW270352   5.639   1.949   1.650 -0.0742  1.0101 -0.3650
21336SOL     OW70353   4.132   2.141   5.300 -0.1926 -0.5065  0.5254
21336SOL    HW170354   4.204   2.154   5.362 -0.4783 -0.4598  0.8510
21336SOL    HW270355   4.114   2.047   5.305 -1.3312 -0.2555  1.7833
21337SOL     OW70356   2.403   3.572   1.672 -0.6949  0.3035  0.1113
21337SOL    HW170357   2.353   3.501   1.712 -0.9682 -0.0966 -0.9033
21337SOL    HW270358   2.492   3.539   1.667 -0.7240  0.2266  0.0983
21338SOL     OW70359   5.743   1.906   0.727  0.4603 -0.3919 -0.2053
21338SOL    HW170360   5.656   1.884   0.760  0.5158 -0.4205 -0.0804
21338SOL    HW270361   5.726   1.949   0.643  0.3208 -0.3047 -0.1340
21339SOL     OW70362   6.284   8.531   0.123 -0.2076 -0.3961  0.8162
21339SOL    HW170363   6.271   8.611   0.072 -1.3666 -0.3086  1.2422
21339SOL    HW270364   6.368   8.544   0.166  0.1468  0.1045  0.0047
21340SOL     OW70365   5.052   2.386   1.734 -0.1902 -0.2381  0.4376
21340SOL    HW170366   5.063   2.294   1.707  0.3550 -0.2527  0.7008
21340SOL    HW270367   5.087   2.389   1.823  0.3078  0.3445  0.2246
21341SOL     OW70368   2.112   6.609   3.784  0.4800  0.2987  0.2341
21341SOL    HW170369   2.029   6.584   3.824 -0.1212  0.1591 -1.0268
21341SOL    HW270370   2.102   6.703   3.765  0.2057  0.0888 -0.7656
21342SOL     OW70371   5.415   6.306   2.870  0.4709  0.4687  0.0074
21342SOL    HW170372   5.319   6.308   2.869  0.4686  1.1471 -1.6233
21342SOL    HW270373   5.437   6.214   2.855  0.0503  0.5591 -1.2836
21343SOL     OW70374   1.299   0.208   5.623  0.5916 -0.1126  0.0856
21343SOL    HW170375   1.368   0.152   5.659  1.0537  0.7706  0.6026
21343SOL    HW270376   1.290   0.279   5.686 -1.2997 -0.5749  0.3886
21344SOL     OW70377   3.979   8.886   3.501  0.6436 -0.2899 -0.1443
21344SOL    HW170378   3.890   8.910   3.475 -0.1792  0.3139  2.7980
21344SOL    HW270379   3.994   8.936   3.582  3.0328 -1.6621  0.3485
21345SOL     OW70380   5.324   7.803   2.496  0.0935 -0.0532 -0.4286
21345SOL    HW170381   5.414   7.805   2.463 -0.1380  0.2998 -1.0571
21345SOL    HW270382   5.333   7.816   2.591  0.7261 -0.4200 -0.4339
21346SOL     OW70383   4.154   7.739   4.424 -0.1507 -0.5084  0.5527
21346SOL    HW170384   4.144   7.785   4.341  1.0877  0.4059  0.8800
21346SOL    HW270385   4.208   7.663   4.402  0.6795  0.0475  0.5962
21347SOL     OW70386   2.150   6.862   4.528 -0.4017 -0.0762  0.0007
21347SOL    HW170387   2.214   6.793   4.508  0.6005  0.4038  1.4019
21347SOL    HW270388   2.069   6.814   4.544  0.4245 -1.0374  1.6065
21348SOL     OW70389   2.202   2.738   0.417 -0.2611 -0.0584  0.5978
21348SOL    HW170390   2.225   2.804   0.482  0.2382 -0.2391  0.6064
21348SOL    HW270391   2.271   2.744   0.351  0.1479 -1.0092  0.9226
21349SOL     OW70392   5.127   3.823   2.968  0.0156 -0.1019 -0.4116
21349SOL    HW170393   5.115   3.807   3.061 -0.4565 -1.3990 -0.6663
21349SOL    HW270394   5.092   3.744   2.926  0.8475  0.1674 -1.6511
21350SOL     OW70395   7.784   4.808   2.049  0.0738 -0.7789 -0.4018
21350SOL    HW170396   7.831   4.850   2.122 -0.8757 -2.7703  1.4544
21350SOL    HW270397   7.770   4.879   1.986  2.0377  0.7484  0.7593
21351SOL     OW70398   8.663   3.401   7.329 -0.2309 -0.5545  0.3992
21351SOL    HW170399   8.746   3.448   7.320 -0.6020 -0.0857 -0.6795
21351SOL    HW270400   8.686   3.309   7.318  0.1103 -0.4086 -0.1305
21352SOL     OW70401   3.294   2.988   3.624 -0.1574  0.5615  0.1822
21352SOL    HW170402   3.319   2.927   3.693  0.0002  0.1321 -0.2489
21352SOL    HW270403   3.249   3.059   3.670 -0.2866  0.1546  0.6944
21353SOL     OW70404   7.144   2.415   9.187  0.1548 -0.5040 -0.1546
21353SOL    HW170405   7.197   2.427   9.108  1.7668  0.2230  0.9696
21353SOL    HW270406   7.175   2.483   9.246 -0.9826 -1.0649  1.1302
21354SOL     OW70407   2.508   1.205   2.991  0.0810  0.1091 -0.0168
21354SOL    HW170408   2.424   1.184   2.949 -0.6205 -1.8645  2.1892
21354SOL    HW270409   2.568   1.140   2.956 -0.0971 -0.4848  0.7763
21355SOL     OW70410   8.153   0.466   9.191  0.0287  0.1900 -0.3031
21355SOL    HW170411   8.223   0.521   9.156  0.0135  1.2274  1.1976
21355SOL    HW270412   8.185   0.440   9.278 -0.7237 -0.7454 -0.2914
21356SOL     OW70413   1.402   7.918   7.726  0.0010  0.2072 -0.3483
21356SOL    HW170414   1.422   7.853   7.659 -1.4449 -1.0813  0.4232
21356SOL    HW270415   1.488   7.944   7.760  0.7357  0.5633 -2.3529
21357SOL     OW70416   3.676   3.959   4.046 -0.2199  0.1507 -0.4333
21357SOL    HW170417   3.623   3.889   4.009  0.4795 -0.7074  0.1561
21357SOL    HW270418   3.764   3.924   4.050 -0.3813 -0.1779  2.8323
21358SOL     OW70419   1.685   8.038   7.222 -0.0786  0.1051 -0.2519
21358SOL    HW170420   1.737   8.114   7.249 -2.1532  1.2165  0.8397
21358SOL    HW270421   1.646   8.005   7.302 -0.7490 -0.9530 -0.9796
21359SOL     OW70422   5.321   2.246   7.444 -0.5818 -0.0912 -0.4190
21359SOL    HW170423   5.313   2.171   7.504 -1.5942 -1.2858 -1.9721
21359SOL    HW270424   5.235   2.252   7.403 -0.1956  1.3121 -1.0650
21360SOL     OW70425   5.623   2.116   4.118  0.4879 -0.2197 -0.0824
21360SOL    HW170426   5.702   2.170   4.124 -0.1359  0.7530 -0.3442
21360SOL    HW270427   5.593   2.127   4.028  0.1827 -0.7773 -0.0558
21361SOL     OW70428   8.293   6.269   2.071 -0.1454 -0.3585 -0.1131
21361SOL    HW170429   8.256   6.274   2.159  0.4640  1.0899  0.0792
21361SOL    HW270430   8.387   6.286   2.082 -0.1106  0.1808 -1.0663
21362SOL     OW70431   3.873   3.770   3.886  0.3549  0.1681  0.4110
21362SOL    HW170432   3.931   3.694   3.894 -1.5367 -1.1668  5.1246
21362SOL    HW270433   3.790   3.733   3.858 -0.0681  0.7981  0.8180
21363SOL     OW70434   7.915   5.674   5.925  0.7100 -0.0053 -0.0243
21363SOL    HW170435   7.915   5.725   5.844  1.6816  0.9465  0.5454
21363SOL    HW270436   7.987   5.710   5.977 -0.1388 -0.2930  1.4415
21364SOL     OW70437   4.503   4.415   5.599  0.0246  0.6233  0.3639
21364SOL    HW170438   4.574   4.476   5.579 -1.4049  1.9511 -1.0207
21364SOL    HW270439   4.423   4.468   5.592 -1.1564 -0.9451  1.2210
21365SOL     OW70440   4.043   1.447   2.440 -0.1027 -0.2746  0.1222
21365SOL    HW170441   4.010   1.360   2.462  0.2808  0.0182  2.0867
21365SOL    HW270442   4.095   1.473   2.516  0.2932  1.4281 -0.6742
21366SOL     OW70443   0.099   5.279   2.825  0.2038 -0.1981 -0.2236
21366SOL    HW170444   0.040   5.203   2.830  0.2590 -0.2701 -0.6064
21366SOL    HW270445   0.041   5.354   2.819  0.1489 -0.2871 -0.8382
21367SOL     OW70446   6.267   8.620   3.965 -0.4051  0.1971 -0.0773
21367SOL    HW170447   6.303   8.565   3.896 -1.3018 -0.8084  0.2384
21367SOL    HW270448   6.231   8.696   3.918 -1.3543 -0.6534 -0.7838
21368SOL     OW70449   1.524   6.879   2.419 -0.4867  1.0955  0.6338
21368SOL    HW170450   1.586   6.872   2.346 -0.3735 -2.5791  0.8939
21368SOL    HW270451   1.443   6.842   2.384 -1.2303  1.7571  1.6197
21369SOL     OW70452   5.218   4.818   7.752 -0.6008 -0.3494  0.2131
21369SOL    HW170453   5.254   4.906   7.744 -0.6504 -0.4547 -2.1413
21369SOL    HW270454   5.163   4.820   7.830 -0.0662  1.5032  0.5731
21370SOL     OW70455   9.165   5.311   6.795  0.8946 -0.3339  0.1717
21370SOL    HW170456   9.158   5.330   6.701  0.9019  0.0780  0.2513
21370SOL    HW270457   9.084   5.348   6.832 -0.1981 -2.4437  0.0355
21371SOL     OW70458   0.060   5.202   5.493  0.7132  0.0630 -0.2194
21371SOL    HW170459   0.062   5.112   5.526 -0.0434 -0.6590 -2.0174
21371SOL    HW270460  -0.017   5.204   5.436  0.7108  1.8759 -0.1840
21372SOL     OW70461   6.560   8.361   9.014 -0.1833 -0.0488  0.4124
21372SOL    HW170462   6.481   8.413   8.997  0.4666  0.9298  0.2586
21372SOL    HW270463   6.575   8.313   8.932  1.3958  2.5694 -0.9975
21373SOL     OW70464   4.166   6.685   6.819  0.2914 -0.6754  0.2380
21373SOL    HW170465   4.147   6.611   6.761  1.2617 -0.6867 -0.0864
21373SOL    HW270466   4.081   6.710   6.855 -0.4388 -0.3179 -1.6232
21374SOL     OW70467   5.673   0.834   2.571  0.0689 -0.1910 -0.3719
21374SOL    HW170468   5.695   0.830   2.664  0.0254 -1.0966 -0.3970
21374SOL    HW270469   5.605   0.902   2.565  1.6756  1.5316 -0.0724
21375SOL     OW70470   0.325   6.972   2.989  0.3057 -0.2293 -0.5717
21375SOL    HW170471   0.362   6.963   2.901  2.2099  1.2620  0.0107
21375SOL    HW270472   0.399   6.999   3.043 -1.3188  1.3284  0.9978
21376SOL     OW70473   5.130   6.340   4.195  0.5465 -0.5165  0.0137
21376SOL    HW170474   5.097   6.262   4.239 -3.3523  0.6202 -0.5641
21376SOL    HW270475   5.114   6.412   4.257  1.4219  0.2298 -0.5881
21377SOL     OW70476   2.282   4.360   0.973 -0.3963  0.0795 -0.1089
21377SOL    HW170477   2.265   4.323   1.060  3.5944  0.9833  1.2674
21377SOL    HW270478   2.284   4.455   0.987  0.4959  0.2284 -1.0994
21378SOL     OW70479   4.224   2.082   3.548 -0.0614  0.2183  0.1801
21378SOL    HW170480   4.234   2.069   3.642  1.5911 -0.3654 -0.0445
21378SOL    HW270481   4.159   2.152   3.541  0.0012  0.4877  1.7602
21379SOL     OW70482   0.369   1.852   5.260  0.0345  0.0677 -0.7352
21379SOL    HW170483   0.307   1.920   5.232 -1.8458 -0.2874  2.1006
21379SOL    HW270484   0.450   1.900   5.279  0.3035  0.7511 -3.1734
21380SOL     OW70485   0.940   3.980   2.898  0.3274  0.2834  0.6586
21380SOL    HW170486   0.964   3.971   2.806  2.8240  1.1787  1.1422
21380SOL    HW270487   0.879   4.054   2.900 -0.0530  0.0149 -0.2829
21381SOL     OW70488   7.733   2.198   7.422  0.1750  0.0085 -0.5487
21381SOL    HW170489   7.719   2.270   7.484 -0.6786 -0.6579  0.0673
21381SOL    HW270490   7.750   2.241   7.339 -1.4451  0.9559 -0.4542
21382SOL     OW70491   1.437   3.878   1.674 -0.6060 -0.5808 -0.2836
21382SOL    HW170492   1.423   3.784   1.679  0.1096 -0.6690  0.0731
21382SOL    HW270493   1.528   3.888   1.646 -0.7811  0.0011 -0.6674
21383SOL     OW70494   7.387   0.283   8.400 -0.9715  0.3588  0.4300
21383SOL    HW170495   7.415   0.199   8.365  0.7890  0.6540  1.0229
21383SOL    HW270496   7.395   0.344   8.326 -2.0618  0.0692  0.0544
21384SOL     OW70497   3.186   6.496   5.622 -0.1763  0.2544 -0.1997
21384SOL    HW170498   3.217   6.486   5.712  0.6369  1.5110 -0.3272
21384SOL    HW270499   3.092   6.515   5.631 -0.3440 -0.7466  0.3097
21385SOL     OW70500   3.866   1.117   5.122  0.0124  0.3516 -0.0383
21385SOL    HW170501   3.864   1.153   5.210 -0.8828  0.4684 -0.0973
21385SOL    HW270502   3.931   1.169   5.076  2.9135 -1.7397  1.3777
21386SOL     OW70503   4.298   3.605   0.879  0.2957  0.3578  0.2447
21386SOL    HW170504   4.381   3.591   0.926 -0.3730 -0.4006  1.2529
21386SOL    HW270505   4.240   3.537   0.914 -0.6604  0.6885 -0.6695
21387SOL     OW70506   1.188   6.709   8.307  0.1216  0.0767 -0.0965
21387SOL    HW170507   1.121   6.744   8.366 -0.7666 -0.2799 -0.8508
21387SOL    HW270508   1.138   6.676   8.232  0.9292 -2.3582  0.3420
21388SOL     OW70509   5.572   8.786   8.738 -0.1145  0.4613 -0.6094
21388SOL    HW170510   5.583   8.701   8.695 -1.7474 -0.9880  1.6152
21388SOL    HW270511   5.660   8.810   8.765  0.1032 -1.9767  1.1677
21389SOL     OW70512   7.203   3.205   3.139  0.1552  0.1724  0.5690
21389SOL    HW170513   7.143   3.148   3.093  0.2852  0.8965 -0.5397
21389SOL    HW270514   7.147   3.268   3.185  0.0436 -0.0613  0.7538
21390SOL     OW70515   8.553   8.879   7.184  0.4820 -0.3660 -0.1926
21390SOL    HW170516   8.514   8.807   7.234  0.7446  0.4190  1.2010
21390SOL    HW270517   8.645   8.853   7.172 -0.2608 -2.0090 -3.0922
21391SOL     OW70518   8.967   2.059   5.933 -0.1521 -0.4016  0.3556
21391SOL    HW170519   9.059   2.085   5.942 -0.6290  1.3073  0.6193
21391SOL    HW270520   8.920   2.115   5.995 -1.4702 -0.6770 -0.3582
21392SOL     OW70521   6.738   5.269   8.609 -0.4976  0.4057  0.0994
21392SOL    HW170522   6.667   5.332   8.594 -1.3003 -0.2488  0.9621
21392SOL    HW270523   6.697   5.184   8.595 -0.1380 -0.0224  1.5033
21393SOL     OW70524   1.514   6.041   1.622 -0.6038 -0.2179 -0.0046
21393SOL    HW170525   1.491   6.126   1.586  0.9791 -0.5096 -1.9063
21393SOL    HW270526   1.513   6.053   1.717 -1.2099  1.6762 -0.2198
21394SOL     OW70527   0.748   1.203   7.988  0.1621 -0.1114  0.0349
21394SOL    HW170528   0.718   1.244   7.907  1.0306 -1.1464 -0.8446
21394SOL    HW270529   0.836   1.236   8.001 -0.4405  1.1093  1.3392
21395SOL     OW70530   5.512   0.643   7.737  0.6048 -0.3151  0.1903
21395SOL    HW170531   5.527   0.596   7.818 -1.2496 -1.5109 -0.1066
21395SOL    HW270532   5.531   0.735   7.758 -0.6365 -0.4714  2.2370
21396SOL     OW70533   6.414   1.998   2.653 -0.1742 -0.4227  0.0083
21396SOL    HW170534   6.462   1.933   2.704 -0.6541 -0.5000  0.3660
21396SOL    HW270535   6.476   2.070   2.640 -0.1463 -0.2570  0.9858
21397SOL     OW70536   2.703   6.836   1.132  0.0328 -0.3287  1.0634
21397SOL    HW170537   2.618   6.850   1.089  1.2238  1.0360 -1.0089
21397SOL    HW270538   2.726   6.746   1.110  0.2351  0.0821 -0.5958
21398SOL     OW70539   0.350   3.578   0.943  0.1990  0.1772  0.2379
21398SOL    HW170540   0.392   3.662   0.926 -1.0036  0.9769  1.1195
21398SOL    HW270541   0.377   3.555   1.032 -1.5477  0.9557  1.0274
21399SOL     OW70542   2.069   9.068   1.973 -1.0099 -0.2313  0.1888
21399SOL    HW170543   2.074   9.054   1.878  1.0034  0.6100  0.1336
21399SOL    HW270544   1.983   9.032   1.997 -1.3257 -1.0013 -1.8429
21400SOL     OW70545   0.322   1.812   0.488 -0.4136 -0.5064 -0.0107
21400SOL    HW170546   0.392   1.840   0.429 -1.8685  2.0625 -0.6959
21400SOL    HW270547   0.359   1.820   0.575  0.5441 -0.4318 -0.4109
21401SOL     OW70548   8.233   2.381   7.641  0.2360  0.1003 -0.0259
21401SOL    HW170549   8.260   2.439   7.713 -0.3897 -2.8810  2.8320
21401SOL    HW270550   8.155   2.424   7.604  0.1183  1.3765  1.5714
21402SOL     OW70551   1.284   6.217   3.338  0.1543  0.3834  0.0017
21402SOL    HW170552   1.211   6.241   3.281 -0.0490  0.8507  0.4386
21402SOL    HW270553   1.322   6.139   3.299 -1.8904 -1.1476  0.8678
21403SOL     OW70554   5.739   6.414   7.026 -0.3213  0.2239 -0.5387
21403SOL    HW170555   5.700   6.328   7.011  1.0609 -0.3872 -0.7862
21403SOL    HW270556   5.829   6.406   6.993  1.1490  0.4813  2.9270
21404SOL     OW70557   8.929   1.431   3.106 -0.2382 -0.2201  0.2639
21404SOL    HW170558   8.972   1.510   3.140  0.8252 -0.2553 -0.9303
21404SOL    HW270559   9.000   1.370   3.088 -0.9305 -0.9379 -0.1450
21405SOL     OW70560   0.847   0.134   6.992  0.5172  0.3903 -0.7126
21405SOL    HW170561   0.840   0.101   6.902  1.5203  0.1342 -0.7052
21405SOL    HW270562   0.799   0.070   7.045 -0.3619  0.7175 -1.0961
21406SOL     OW70563   3.481   7.514   6.499 -0.1469 -0.3161  0.7203
21406SOL    HW170564   3.489   7.509   6.404 -0.4269  0.9279  0.6136
21406SOL    HW270565   3.392   7.483   6.517  0.0371 -0.9147  0.6221
21407SOL     OW70566   5.148   1.783   5.838 -0.8726  0.3995 -0.0185
21407SOL    HW170567   5.063   1.821   5.816 -1.6350 -0.5199  1.2007
21407SOL    HW270568   5.127   1.705   5.889  0.7384  1.1929  1.9846
21408SOL     OW70569   7.021   3.742   7.021 -0.6447 -0.2257  0.1142
21408SOL    HW170570   6.976   3.666   7.058  1.6448 -1.4619  0.5748
21408SOL    HW270571   7.055   3.789   7.098 -0.3198  0.1200 -0.2381
21409SOL     OW70572   0.795   3.900   7.028 -0.3466 -0.3850  0.2355
21409SOL    HW170573   0.714   3.891   6.977  0.6575  1.9930 -2.0079
21409SOL    HW270574   0.854   3.947   6.970  1.4469  1.1896  3.1183
21410SOL     OW70575   5.780   2.909   3.812 -0.8435 -0.3722 -0.1205
21410SOL    HW170576   5.721   2.978   3.843 -1.2769 -1.3742  1.3895
21410SOL    HW270577   5.741   2.879   3.730 -2.1741 -0.6525  0.5797
21411SOL     OW70578   4.117   3.536   1.790  0.0214  0.0919 -0.0535
21411SOL    HW170579   4.071   3.592   1.852  0.1389  0.0780  0.0464
21411SOL    HW270580   4.063   3.457   1.785  1.9796 -1.6369  3.0806
21412SOL     OW70581   5.828   1.455   0.653  0.6651  0.4677  0.0603
21412SOL    HW170582   5.780   1.525   0.609  0.3505 -0.9570 -2.0218
21412SOL    HW270583   5.784   1.446   0.737 -0.5369  1.4735 -0.4221
21413SOL     OW70584   5.193   7.341   2.557 -0.4016  0.4173 -0.5963
21413SOL    HW170585   5.241   7.423   2.559  1.4918 -0.6120  1.9646
21413SOL    HW270586   5.124   7.353   2.623 -0.7980  0.3062 -0.9864
21414SOL     OW70587   7.542   3.427   2.781  0.1795  0.7165 -0.2647
21414SOL    HW170588   7.615   3.372   2.752 -0.4008 -0.0361 -0.3407
21414SOL    HW270589   7.498   3.375   2.848 -1.0749  0.5665 -1.1652
21415SOL     OW70590   3.002   3.462   6.835  0.5234 -0.8261 -0.5228
21415SOL    HW170591   3.051   3.498   6.909  0.4736 -1.2831 -0.2694
21415SOL    HW270592   2.911   3.461   6.866  0.4317 -0.5376 -0.7776
21416SOL     OW70593   3.149   2.630   6.460  0.3210 -0.0126 -0.5455
21416SOL    HW170594   3.204   2.687   6.406  0.4981  2.4104  1.9835
21416SOL    HW270595   3.067   2.679   6.470  0.9869  0.6635  2.8590
21417SOL     OW70596   3.601   0.284   4.473 -0.1946  0.0193 -0.1914
21417SOL    HW170597   3.586   0.355   4.411  0.0246 -1.2172 -1.7241
21417SOL    HW270598   3.549   0.211   4.439 -1.3514 -0.2813  1.9727
21418SOL     OW70599   8.917   7.806   8.152 -0.3441 -0.1867 -0.4636
21418SOL    HW170600   8.934   7.890   8.195  1.1770 -1.0916  0.7971
21418SOL    HW270601   8.996   7.788   8.102 -1.0525 -0.4380 -1.5346
21419SOL     OW70602   3.557   4.083   4.801  0.1457  0.6211 -0.2049
21419SOL    HW170603   3.619   4.103   4.731  0.8603 -0.8222 -0.0414
21419SOL    HW270604   3.532   4.168   4.837  1.5141  1.2751 -0.7398
21420SOL     OW70605   2.724   0.784   6.189  0.3322  0.4181 -0.0803
21420SOL    HW170606   2.764   0.837   6.120 -0.0978  0.9217  0.0439
21420SOL    HW270607   2.764   0.815   6.270  1.2190 -0.5302 -0.1322
21421SOL     OW70608   0.840   6.449   5.971 -0.5026 -0.0874 -0.5227
21421SOL    HW170609   0.761   6.457   6.024 -0.5963 -1.1257 -0.4751
21421SOL    HW270610   0.873   6.538   5.963 -0.0328  0.0502  1.9939
21422SOL     OW70611   0.203   4.009   4.931 -0.6366  0.0967 -0.2268
21422SOL    HW170612   0.112   4.039   4.934 -0.3692  1.0679 -1.1293
21422SOL    HW270613   0.250   4.070   4.987 -0.4941 -0.2287  0.0088
21423SOL     OW70614   0.742   7.607   5.183  0.1333 -0.6198 -0.0574
21423SOL    HW170615   0.660   7.654   5.167  0.5450 -0.0018 -0.3717
21423SOL    HW270616   0.807   7.651   5.128  0.2721 -2.3736 -1.3745
21424SOL     OW70617   6.079   2.447   0.877 -0.5913  0.4595 -0.4961
21424SOL    HW170618   5.999   2.396   0.866  1.1054 -2.6768  0.5974
21424SOL    HW270619   6.135   2.420   0.804  2.1664 -3.3103  2.5855
21425SOL     OW70620   0.098   1.307   0.031  0.6797 -0.9515  0.5616
21425SOL    HW170621   0.188   1.285   0.006  0.4534 -0.8424 -0.3984
21425SOL    HW270622   0.043   1.254  -0.028  0.1093 -1.5415  1.6060
21426SOL     OW70623   8.547   2.110   1.747 -0.3573 -0.6035 -0.1252
21426SOL    HW170624   8.596   2.104   1.664 -0.2378 -2.0171  0.0191
21426SOL    HW270625   8.480   2.176   1.730  1.5718  1.4218 -0.3223
21427SOL     OW70626   2.060   5.746   0.575 -0.2018 -0.2160 -0.3384
21427SOL    HW170627   2.015   5.765   0.658  1.0405 -0.8444  0.5090
21427SOL    HW270628   2.090   5.831   0.545 -3.0843  0.4534 -1.6669
21428SOL     OW70629   1.420   6.052   2.605 -0.1258  0.1369 -0.5491
21428SOL    HW170630   1.337   6.025   2.564 -1.5639  0.6664  1.8144
21428SOL    HW270631   1.435   6.141   2.573 -0.8942  0.3206 -0.4249
21429SOL     OW70632   2.562   1.998   1.870  0.3587  0.2259 -0.1009
21429SOL    HW170633   2.521   2.084   1.870  1.2731  0.7363 -2.5678
21429SOL    HW270634   2.656   2.016   1.866  0.5425 -0.8367 -1.2230
21430SOL     OW70635   7.873   9.201   2.605  0.1856 -0.3083  0.9334
21430SOL    HW170636   7.932   9.261   2.651  0.8437  0.7323 -1.1349
21430SOL    HW270637   7.804   9.256   2.570  0.5595 -0.7610 -0.6314
21431SOL     OW70638   9.228   0.148   4.151  0.0167  0.2771 -0.0987
21431SOL    HW170639   9.299   0.199   4.113 -1.5612  2.0533 -0.8458
21431SOL    HW270640   9.223   0.177   4.242  0.7710 -0.4671  0.1827
21432SOL     OW70641   2.049   1.997   7.514 -0.5253 -0.0731 -0.1994
21432SOL    HW170642   2.098   1.998   7.432 -0.4780 -1.3984 -0.2066
21432SOL    HW270643   2.005   1.912   7.515 -0.5733 -0.0519  1.1238
21433SOL     OW70644   4.479   0.659   3.301  0.5005  0.0880 -0.0629
21433SOL    HW170645   4.412   0.596   3.274 -0.2834 -0.1942  2.2747
21433SOL    HW270646   4.429   0.735   3.329  1.1290 -0.0950  1.6418
21434SOL     OW70647   1.814   1.665   4.024 -0.3394 -0.3682  0.5025
21434SOL    HW170648   1.767   1.748   4.026 -0.3640 -0.2864 -1.5630
21434SOL    HW270649   1.900   1.685   4.062  0.7507  1.4077 -2.5480
21435SOL     OW70650   6.890   5.914   1.645 -0.2312  0.0528 -0.2921
21435SOL    HW170651   6.799   5.912   1.674  0.3696 -1.6321  1.7301
21435SOL    HW270652   6.890   5.868   1.561 -1.4128  1.2328 -0.9616
21436SOL     OW70653   4.403   1.054   1.732  0.0604  0.0734  0.0704
21436SOL    HW170654   4.381   1.077   1.822 -0.4577  0.8603 -0.2445
21436SOL    HW270655   4.498   1.044   1.732 -0.0604 -1.3514  1.0052
21437SOL     OW70656   2.063   5.236   7.564  0.0260  0.1222  0.3340
21437SOL    HW170657   1.974   5.203   7.577  0.4073 -0.3340  1.8660
21437SOL    HW270658   2.074   5.303   7.631  1.6523 -1.4995  1.8017
21438SOL     OW70659   0.477   0.027   8.564 -0.8416  0.0620 -0.6313
21438SOL    HW170660   0.468  -0.045   8.627 -0.1983  1.3942  1.0429
21438SOL    HW270661   0.551   0.078   8.596 -2.1487  2.2843 -0.9450
21439SOL     OW70662   0.965   4.390   0.355  0.5384  0.1065  0.6339
21439SOL    HW170663   0.973   4.480   0.389  1.1109  0.7141 -0.9899
21439SOL    HW270664   1.044   4.378   0.301  1.8609 -2.3585  2.8890
21440SOL     OW70665   7.275   1.616   6.669  0.4549 -0.0638 -0.0379
21440SOL    HW170666   7.218   1.619   6.746 -0.7086 -1.4864 -0.7842
21440SOL    HW270667   7.277   1.706   6.637 -0.8145  0.1457  0.4234
21441SOL     OW70668   8.014   0.886   1.159  0.5627 -0.3509  0.2549
21441SOL    HW170669   8.016   0.907   1.065 -1.0694 -0.4906  0.1477
21441SOL    HW270670   7.953   0.812   1.165 -0.7929  0.8050  1.5937
21442SOL     OW70671   5.649   9.144   4.484  0.0972 -0.1684 -0.0144
21442SOL    HW170672   5.690   9.062   4.456 -0.9241 -0.2211 -1.4545
21442SOL    HW270673   5.555   9.128   4.477 -0.3606 -0.3536  4.0641
21443SOL     OW70674   1.861   0.090   7.191  0.0898  0.2869  0.2955
21443SOL    HW170675   1.905   0.112   7.273 -0.0658 -0.4322  0.5854
21443SOL    HW270676   1.778   0.050   7.218  0.9842 -2.0180 -0.1120
21444SOL     OW70677   2.809   0.775   0.149 -0.3804 -0.3064 -0.3071
21444SOL    HW170678   2.744   0.799   0.215 -0.9733 -0.2345 -0.9193
21444SOL    HW270679   2.793   0.682   0.133  0.1134 -0.4544  0.0370
21445SOL     OW70680   3.566   7.462   0.817  0.2543 -0.0447  0.1974
21445SOL    HW170681   3.529   7.475   0.904  0.1178 -0.0372  0.1394
21445SOL    HW270682   3.542   7.372   0.794 -1.2807  0.5140 -0.5672
21446SOL     OW70683   9.072   0.187   3.895 -0.1819  0.3831  0.4080
21446SOL    HW170684   9.092   0.224   3.981 -0.4890  2.0182 -0.1719
21446SOL    HW270685   9.147   0.214   3.841  0.1157 -0.8194  0.2093
21447SOL     OW70686   1.095   7.998   5.602  0.0836 -0.2406  0.2531
21447SOL    HW170687   1.026   7.942   5.565  0.0112 -0.2835  0.4496
21447SOL    HW270688   1.052   8.082   5.618 -0.2329 -0.6090  1.4411
21448SOL     OW70689   0.306   7.058   9.082  0.5200 -0.1348 -0.0821
21448SOL    HW170690   0.275   7.078   8.994  1.7599  1.1145 -0.2608
21448SOL    HW270691   0.397   7.087   9.083  0.8852 -1.2104  1.2578
21449SOL     OW70692   2.643   4.431   0.337  0.1256 -0.4424  0.3362
21449SOL    HW170693   2.644   4.336   0.328  0.8381 -0.4187  0.0804
21449SOL    HW270694   2.673   4.464   0.252 -0.2758  0.0153  0.3661
21450SOL     OW70695   4.350   4.975   4.094  0.1037  0.1518  0.0751
21450SOL    HW170696   4.298   4.986   4.015 -0.0683 -0.3405  0.1222
21450SOL    HW270697   4.320   4.893   4.132 -1.4512  1.4958  1.8922
21451SOL     OW70698   7.845   0.801   5.866 -0.3857 -0.8279  0.1612
21451SOL    HW170699   7.762   0.832   5.831  0.0511 -1.0676 -1.1317
21451SOL    HW270700   7.908   0.813   5.795  1.2078  1.4060  1.7873
21452SOL     OW70701   1.177   5.427   7.424 -0.0822 -0.1471 -0.4485
21452SOL    HW170702   1.084   5.446   7.429 -0.1687 -0.3073 -1.3454
21452SOL    HW270703   1.220   5.513   7.424  0.0251 -0.0161  3.3854
21453SOL     OW70704   4.121   1.646   5.999  0.0090 -0.1090 -0.1754
21453SOL    HW170705   4.202   1.694   6.016  0.0468  0.3171 -1.5256
21453SOL    HW270706   4.146   1.579   5.936 -0.8149  0.4086 -1.0658
21454SOL     OW70707   4.769   1.109   5.781 -0.5880  0.4658 -0.6407
21454SOL    HW170708   4.691   1.062   5.751 -0.3588  0.3077 -0.9903
21454SOL    HW270709   4.749   1.201   5.765 -1.4666  0.6032  1.0062
21455SOL     OW70710   2.628   7.285   4.037 -0.0334  0.3572 -0.3033
21455SOL    HW170711   2.684   7.213   4.064  0.1362  0.2569 -0.9062
21455SOL    HW270712   2.686   7.345   3.990 -0.6847 -0.4604 -2.2521
21456SOL     OW70713   7.386   6.792   6.556 -0.3628 -0.3873 -0.5078
21456SOL    HW170714   7.318   6.858   6.540  0.2245  0.0082 -1.4181
21456SOL    HW270715   7.468   6.840   6.555  0.0323 -1.0426 -0.6214
21457SOL     OW70716   3.120   3.302   2.136  0.4578  0.3588 -0.7705
21457SOL    HW170717   3.052   3.344   2.084  0.3062  0.1413 -0.7497
21457SOL    HW270718   3.073   3.257   2.205  0.7452  1.8184  0.4181
21458SOL     OW70719   7.655   0.926   4.031 -0.2340 -0.2817 -0.2038
21458SOL    HW170720   7.673   1.014   4.065 -0.4003 -0.4357  0.3030
21458SOL    HW270721   7.724   0.872   4.070  0.6916 -0.1492 -1.6019
21459SOL     OW70722   8.973   2.029   4.107 -0.0503  0.8177  0.3750
21459SOL    HW170723   9.010   2.014   4.194 -0.6510  0.0906  0.5127
21459SOL    HW270724   8.879   2.013   4.117  0.1983 -2.2836 -1.0145
21460SOL     OW70725   3.560   7.543   5.178 -0.1414 -0.1732 -0.4536
21460SOL    HW170726   3.577   7.503   5.263  2.5509  0.2346 -0.7148
21460SOL    HW270727   3.551   7.469   5.118  0.5225 -0.4410 -0.2315
21461SOL     OW70728   2.983   3.595   6.371  0.2493 -0.4035  0.0136
21461SOL    HW170729   2.952   3.511   6.337  1.1376  0.0123 -1.9064
21461SOL    HW270730   3.043   3.571   6.442 -2.4628 -1.2613  2.1885
21462SOL     OW70731   2.072   5.215   8.561  0.8264  0.0299  0.5974
21462SOL    HW170732   2.084   5.309   8.544  0.9513 -0.1677 -0.4279
21462SOL    HW270733   2.108   5.171   8.484 -0.6039 -0.8129  0.3869
21463SOL     OW70734   8.572   8.207   1.373  0.1125  0.4271 -0.0119
21463SOL    HW170735   8.662   8.173   1.374  1.1720  2.4922 -4.2666
21463SOL    HW270736   8.528   8.158   1.304 -1.0234  1.5912 -0.1514
21464SOL     OW70737   3.043   3.047   8.277 -0.1882  0.1601 -0.4818
21464SOL    HW170738   3.099   3.075   8.350 -0.4972 -1.1605  0.3059
21464SOL    HW270739   2.962   3.018   8.319 -0.9274  0.7137 -1.4879
21465SOL     OW70740   9.107   5.765   6.799  0.2750 -0.0805 -0.2474
21465SOL    HW170741   9.092   5.799   6.710  0.7271  0.0440 -0.2757
21465SOL    HW270742   9.050   5.818   6.855 -0.4620 -0.5562 -0.5383
21466SOL     OW70743   4.645   0.242   7.598  0.0601  0.1551 -0.0795
21466SOL    HW170744   4.653   0.251   7.693  0.6962 -0.4617 -0.0612
21466SOL    HW270745   4.655   0.148   7.583 -0.9566  0.1312 -0.6832
21467SOL     OW70746   3.062   5.233   1.541  0.1692 -0.8535  0.7491
21467SOL    HW170747   3.042   5.323   1.514  0.0340 -0.9647  0.4813
21467SOL    HW270748   3.050   5.234   1.636  2.2460 -0.0307  1.0732
21468SOL     OW70749   7.159   8.513   3.785  0.2564 -0.3396 -0.0595
21468SOL    HW170750   7.113   8.430   3.775 -0.9108  0.0966  1.3042
21468SOL    HW270751   7.096   8.579   3.758  0.6031  0.1986  0.4184
21469SOL     OW70752   4.145   7.993   1.573  0.5818  0.2245 -0.3714
21469SOL    HW170753   4.064   8.032   1.605  0.4215  0.4510 -1.0344
21469SOL    HW270754   4.214   8.051   1.606  0.4851 -0.0075  0.2497
21470SOL     OW70755   2.243   4.318   8.083 -0.8090  0.3187 -0.0057
21470SOL    HW170756   2.312   4.255   8.060 -0.8701 -0.0017  0.6875
21470SOL    HW270757   2.170   4.295   8.025 -0.9429 -0.4569  0.4628
21471SOL     OW70758   8.788   6.630   5.540 -0.0645 -0.2773  0.2959
21471SOL    HW170759   8.731   6.589   5.606 -0.6374  2.3973  1.5857
21471SOL    HW270760   8.730   6.684   5.488  0.7363 -0.7004 -1.0880
21472SOL     OW70761   6.443   3.804   5.159 -0.1562 -0.7305 -0.2446
21472SOL    HW170762   6.386   3.755   5.100 -1.1909  0.8299 -0.6008
21472SOL    HW270763   6.527   3.808   5.113 -0.1574 -1.7988 -0.3745
21473SOL     OW70764   8.322   0.744   3.812 -0.0106 -0.0804  0.6392
21473SOL    HW170765   8.308   0.656   3.777  4.6055 -1.3443  1.3861
21473SOL    HW270766   8.307   0.735   3.906  0.0349  0.0649  0.6600
21474SOL     OW70767   7.910   8.672   6.703  0.2840 -0.2035 -0.6408
21474SOL    HW170768   7.868   8.740   6.650 -1.0497 -0.3391  0.1778
21474SOL    HW270769   7.882   8.590   6.662  0.6362 -0.2859 -0.7196
21475SOL     OW70770   3.105   0.443   1.344 -0.4529 -0.1916 -0.5560
21475SOL    HW170771   3.099   0.425   1.438  1.4895 -0.0233 -0.3443
21475SOL    HW270772   3.015   0.442   1.313 -1.1072 -0.6544  1.2349
21476SOL     OW70773   2.536   2.142   4.703  0.1721 -0.8597 -0.6572
21476SOL    HW170774   2.506   2.124   4.792  0.0793 -0.2755 -0.5689
21476SOL    HW270775   2.628   2.163   4.712 -0.7304  3.9873  0.0146
21477SOL     OW70776   4.495   6.916   6.242 -0.2222  0.6354  0.3624
21477SOL    HW170777   4.494   6.828   6.279  1.2538  0.3213 -0.2857
21477SOL    HW270778   4.586   6.930   6.215 -0.8983  1.4464 -1.6862
21478SOL     OW70779   3.241   4.474   4.269 -0.5728  0.3105 -0.5096
21478SOL    HW170780   3.252   4.567   4.288 -0.8065  0.2233  0.0657
21478SOL    HW270781   3.150   4.455   4.291 -0.0938 -0.4109  0.9525
21479SOL     OW70782   5.381   9.030   7.488 -0.4966 -0.0930 -0.0265
21479SOL    HW170783   5.417   8.942   7.472  0.7749  0.7605 -2.3791
21479SOL    HW270784   5.287   9.020   7.474 -0.2273 -0.8721 -1.4426
21480SOL     OW70785   7.985   4.704   5.059  0.5723  0.0983 -0.0916
21480SOL    HW170786   7.973   4.631   5.120  3.4197  0.6370  1.2393
21480SOL    HW270787   7.996   4.662   4.974 -0.1366 -0.8496  0.2596
21481SOL     OW70788   2.458   3.458   8.563 -0.4999 -1.0523 -0.0946
21481SOL    HW170789   2.365   3.442   8.543 -0.4566 -0.6141 -0.6731
21481SOL    HW270790   2.459   3.484   8.655 -1.2357  1.1875 -0.6580
21482SOL     OW70791   4.358   6.272   7.737  0.7055 -0.5837 -0.6218
21482SOL    HW170792   4.358   6.216   7.659  2.9015  1.0537 -1.9328
21482SOL    HW270793   4.438   6.247   7.784  1.1191  0.6729 -0.6403
21483SOL     OW70794   3.708   1.569   7.130  0.3348  0.2983  0.6244
21483SOL    HW170795   3.774   1.504   7.106 -0.4613 -0.3090  0.0524
21483SOL    HW270796   3.743   1.652   7.096 -0.1752 -0.3484 -1.5937
21484SOL     OW70797   0.005   5.482   0.051  0.6879  0.1785 -0.0414
21484SOL    HW170798   0.091   5.443   0.066  0.5128  0.2141  1.1266
21484SOL    HW270799   0.008   5.565   0.099 -0.1826 -0.0679  0.4537
21485SOL     OW70800   4.574   4.886   6.992 -0.2658 -0.3694 -0.6171
21485SOL    HW170801   4.553   4.850   7.078 -0.3608  0.1307 -0.4277
21485SOL    HW270802   4.554   4.815   6.931  0.4386 -0.9544 -0.1752
21486SOL     OW70803   1.810   5.085   3.389 -0.3166  0.0558 -0.3586
21486SOL    HW170804   1.839   5.041   3.469  0.9900  1.5244  0.0411
21486SOL    HW270805   1.820   5.020   3.320  1.3148 -0.3606  0.2333
21487SOL     OW70806   3.489   1.736   0.612  0.1869 -0.2867 -0.4232
21487SOL    HW170807   3.496   1.796   0.539 -1.0654 -0.0906 -0.4104
21487SOL    HW270808   3.421   1.674   0.586  0.4061 -0.8013  0.1796
21488SOL     OW70809   5.765   8.180   8.305 -0.0612 -0.4189  0.2580
21488SOL    HW170810   5.797   8.111   8.247 -0.3116 -1.9122  1.8167
21488SOL    HW270811   5.804   8.261   8.270 -0.2143 -1.2232 -1.9569
21489SOL     OW70812   6.368   3.743   1.102 -0.0541 -0.4196  0.2033
21489SOL    HW170813   6.438   3.733   1.166  0.3081 -1.3578 -0.3216
21489SOL    HW270814   6.398   3.694   1.026  0.8126  2.9154 -1.7936
21490SOL     OW70815   8.243   4.636   2.576 -0.2359 -0.6042  0.0584
21490SOL    HW170816   8.253   4.653   2.482 -1.7186 -0.7584 -0.1590
21490SOL    HW270817   8.332   4.632   2.610  0.2981  0.7394 -1.1069
21491SOL     OW70818   4.186   5.662   7.379  0.2096  0.7191  0.3916
21491SOL    HW170819   4.163   5.569   7.385 -0.6346  0.7412 -1.8175
21491SOL    HW270820   4.187   5.692   7.470 -0.6058 -1.1822  1.0783
21492SOL     OW70821   1.615   1.121   0.390  0.3127 -0.1113  0.7433
21492SOL    HW170822   1.543   1.078   0.436  1.3995  0.5334  3.2380
21492SOL    HW270823   1.591   1.213   0.387  1.5209  0.3625  2.8842
21493SOL     OW70824   8.706   1.055   0.090 -0.3244  0.5264  0.4788
21493SOL    HW170825   8.767   1.091   0.154  1.6147 -0.2179 -0.8522
21493SOL    HW270826   8.743   0.971   0.065 -1.0500  0.7388 -1.5380
21494SOL     OW70827   4.758   4.706   6.745  0.2460 -0.2532 -0.2128
21494SOL    HW170828   4.739   4.618   6.711 -0.2321 -0.4280  0.4686
21494SOL    HW270829   4.850   4.702   6.772  1.4581  0.6239 -3.6356
21495SOL     OW70830   3.812   7.570   6.074 -0.2927 -0.0860 -0.1432
21495SOL    HW170831   3.824   7.527   6.158 -0.1234  0.7452  0.2695
21495SOL    HW270832   3.900   7.600   6.049 -0.6664  1.7281  0.5372
21496SOL     OW70833   0.416   4.363   6.774  0.2641 -0.5010 -0.1162
21496SOL    HW170834   0.495   4.361   6.829 -0.6334  0.5380  1.2543
21496SOL    HW270835   0.414   4.276   6.734  2.7832 -0.1542 -1.2270
21497SOL     OW70836   3.766   6.992   3.286 -0.2772 -0.4032 -0.7922
21497SOL    HW170837   3.816   7.064   3.327 -1.3620 -0.2729  0.3728
21497SOL    HW270838   3.789   6.915   3.338  0.6391 -0.8704 -1.8450
21498SOL     OW70839   9.117   7.133   0.792  0.1951 -0.0230  0.2572
21498SOL    HW170840   9.173   7.197   0.835 -0.9830  0.2849  1.3954
21498SOL    HW270841   9.130   7.052   0.842 -1.1649  0.3321  1.2443
21499SOL     OW70842   8.295   2.438   5.908 -0.2072 -0.7136  0.2610
21499SOL    HW170843   8.361   2.503   5.931 -2.1845  1.6281 -0.2716
21499SOL    HW270844   8.314   2.415   5.817 -1.8470  2.4190 -1.0371
21500SOL     OW70845   4.320   4.875   6.396 -0.5865  0.2121  0.0930
21500SOL    HW170846   4.403   4.920   6.380 -1.0472  0.2665 -2.6365
21500SOL    HW270847   4.257   4.945   6.407 -0.4248  0.1711  1.3930
21501SOL     OW70848   6.866   0.941   7.754 -0.1479 -0.0522  0.3072
21501SOL    HW170849   6.829   0.897   7.831 -1.4178  0.1368 -0.1713
21501SOL    HW270850   6.853   0.880   7.682  0.1812  0.1587  0.0655
21502SOL     OW70851   2.839   1.639   7.997  0.3145  0.3896 -0.4587
21502SOL    HW170852   2.849   1.566   7.936 -0.9289 -1.3602  1.3050
21502SOL    HW270853   2.832   1.716   7.941 -0.2350 -1.0439 -2.4892
21503SOL     OW70854   5.100   8.116   2.913 -0.1436  0.1678 -0.0921
21503SOL    HW170855   5.050   8.164   2.846 -1.5207 -0.7687  0.2290
21503SOL    HW270856   5.103   8.176   2.987  0.2076  0.6755 -0.5031
21504SOL     OW70857   1.537   5.066   2.657 -0.1868  0.0002  0.3894
21504SOL    HW170858   1.492   5.122   2.721  1.2388  0.4363  1.0361
21504SOL    HW270859   1.614   5.117   2.631 -0.8054 -0.1107 -1.8101
21505SOL     OW70860   1.660   2.922   4.067  0.5729  0.7201 -0.1124
21505SOL    HW170861   1.712   2.932   3.986 -0.1227 -1.6905 -0.9451
21505SOL    HW270862   1.576   2.962   4.046  0.1011 -0.6307 -0.9512
21506SOL     OW70863   1.821   5.974   1.001  0.0224 -0.0312  0.2485
21506SOL    HW170864   1.762   6.047   1.022 -0.1036 -0.5006  1.6007
21506SOL    HW270865   1.818   5.917   1.078  0.5011 -1.2249 -0.5768
21507SOL     OW70866   5.759   8.230   3.604  0.0966  0.2485 -0.2283
21507SOL    HW170867   5.667   8.224   3.578  0.2888 -1.6395 -0.6085
21507SOL    HW270868   5.787   8.316   3.573 -0.8407 -0.2108 -2.5696
21508SOL     OW70869   5.578   0.258   1.778 -0.1469  0.2117  0.2627
21508SOL    HW170870   5.544   0.267   1.867 -0.0882  0.6568  0.2438
21508SOL    HW270871   5.567   0.344   1.739  0.9836  0.3745  0.2566
21509SOL     OW70872   2.109   0.500   2.782 -0.3463 -0.2388  0.5863
21509SOL    HW170873   2.199   0.508   2.750 -0.3563 -3.5740 -0.7259
21509SOL    HW270874   2.113   0.431   2.848 -2.0279 -1.0931 -0.1513
21510SOL     OW70875   4.331   1.816   6.065  0.1342 -0.5319 -0.0136
21510SOL    HW170876   4.310   1.891   6.010  0.3804  0.0416  0.6622
21510SOL    HW270877   4.372   1.853   6.143 -1.6246 -1.1816  1.2939
21511SOL     OW70878   0.536   8.970   4.794  0.3175  0.4426  0.3403
21511SOL    HW170879   0.606   8.905   4.792  0.2629  0.3692  0.7027
21511SOL    HW270880   0.532   9.004   4.705 -0.4752 -0.9295 -0.1930
21512SOL     OW70881   7.936   3.234   7.960 -0.1577  0.1697  0.1947
21512SOL    HW170882   8.000   3.303   7.943 -0.7215  0.7661  0.4396
21512SOL    HW270883   7.984   3.170   8.012  1.2530 -1.1178 -2.4734
21513SOL     OW70884   6.281   6.751   4.576  0.0900  0.5462 -1.0649
21513SOL    HW170885   6.353   6.782   4.521  1.2581 -0.5011 -0.1630
21513SOL    HW270886   6.281   6.656   4.565 -0.3484  0.4164 -0.0860
21514SOL     OW70887   2.931   7.444   3.868  0.4716 -0.3539 -0.5230
21514SOL    HW170888   2.965   7.533   3.865 -0.2874  0.0761  1.7026
21514SOL    HW270889   2.884   7.439   3.951 -1.2529 -2.2183 -1.5122
21515SOL     OW70890   0.144   7.429   2.815  0.4167  0.0892  0.2102
21515SOL    HW170891   0.131   7.365   2.745  1.8221 -1.4689  1.2908
21515SOL    HW270892   0.179   7.378   2.888  2.7192  2.2430  0.7705
21516SOL     OW70893   6.851   6.537   0.937 -0.3847  0.4616  0.3943
21516SOL    HW170894   6.854   6.534   1.032 -2.1477  2.1191  0.5642
21516SOL    HW270895   6.919   6.600   0.913 -0.5133  0.6837  0.6146
21517SOL     OW70896   6.914   5.264   3.159  0.1860 -0.2824 -0.1395
21517SOL    HW170897   6.900   5.172   3.136 -1.5785 -0.0837 -0.0463
21517SOL    HW270898   6.932   5.307   3.075  0.5017 -0.6334 -0.2531
21518SOL     OW70899   4.579   8.761   5.414 -0.1336 -0.8528  0.6265
21518SOL    HW170900   4.594   8.850   5.444 -0.0375 -1.0010  1.0353
21518SOL    HW270901   4.663   8.716   5.427  0.3429 -0.5798 -1.1871
21519SOL     OW70902   2.305   6.593   7.004 -0.5345  0.0429 -0.1869
21519SOL    HW170903   2.327   6.649   7.078 -2.2428  2.2841 -1.2360
21519SOL    HW270904   2.232   6.540   7.034  0.5601 -1.1148  0.5469
21520SOL     OW70905   1.030   1.609   4.740  0.2553  0.7619 -0.1606
21520SOL    HW170906   0.973   1.672   4.783 -2.8212 -2.0583  0.2586
21520SOL    HW270907   1.030   1.636   4.648 -0.6459  1.5954  0.0672
21521SOL     OW70908   3.154   3.512   1.620  0.2150  0.6156  0.1960
21521SOL    HW170909   3.206   3.433   1.633 -0.4822  0.2443  0.8388
21521SOL    HW270910   3.085   3.486   1.559  0.5500  0.9952 -0.3466
21522SOL     OW70911   4.857   1.916   5.833  0.0750  0.2088 -0.2494
21522SOL    HW170912   4.778   1.915   5.779 -1.2018  0.3370  1.4963
21522SOL    HW270913   4.824   1.903   5.923  2.0538  0.2040  0.5230
21523SOL     OW70914   8.139   2.167   5.926  0.1559 -0.0727 -0.2916
21523SOL    HW170915   8.213   2.109   5.942  1.0045  1.2071  0.7201
21523SOL    HW270916   8.127   2.166   5.831 -0.6341 -2.7659 -0.2204
21524SOL     OW70917   8.342   2.255   4.272 -0.0316 -0.1277  0.0362
21524SOL    HW170918   8.417   2.211   4.231 -0.5807  0.7499 -2.0155
21524SOL    HW270919   8.317   2.197   4.344  2.3167 -0.6719  0.5117
21525SOL     OW70920   1.825   1.718   8.387  0.1811 -0.2986  0.4989
21525SOL    HW170921   1.795   1.788   8.445  0.8789  0.1049  0.3913
21525SOL    HW270922   1.772   1.727   8.308  0.4335  0.2730  0.3906
21526SOL     OW70923   5.550   0.625   6.844  0.5106  0.3295  0.5752
21526SOL    HW170924   5.516   0.615   6.933 -0.8122 -2.0463 -0.0953
21526SOL    HW270925   5.586   0.539   6.823  0.5387  0.7585 -1.2724
21527SOL     OW70926   6.531   5.989   5.526  0.1421 -0.3924 -0.4179
21527SOL    HW170927   6.566   5.918   5.472  0.8242 -1.0790  0.8858
21527SOL    HW270928   6.436   5.974   5.526 -0.0110  0.2512 -2.2586
21528SOL     OW70929   3.698   1.648   4.132 -0.8257  0.6009  0.3451
21528SOL    HW170930   3.688   1.662   4.226  0.4177 -0.5956  0.6942
21528SOL    HW270931   3.713   1.736   4.096  3.0187  0.8053  1.9054
21529SOL     OW70932   7.249   1.221   6.258 -0.3618 -0.3958 -0.0445
21529SOL    HW170933   7.199   1.283   6.204 -2.4719 -1.2204  0.8196
21529SOL    HW270934   7.232   1.250   6.348  2.0255  0.1813  0.2677
21530SOL     OW70935   6.168   1.138   1.348  0.4749 -0.5137 -0.6831
21530SOL    HW170936   6.247   1.171   1.390  0.7699  0.1137 -1.6992
21530SOL    HW270937   6.142   1.063   1.402  1.7151 -0.6903 -0.2994
21531SOL     OW70938   0.882   6.044   5.682  0.1876  0.1909  0.4360
21531SOL    HW170939   0.797   6.078   5.656 -0.2863 -0.6572  0.8297
21531SOL    HW270940   0.936   6.122   5.698 -0.6742  0.7389  0.7233
21532SOL     OW70941   5.261   6.042   6.049 -0.0454 -0.0609  0.3004
21532SOL    HW170942   5.350   6.049   6.084  0.3316  0.8333 -0.7826
21532SOL    HW270943   5.220   5.973   6.101  1.8451 -1.7652 -0.3557
21533SOL     OW70944   1.273   1.342   8.936  0.0208  0.6120 -0.1435
21533SOL    HW170945   1.243   1.374   9.021  0.0508 -1.2225  0.6128
21533SOL    HW270946   1.195   1.342   8.881 -0.2547  0.7569  0.2418
21534SOL     OW70947   6.746   2.409   0.773  0.0442 -0.1249 -0.4167
21534SOL    HW170948   6.715   2.393   0.684 -1.6454  1.2877 -0.1499
21534SOL    HW270949   6.783   2.497   0.769  1.7187 -0.7814 -0.1081
21535SOL     OW70950   4.148   3.600   3.161  0.0540  0.4011  0.5230
21535SOL    HW170951   4.216   3.568   3.101 -0.6589  0.0507 -0.1051
21535SOL    HW270952   4.069   3.554   3.134  0.0293 -1.0015  2.7739
21536SOL     OW70953   8.142   4.198   7.635  0.1591 -0.3856 -0.5062
21536SOL    HW170954   8.146   4.208   7.730  2.0149  1.4432 -0.6999
21536SOL    HW270955   8.200   4.124   7.617  0.6231 -0.0900 -0.2593
21537SOL     OW70956   4.577   2.138   0.233 -0.4058 -0.1285 -0.1218
21537SOL    HW170957   4.579   2.089   0.315 -0.3983 -0.8768 -0.5666
21537SOL    HW270958   4.663   2.180   0.228 -0.4657  0.0562  0.3237
21538SOL     OW70959   5.039   8.625   3.782  0.0623  0.0268  0.1172
21538SOL    HW170960   4.953   8.643   3.745  0.3040 -0.4562 -0.7148
21538SOL    HW270961   5.084   8.710   3.781  0.2736 -0.0700 -1.3093
21539SOL     OW70962   1.558   6.410   5.298 -0.5868  0.3353  0.3805
21539SOL    HW170963   1.525   6.361   5.373 -0.1653 -0.4969  0.0342
21539SOL    HW270964   1.573   6.344   5.230 -0.1643  0.9608 -0.1528
21540SOL     OW70965   4.771   7.309   8.365 -0.5298 -0.3260 -0.3011
21540SOL    HW170966   4.680   7.297   8.390 -0.9394  1.2514 -0.8880
21540SOL    HW270967   4.767   7.359   8.283  0.8634  0.4429  0.0603
21541SOL     OW70968   8.629   2.702   4.179  0.4304  0.1567  0.2569
21541SOL    HW170969   8.628   2.753   4.260  3.3150 -0.0300  0.5287
21541SOL    HW270970   8.635   2.611   4.208 -2.1879 -0.2372 -0.2332
21542SOL     OW70971   6.048   6.486   0.143 -0.1088  0.5766  0.1456
21542SOL    HW170972   6.119   6.498   0.205 -0.3160 -1.8079  0.9464
21542SOL    HW270973   5.970   6.520   0.188 -0.2795 -1.2345  1.3403
21543SOL     OW70974   0.049   8.768   2.522  0.3116 -0.2586 -0.6051
21543SOL    HW170975   0.083   8.759   2.612 -0.8628  0.3017 -0.0818
21543SOL    HW270976   0.109   8.829   2.480  0.6893 -0.2725 -0.0932
21544SOL     OW70977   5.828   4.703   8.099  0.5470 -0.0698  0.2068
21544SOL    HW170978   5.859   4.656   8.021  0.5402  1.3439 -0.6864
21544SOL    HW270979   5.752   4.753   8.067 -0.6727 -0.9526  1.5925
21545SOL     OW70980   6.774   6.122   0.104 -0.9979  0.3333  0.0098
21545SOL    HW170981   6.795   6.187   0.172 -1.0349  0.7856 -0.4088
21545SOL    HW270982   6.852   6.065   0.102 -1.9050 -1.1209  2.0419
21546SOL     OW70983   7.441   2.760   0.998 -0.1180  0.1303  0.1849
21546SOL    HW170984   7.504   2.729   0.933 -1.7382 -0.7069 -1.0757
21546SOL    HW270985   7.363   2.706   0.984 -1.2486  1.3296  1.4419
21547SOL     OW70986   7.757   7.814   4.280 -0.5762  0.2948  0.2363
21547SOL    HW170987   7.666   7.833   4.302 -1.3919  0.6849 -3.0198
21547SOL    HW270988   7.774   7.865   4.201  2.5186  0.2366  0.7492
21548SOL     OW70989   2.508   1.101   8.352 -0.0050  0.5970  0.3683
21548SOL    HW170990   2.595   1.075   8.382  0.1286 -1.9304 -1.8528
21548SOL    HW270991   2.450   1.078   8.425  0.7957 -1.0800  0.5197
21549SOL     OW70992   7.261   2.599   7.618  0.0042  0.1093  0.0407
21549SOL    HW170993   7.252   2.656   7.542 -0.3061 -2.2146 -1.7895
21549SOL    HW270994   7.350   2.565   7.613  0.1156  0.2292  0.9581
21550SOL     OW70995   2.245   8.543   5.746 -0.3809 -0.2636 -0.1717
21550SOL    HW170996   2.249   8.598   5.825 -2.5243  0.7875 -0.7117
21550SOL    HW270997   2.261   8.454   5.777 -1.4741  0.0889  1.5316
21551SOL     OW70998   1.688   9.089   1.558 -0.0763 -0.1630  0.2893
21551SOL    HW170999   1.737   9.166   1.585 -0.1036  0.3507 -1.0279
21551SOL    HW271000   1.746   9.043   1.498  0.3145 -1.7181  1.7886
21552SOL     OW71001   8.962   2.702   1.595  0.2653  0.2842  0.8725
21552SOL    HW171002   8.968   2.644   1.671  0.0182 -0.8719  0.0303
21552SOL    HW271003   9.021   2.664   1.531 -2.6416 -1.2947 -1.1106
21553SOL     OW71004   6.962   6.344   7.373  0.2517 -0.5126  0.2747
21553SOL    HW171005   6.906   6.403   7.424 -0.5295 -1.3693  0.4430
21553SOL    HW271006   7.032   6.319   7.432  0.2427 -0.2309  0.4028
21554SOL     OW71007   3.572   2.908   5.047  0.1715  0.4336 -0.2677
21554SOL    HW171008   3.573   2.884   5.140  1.5876 -0.2575 -0.4303
21554SOL    HW271009   3.650   2.961   5.035 -0.5352  1.3722 -0.8749
21555SOL     OW71010   4.419   6.322   8.864 -0.2304 -0.0126 -0.1519
21555SOL    HW171011   4.499   6.318   8.917 -0.0834 -0.3018 -0.3950
21555SOL    HW271012   4.442   6.375   8.788  1.0680 -3.5212 -2.4563
21556SOL     OW71013   1.529   7.201   2.671  0.1531  0.5211  0.0274
21556SOL    HW171014   1.481   7.259   2.611  0.4860  1.6088  0.7861
21556SOL    HW271015   1.619   7.233   2.667  0.3589 -0.0149  0.3746
21557SOL     OW71016   5.508   2.613   8.354 -0.0073 -0.2728  0.3770
21557SOL    HW171017   5.507   2.704   8.383 -1.0083  1.3744 -4.0684
21557SOL    HW271018   5.600   2.591   8.348  0.2449  0.2588  1.8322
21558SOL     OW71019   3.602   2.385   6.704 -0.7101  0.0866  0.0566
21558SOL    HW171020   3.580   2.341   6.786  1.9559 -1.3454  0.1036
21558SOL    HW271021   3.654   2.321   6.655 -0.3690  1.6821 -1.8195
21559SOL     OW71022   1.117   8.244   0.204 -0.0693  0.5303  0.4244
21559SOL    HW171023   1.085   8.156   0.221 -0.7312  1.1428  2.6114
21559SOL    HW271024   1.177   8.263   0.276  0.8970  1.4947 -0.5943
21560SOL     OW71025   4.668   8.572   5.666 -0.0729  0.5533 -0.0844
21560SOL    HW171026   4.671   8.641   5.731  3.1514  0.7190 -0.2756
21560SOL    HW271027   4.667   8.491   5.717 -0.8467  0.6834  0.1261
21561SOL     OW71028   3.887   2.182   2.966  0.1000  0.2956 -0.0026
21561SOL    HW171029   3.901   2.088   2.977 -0.3586  0.2102 -0.1267
21561SOL    HW271030   3.792   2.193   2.970  0.1335  0.7180 -0.2757
21562SOL     OW71031   8.808   5.616   7.399 -0.0094  0.1824  0.3841
21562SOL    HW171032   8.776   5.707   7.397  0.9076  0.5073 -0.3484
21562SOL    HW271033   8.879   5.618   7.463  0.0544 -0.0071  0.3178
21563SOL     OW71034   3.685   8.380   8.691 -0.4202 -0.2853  0.2639
21563SOL    HW171035   3.760   8.410   8.640 -1.3500  1.1297 -0.3300
21563SOL    HW271036   3.633   8.459   8.706 -2.3763 -1.3896 -0.3318
21564SOL     OW71037   6.396   3.499   5.948 -0.0924 -0.2536  0.1057
21564SOL    HW171038   6.434   3.579   5.911  0.9821 -0.4409  0.7671
21564SOL    HW271039   6.382   3.442   5.872 -1.3733  0.7426 -0.4394
21565SOL     OW71040   5.041   0.794   1.758  0.2293 -0.6293  0.2463
21565SOL    HW171041   4.981   0.771   1.830  1.0808 -0.6644  0.9595
21565SOL    HW271042   4.985   0.838   1.694 -0.6407 -1.0213  0.7141
21566SOL     OW71043   8.239   6.885   7.210 -0.6080 -0.3791 -0.2436
21566SOL    HW171044   8.254   6.979   7.210 -0.3469 -0.3383  2.5569
21566SOL    HW271045   8.168   6.872   7.147 -0.3613  1.5929 -1.0029
21567SOL     OW71046   0.640   7.816   1.380 -0.1567 -0.4293 -0.2829
21567SOL    HW171047   0.699   7.799   1.306  0.2518 -0.4907  0.0557
21567SOL    HW271048   0.695   7.858   1.446 -0.8349  0.9321 -0.5499
21568SOL     OW71049   5.979   1.827   0.457  0.5655 -0.1131 -0.1517
21568SOL    HW171050   5.973   1.875   0.540  0.6556 -1.7699  0.8457
21568SOL    HW271051   6.033   1.884   0.401  0.9980  0.7710  1.1169
21569SOL     OW71052   6.595   5.172   6.155  0.4532  0.6276  0.4122
21569SOL    HW171053   6.526   5.140   6.214  0.2269  1.1796  0.4576
21569SOL    HW271054   6.588   5.117   6.077 -0.6289  1.2413  0.0526
21570SOL     OW71055   1.555   8.270   2.333 -0.2830 -0.2841  0.3622
21570SOL    HW171056   1.571   8.355   2.292  3.3855 -2.1284 -2.6474
21570SOL    HW271057   1.469   8.244   2.302  0.6859  0.2040 -3.1732
21571SOL     OW71058   6.107   0.673   2.230  0.2268 -0.0179 -0.1002
21571SOL    HW171059   6.039   0.610   2.208  1.1575 -1.0220 -0.2139
21571SOL    HW271060   6.189   0.630   2.203  1.2411 -0.3363  3.0399
21572SOL     OW71061   8.625   9.199   0.823  0.0084  0.0990  0.0222
21572SOL    HW171062   8.651   9.155   0.742 -2.4942 -0.5111 -0.5343
21572SOL    HW271063   8.560   9.264   0.795 -4.0097 -2.7615  1.7103
21573SOL     OW71064   6.662   2.892   4.124  0.0720  0.0073  0.2153
21573SOL    HW171065   6.642   2.972   4.076  0.2119  0.8001  1.4282
21573SOL    HW271066   6.655   2.822   4.059 -2.3633  0.7063 -0.3733
21574SOL     OW71067   2.464   0.378   8.213 -0.6938 -0.1588 -0.2274
21574SOL    HW171068   2.544   0.409   8.256 -1.0060 -0.7739  0.8319
21574SOL    HW271069   2.496   0.319   8.145 -0.2453 -0.8627  0.5677
21575SOL     OW71070   7.637   2.354   4.291 -0.3749 -0.1483  0.7188
21575SOL    HW171071   7.630   2.274   4.344 -0.0438  1.1770  2.9036
21575SOL    HW271072   7.584   2.419   4.338  0.7592  1.3814 -0.0173
21576SOL     OW71073   5.588   1.866   1.233 -0.2980 -0.6735  0.3681
21576SOL    HW171074   5.651   1.818   1.287 -1.1921 -0.2474  1.8531
21576SOL    HW271075   5.612   1.844   1.143  3.1624  0.9795  0.7295
21577SOL     OW71076   3.147   4.973   2.850 -0.2781  0.1458  0.2353
21577SOL    HW171077   3.242   4.980   2.858 -0.0482 -2.8626  1.0150
21577SOL    HW271078   3.114   5.056   2.885  2.0051  0.9087  0.7193
21578SOL     OW71079   6.637   8.163   4.004  0.0210 -0.3173 -0.0067
21578SOL    HW171080   6.559   8.195   4.049 -0.7938 -0.1799 -1.4595
21578SOL    HW271081   6.674   8.240   3.960  2.3513  0.1473  2.4878
21579SOL     OW71082   0.742   2.397   7.913  0.5273 -0.0767 -0.1212
21579SOL    HW171083   0.784   2.482   7.916 -1.1209  0.8608 -1.4589
21579SOL    HW271084   0.735   2.377   7.820 -3.1389  0.5390 -0.1295
21580SOL     OW71085   7.143   5.313   6.505  0.1002 -0.5807  0.0980
21580SOL    HW171086   7.230   5.309   6.545  0.4593 -0.9764 -0.7072
21580SOL    HW271087   7.090   5.361   6.569  1.5954  2.2418 -0.5976
21581SOL     OW71088   1.650   1.177   1.557  0.4377 -0.0891 -0.1482
21581SOL    HW171089   1.637   1.088   1.524  0.4865  0.1745 -0.9000
21581SOL    HW271090   1.740   1.199   1.533  0.7965 -0.2215  0.9946
21582SOL     OW71091   7.753   3.448   9.216 -0.4822  0.4355  0.1385
21582SOL    HW171092   7.726   3.358   9.199  0.1415 -0.1651  2.0868
21582SOL    HW271093   7.844   3.441   9.244 -0.4258  1.6898  0.3219
21583SOL     OW71094   9.212   6.609   1.134  0.4327  0.0075  0.3485
21583SOL    HW171095   9.193   6.696   1.100 -0.2582 -0.3437 -0.1954
21583SOL    HW271096   9.301   6.615   1.168 -0.4612  1.6135  2.6517
21584SOL     OW71097   0.965   4.253   5.843 -0.7535  0.5422 -0.0362
21584SOL    HW171098   0.945   4.252   5.749  1.3240  0.5816 -0.5283
21584SOL    HW271099   0.918   4.329   5.876 -0.1343  1.5705 -1.4057
21585SOL     OW71100   7.604   5.796   1.607  0.1463  0.5724 -0.0913
21585SOL    HW171101   7.645   5.830   1.687 -1.1612  2.1460 -0.0265
21585SOL    HW271102   7.654   5.717   1.586  1.4594  0.9325  1.4469
21586SOL     OW71103   0.647   0.784   2.871 -0.4363 -0.1228 -0.0969
21586SOL    HW171104   0.635   0.749   2.960 -1.3659  2.0277  0.6830
21586SOL    HW271105   0.712   0.854   2.882 -1.7715  1.2760 -0.7572
21587SOL     OW71106   0.055   1.244   2.107 -0.0055 -0.1346  0.3968
21587SOL    HW171107   0.012   1.326   2.131 -0.9693  0.3190 -2.4818
21587SOL    HW271108  -0.016   1.183   2.091  0.6561 -1.0821  0.9446
21588SOL     OW71109   7.420   8.903   0.825 -0.0842 -0.4876 -0.3854
21588SOL    HW171110   7.357   8.914   0.754 -0.3431  1.3506  0.0761
21588SOL    HW271111   7.422   8.988   0.869 -1.3201 -2.0185  2.9718
21589SOL     OW71112   0.974   7.453   7.785  0.5369  0.2106 -0.7426
21589SOL    HW171113   0.911   7.382   7.799 -0.3492  0.7922 -1.6765
21589SOL    HW271114   1.053   7.424   7.831 -0.8948  0.1878  1.8764
21590SOL     OW71115   7.737   3.745   8.315 -0.5098  0.0875 -0.2519
21590SOL    HW171116   7.724   3.786   8.229 -2.0100  0.1723 -0.0066
21590SOL    HW271117   7.733   3.818   8.377 -1.7532 -0.2471  0.0718
21591SOL     OW71118   0.875   4.156   4.317 -0.6529 -0.2086 -0.3402
21591SOL    HW171119   0.856   4.242   4.354 -0.5048 -0.0892 -0.5393
21591SOL    HW271120   0.790   4.124   4.286 -0.3238  0.9639 -2.5951
21592SOL     OW71121   4.629   7.644   7.307 -0.0949 -0.0763  0.0770
21592SOL    HW171122   4.690   7.584   7.351  0.9631  1.7144  1.2094
21592SOL    HW271123   4.684   7.718   7.281 -1.2512  0.1608 -1.8011
21593SOL     OW71124   0.998   2.952   8.642 -0.5451  0.1062  0.8466
21593SOL    HW171125   0.903   2.935   8.643 -0.4172 -0.6592  0.7830
21593SOL    HW271126   1.006   3.043   8.615 -1.2975  0.4072  1.5871
21594SOL     OW71127   3.718   5.565   6.084 -0.5410 -0.0808  0.5740
21594SOL    HW171128   3.716   5.525   6.171  0.9084 -1.8513 -0.1238
21594SOL    HW271129   3.642   5.529   6.039  0.2713 -1.4576  0.2387
21595SOL     OW71130   0.528   7.908   3.878  0.1714  0.0858 -0.2476
21595SOL    HW171131   0.563   7.857   3.805  0.2506  2.7155 -2.1526
21595SOL    HW271132   0.495   7.841   3.939  0.3425 -2.2397 -2.5207
21596SOL     OW71133   2.961   0.667   5.689  0.1702  0.4830  0.2434
21596SOL    HW171134   2.887   0.726   5.676 -0.3679 -0.1958  0.1852
21596SOL    HW271135   2.978   0.629   5.603  1.8491  2.0643 -0.1911
21597SOL     OW71136   3.296   3.503   0.536  0.1926 -0.1815  0.4500
21597SOL    HW171137   3.327   3.555   0.610 -1.1630 -0.7888  1.4938
21597SOL    HW271138   3.338   3.417   0.548 -0.2160 -0.3545  0.6662
21598SOL     OW71139   5.178   3.006   6.611  0.4625  0.0326 -0.4563
21598SOL    HW171140   5.106   3.069   6.602  0.8487  0.5411 -0.0388
21598SOL    HW271141   5.191   2.998   6.705  1.6064  0.7157 -0.5325
21599SOL     OW71142   2.721   1.612   1.030 -0.3417 -0.3279  0.0095
21599SOL    HW171143   2.740   1.526   0.992  0.5176  0.1079 -0.5782
21599SOL    HW271144   2.779   1.618   1.106  2.0400  1.0068 -1.7899
21600SOL     OW71145   9.109   7.586   7.489 -0.0406  0.0427  0.0323
21600SOL    HW171146   9.121   7.492   7.504  0.4619 -0.3496 -2.3751
21600SOL    HW271147   9.197   7.623   7.495 -0.0466  0.1201 -0.3023
21601SOL     OW71148   3.341   7.394   7.591 -0.5784 -0.1059 -0.2710
21601SOL    HW171149   3.287   7.457   7.543  0.5789 -0.1967 -1.7881
21601SOL    HW271150   3.315   7.404   7.682 -2.3011  0.6658 -0.8061
21602SOL     OW71151   1.839   8.519   8.851 -0.2900  0.1484  0.4264
21602SOL    HW171152   1.890   8.550   8.925 -0.9617  0.0843  0.9315
21602SOL    HW271153   1.862   8.427   8.843  1.3373  0.6321 -0.7640
21603SOL     OW71154   6.888   5.455   7.040  1.0572 -0.3790  0.1867
21603SOL    HW171155   6.849   5.456   6.953  2.0762  0.1193 -0.2737
21603SOL    HW271156   6.827   5.504   7.095  0.4982 -0.5450 -0.2863
21604SOL     OW71157   3.301   4.581   8.295 -0.8236  0.5914  0.3364
21604SOL    HW171158   3.349   4.659   8.320 -0.3105  0.3097  0.2293
21604SOL    HW271159   3.341   4.510   8.344 -0.4605  0.1983 -0.5079
21605SOL     OW71160   4.237   4.960   2.635  0.7531  0.0048 -0.1229
21605SOL    HW171161   4.298   5.005   2.693  1.0860  0.0208 -0.4804
21605SOL    HW271162   4.231   4.871   2.670  2.6436 -0.6427 -1.2857
21606SOL     OW71163   3.074   0.113   7.481 -0.1189 -0.3560  0.1141
21606SOL    HW171164   3.011   0.184   7.498  0.7353  0.4456  0.0038
21606SOL    HW271165   3.118   0.101   7.565 -0.4932 -0.9928  0.2198
21607SOL     OW71166   6.008   2.192   3.622  0.2398  0.3739  0.3295
21607SOL    HW171167   6.083   2.197   3.564 -0.4438  0.1143 -0.6110
21607SOL    HW271168   6.028   2.121   3.682  0.7727  0.3567  0.1310
21608SOL     OW71169   4.596   4.988   9.182  0.0754 -0.5192 -0.1450
21608SOL    HW171170   4.574   4.953   9.096  0.5061 -0.8682 -0.1170
21608SOL    HW271171   4.596   5.083   9.170  0.1061 -0.5684 -0.5247
21609SOL     OW71172   3.946   6.222   0.169 -0.5663 -0.3708 -0.0046
21609SOL    HW171173   3.942   6.126   0.171 -2.1929 -0.3334  2.3620
21609SOL    HW271174   4.031   6.242   0.208 -0.1957 -0.8409 -0.5516
21610SOL     OW71175   2.849   4.837   3.462 -0.8380  0.3295 -0.0438
21610SOL    HW171176   2.874   4.929   3.475 -1.8729  0.5174  0.7316
21610SOL    HW271177   2.837   4.803   3.550 -1.8383 -0.1585 -0.3659
21611SOL     OW71178   0.971   5.200   6.189  0.7662  0.2472 -0.8731
21611SOL    HW171179   0.965   5.137   6.261 -0.1859  0.6240 -0.6105
21611SOL    HW271180   0.951   5.284   6.229  1.5059  0.6476 -1.3290
21612SOL     OW71181   1.794   5.464   7.442 -0.7036  0.5066  0.7081
21612SOL    HW171182   1.771   5.381   7.401 -0.0964 -0.3641  2.0559
21612SOL    HW271183   1.711   5.497   7.476 -0.7737 -0.1515  1.2014
21613SOL     OW71184   5.861   4.134   2.764  0.4095 -0.7961  0.1785
21613SOL    HW171185   5.944   4.104   2.801  1.6784  0.3446 -1.5153
21613SOL    HW271186   5.858   4.228   2.785 -0.3141 -0.7651 -0.0296
21614SOL     OW71187   1.870   4.533   9.240 -0.3835 -0.2067 -0.5827
21614SOL    HW171188   1.959   4.550   9.270 -0.6909 -0.0459  0.2801
21614SOL    HW271189   1.849   4.607   9.183 -0.4648  0.5166  0.3609
21615SOL     OW71190   8.308   0.206   2.086  0.0033 -0.1097  0.4226
21615SOL    HW171191   8.212   0.211   2.081 -0.1812 -2.5179  0.3446
21615SOL    HW271192   8.327   0.212   2.180 -0.3280 -0.6195  0.5300
21616SOL     OW71193   8.675   0.717   9.167  0.3319 -0.1116  0.2795
21616SOL    HW171194   8.738   0.789   9.175  0.7690 -0.6388  1.9979
21616SOL    HW271195   8.648   0.698   9.257  0.5517 -2.3753 -0.0752
21617SOL     OW71196   5.932   2.203   4.822  0.3526  0.4137 -0.0344
21617SOL    HW171197   5.880   2.283   4.824  0.4880  0.4918  0.7787
21617SOL    HW271198   5.947   2.186   4.729 -0.3105  0.9149 -0.2403
21618SOL     OW71199   8.211   8.756   1.632  0.6140  0.0345 -0.4716
21618SOL    HW171200   8.244   8.690   1.570  1.6256 -0.7691  0.8669
21618SOL    HW271201   8.140   8.712   1.678  0.2186  0.4502 -0.6724
21619SOL     OW71202   7.683   4.996   8.292 -0.2761 -0.1672  0.4448
21619SOL    HW171203   7.632   5.060   8.242  0.1783 -0.4772 -0.4405
21619SOL    HW271204   7.773   5.010   8.263 -0.0208 -0.4587  1.0772
21620SOL     OW71205   6.230   0.534   6.599  0.2552  0.0485  1.2256
21620SOL    HW171206   6.314   0.538   6.644  0.6459  0.8760  0.4679
21620SOL    HW271207   6.169   0.581   6.656  0.2260 -0.8169  1.9190
21621SOL     OW71208   5.136   8.801   1.364 -0.2121  0.2240  0.3189
21621SOL    HW171209   5.136   8.872   1.427 -1.7075  0.9345 -0.4289
21621SOL    HW271210   5.213   8.817   1.309  0.2966  0.3951  1.0644
21622SOL     OW71211   5.974   6.760   0.987 -0.1413 -0.3668  0.0148
21622SOL    HW171212   6.003   6.703   1.058  0.4670 -1.4781 -1.0896
21622SOL    HW271213   5.899   6.807   1.024  0.3768 -0.6500  1.4978
21623SOL     OW71214   1.359   3.747   7.891 -0.0388 -0.0011  0.3473
21623SOL    HW171215   1.326   3.657   7.894 -0.2634  0.0174 -0.9736
21623SOL    HW271216   1.288   3.800   7.929 -0.5977 -0.2139 -0.3811
21624SOL     OW71217   4.730   2.765   1.902  0.3087 -0.1667  0.4842
21624SOL    HW171218   4.715   2.859   1.887 -1.8958 -0.5998 -0.4094
21624SOL    HW271219   4.806   2.745   1.848  0.1844  0.9024 -0.1303
21625SOL     OW71220   8.024   2.387   5.577 -1.0841 -0.1715  0.1508
21625SOL    HW171221   7.992   2.305   5.539 -2.5202  1.4889 -2.5925
21625SOL    HW271222   7.975   2.396   5.659 -2.0203 -1.3599 -0.2476
21626SOL     OW71223   4.581   5.637   6.333  0.0821  0.2504  0.4278
21626SOL    HW171224   4.571   5.604   6.243  0.2404  1.5959 -0.1208
21626SOL    HW271225   4.546   5.568   6.388 -1.7370  0.1269 -0.7824
21627SOL     OW71226   0.723   8.384   5.677 -0.3470 -0.4854  0.2015
21627SOL    HW171227   0.685   8.306   5.717 -1.8665  0.6105  1.0130
21627SOL    HW271228   0.647   8.437   5.651  0.6397  0.2433 -1.3225
21628SOL     OW71229   8.317   5.025   7.250 -0.0278 -0.0401 -0.3671
21628SOL    HW171230   8.276   5.068   7.325 -1.1863  1.6878 -1.9207
21628SOL    HW271231   8.253   4.959   7.222  1.0673 -1.8108  1.0243
21629SOL     OW71232   4.796   1.115   5.064 -0.0865  0.4729  0.1879
21629SOL    HW171233   4.855   1.041   5.048 -0.6337  0.5920 -2.9491
21629SOL    HW271234   4.831   1.186   5.010 -0.1581  2.2785  2.3442
21630SOL     OW71235   5.663   6.314   1.299  0.9750  0.3050 -0.3668
21630SOL    HW171236   5.749   6.275   1.318  0.4606 -1.0687 -0.7412
21630SOL    HW271237   5.636   6.353   1.382  1.5721 -0.0301 -0.0075
21631SOL     OW71238   5.411   1.967   2.948  0.0575 -0.1882  0.5444
21631SOL    HW171239   5.365   1.913   3.012 -0.0025 -0.9727 -0.1380
21631SOL    HW271240   5.344   1.989   2.883  0.0268  0.9124  0.9309
21632SOL     OW71241   1.341   6.401   6.709 -0.2199  0.2300  0.6504
21632SOL    HW171242   1.394   6.418   6.787  0.1014  1.9839  0.0932
21632SOL    HW271243   1.260   6.450   6.724  0.6150  2.2352 -0.8885
21633SOL     OW71244   4.626   7.404   7.799  0.2811  0.2179 -0.2058
21633SOL    HW171245   4.585   7.476   7.751 -0.3031 -1.2633 -2.0872
21633SOL    HW271246   4.720   7.417   7.784  0.1280 -0.0396 -1.6092
21634SOL     OW71247   0.151   1.828   4.006 -0.1098  0.3004  0.3772
21634SOL    HW171248   0.104   1.851   4.086 -1.6807 -0.5145 -0.2806
21634SOL    HW271249   0.108   1.879   3.937 -0.1547 -0.5978 -0.2716
21635SOL     OW71250   2.184   2.268   8.344 -0.3254  0.5883  0.3595
21635SOL    HW171251   2.135   2.222   8.275 -0.4854  0.0242  0.8355
21635SOL    HW271252   2.221   2.197   8.398  0.3245  1.0192  0.4882
21636SOL     OW71253   0.043   3.474   1.620 -0.1467  0.2497 -0.3263
21636SOL    HW171254   0.022   3.382   1.610  0.9400 -0.0519  0.0960
21636SOL    HW271255   0.129   3.484   1.580 -0.7189  1.3181 -1.3770
21637SOL     OW71256   7.171   4.789   0.706  0.2490  0.1849  0.2992
21637SOL    HW171257   7.140   4.839   0.782  0.3437  0.9661 -0.1662
21637SOL    HW271258   7.091   4.761   0.662  0.1937 -0.3100  0.7112
21638SOL     OW71259   4.670   6.127   5.060 -0.1571  0.5405  0.3038
21638SOL    HW171260   4.690   6.213   5.023 -0.6420 -0.1710 -1.7330
21638SOL    HW271261   4.622   6.081   4.990 -2.3987 -0.4092  2.3261
21639SOL     OW71262   0.430   7.284   2.707  0.0043 -0.3022 -0.0793
21639SOL    HW171263   0.456   7.309   2.795 -0.0547 -0.3724 -0.0418
21639SOL    HW271264   0.485   7.208   2.687 -0.7254 -0.9516  0.3097
21640SOL     OW71265   6.616   8.937   1.537 -0.2487  0.3723 -0.0951
21640SOL    HW171266   6.673   8.859   1.537  0.6852  1.0292 -0.9998
21640SOL    HW271267   6.559   8.924   1.462 -0.0625  0.5852 -0.2728
21641SOL     OW71268   7.053   8.111   6.716  0.0463 -0.1383  0.6032
21641SOL    HW171269   7.104   8.122   6.636 -0.0212  1.8445  0.7682
21641SOL    HW271270   6.973   8.067   6.687  0.1742  0.2283 -0.3601
21642SOL     OW71271   1.462   6.650   3.341  0.0198 -0.7273  0.0389
21642SOL    HW171272   1.506   6.735   3.336  1.2032 -1.3550 -0.2794
21642SOL    HW271273   1.529   6.589   3.372  0.0163 -2.1336 -2.4414
21643SOL     OW71274   5.397   4.967   0.645  0.4465 -0.2709  0.5001
21643SOL    HW171275   5.435   5.014   0.571  0.4782  0.2725  0.8588
21643SOL    HW271276   5.389   4.877   0.614 -2.3510  0.4791 -1.2723
21644SOL     OW71277   8.375   9.043   4.591 -0.5723  0.5743  0.0420
21644SOL    HW171278   8.418   8.963   4.561 -0.2237 -0.1136  2.1626
21644SOL    HW271279   8.288   9.014   4.619 -0.2922  0.8037  1.2272
21645SOL     OW71280   5.589   2.234   2.521 -0.7431 -0.4343  0.0295
21645SOL    HW171281   5.663   2.175   2.535 -0.1908 -0.0715 -1.2617
21645SOL    HW271282   5.512   2.179   2.540 -0.2111 -1.2738 -0.1680
21646SOL     OW71283   5.387   0.582   2.297 -0.6357 -0.0792 -0.2450
21646SOL    HW171284   5.404   0.572   2.203 -0.0327 -1.5403  0.0022
21646SOL    HW271285   5.451   0.647   2.326 -0.4135 -0.0728 -0.7313
21647SOL     OW71286   1.866   7.867   6.416  0.5883  0.0409  0.0427
21647SOL    HW171287   1.832   7.861   6.505 -0.9742  2.4538 -0.2939
21647SOL    HW271288   1.880   7.961   6.402  0.0092 -0.1645 -2.5070
21648SOL     OW71289   6.727   3.862   4.398  0.6487 -0.5488  0.0557
21648SOL    HW171290   6.756   3.937   4.346  0.1069 -0.6780 -0.4377
21648SOL    HW271291   6.675   3.902   4.469  1.5110 -0.3637  0.6031
21649SOL     OW71292   9.149   6.923   1.722 -0.0546  0.2455 -0.1199
21649SOL    HW171293   9.153   6.830   1.697 -0.2202  0.3821 -0.6788
21649SOL    HW271294   9.189   6.969   1.648  1.9414  0.4862  1.0521
21650SOL     OW71295   0.150   2.754   6.721  0.2102  0.1330 -0.2686
21650SOL    HW171296   0.237   2.749   6.760  0.2559 -0.1136 -0.3936
21650SOL    HW271297   0.107   2.826   6.766  0.6729  0.6170 -0.5914
21651SOL     OW71298   5.012   3.482   8.905  0.5295  0.5759 -0.5656
21651SOL    HW171299   4.960   3.432   8.842  0.2607 -1.2001  0.9559
21651SOL    HW271300   4.965   3.471   8.988  1.5568  1.7563  0.2082
21652SOL     OW71301   0.635   3.207   5.749  0.5547 -0.3001  0.1180
21652SOL    HW171302   0.600   3.233   5.834 -0.7364  0.6892 -0.6784
21652SOL    HW271303   0.572   3.144   5.715 -3.0572  4.2647 -3.0265
21653SOL     OW71304   8.162   8.846   8.328  0.1049 -0.4803  0.3629
21653SOL    HW171305   8.195   8.893   8.252  0.3713 -0.3753  0.5420
21653SOL    HW271306   8.134   8.761   8.294 -0.8016 -0.0340 -0.0440
21654SOL     OW71307   1.538   5.371   5.541 -0.3056 -0.0298  0.2419
21654SOL    HW171308   1.572   5.437   5.601  0.9427  1.7573 -2.2187
21654SOL    HW271309   1.608   5.359   5.477 -1.7056 -1.5043 -1.0938
21655SOL     OW71310   2.782   8.399   1.633  0.4311  0.1136 -0.1470
21655SOL    HW171311   2.742   8.346   1.702 -0.1386 -0.4420 -0.8956
21655SOL    HW271312   2.875   8.379   1.638  0.1585 -1.4122 -0.7919
21656SOL     OW71313   5.566   3.483   8.607 -0.2154 -0.4329  0.7165
21656SOL    HW171314   5.624   3.412   8.580 -2.0756 -2.4220  1.6173
21656SOL    HW271315   5.623   3.546   8.652  1.2915 -2.0362  1.1292
21657SOL     OW71316   9.023   9.096   9.050  0.2692 -0.0722 -0.3328
21657SOL    HW171317   9.061   9.083   9.137 -1.1503 -0.2725  0.2814
21657SOL    HW271318   9.050   9.019   9.000  0.3862 -0.3751  0.1886
21658SOL     OW71319   4.719   0.575   3.131  0.5299 -0.3187 -0.4265
21658SOL    HW171320   4.638   0.617   3.161  0.4168 -0.2735 -0.7967
21658SOL    HW271321   4.711   0.484   3.159 -0.6493 -0.8600 -2.3909
21659SOL     OW71322   8.800   0.040   8.983  0.0175  0.3042  0.9805
21659SOL    HW171323   8.757   0.035   8.897  1.1272 -0.3423  0.4395
21659SOL    HW271324   8.870  -0.026   8.978  1.6687  1.9551  1.4742
21660SOL     OW71325   5.072   8.852   8.215 -0.6782  0.1903  0.7996
21660SOL    HW171326   5.112   8.897   8.140 -0.6277  0.0891  0.7659
21660SOL    HW271327   5.144   8.840   8.277 -0.8704  0.9342  1.1801
21661SOL     OW71328   7.918   5.514   6.442  0.5496  0.0246  0.3643
21661SOL    HW171329   7.972   5.438   6.422  2.0550  0.2869  2.9605
21661SOL    HW271330   7.870   5.489   6.521 -1.1376  0.7927 -0.3633
21662SOL     OW71331   4.681   0.066   3.137  0.1591 -0.3720  0.3114
21662SOL    HW171332   4.676   0.025   3.051  1.0474  0.1308  0.0060
21662SOL    HW271333   4.603   0.035   3.183  0.4254 -1.8271 -0.1478
21663SOL     OW71334   5.733   7.716   8.562  0.1919 -0.2941  0.3845
21663SOL    HW171335   5.696   7.636   8.598 -0.9194  0.2653  0.5299
21663SOL    HW271336   5.665   7.751   8.506  0.5178  0.7433  0.6146
21664SOL     OW71337   6.296   8.247   4.395 -0.1772  0.2275 -0.2168
21664SOL    HW171338   6.229   8.306   4.362 -0.2433  0.9905  1.1990
21664SOL    HW271339   6.284   8.166   4.346 -2.6810  0.0576  0.5663
21665SOL     OW71340   1.930   2.339   3.250  0.2700  0.6096  1.2838
21665SOL    HW171341   1.884   2.408   3.201 -1.2299 -0.7840  0.6563
21665SOL    HW271342   2.023   2.363   3.242 -0.1336  2.0168  0.2597
21666SOL     OW71343   0.512   8.763   4.403 -0.6974 -0.7174  0.4906
21666SOL    HW171344   0.533   8.855   4.421 -0.5057 -0.9673  1.6265
21666SOL    HW271345   0.481   8.728   4.486 -0.6938 -1.7068  0.0986
21667SOL     OW71346   3.737   6.346   7.568 -0.1870  0.0652 -0.2108
21667SOL    HW171347   3.768   6.260   7.594  1.7870  0.6295 -0.5380
21667SOL    HW271348   3.719   6.338   7.474 -2.4459 -0.6119  0.2159
21668SOL     OW71349   1.093   7.231   1.157 -0.1339 -0.1596  1.0080
21668SOL    HW171350   1.002   7.216   1.132  0.6138 -0.9010 -1.6065
21668SOL    HW271351   1.116   7.155   1.211 -0.4971 -1.0396 -0.0526
21669SOL     OW71352   4.760   3.209   9.235 -0.0503 -0.2935  0.1022
21669SOL    HW171353   4.674   3.176   9.209 -0.5007 -0.7378  1.9838
21669SOL    HW271354   4.811   3.209   9.154 -2.0077  0.6549 -1.2075
21670SOL     OW71355   2.474   1.877   5.727 -0.6915  0.3789 -0.5392
21670SOL    HW171356   2.524   1.830   5.794  0.2150 -0.4693 -1.7621
21670SOL    HW271357   2.383   1.852   5.741 -0.4192 -0.3585 -0.0778
21671SOL     OW71358   6.402   6.259   7.879  0.1812  0.1820  0.1641
21671SOL    HW171359   6.429   6.184   7.931 -3.0390  0.1978  2.1129
21671SOL    HW271360   6.433   6.335   7.929  0.4909  0.1707 -0.0111
21672SOL     OW71361   4.300   5.353   2.710 -0.0176 -0.7053 -0.6780
21672SOL    HW171362   4.363   5.424   2.724  0.7169 -1.6030  0.8253
21672SOL    HW271363   4.310   5.297   2.787 -2.3859 -1.0908 -0.5794
21673SOL     OW71364   2.087   8.098   4.320 -0.6636 -0.0289  0.4367
21673SOL    HW171365   2.089   8.067   4.229 -0.3951  0.8304  0.1371
21673SOL    HW271366   2.092   8.019   4.373 -0.6683 -0.5315 -0.3010
21674SOL     OW71367   4.525   3.451   4.446 -0.6371  0.2661 -0.3212
21674SOL    HW171368   4.603   3.461   4.501 -1.2955  0.0543  0.6783
21674SOL    HW271369   4.452   3.467   4.505 -1.3459  1.8098 -1.5340
21675SOL     OW71370   7.984   0.472   8.267  0.1928 -0.1577 -0.9196
21675SOL    HW171371   7.916   0.525   8.309  0.5082  0.1714 -0.8214
21675SOL    HW271372   8.036   0.535   8.217  0.0173 -0.5004 -1.5482
21676SOL     OW71373   7.083   6.630   4.015 -0.2264 -0.4911  0.0103
21676SOL    HW171374   7.004   6.624   3.961 -0.5768  1.7629  0.1784
21676SOL    HW271375   7.050   6.642   4.104  0.2429  0.9954  0.0177
21677SOL     OW71376   1.801   8.741   5.550 -0.4000 -0.1718  0.4973
21677SOL    HW171377   1.862   8.776   5.614 -0.6079 -0.3916  0.8153
21677SOL    HW271378   1.843   8.661   5.518  0.3831  0.6839 -0.7066
21678SOL     OW71379   2.393   2.430   2.498 -0.0494  0.2224  1.0313
21678SOL    HW171380   2.412   2.493   2.568  1.1202 -0.4682  1.3725
21678SOL    HW271381   2.468   2.371   2.499 -0.5978 -0.5168 -0.0210
21679SOL     OW71382   8.400   2.353   0.239 -0.0098  0.0413 -0.2050
21679SOL    HW171383   8.491   2.377   0.224 -0.2962  0.9091 -0.6380
21679SOL    HW271384   8.392   2.347   0.334 -0.0513  2.3464  0.0006
21680SOL     OW71385   8.891   3.379   2.345  0.3294  0.4173  0.0078
21680SOL    HW171386   8.917   3.301   2.393 -1.8945 -0.3417  0.0892
21680SOL    HW271387   8.905   3.451   2.407  0.1090 -0.2106  0.8025
21681SOL     OW71388   1.493   4.390   8.188 -0.1861 -0.3942 -0.4220
21681SOL    HW171389   1.420   4.330   8.169  0.0663 -0.4770 -1.1502
21681SOL    HW271390   1.552   4.380   8.114 -0.0451  0.6239 -0.4635
21682SOL     OW71391   8.240   8.409   7.554 -0.0281 -0.0865  0.3364
21682SOL    HW171392   8.201   8.382   7.637  0.5985 -0.6173  0.4631
21682SOL    HW271393   8.170   8.397   7.490 -0.1959 -0.6525  0.6218
21683SOL     OW71394   2.417   3.220   7.070 -0.4002  0.3429 -0.4823
21683SOL    HW171395   2.438   3.310   7.095 -0.6128  0.5124 -0.8946
21683SOL    HW271396   2.438   3.216   6.977 -0.5032 -0.0003 -0.4904
21684SOL     OW71397   1.127   4.207   2.742 -0.1114  0.1515 -0.1081
21684SOL    HW171398   1.184   4.276   2.774  1.1778 -2.4480  4.0317
21684SOL    HW271399   1.044   4.221   2.789 -0.6831  0.1681 -1.0826
21685SOL     OW71400   9.133   1.284   8.816  0.5372 -0.2270  0.2770
21685SOL    HW171401   9.176   1.369   8.806  0.1815 -0.2086 -1.4550
21685SOL    HW271402   9.203   1.224   8.841  0.8872  0.4585  0.9804
21686SOL     OW71403   4.342   3.798   1.855 -0.2925 -0.6008 -0.5379
21686SOL    HW171404   4.390   3.730   1.903  0.8193  0.8178  0.4506
21686SOL    HW271405   4.313   3.755   1.775  1.5463 -1.9080 -0.5670
21687SOL     OW71406   0.083   5.005   8.950  0.4006 -0.5266  0.1365
21687SOL    HW171407   0.057   5.069   9.016 -1.5650 -2.8686  1.8299
21687SOL    HW271408   0.018   5.014   8.880  1.7884  1.1443 -1.0191
21688SOL     OW71409   7.335   0.127   6.054 -0.3534 -0.4660  0.5876
21688SOL    HW171410   7.396   0.062   6.089  1.1519  1.3294  1.5133
21688SOL    HW271411   7.254   0.078   6.038  0.7722 -2.5880  0.9731
21689SOL     OW71412   6.834   0.668   3.016 -0.2635  0.3221  0.7196
21689SOL    HW171413   6.752   0.705   2.984 -0.9973 -1.1898  0.7346
21689SOL    HW271414   6.857   0.602   2.950  0.4191  0.0646  1.2069
21690SOL     OW71415   9.087   3.638   6.919  0.0351 -0.6428 -0.0770
21690SOL    HW171416   9.077   3.728   6.952 -0.6550 -0.3048 -1.1407
21690SOL    HW271417   9.180   3.618   6.931  0.4802  0.7231 -1.0614
21691SOL     OW71418   0.980   0.431   5.719  0.8620  0.3367  0.1644
21691SOL    HW171419   0.995   0.414   5.626 -1.9638 -1.6507 -0.0481
21691SOL    HW271420   1.003   0.349   5.762  1.1556  0.9040  1.1070
21692SOL     OW71421   2.097   4.903   9.193 -0.4369  0.6301  0.0334
21692SOL    HW171422   2.116   4.994   9.215 -0.5628  0.9383 -1.0832
21692SOL    HW271423   2.182   4.861   9.186 -0.3822  0.6332  0.6543
21693SOL     OW71424   6.512   2.526   6.015 -0.6259 -0.4518 -0.0355
21693SOL    HW171425   6.472   2.439   6.016 -1.7852  0.0358 -1.1590
21693SOL    HW271426   6.457   2.577   5.955  1.9384  0.1507 -2.0411
21694SOL     OW71427   7.669   6.201   3.236  0.6631  0.8744 -0.3567
21694SOL    HW171428   7.668   6.175   3.328  0.3712  1.1041 -0.2941
21694SOL    HW271429   7.636   6.291   3.236 -0.5338  0.4493 -0.8078
21695SOL     OW71430   3.722   5.586   6.360 -0.7494 -0.1776 -0.1759
21695SOL    HW171431   3.802   5.541   6.387 -0.6579  0.6022  0.9028
21695SOL    HW271432   3.671   5.596   6.440 -1.6958 -0.1927 -0.7575
21696SOL     OW71433   5.373   4.649   2.049  0.5251 -0.3952 -0.0598
21696SOL    HW171434   5.422   4.682   1.974  0.3220 -0.3991 -0.1945
21696SOL    HW271435   5.380   4.554   2.043  0.5237 -0.3950 -0.0648
21697SOL     OW71436   1.000   2.082   5.175  0.0430  0.1549 -0.4221
21697SOL    HW171437   1.004   1.988   5.154  0.2033 -0.9581  3.7028
21697SOL    HW271438   1.091   2.107   5.190 -0.2010  0.1642  1.2033
21698SOL     OW71439   0.029   5.145   9.172  0.0971  0.5491 -0.1986
21698SOL    HW171440   0.075   5.154   9.256 -1.5285  2.4144  0.5732
21698SOL    HW271441  -0.008   5.231   9.156 -0.3891 -0.0196 -2.4224
21699SOL     OW71442   0.333   8.789   4.135 -0.7923 -0.0510 -0.0473
21699SOL    HW171443   0.414   8.785   4.186 -2.4447  2.1343  3.1471
21699SOL    HW271444   0.301   8.699   4.133  1.7856 -1.0271 -1.7406
21700SOL     OW71445   7.962   4.802   1.164  0.3765 -0.2455  0.1908
21700SOL    HW171446   7.962   4.724   1.220  2.0102  0.0332  0.6402
21700SOL    HW271447   7.998   4.871   1.220  0.8055  0.3583 -0.8021
21701SOL     OW71448   0.544   6.736   7.129  0.4782  0.0652 -0.4633
21701SOL    HW171449   0.523   6.648   7.098  1.5804 -1.6452  3.0008
21701SOL    HW271450   0.485   6.750   7.203  2.2384  0.9271  0.8752
21702SOL     OW71451   9.139   1.867   3.273 -0.0107  0.3412  0.2766
21702SOL    HW171452   9.139   1.773   3.254  0.1299  0.7116 -1.8402
21702SOL    HW271453   9.049   1.887   3.296 -0.1067 -0.2610  0.4391
21703SOL     OW71454   5.180   3.920   1.161  0.1813  0.1944  0.2405
21703SOL    HW171455   5.177   3.859   1.235 -2.2544  3.1481  2.8105
21703SOL    HW271456   5.109   3.891   1.103  0.0567 -0.2790  0.6229
21704SOL     OW71457   4.049   7.905   4.226 -0.2159  0.8216  0.0030
21704SOL    HW171458   4.104   7.916   4.148  0.4008  0.2605  0.3400
21704SOL    HW271459   3.959   7.908   4.194  0.0354  0.6494 -0.7206
21705SOL     OW71460   0.492   0.591   9.084 -0.1542 -0.6807  0.5348
21705SOL    HW171461   0.538   0.507   9.096  0.6066 -0.3386  0.1114
21705SOL    HW271462   0.447   0.581   9.000  1.3025 -0.0939 -0.3713
21706SOL     OW71463   8.063   9.007   6.048  0.5437  0.0765  0.3796
21706SOL    HW171464   8.138   9.063   6.068  0.5752 -0.3224  1.4501
21706SOL    HW271465   7.997   9.033   6.113 -0.1998  0.3180 -0.4490
21707SOL     OW71466   1.507   4.303   4.307 -0.5482  0.0593  0.3977
21707SOL    HW171467   1.419   4.269   4.317 -0.0605 -0.7868  2.0986
21707SOL    HW271468   1.536   4.272   4.221 -1.4535 -0.6935  0.3616
21708SOL     OW71469   4.715   2.185   4.102  0.0316  0.2610 -0.1661
21708SOL    HW171470   4.647   2.153   4.042  1.5762 -1.0712 -1.3121
21708SOL    HW271471   4.760   2.254   4.053  0.6768 -0.1543 -0.1735
21709SOL     OW71472   3.506   5.705   1.000  0.4455 -0.2852  0.1451
21709SOL    HW171473   3.433   5.679   0.943 -0.3089 -0.9255  1.3739
21709SOL    HW271474   3.532   5.625   1.044  0.4070  0.3538  1.3759
21710SOL     OW71475   1.985   1.036   0.286  0.0197 -0.2470  0.3480
21710SOL    HW171476   1.929   1.096   0.238 -1.7394 -1.6785  0.5215
21710SOL    HW271477   2.062   1.025   0.230 -0.0275  1.4192 -0.0962
21711SOL     OW71478   8.720   2.274   2.618  0.3704  0.1086  0.2997
21711SOL    HW171479   8.785   2.268   2.688 -0.8293  0.3185  1.4547
21711SOL    HW271480   8.703   2.368   2.609 -1.2411 -0.0342  1.4282
21712SOL     OW71481   1.027   8.933   2.833  0.0852  0.5171  0.5834
21712SOL    HW171482   1.056   8.905   2.746 -0.0130 -0.2557  0.7992
21712SOL    HW271483   1.030   9.029   2.828  1.9119  0.5009  0.3346
21713SOL     OW71484   6.090   3.044   3.309  1.0155  0.0644 -0.0602
21713SOL    HW171485   6.151   2.984   3.266  0.2953 -0.0091 -1.0099
21713SOL    HW271486   6.039   2.988   3.368  1.2050 -0.0346  0.0125
21714SOL     OW71487   5.352   8.084   7.326 -0.0740 -0.2934  0.6363
21714SOL    HW171488   5.402   8.003   7.320  0.6598  0.0422  1.8753
21714SOL    HW271489   5.342   8.113   7.236  1.2798 -0.7934  0.3038
21715SOL     OW71490   5.124   4.246   1.960  0.6525  0.0647  0.0131
21715SOL    HW171491   5.121   4.163   1.912 -0.0555 -0.7677  1.4215
21715SOL    HW271492   5.218   4.262   1.973  0.7976 -0.5009 -0.3048
21716SOL     OW71493   5.349   5.235   2.470  0.2256  0.2530  0.6002
21716SOL    HW171494   5.434   5.209   2.435  1.7134  0.8928  3.4861
21716SOL    HW271495   5.291   5.232   2.394  2.6431 -0.8100 -1.3630
21717SOL     OW71496   0.464   6.545   4.911 -0.0098 -0.2084  0.7712
21717SOL    HW171497   0.486   6.633   4.880 -1.6075  0.5957  1.7551
21717SOL    HW271498   0.470   6.551   5.006 -0.6081 -1.0165  0.8733
21718SOL     OW71499   5.585   7.634   0.126 -0.0736 -0.3904  0.0228
21718SOL    HW171500   5.656   7.695   0.106 -1.2196  0.6203 -1.1101
21718SOL    HW271501   5.614   7.551   0.086  1.0268 -0.3481  0.6867
21719SOL     OW71502   2.360   6.724   8.160 -0.6186  0.4414  0.0161
21719SOL    HW171503   2.367   6.816   8.187 -0.3736  0.9759 -1.7947
21719SOL    HW271504   2.277   6.695   8.199  0.2357  0.8092  2.2558
21720SOL     OW71505   7.306   0.683   7.127  0.6662  0.3868  0.1121
21720SOL    HW171506   7.262   0.653   7.048  1.9051 -0.2242 -0.3657
21720SOL    HW271507   7.372   0.616   7.146  0.6264  0.6980  1.4646
21721SOL     OW71508   3.778   1.629   3.644  0.8308  0.0543 -0.4636
21721SOL    HW171509   3.830   1.591   3.573  0.7363 -0.4102 -0.2920
21721SOL    HW271510   3.842   1.672   3.701  0.7131  2.3502 -1.9548
21722SOL     OW71511   4.712   8.888   0.180 -0.9547  0.5619  0.5418
21722SOL    HW171512   4.692   8.954   0.246 -2.5573 -0.0227  0.6911
21722SOL    HW271513   4.656   8.813   0.203  0.9923 -0.9674  0.5413
21723SOL     OW71514   2.959   1.261   5.001  0.0617  0.1208  0.1169
21723SOL    HW171515   3.035   1.207   4.977 -0.8802 -1.9693  1.5690
21723SOL    HW271516   2.980   1.293   5.088  0.2811  1.5790 -0.4416
21724SOL     OW71517   9.238   1.581   2.225 -0.1427  0.0159 -0.1612
21724SOL    HW171518   9.157   1.597   2.273  0.7407  0.1691  1.3570
21724SOL    HW271519   9.223   1.620   2.139 -1.5874  0.2294  0.1601
21725SOL     OW71520   1.107   7.392   6.838 -0.4867 -0.2264 -0.2281
21725SOL    HW171521   1.175   7.335   6.803  0.5779  1.7118 -1.4859
21725SOL    HW271522   1.073   7.438   6.762 -0.9134  1.2097  0.7849
21726SOL     OW71523   7.822   1.783   8.891  0.5475 -0.4397 -0.0833
21726SOL    HW171524   7.795   1.716   8.953 -0.4210 -0.3832 -0.4361
21726SOL    HW271525   7.916   1.767   8.877  0.3513 -1.6349 -0.0774
21727SOL     OW71526   6.122   1.630   8.483  0.2645 -0.1221  0.6686
21727SOL    HW171527   6.172   1.707   8.511  0.8620 -0.3637  0.2911
21727SOL    HW271528   6.112   1.577   8.562  2.1700 -0.9354  0.4327
21728SOL     OW71529   6.859   1.360   4.000 -0.5160 -0.4288  0.3948
21728SOL    HW171530   6.933   1.321   3.953  0.9570  0.2956  2.0442
21728SOL    HW271531   6.813   1.410   3.933 -0.8057 -2.5657 -1.1376
21729SOL     OW71532   3.766   3.852   6.972  0.2924  0.1054  0.2771
21729SOL    HW171533   3.753   3.939   6.934  1.8330 -0.1851 -1.0532
21729SOL    HW271534   3.783   3.796   6.897  1.9437 -0.8093  1.2665
21730SOL     OW71535   1.452   7.857   1.456  0.2475  0.0938  0.0017
21730SOL    HW171536   1.458   7.826   1.366 -0.2875 -0.0829  0.0207
21730SOL    HW271537   1.509   7.799   1.506  0.3238  0.0116 -0.1810
21731SOL     OW71538   5.696   2.783   6.532  0.2975 -0.8751 -0.1866
21731SOL    HW171539   5.691   2.870   6.570  1.4207 -0.1977 -1.4924
21731SOL    HW271540   5.609   2.766   6.498  0.3148  0.1731 -0.8026
21732SOL     OW71541   3.103   2.682   8.851  0.2191 -0.3144  0.3080
21732SOL    HW171542   3.069   2.714   8.767  1.3116  1.2720  0.4305
21732SOL    HW271543   3.147   2.600   8.829 -0.2096 -0.3258 -0.5402
21733SOL     OW71544   6.514   4.446   6.742  0.1112 -0.0514  0.9928
21733SOL    HW171545   6.520   4.374   6.805 -0.2787 -0.2315  0.8323
21733SOL    HW271546   6.603   4.479   6.735  1.0799 -2.7335 -1.5193
21734SOL     OW71547   8.005   2.413   1.280  0.0282  0.1259  0.0757
21734SOL    HW171548   8.016   2.468   1.203 -1.6282  0.3320 -0.0571
21734SOL    HW271549   8.062   2.453   1.347  2.0328 -0.4678 -1.1862
21735SOL     OW71550   3.473   3.726   1.597  0.3454  0.1769  0.0174
21735SOL    HW171551   3.502   3.636   1.607 -0.9069 -0.3460 -0.8716
21735SOL    HW271552   3.417   3.742   1.673  1.4418  0.5863  0.7592
21736SOL     OW71553   0.661   8.061   6.177 -0.0381 -0.2709  0.4189
21736SOL    HW171554   0.734   8.023   6.128  1.5118  2.0837  0.7475
21736SOL    HW271555   0.648   8.002   6.251 -0.1426 -2.0257 -0.9299
21737SOL     OW71556   3.858   0.449   4.264 -0.2202  0.0073 -0.4356
21737SOL    HW171557   3.763   0.451   4.274 -0.1937  2.8477 -0.0081
21737SOL    HW271558   3.891   0.506   4.333  1.6775  0.4210 -1.6018
21738SOL     OW71559   8.247   8.107   6.545 -0.3997  0.0210 -0.6548
21738SOL    HW171560   8.251   8.080   6.454  1.5016  0.8615 -0.8693
21738SOL    HW271561   8.242   8.026   6.595 -1.9813 -0.4297 -1.5041
21739SOL     OW71562   7.930   3.488   6.096 -0.0823 -0.3279 -0.1556
21739SOL    HW171563   7.872   3.412   6.101  0.1695 -0.4933  0.3414
21739SOL    HW271564   7.892   3.543   6.026  0.1689 -1.2677 -1.0504
21740SOL     OW71565   3.726   1.138   7.423 -0.1144 -0.3452  0.0596
21740SOL    HW171566   3.764   1.068   7.476  1.1487 -0.5730 -1.1053
21740SOL    HW271567   3.741   1.217   7.474 -1.0810 -0.8224  1.1406
21741SOL     OW71568   7.492   4.308   3.268 -0.0572  0.1499 -0.2870
21741SOL    HW171569   7.515   4.401   3.260  1.7381 -0.1874  0.4977
21741SOL    HW271570   7.509   4.287   3.359 -3.2027 -0.3210  0.3258
21742SOL     OW71571   7.917   6.304   1.456 -0.6708 -0.1640 -0.2228
21742SOL    HW171572   7.910   6.390   1.499 -0.0756 -1.1510  2.0014
21742SOL    HW271573   7.874   6.244   1.517  2.0672 -1.9771  0.1036
21743SOL     OW71574   6.564   5.030   0.136  0.0358  0.5576  0.0744
21743SOL    HW171575   6.539   5.022   0.227  0.3459 -0.7091  0.0798
21743SOL    HW271576   6.483   5.052   0.090 -0.2943  0.3395  0.5463
21744SOL     OW71577   1.711   5.420   2.447  0.0854 -0.0198 -0.5146
21744SOL    HW171578   1.648   5.442   2.516 -2.8779 -0.1966 -2.8925
21744SOL    HW271579   1.754   5.503   2.427 -0.4022  0.4325  0.2570
21745SOL     OW71580   0.521   2.941   6.802 -0.4456 -0.0796 -0.4536
21745SOL    HW171581   0.616   2.943   6.806 -0.4928  0.5401  1.0338
21745SOL    HW271582   0.500   2.855   6.765  0.6835  0.0286 -1.3962
21746SOL     OW71583   6.786   4.495   1.738 -0.2147 -0.5344  0.0183
21746SOL    HW171584   6.851   4.425   1.746  1.1678  0.5509 -1.0826
21746SOL    HW271585   6.710   4.463   1.786  1.1270 -1.8553  1.3840
21747SOL     OW71586   6.484   8.744   9.033 -0.2011 -0.5830 -0.1397
21747SOL    HW171587   6.519   8.770   8.948 -0.1493 -1.6734 -0.4692
21747SOL    HW271588   6.546   8.778   9.097 -0.9966  1.5310 -0.4185
21748SOL     OW71589   8.490   5.300   0.685  0.3075 -0.1899 -0.8095
21748SOL    HW171590   8.474   5.369   0.749 -0.8378 -0.4188 -0.8120
21748SOL    HW271591   8.546   5.339   0.619  0.9465  0.2549 -0.0108
21749SOL     OW71592   9.162   4.834   3.761  0.2958 -0.4756 -0.4058
21749SOL    HW171593   9.072   4.800   3.755 -0.3155  1.1984 -1.1911
21749SOL    HW271594   9.174   4.885   3.682  0.9623  1.5613  0.9257
21750SOL     OW71595   3.744   2.682   0.898  0.4236 -0.3734  0.2089
21750SOL    HW171596   3.830   2.683   0.939  0.2415  0.3632  0.6057
21750SOL    HW271597   3.748   2.613   0.832  1.7253  0.5033 -0.6549
21751SOL     OW71598   6.596   1.571   1.139 -0.2591  0.4015 -0.0287
21751SOL    HW171599   6.640   1.508   1.081 -1.9399  0.0322 -0.9840
21751SOL    HW271600   6.532   1.614   1.082 -0.0397  2.0700  0.9244
21752SOL     OW71601   7.621   3.616   4.565 -0.5517  0.1391  0.0975
21752SOL    HW171602   7.680   3.686   4.534 -1.1969  0.5441 -0.2396
21752SOL    HW271603   7.576   3.654   4.640  1.2210 -0.9462  1.7850
21753SOL     OW71604   6.739   3.473   0.958  0.3427 -0.0824 -0.0857
21753SOL    HW171605   6.802   3.454   0.889  0.6616 -0.1373  0.2221
21753SOL    HW271606   6.684   3.394   0.963 -0.9942  0.6921 -1.6775
21754SOL     OW71607   8.114   1.225   1.759  0.3178 -0.1757  0.4350
21754SOL    HW171608   8.037   1.239   1.704  0.5085  1.9855  0.6306
21754SOL    HW271609   8.171   1.168   1.707 -0.2277  0.4738 -0.9199
21755SOL     OW71610   4.856   6.891   7.155  0.0425  0.5554 -0.2267
21755SOL    HW171611   4.893   6.955   7.215  0.5122  1.2274 -1.2086
21755SOL    HW271612   4.871   6.807   7.198  1.2158  0.9527  0.1817
21756SOL     OW71613   3.325   3.772   0.215  0.4426  0.2949 -0.2472
21756SOL    HW171614   3.259   3.715   0.255 -0.9148  0.2215 -2.4337
21756SOL    HW271615   3.335   3.738   0.126  1.2312  2.1290 -0.9022
21757SOL     OW71616   7.351   3.649   2.830 -0.3041 -0.5215  0.0168
21757SOL    HW171617   7.412   3.583   2.798  0.3171  0.3070 -0.5651
21757SOL    HW271618   7.361   3.647   2.925  2.7229  1.4202 -0.1128
21758SOL     OW71619   4.401   4.496   0.634 -0.1461  0.4290  0.0291
21758SOL    HW171620   4.323   4.550   0.641 -1.1265 -1.1229  2.6868
21758SOL    HW271621   4.369   4.406   0.637  1.6520 -0.2765 -0.3919
21759SOL     OW71622   0.430   4.331   8.760 -0.4363  0.2905 -0.0885
21759SOL    HW171623   0.452   4.412   8.714  1.7093 -0.1010  0.1131
21759SOL    HW271624   0.370   4.357   8.829  1.2339  1.9727  0.8140
21760SOL     OW71625   4.002   1.714   8.912 -0.4769  0.0795 -0.5097
21760SOL    HW171626   4.010   1.622   8.936 -1.5109  0.0723 -0.1340
21760SOL    HW271627   4.044   1.721   8.827 -0.1868 -0.6921 -0.4312
21761SOL     OW71628   1.898   8.777   4.437  0.4390 -0.4465 -0.0867
21761SOL    HW171629   1.941   8.787   4.352 -0.8367 -0.0119 -0.7020
21761SOL    HW271630   1.827   8.842   4.436 -0.8719 -1.8076  0.4703
21762SOL     OW71631   3.861   1.480   3.969  0.0290 -0.4458 -0.3998
21762SOL    HW171632   3.836   1.539   4.040 -0.0025 -1.4394  0.4524
21762SOL    HW271633   3.778   1.449   3.933 -0.0312 -1.9544  0.8980
21763SOL     OW71634   8.195   0.780   6.815 -0.3770  0.0288 -0.1835
21763SOL    HW171635   8.128   0.848   6.822 -0.0404  0.6023 -1.9796
21763SOL    HW271636   8.170   0.729   6.738  3.2706  2.7625 -3.6095
21764SOL     OW71637   0.576   1.268   3.934  0.3617 -0.0617  0.1660
21764SOL    HW171638   0.529   1.300   3.856  1.8231  1.1886 -0.2515
21764SOL    HW271639   0.598   1.177   3.913 -0.0959 -0.0354 -0.4719
21765SOL     OW71640   2.577   0.382   4.358  0.2373  0.0971  0.2516
21765SOL    HW171641   2.655   0.363   4.304  0.3294 -0.8253  0.6978
21765SOL    HW271642   2.530   0.299   4.362 -0.5449  0.5407  0.3690
21766SOL     OW71643   0.478   4.287   5.351  0.2040 -0.4474 -0.2167
21766SOL    HW171644   0.492   4.219   5.416 -1.6972 -0.6369  0.0724
21766SOL    HW271645   0.548   4.275   5.287  1.0619 -1.3800  0.8697
21767SOL     OW71646   2.079   7.264   4.637  0.1178  0.0935  0.5106
21767SOL    HW171647   2.020   7.209   4.687 -0.3574  0.5641  0.4838
21767SOL    HW271648   2.139   7.203   4.593  0.1547 -0.3449  1.1658
21768SOL     OW71649   3.050   1.003   8.268 -0.1703  0.1076 -0.0494
21768SOL    HW171650   2.967   0.998   8.315 -0.1599  0.0263 -0.0403
21768SOL    HW271651   3.111   0.952   8.321 -0.3686 -0.7077 -0.5959
21769SOL     OW71652   5.458   6.422   3.391 -0.1179 -0.5233  0.3541
21769SOL    HW171653   5.467   6.399   3.298  0.0048 -0.1179  0.2601
21769SOL    HW271654   5.397   6.358   3.426  2.4104 -2.8779  0.7974
21770SOL     OW71655   8.136   7.522   1.679  0.5341 -0.3621  0.5577
21770SOL    HW171656   8.189   7.473   1.742  1.1216 -0.0176  0.3366
21770SOL    HW271657   8.066   7.560   1.732  1.5802  0.7411  1.1986
21771SOL     OW71658   6.441   0.932   6.022 -0.2248 -0.6548 -0.2924
21771SOL    HW171659   6.451   0.983   6.102 -1.0191 -1.4073  0.3075
21771SOL    HW271660   6.530   0.909   5.996  0.0962  0.3862 -0.1632
21772SOL     OW71661   8.532   4.508   6.595 -0.1903 -0.1682  0.2782
21772SOL    HW171662   8.515   4.417   6.621  0.0867  0.2301  2.0405
21772SOL    HW271663   8.623   4.523   6.621 -0.1618  0.5469 -0.2226
21773SOL     OW71664   3.827   6.874   6.037  0.0556 -0.5433 -0.9330
21773SOL    HW171665   3.890   6.812   6.075  0.2870 -0.4392 -1.1439
21773SOL    HW271666   3.870   6.960   6.046 -0.3399 -0.3922 -0.4810
21774SOL     OW71667   5.459   9.181   0.406 -0.0206  0.1831 -0.5380
21774SOL    HW171668   5.416   9.262   0.433  0.6159 -0.0548  1.2877
21774SOL    HW271669   5.530   9.168   0.469  0.7779 -1.0737 -1.6208
21775SOL     OW71670   1.892   3.337   8.998  0.0149  0.0698  0.1793
21775SOL    HW171671   1.826   3.403   8.975  0.2449  0.3360  0.2750
21775SOL    HW271672   1.954   3.384   9.055  0.7132  0.0336 -0.5358
21776SOL     OW71673   6.273   1.669   1.660  0.7000  0.0411  0.0589
21776SOL    HW171674   6.321   1.750   1.641 -0.0506  0.1011 -1.8421
21776SOL    HW271675   6.227   1.649   1.578  1.0916 -2.4710  0.3661
21777SOL     OW71676   5.693   5.122   2.970  0.4750  0.0821  0.2915
21777SOL    HW171677   5.639   5.085   2.900 -0.7031 -0.1541  1.2940
21777SOL    HW271678   5.770   5.158   2.925  0.0661 -0.6581 -1.0416
21778SOL     OW71679   3.351   1.238   1.694  0.1345  0.3732  0.0156
21778SOL    HW171680   3.317   1.326   1.683  1.1132  1.1241  2.3549
21778SOL    HW271681   3.417   1.229   1.625 -0.4239  1.2163 -0.6451
21779SOL     OW71682   3.876   5.932   4.849  0.3062  0.3361 -0.5663
21779SOL    HW171683   3.851   6.019   4.878 -1.1132 -0.3828  0.4717
21779SOL    HW271684   3.951   5.908   4.904 -1.2734 -0.3149  1.4421
21780SOL     OW71685   6.117   0.641   8.042  0.8332 -0.0304  0.7947
21780SOL    HW171686   6.082   0.648   8.131  0.1836 -1.4016  0.6771
21780SOL    HW271687   6.040   0.621   7.988  1.7329 -3.5262  0.5760
21781SOL     OW71688   5.321   5.182   1.741 -0.0803  0.2293 -0.3601
21781SOL    HW171689   5.376   5.162   1.666  0.5377  0.5148  0.0158
21781SOL    HW271690   5.382   5.190   1.815 -0.5349  1.4171 -0.1015
21782SOL     OW71691   2.371   3.795   1.291 -0.6542  0.5200  0.1796
21782SOL    HW171692   2.303   3.787   1.225 -0.4629  1.6241 -0.1805
21782SOL    HW271693   2.419   3.713   1.287 -2.5856 -0.7553  1.1824
21783SOL     OW71694   4.535   5.985   8.426  0.6679 -0.4490  0.6478
21783SOL    HW171695   4.551   6.066   8.474  2.8971 -0.2010 -0.3596
21783SOL    HW271696   4.561   6.005   8.336 -2.7352 -1.0880 -0.6250
21784SOL     OW71697   4.749   5.265   8.919  0.1205 -0.6719  0.5052
21784SOL    HW171698   4.717   5.271   9.009  0.7248  2.5144  0.6206
21784SOL    HW271699   4.713   5.343   8.876  3.2967  0.2530 -0.7626
21785SOL     OW71700   5.892   6.652   5.045  0.5515  0.6536  0.7743
21785SOL    HW171701   5.822   6.618   4.989  0.6641  1.1165  0.3413
21785SOL    HW271702   5.973   6.618   5.006  0.7606  2.4032 -0.4265
21786SOL     OW71703   0.103   4.113   4.524  0.6130  0.0697  0.0487
21786SOL    HW171704   0.010   4.117   4.543  0.0340  1.6601 -2.6552
21786SOL    HW271705   0.112   4.045   4.458  1.6640 -1.2084  1.4352
21787SOL     OW71706   6.802   4.204   1.737  0.1446  0.1020 -0.1700
21787SOL    HW171707   6.820   4.222   1.829 -3.1636 -1.2536  0.9014
21787SOL    HW271708   6.846   4.121   1.719 -1.2682 -0.9601  1.0362
21788SOL     OW71709   2.629   3.777   4.632  0.1912 -0.2102  0.5618
21788SOL    HW171710   2.582   3.693   4.630 -1.3581  0.5707  2.2948
21788SOL    HW271711   2.658   3.789   4.541 -1.8604 -1.3526 -0.3245
21789SOL     OW71712   1.349   6.757   2.262  0.2597  0.9344 -0.3877
21789SOL    HW171713   1.277   6.704   2.296  0.5987 -0.8332 -2.2328
21789SOL    HW271714   1.310   6.808   2.190  0.8772 -0.3505 -1.6788
21790SOL     OW71715   1.732   8.520   1.082  0.2966  0.0197  0.1401
21790SOL    HW171716   1.641   8.492   1.070 -0.6478  2.7928  0.1138
21790SOL    HW271717   1.746   8.515   1.177  0.6126 -1.6704  0.0337
21791SOL     OW71718   7.782   7.367   0.409 -0.4668 -0.5313  0.1090
21791SOL    HW171719   7.802   7.371   0.502 -0.2205  1.0254  0.0090
21791SOL    HW271720   7.724   7.291   0.400 -2.4351  0.6552  1.9175
21792SOL     OW71721   8.393   0.390   8.189  0.0205 -0.3198  0.5719
21792SOL    HW171722   8.476   0.392   8.141 -1.4525 -0.9509 -2.1895
21792SOL    HW271723   8.351   0.474   8.168 -0.8412 -0.7874  0.3978
21793SOL     OW71724   1.339   0.263   8.332  0.4746  0.4728 -0.3696
21793SOL    HW171725   1.289   0.194   8.288  1.4393 -1.2584  1.0996
21793SOL    HW271726   1.430   0.240   8.317  0.8166  1.2359  0.4572
21794SOL     OW71727   5.045   5.320   9.089 -0.0408 -0.1036 -0.0264
21794SOL    HW171728   4.985   5.300   9.161  0.1763  1.1981  0.5467
21794SOL    HW271729   5.008   5.397   9.047  0.9767  0.4461  0.0516
21795SOL     OW71730   4.591   5.312   3.950 -0.4217  0.3833  0.6594
21795SOL    HW171731   4.606   5.305   3.855 -0.9839 -3.1451  0.6858
21795SOL    HW271732   4.501   5.343   3.958 -0.3598  0.7399  0.0496
21796SOL     OW71733   0.554   3.650   1.661 -0.1035 -0.1174  0.4047
21796SOL    HW171734   0.551   3.685   1.750 -0.6983  3.4565 -0.8756
21796SOL    HW271735   0.640   3.676   1.627 -0.7001  0.4686 -0.7199
21797SOL     OW71736   6.062   1.697   3.380  0.0766 -0.5622  0.2436
21797SOL    HW171737   6.090   1.608   3.403 -2.2148 -0.9842  1.7122
21797SOL    HW271738   6.008   1.725   3.454 -1.8836  0.8091 -1.5996
21798SOL     OW71739   0.454   0.067   3.716  0.0985  0.2833  0.5363
21798SOL    HW171740   0.361   0.058   3.696  0.2027  1.0996 -0.4207
21798SOL    HW271741   0.468   0.010   3.792 -0.7207 -1.5872 -0.6275
21799SOL     OW71742   3.285   0.660   6.517  0.1614  0.8713  0.7287
21799SOL    HW171743   3.260   0.684   6.606 -0.5184  4.7927 -0.3304
21799SOL    HW271744   3.360   0.716   6.497 -0.3545  0.8526 -1.5043
21800SOL     OW71745   1.273   8.137   8.246 -0.2444  0.4463 -0.2526
21800SOL    HW171746   1.359   8.149   8.288  0.4427 -1.2601 -1.1035
21800SOL    HW271747   1.258   8.220   8.200  1.3267  0.4919 -0.7527
21801SOL     OW71748   7.373   4.614   0.757  0.3436  0.0588  0.0364
21801SOL    HW171749   7.356   4.565   0.838  1.6901 -1.2316 -0.4077
21801SOL    HW271750   7.290   4.656   0.736 -0.2600 -0.2659  1.6349
21802SOL     OW71751   3.249   6.486   2.421 -0.2113 -0.1939  0.1203
21802SOL    HW171752   3.198   6.420   2.375 -1.1742  0.4264  0.2496
21802SOL    HW271753   3.315   6.437   2.469  0.5765 -0.8864 -1.5911
21803SOL     OW71754   0.920   3.336   6.649 -0.0162 -0.3669 -0.0732
21803SOL    HW171755   0.907   3.408   6.587  1.0133  0.2548  0.3940
21803SOL    HW271756   0.994   3.365   6.703 -1.2699 -0.6264  1.8395
21804SOL     OW71757   0.331   7.734   7.325 -0.1884 -0.1939 -0.6105
21804SOL    HW171758   0.293   7.731   7.237 -1.7934 -1.5983  0.0876
21804SOL    HW271759   0.371   7.648   7.337  2.2839  0.8100 -0.8367
21805SOL     OW71760   8.785   7.986   9.139 -0.1903  0.5192  0.0559
21805SOL    HW171761   8.700   8.024   9.116 -1.1145  0.5485  3.0598
21805SOL    HW271762   8.766   7.927   9.212  1.9397 -2.0512 -1.3003
21806SOL     OW71763   1.291   3.280   4.909  0.1901  0.3061 -0.1530
21806SOL    HW171764   1.198   3.284   4.889 -0.1801  1.7496  1.5421
21806SOL    HW271765   1.318   3.192   4.884 -1.2673  0.3607 -2.0650
21807SOL     OW71766   5.442   0.315   0.608  0.2049 -0.5633 -0.0062
21807SOL    HW171767   5.521   0.284   0.563  0.0135  1.2927 -1.7526
21807SOL    HW271768   5.465   0.314   0.700  2.2837 -0.1081 -0.4708
21808SOL     OW71769   4.741   1.029   2.326  0.2633  0.1790  0.0448
21808SOL    HW171770   4.808   0.983   2.276 -0.5238  0.3941 -1.2569
21808SOL    HW271771   4.704   0.962   2.383  0.8503 -0.1884  0.0037
21809SOL     OW71772   7.077   1.118   0.433  0.1660  0.2851 -0.3755
21809SOL    HW171773   7.140   1.139   0.501  1.7746 -0.0208 -1.6951
21809SOL    HW271774   7.028   1.043   0.468  0.9127  0.1705  0.4583
21810SOL     OW71775   2.985   0.580   8.154  0.2341 -0.5805  0.1677
21810SOL    HW171776   2.938   0.663   8.149  1.5504  0.2248  0.7466
21810SOL    HW271777   2.998   0.554   8.062 -2.2329 -1.4003 -0.0321
21811SOL     OW71778   5.790   3.513   7.353  0.4244  0.5776 -0.4565
21811SOL    HW171779   5.771   3.507   7.446  1.1034 -1.1636 -0.3756
21811SOL    HW271780   5.848   3.589   7.345 -1.5725  2.2445  0.1293
21812SOL     OW71781   6.385   2.004   1.645  0.2091  0.1187  0.3394
21812SOL    HW171782   6.353   2.021   1.734  1.1229 -3.0400  1.4043
21812SOL    HW271783   6.478   1.985   1.657  0.8651  1.7725 -1.6614
21813SOL     OW71784   7.416   4.686   1.460 -0.0808  0.6704  0.0736
21813SOL    HW171785   7.362   4.608   1.460 -0.2135  0.7592 -0.4750
21813SOL    HW271786   7.420   4.713   1.369  0.7857  0.7346  0.1176
21814SOL     OW71787   6.206   7.353   2.553 -0.1664 -0.0591  0.0990
21814SOL    HW171788   6.216   7.261   2.529 -0.0484 -0.1175  0.3726
21814SOL    HW271789   6.197   7.398   2.469 -1.0344 -0.4125 -0.0088
21815SOL     OW71790   5.403   8.693   0.221  0.0589  0.2171  0.3131
21815SOL    HW171791   5.476   8.632   0.215 -0.3260 -0.1151 -1.4254
21815SOL    HW271792   5.441   8.775   0.251  1.0038 -0.1773  0.2047
21816SOL     OW71793   4.364   0.419   8.821  0.4809  0.1230 -0.3170
21816SOL    HW171794   4.450   0.380   8.832 -0.1809 -1.2993 -0.0306
21816SOL    HW271795   4.382   0.504   8.780  2.0863  0.3590  0.7703
21817SOL     OW71796   5.246   5.803   5.521  0.5168 -0.2984 -0.3924
21817SOL    HW171797   5.189   5.727   5.507  1.4736 -1.1717  0.3092
21817SOL    HW271798   5.212   5.845   5.599 -0.5307  0.5079 -1.2535
21818SOL     OW71799   7.059   7.712   7.346 -0.2281 -0.2441  0.1383
21818SOL    HW171800   7.011   7.793   7.334 -0.8563 -0.6660 -0.2796
21818SOL    HW271801   7.095   7.718   7.435  1.6366  1.4435 -0.6589
21819SOL     OW71802   5.102   8.762   0.217  0.2170  0.2610 -0.0582
21819SOL    HW171803   5.111   8.799   0.304 -0.7893  1.0776 -0.2878
21819SOL    HW271804   5.179   8.706   0.207 -0.0205 -0.4373  1.6252
21820SOL     OW71805   4.223   6.521   7.274  0.3160  0.6470 -0.0460
21820SOL    HW171806   4.216   6.613   7.299  1.1258  0.3755  1.2482
21820SOL    HW271807   4.133   6.492   7.264  0.0200  2.0287 -2.3430
21821SOL     OW71808   1.932   6.500   7.879  0.1382  0.0963 -0.4144
21821SOL    HW171809   1.916   6.495   7.784  1.2954  0.1006 -0.6208
21821SOL    HW271810   2.025   6.517   7.886 -0.1159  1.0990  0.7154
21822SOL     OW71811   3.628   5.078   2.462 -0.5416  0.1784  0.0784
21822SOL    HW171812   3.715   5.117   2.450 -0.2428  0.1650  1.9286
21822SOL    HW271813   3.631   4.997   2.410  0.0708  0.8358 -0.9396
21823SOL     OW71814   2.610   4.534   3.112  0.2812 -0.2790 -0.5926
21823SOL    HW171815   2.566   4.603   3.064 -0.0541 -0.5049 -0.6091
21823SOL    HW271816   2.615   4.566   3.202 -0.4429 -0.5059 -0.4687
21824SOL     OW71817   2.342   3.148   1.203  0.1959 -0.1425  0.2958
21824SOL    HW171818   2.370   3.122   1.115 -0.5163  0.2562 -0.0561
21824SOL    HW271819   2.255   3.185   1.190  1.0276  2.1145  0.8276
21825SOL     OW71820   3.743   6.254   8.145  0.2303 -0.4813  0.7616
21825SOL    HW171821   3.821   6.211   8.180 -0.2373 -1.9049  0.1107
21825SOL    HW271822   3.769   6.346   8.136  2.0182 -1.0050  0.0783
21826SOL     OW71823   8.893   3.966   0.332  0.2710  0.0165 -0.1111
21826SOL    HW171824   8.799   3.982   0.323  0.3651  0.1021 -0.9647
21826SOL    HW271825   8.931   3.997   0.250  0.8806 -1.3134 -0.3494
21827SOL     OW71826   2.475   7.056   0.067 -0.0121 -0.0833 -0.0101
21827SOL    HW171827   2.549   7.051   0.005 -0.0732 -0.8525 -0.0328
21827SOL    HW271828   2.398   7.068   0.011  0.0683  0.4679 -0.0020
21828SOL     OW71829   8.239   7.332   2.406  0.3795  0.5357  0.0461
21828SOL    HW171830   8.185   7.284   2.469  0.4228  0.8994  0.3636
21828SOL    HW271831   8.283   7.399   2.458  0.6555  0.6438 -0.3200
21829SOL     OW71832   3.682   7.594   6.974 -0.1883  0.2454  0.0768
21829SOL    HW171833   3.717   7.516   7.017 -1.0757  0.7726  1.8463
21829SOL    HW271834   3.658   7.565   6.886  1.9444 -0.8091 -0.2114
21830SOL     OW71835   2.827   2.430   8.970 -0.0872 -0.1550  1.0838
21830SOL    HW171836   2.735   2.420   8.996 -0.0752  1.0689  1.6953
21830SOL    HW271837   2.830   2.516   8.927  0.8925  0.1718  1.7621
21831SOL     OW71838   0.287   1.480   8.931 -0.1603 -0.0764 -0.3783
21831SOL    HW171839   0.203   1.469   8.885 -0.5434  1.7679 -0.1940
21831SOL    HW271840   0.267   1.540   9.003  1.1516 -0.2795  0.1814
21832SOL     OW71841   8.210   2.128   9.132  0.2591 -0.1521  0.1495
21832SOL    HW171842   8.246   2.208   9.170  0.5655 -0.4852  0.5708
21832SOL    HW271843   8.172   2.081   9.207 -3.6111  1.4573 -0.5839
21833SOL     OW71844   4.265   4.761   2.840 -0.6938 -0.2201  0.3329
21833SOL    HW171845   4.354   4.726   2.837 -0.9580 -1.5519  3.5533
21833SOL    HW271846   4.277   4.851   2.872 -0.4593 -0.1826  0.1450
21834SOL     OW71847   4.987   7.368   6.715  0.0466 -0.1801 -0.2806
21834SOL    HW171848   5.025   7.360   6.802  0.5526 -0.8365 -0.5536
21834SOL    HW271849   5.003   7.459   6.689 -1.8549  0.6145  1.1013
21835SOL     OW71850   0.733   7.396   1.501  0.2845 -0.5337 -0.1892
21835SOL    HW171851   0.740   7.489   1.524 -1.3225 -0.6654  0.9819
21835SOL    HW271852   0.740   7.395   1.405 -2.5515  1.1836 -0.5447
21836SOL     OW71853   2.263   6.183   5.954 -0.4848 -0.3249  0.0144
21836SOL    HW171854   2.335   6.184   5.891  0.4193 -0.1615  1.0135
21836SOL    HW271855   2.304   6.208   6.037 -2.2246  2.8421  0.0578
21837SOL     OW71856   3.758   1.749   2.418 -0.2102  0.2029  0.3114
21837SOL    HW171857   3.808   1.718   2.343  0.6366  1.0489  0.5095
21837SOL    HW271858   3.804   1.715   2.494 -1.7276 -1.6364  0.4625
21838SOL     OW71859   1.467   8.759   7.841 -0.0647  0.0558  0.6697
21838SOL    HW171860   1.479   8.850   7.869 -0.9286  0.0859  0.9719
21838SOL    HW271861   1.414   8.719   7.910 -0.3815 -0.4639  0.1337
21839SOL     OW71862   7.003   2.733   0.036 -0.2725 -0.0227 -0.5477
21839SOL    HW171863   6.928   2.793   0.040  0.2597  0.6246 -0.0119
21839SOL    HW271864   7.027   2.732  -0.056 -0.0271  0.9394 -0.5090
21840SOL     OW71865   4.266   7.375   5.847 -0.1111  0.7346 -0.2063
21840SOL    HW171866   4.229   7.447   5.898  0.3430  1.9177 -1.4943
21840SOL    HW271867   4.247   7.297   5.899 -0.3783  1.7991  1.3639
21841SOL     OW71868   2.059   8.027   4.074 -0.1130 -0.2296 -0.0519
21841SOL    HW171869   2.090   8.073   3.997  1.1235  1.1904  1.2245
21841SOL    HW271870   2.051   7.935   4.046  0.5222  0.2031 -1.7703
21842SOL     OW71871   0.580   6.659   0.355 -0.3130 -0.3982 -0.2500
21842SOL    HW171872   0.638   6.726   0.321  0.6866 -1.4512 -0.6885
21842SOL    HW271873   0.615   6.638   0.441 -0.2748 -0.7608 -0.3520
21843SOL     OW71874   6.416   2.935   7.829 -0.3929  0.3255 -0.1093
21843SOL    HW171875   6.458   2.893   7.754  0.0368  1.3843 -0.4696
21843SOL    HW271876   6.483   2.993   7.864 -2.1350  3.7664 -2.0322
21844SOL     OW71877   8.082   1.746   6.710  0.2732  0.3711 -0.7530
21844SOL    HW171878   8.106   1.725   6.800  0.0298 -1.1044 -1.0186
21844SOL    HW271879   8.133   1.825   6.690  0.8361  0.3307  0.4483
21845SOL     OW71880   0.130   1.013   0.687 -0.2158 -0.9552 -0.0631
21845SOL    HW171881   0.124   0.964   0.769  1.7531 -1.0563  0.0659
21845SOL    HW271882   0.195   0.966   0.636  0.3636  0.4925 -0.6873
21846SOL     OW71883   0.409   8.926   7.161 -0.0005  0.6728  0.2219
21846SOL    HW171884   0.375   8.896   7.077  1.8549 -0.3477 -0.2182
21846SOL    HW271885   0.503   8.906   7.158  0.0012 -0.1880  2.8527
21847SOL     OW71886   4.114   5.208   4.839 -0.4605 -0.1300 -0.0990
21847SOL    HW171887   4.071   5.278   4.888 -0.8111 -0.6484  0.3432
21847SOL    HW271888   4.082   5.218   4.749 -0.2964  0.4412 -0.0996
21848SOL     OW71889   4.875   1.051   0.634 -0.6171  0.1925  0.0297
21848SOL    HW171890   4.835   1.044   0.547 -2.2214  1.0358  0.6328
21848SOL    HW271891   4.897   1.144   0.642  3.4218 -0.4995 -1.0043
21849SOL     OW71892   6.764   1.969   6.843 -0.0327  0.4756  0.7796
21849SOL    HW171893   6.719   1.929   6.769  1.2440 -1.9376  1.2134
21849SOL    HW271894   6.695   1.998   6.901 -1.0696 -1.3925  0.5510
21850SOL     OW71895   4.659   2.844   4.110  0.5455 -0.2993  0.8212
21850SOL    HW171896   4.667   2.810   4.199 -0.7986 -2.9437  0.0243
21850SOL    HW271897   4.567   2.832   4.088  1.0673 -0.7650 -1.3323
21851SOL     OW71898   4.188   8.374   6.190 -0.1562 -0.1048  0.3300
21851SOL    HW171899   4.237   8.322   6.126  0.0756 -0.0003  0.4208
21851SOL    HW271900   4.249   8.385   6.263 -0.6585 -0.8214  0.8688
21852SOL     OW71901   7.629   3.086   8.968  0.4219 -0.4890  0.5631
21852SOL    HW171902   7.663   3.141   9.039  0.2978  0.6099 -0.2092
21852SOL    HW271903   7.687   3.104   8.894 -0.0710 -0.8568  0.0820
21853SOL     OW71904   7.318   0.832   1.926 -1.0241  0.0112 -0.1454
21853SOL    HW171905   7.302   0.893   1.854 -0.4131  1.2936  0.7504
21853SOL    HW271906   7.267   0.867   1.999 -0.6254 -0.5176  0.3975
21854SOL     OW71907   5.422   7.954   5.099  0.0529  0.0346  0.4842
21854SOL    HW171908   5.399   8.030   5.046  0.7891  1.8441  2.6219
21854SOL    HW271909   5.339   7.909   5.114 -0.3084  0.0411 -1.2785
21855SOL     OW71910   5.979   5.805   4.997  0.6892  0.0127 -1.0693
21855SOL    HW171911   5.920   5.730   5.005  1.7854 -0.7714  0.1746
21855SOL    HW271912   5.951   5.849   4.917  0.1482 -1.8568 -1.9702
21856SOL     OW71913   2.654   5.997   5.921  0.0258  0.4578 -0.1445
21856SOL    HW171914   2.744   5.971   5.901 -0.2233 -2.8288  2.2784
21856SOL    HW271915   2.659   6.092   5.935  3.2987  0.2739  0.7535
21857SOL     OW71916   9.210   2.067   6.787  0.0256  0.0034  0.2912
21857SOL    HW171917   9.199   2.162   6.789 -0.4895 -0.0568  0.3068
21857SOL    HW271918   9.299   2.055   6.752  0.6294  0.5089  1.6073
21858SOL     OW71919   8.353   0.455   0.180  0.4179  0.8287 -0.0532
21858SOL    HW171920   8.338   0.457   0.275  1.6994  2.8196  0.1546
21858SOL    HW271921   8.362   0.362   0.160 -2.9094  0.0734  1.2218
21859SOL     OW71922   7.419   2.839   7.329  0.0546  0.3162 -0.2213
21859SOL    HW171923   7.336   2.800   7.356  1.0338  0.0921  2.9258
21859SOL    HW271924   7.473   2.765   7.302  0.7306 -0.2154  2.3344
21860SOL     OW71925   5.539   1.748   3.966  0.2454  0.0562  0.7796
21860SOL    HW171926   5.475   1.816   3.948  0.2169 -0.1300  0.1559
21860SOL    HW271927   5.487   1.671   3.987  0.2363 -0.2662 -0.3457
21861SOL     OW71928   3.772   5.085   3.542  0.7107 -0.0800  0.1179
21861SOL    HW171929   3.841   5.089   3.476  1.5152  1.0369  0.9818
21861SOL    HW271930   3.691   5.088   3.493  1.2931  0.1976 -0.8493
21862SOL     OW71931   2.110   8.882   2.921 -0.5478 -0.2410  0.6901
21862SOL    HW171932   2.203   8.875   2.901 -1.0457 -0.9622 -1.7064
21862SOL    HW271933   2.102   8.854   3.013  1.4894 -0.8029  0.7338
21863SOL     OW71934   2.147   0.242   4.692  0.0028 -0.6083 -0.3684
21863SOL    HW171935   2.093   0.297   4.750  1.6926  0.8551 -0.1041
21863SOL    HW271936   2.125   0.272   4.604  1.6231  1.2831 -0.1951
21864SOL     OW71937   8.732   3.735   7.272 -0.0711  0.2510  0.2989
21864SOL    HW171938   8.796   3.682   7.319 -0.7468 -0.6718  0.1955
21864SOL    HW271939   8.660   3.746   7.334 -0.5800 -0.2189 -0.1950
21865SOL     OW71940   1.744   1.522   2.884  0.1369 -0.4600  0.5267
21865SOL    HW171941   1.712   1.571   2.959  2.2714 -2.1245  2.6903
21865SOL    HW271942   1.826   1.565   2.861 -1.0162  0.7228 -1.6971
21866SOL     OW71943   4.990   6.097   4.250  0.3857  0.0711  0.1005
21866SOL    HW171944   4.895   6.099   4.243  0.3260  2.7551  0.6883
21866SOL    HW271945   5.021   6.070   4.164 -0.8782 -1.1330 -0.0061
21867SOL     OW71946   9.018   4.968   6.364  0.0342 -0.3621 -0.2705
21867SOL    HW171947   8.946   4.914   6.397  0.1170  0.3213  1.1144
21867SOL    HW271948   9.096   4.932   6.407  0.4218 -0.6297 -1.1863
21868SOL     OW71949   8.378   7.937   8.314 -0.0527  0.1822 -0.6548
21868SOL    HW171950   8.313   7.971   8.252  0.4808  1.5431 -0.5158
21868SOL    HW271951   8.455   7.993   8.300  0.4235 -0.1587  0.5159
21869SOL     OW71952   0.791   5.486   4.903  0.5078  0.3745 -0.1865
21869SOL    HW171953   0.876   5.486   4.947  0.5893  0.2580 -0.3457
21869SOL    HW271954   0.749   5.567   4.933  0.0293 -0.3443  1.1463
21870SOL     OW71955   7.489   3.111   7.764  0.5789  0.2524  0.5613
21870SOL    HW171956   7.513   3.114   7.671  0.5800 -1.3005  0.4799
21870SOL    HW271957   7.555   3.164   7.808  0.5347  1.0665 -0.3298
21871SOL     OW71958   2.810   5.184   0.555 -0.1549 -0.0947  0.1045
21871SOL    HW171959   2.839   5.264   0.599 -0.1994 -1.1591  2.1621
21871SOL    HW271960   2.832   5.113   0.615  1.7248 -1.9171 -2.5227
21872SOL     OW71961   0.981   3.165   0.581 -0.0949  0.1321  0.5996
21872SOL    HW171962   1.064   3.166   0.629  0.4619  1.2764 -0.3295
21872SOL    HW271963   0.969   3.256   0.552 -1.4401 -0.1182  0.3145
21873SOL     OW71964   4.699   2.048   4.928 -0.0700 -0.5649 -0.2079
21873SOL    HW171965   4.674   2.108   4.998  1.8495 -1.0298  0.9613
21873SOL    HW271966   4.753   2.100   4.870 -0.0282 -0.6708 -0.2635
21874SOL     OW71967   2.780   0.521   8.758  0.0623 -0.0740  0.6026
21874SOL    HW171968   2.704   0.551   8.708  0.7042 -1.5923 -1.4121
21874SOL    HW271969   2.743   0.467   8.828 -0.7533 -1.4636 -0.8269
21875SOL     OW71970   4.210   1.666   7.267  0.4145  0.1879  0.1110
21875SOL    HW171971   4.266   1.626   7.333  0.5625  0.1031 -0.0656
21875SOL    HW271972   4.136   1.700   7.316 -0.4171 -1.5221  0.1407
21876SOL     OW71973   0.655   1.557   2.567  0.1058 -0.3735 -0.4313
21876SOL    HW171974   0.657   1.645   2.528 -1.7485 -0.3163 -0.5224
21876SOL    HW271975   0.625   1.501   2.496 -0.3942 -0.7780  0.0930
21877SOL     OW71976   3.381   0.715   8.667 -0.3115  0.3035 -0.1541
21877SOL    HW171977   3.381   0.748   8.577 -1.7239 -1.7679 -0.9854
21877SOL    HW271978   3.455   0.655   8.670 -0.6179 -0.0717 -0.1101
21878SOL     OW71979   7.524   3.573   1.718 -0.1346  0.6894 -0.4486
21878SOL    HW171980   7.538   3.488   1.677  0.9910  0.6434 -0.0340
21878SOL    HW271981   7.599   3.582   1.778 -0.2619  1.9486 -0.4612
21879SOL     OW71982   2.435   6.860   5.871 -1.0314  0.3341 -0.1466
21879SOL    HW171983   2.402   6.782   5.828  0.3419 -1.1802  1.4134
21879SOL    HW271984   2.530   6.850   5.870 -0.7304  2.6641 -1.1034
21880SOL     OW71985   4.330   7.370   2.901  0.0463  0.2870  0.7284
21880SOL    HW171986   4.305   7.452   2.858  0.3943 -0.5207 -1.0703
21880SOL    HW271987   4.267   7.306   2.870 -0.5421 -0.0686  2.5290
21881SOL     OW71988   3.147   1.193   3.417 -0.4201  0.0791 -0.7097
21881SOL    HW171989   3.198   1.163   3.492  1.3522  0.4169 -1.7359
21881SOL    HW271990   3.174   1.136   3.345 -1.8402 -0.0214 -1.2067
21882SOL     OW71991   2.328   2.367   0.412 -0.3880 -0.3510  0.0456
21882SOL    HW171992   2.350   2.372   0.319  0.7061  3.0638  0.3505
21882SOL    HW271993   2.234   2.384   0.415 -0.4315 -0.4983 -0.4484
21883SOL     OW71994   8.193   7.986   0.541 -0.5120  0.3113  0.4286
21883SOL    HW171995   8.235   8.043   0.477 -2.1221  0.3681 -0.6507
21883SOL    HW271996   8.197   7.899   0.502 -2.0963  0.4505 -0.1305
21884SOL     OW71997   0.156   8.224   3.432 -0.5166 -0.3516  0.1784
21884SOL    HW171998   0.215   8.223   3.507  0.0360 -0.5580 -0.2513
21884SOL    HW271999   0.210   8.197   3.358 -1.0722 -0.2299 -0.2845
21885SOL     OW72000   8.912   5.582   4.910 -0.2815  0.0887  0.1836
21885SOL    HW172001   8.979   5.651   4.903  1.5614 -1.4793  1.4686
21885SOL    HW272002   8.894   5.576   5.003 -0.6218 -0.9935  0.0547
21886SOL     OW72003   2.248   1.350   1.705  0.8301  0.1098 -1.0075
21886SOL    HW172004   2.270   1.295   1.630 -0.7042 -0.1769 -1.2775
21886SOL    HW272005   2.183   1.412   1.671 -0.3559 -0.4192  0.1977
21887SOL     OW72006   6.035   7.170   1.103  0.3620 -0.1371  0.2677
21887SOL    HW172007   6.047   7.116   1.181  0.7501  0.5584  0.6995
21887SOL    HW272008   5.995   7.251   1.135 -1.9346 -0.8335 -0.6067
21888SOL     OW72009   8.456   4.913   1.519  0.6120  0.4075  0.8242
21888SOL    HW172010   8.473   4.943   1.608  1.3161  1.3677  0.3843
21888SOL    HW272011   8.397   4.838   1.529  1.2317  0.0755  2.1284
21889SOL     OW72012   8.395   8.528   6.859  0.2480  0.2242 -0.3159
21889SOL    HW172013   8.471   8.585   6.865  0.1137  0.2671  1.3932
21889SOL    HW272014   8.322   8.587   6.841 -0.1366  0.8971  2.8589
21890SOL     OW72015   3.153   3.208   6.921 -0.1130  0.1640 -0.9096
21890SOL    HW172016   3.144   3.146   6.849 -1.1209 -1.9887  0.9469
21890SOL    HW272017   3.066   3.211   6.960  0.2897  1.6804 -0.0763
21891SOL     OW72018   8.983   0.870   8.086  0.7510 -0.1641 -0.3451
21891SOL    HW172019   9.034   0.917   8.153 -0.0663  0.5696 -0.2079
21891SOL    HW272020   8.975   0.933   8.015 -0.4303 -0.0407 -0.1292
21892SOL     OW72021   6.007   1.644   1.069  0.7644 -0.9331  0.6058
21892SOL    HW172022   5.989   1.737   1.081  0.5217 -0.8999  0.0277
21892SOL    HW272023   6.067   1.621   1.140  0.5710 -0.4105  0.9413
21893SOL     OW72024   4.946   7.941   1.191  0.1199 -0.0935 -0.3044
21893SOL    HW172025   4.932   8.024   1.236  1.9342  0.0809  0.0138
21893SOL    HW272026   5.040   7.925   1.199 -0.5010 -3.6778  2.3123
21894SOL     OW72027   8.563   2.099   7.446 -0.1844  0.0895  0.1713
21894SOL    HW172028   8.507   2.134   7.377  0.9981 -1.5797 -1.7249
21894SOL    HW272029   8.644   2.149   7.440 -0.7303  1.2501  1.6992
21895SOL     OW72030   0.527   4.774   1.241 -0.0924 -0.1090  0.1734
21895SOL    HW172031   0.502   4.850   1.293 -1.0690  0.2634 -0.7974
21895SOL    HW272032   0.572   4.716   1.303  1.0699  1.4284  0.8188
21896SOL     OW72033   0.498   5.199   3.376  0.1391 -0.0391  0.2876
21896SOL    HW172034   0.581   5.235   3.409 -0.4853  0.8005  0.9904
21896SOL    HW272035   0.450   5.275   3.343 -0.8884 -0.3223  1.0800
21897SOL     OW72036   4.080   5.875   2.426 -0.0746  0.3823  0.1026
21897SOL    HW172037   4.125   5.840   2.504 -0.5156 -2.0517 -0.6440
21897SOL    HW272038   4.151   5.896   2.365  0.2023  0.5445  0.4765
21898SOL     OW72039   5.352   1.498   4.450 -0.1849  0.3489 -0.0734
21898SOL    HW172040   5.333   1.520   4.542  1.3808 -1.9010  0.8974
21898SOL    HW272041   5.447   1.509   4.443 -0.2530  0.2256 -1.3623
21899SOL     OW72042   2.682   0.225   4.649  0.1874  0.3770 -0.1933
21899SOL    HW172043   2.758   0.279   4.626 -0.4704  2.3220  1.8633
21899SOL    HW272044   2.629   0.224   4.568  0.5820  2.2683 -0.5411
21900SOL     OW72045   4.300   5.322   8.695 -0.3801  0.2957 -0.2865
21900SOL    HW172046   4.319   5.389   8.629 -0.1956 -0.1659 -0.7104
21900SOL    HW272047   4.235   5.266   8.653  0.3987 -0.5212 -0.4325
21901SOL     OW72048   2.676   4.344   1.462  0.0775  0.3854  0.3668
21901SOL    HW172049   2.721   4.326   1.380 -2.8813 -1.4109 -1.0166
21901SOL    HW272050   2.672   4.258   1.506 -2.4059  0.2907  0.1097
21902SOL     OW72051   8.506   2.038   0.709 -0.3769  0.3544 -0.3089
21902SOL    HW172052   8.515   2.009   0.799  1.6404 -2.0327 -1.1650
21902SOL    HW272053   8.443   1.978   0.670 -1.5407  1.6173 -0.4368
21903SOL     OW72054   7.297   2.298   0.164 -0.0197 -0.3025 -0.3759
21903SOL    HW172055   7.266   2.264   0.080 -1.0409 -1.2082  0.3327
21903SOL    HW272056   7.238   2.259   0.228 -2.3602  4.0352  0.4557
21904SOL     OW72057   3.706   7.907   5.234  0.6637  0.4803  0.1652
21904SOL    HW172058   3.656   7.839   5.188  1.7143 -0.2419  0.0552
21904SOL    HW272059   3.700   7.983   5.177 -2.2800  1.1821  1.2768
21905SOL     OW72060   7.242   3.809   1.087  0.1398  0.5451 -0.1327
21905SOL    HW172061   7.315   3.748   1.083  0.5457  0.9868  0.4654
21905SOL    HW272062   7.282   3.896   1.078  0.0708  1.0121  2.9532
21906SOL     OW72063   5.461   1.662   7.861  0.7983 -0.3529 -0.1246
21906SOL    HW172064   5.393   1.693   7.921  0.5482  0.0965 -0.6412
21906SOL    HW272065   5.454   1.718   7.784  0.4885 -1.5254 -0.9776
21907SOL     OW72066   8.695   9.070   5.974  0.2608 -0.0920 -0.0110
21907SOL    HW172067   8.743   8.992   6.003 -1.4507 -1.3532 -0.3618
21907SOL    HW272068   8.740   9.097   5.894 -0.2239 -1.9250 -0.9749
21908SOL     OW72069   2.127   3.898   4.780  0.3746  0.0509  0.7635
21908SOL    HW172070   2.116   3.885   4.874  0.1611 -0.7627  0.6321
21908SOL    HW272071   2.088   3.820   4.741 -0.2379  0.7309 -0.0293
21909SOL     OW72072   7.011   4.913   6.585 -0.5650  0.5518  0.4578
21909SOL    HW172073   7.103   4.896   6.565 -0.9484 -1.4165  0.1257
21909SOL    HW272074   7.010   5.001   6.623  1.4457  0.5942  0.5176
21910SOL     OW72075   0.701   4.300   1.227  0.1383  0.3797 -0.3290
21910SOL    HW172076   0.706   4.238   1.154 -0.1667  1.0024 -0.8975
21910SOL    HW272077   0.738   4.381   1.192 -1.0005  1.0038 -0.1516
21911SOL     OW72078   8.395   1.786   8.497 -0.2068 -0.0384 -0.0158
21911SOL    HW172079   8.346   1.708   8.522 -1.7860  0.8277 -0.2853
21911SOL    HW272080   8.329   1.856   8.495  0.6224  0.7614 -2.5035
21912SOL     OW72081   0.554   1.877   1.556  0.2626  0.7227  0.8042
21912SOL    HW172082   0.634   1.921   1.527  0.3401 -0.1838 -0.5032
21912SOL    HW272083   0.555   1.885   1.651  1.1863  1.9339  0.7185
21913SOL     OW72084   6.898   3.195   1.130  0.3399 -0.4963  0.1026
21913SOL    HW172085   6.896   3.284   1.165  1.7441 -1.2183  2.2068
21913SOL    HW272086   6.814   3.186   1.084 -1.6491  0.6516  3.1618
21914SOL     OW72087   8.712   6.928   5.942  0.2016 -0.3652  0.7712
21914SOL    HW172088   8.662   6.957   5.866  1.8338  0.0130 -0.2184
21914SOL    HW272089   8.715   6.833   5.935 -1.0521 -0.4581  1.3080
21915SOL     OW72090   3.631   7.575   6.703 -0.2112  0.4716  0.2917
21915SOL    HW172091   3.687   7.650   6.682  3.9990 -3.1004 -3.6148
21915SOL    HW272092   3.583   7.557   6.622 -1.3880 -0.8784  1.2329
21916SOL     OW72093   7.582   2.831   5.819 -0.1409 -0.4081 -1.0206
21916SOL    HW172094   7.620   2.770   5.883 -0.4227  0.4031 -0.0474
21916SOL    HW272095   7.575   2.780   5.738  0.7731 -1.2904 -0.5729
21917SOL     OW72096   8.836   0.532   1.522  0.3437 -0.1250 -0.3486
21917SOL    HW172097   8.762   0.590   1.503  0.8114  0.7381  0.4039
21917SOL    HW272098   8.795   0.452   1.555 -0.2679  0.2491 -0.1888
21918SOL     OW72099   0.507   4.293   4.329  0.2974  0.4653  0.2745
21918SOL    HW172100   0.485   4.242   4.252 -0.8099  1.2925  0.0274
21918SOL    HW272101   0.490   4.235   4.403 -1.5855  0.6499  0.0324
21919SOL     OW72102   2.797   0.128   4.101  0.1872 -0.1053 -0.6022
21919SOL    HW172103   2.888   0.140   4.074  0.3241  0.6545  0.1350
21919SOL    HW272104   2.803   0.088   4.188 -0.1751 -0.0354 -0.5444
21920SOL     OW72105   7.369   1.143   6.676  0.2316 -0.1409  0.5913
21920SOL    HW172106   7.458   1.161   6.705 -0.2899  1.8844  1.0817
21920SOL    HW272107   7.350   1.212   6.613 -1.1272 -0.3111  0.7780
21921SOL     OW72108   0.775   6.390   0.330  0.0712  0.2610 -0.1737
21921SOL    HW172109   0.720   6.442   0.271 -1.1957  0.6384  1.2824
21921SOL    HW272110   0.761   6.428   0.416  0.4403 -1.4223  0.6738
21922SOL     OW72111   2.555   2.470   0.892 -0.2807  0.2714 -0.2598
21922SOL    HW172112   2.552   2.411   0.817 -0.1973  0.4068 -0.3700
21922SOL    HW272113   2.616   2.429   0.953 -2.0686 -1.0429  0.7506
21923SOL     OW72114   4.512   5.118   6.117 -0.5064  0.5290 -0.3877
21923SOL    HW172115   4.599   5.147   6.142  0.1642 -0.3459 -1.6020
21923SOL    HW272116   4.521   5.090   6.026 -1.3211 -2.3972  0.3326
21924SOL     OW72117   0.301   4.944   1.682 -0.3901  0.5597  0.4256
21924SOL    HW172118   0.297   5.008   1.610  1.6014  1.3160  0.9230
21924SOL    HW272119   0.211   4.912   1.690 -0.6858  0.3595 -2.4568
21925SOL     OW72120   2.483   3.080   9.083  0.6214 -0.4089 -0.6622
21925SOL    HW172121   2.406   3.023   9.086  0.2020  0.0956 -1.5095
21925SOL    HW272122   2.541   3.044   9.150  0.1762 -1.5467 -0.8495
21926SOL     OW72123   5.765   9.018   6.551 -0.5960  0.3921  0.3111
21926SOL    HW172124   5.841   8.964   6.569  0.0265  1.2250  0.2744
21926SOL    HW272125   5.788   9.104   6.587  0.0633  1.7271 -2.8714
21927SOL     OW72126   5.622   5.411   1.742  0.2570 -0.6532  0.0312
21927SOL    HW172127   5.663   5.456   1.816 -1.9452 -0.9346  1.4939
21927SOL    HW272128   5.602   5.481   1.680  1.2000 -0.2856  0.1118
21928SOL     OW72129   4.287   6.046   8.912 -0.2828  0.2187  0.3384
21928SOL    HW172130   4.205   6.028   8.867  0.3195 -2.2875  0.1136
21928SOL    HW272131   4.321   6.125   8.870 -1.5607  0.0856 -0.9959
21929SOL     OW72132   2.620   8.393   2.794 -0.2564 -0.2055 -0.1106
21929SOL    HW172133   2.588   8.459   2.732  1.1527  0.4319 -0.1925
21929SOL    HW272134   2.632   8.442   2.875  2.0430 -0.0070 -0.5085
21930SOL     OW72135   6.083   8.322   2.054 -0.5215 -0.4519  0.1477
21930SOL    HW172136   6.004   8.359   2.014 -0.8161 -0.1905  0.9610
21930SOL    HW272137   6.144   8.313   1.980 -0.5071  1.4736 -0.1520
21931SOL     OW72138   2.534   0.452   7.157 -1.0353  0.3018 -0.3942
21931SOL    HW172139   2.499   0.420   7.240 -0.8408  2.3866  0.5635
21931SOL    HW272140   2.468   0.427   7.092 -0.6711 -2.3316  0.1362
21932SOL     OW72141   7.993   3.389   1.921 -0.7054 -0.6139 -0.0964
21932SOL    HW172142   8.004   3.459   1.985 -0.1727  0.7827 -1.6253
21932SOL    HW272143   7.933   3.327   1.962 -1.5214  0.9455  1.1736
21933SOL     OW72144   2.836   4.148   7.298  0.1888 -0.2332  0.1167
21933SOL    HW172145   2.816   4.193   7.380 -0.6666  1.8247 -1.1346
21933SOL    HW272146   2.765   4.173   7.238  0.6825 -1.8112 -1.2059
21934SOL     OW72147   0.736   3.355   4.390 -0.0883 -0.4531  0.2546
21934SOL    HW172148   0.742   3.267   4.427 -2.3402 -1.2496 -1.0608
21934SOL    HW272149   0.649   3.386   4.415  1.0027  1.8342  1.4787
21935SOL     OW72150   5.583   7.191   7.673  0.1566 -0.1234 -0.3633
21935SOL    HW172151   5.663   7.159   7.715  0.6252 -0.3170 -1.3683
21935SOL    HW272152   5.543   7.249   7.738  2.0900  1.4933 -0.5092
21936SOL     OW72153   3.376   8.704   7.974 -0.6622 -0.0307 -0.3237
21936SOL    HW172154   3.387   8.615   8.008 -0.3553  0.8848  2.2015
21936SOL    HW272155   3.456   8.720   7.924 -1.2022 -1.4959 -1.7675
21937SOL     OW72156   4.156   5.812   0.885  0.5910 -0.3801 -0.6439
21937SOL    HW172157   4.239   5.770   0.861  0.8747  0.8273 -1.9647
21937SOL    HW272158   4.166   5.903   0.855 -1.1209 -0.1477 -0.6101
21938SOL     OW72159   5.332   4.057   5.503 -0.3595  0.1704  0.4866
21938SOL    HW172160   5.392   3.986   5.480 -0.8170 -0.1147  0.1622
21938SOL    HW272161   5.245   4.018   5.496 -0.5722  0.5019  1.2417
21939SOL     OW72162   2.662   3.988   4.010  0.1072 -0.0817 -0.2199
21939SOL    HW172163   2.622   4.075   4.015 -0.4964 -0.4272  2.0567
21939SOL    HW272164   2.702   3.985   3.923 -1.3555  1.8040 -1.0375
21940SOL     OW72165   4.417   2.478   5.537  0.1819  0.0475 -0.1976
21940SOL    HW172166   4.478   2.445   5.604 -0.3307  0.2407  0.3764
21940SOL    HW272167   4.473   2.524   5.475  1.0216 -2.4806 -1.4242
21941SOL     OW72168   3.863   8.192   5.159 -0.0498 -0.3367 -0.2669
21941SOL    HW172169   3.789   8.252   5.154  3.0677  3.9079 -1.1897
21941SOL    HW272170   3.867   8.151   5.072  0.1259  1.4246 -1.1235
21942SOL     OW72171   6.399   5.365   6.048 -0.0386  0.4660 -0.0567
21942SOL    HW172172   6.339   5.366   6.123 -2.2743 -1.1634 -1.7248
21942SOL    HW272173   6.455   5.289   6.063 -1.6791 -0.9590 -0.8423
21943SOL     OW72174   3.787   6.527   1.048  0.0549 -0.1486  0.2449
21943SOL    HW172175   3.818   6.586   1.117 -0.0054  0.8998 -0.5982
21943SOL    HW272176   3.697   6.556   1.032  0.5439  0.6229 -1.2902
21944SOL     OW72177   7.656   5.728   6.011  0.4114  0.3278  0.7409
21944SOL    HW172178   7.741   5.732   5.967 -0.0850  0.1591 -0.2577
21944SOL    HW272179   7.670   5.667   6.083  1.4806  1.2916  1.3818
21945SOL     OW72180   2.512   8.340   5.615  0.1299 -0.1991 -0.0872
21945SOL    HW172181   2.562   8.264   5.584 -1.3355 -1.1963 -0.1295
21945SOL    HW272182   2.456   8.304   5.684 -2.7098  0.1368 -2.0413
21946SOL     OW72183   4.036   0.596   1.415 -0.3649  0.1259  0.8500
21946SOL    HW172184   4.054   0.660   1.484 -1.7842  0.9297  0.5032
21946SOL    HW272185   4.108   0.533   1.422  1.6225  2.2346  0.5892
21947SOL     OW72186   0.290   8.264   1.100  0.0358 -0.2324  0.0667
21947SOL    HW172187   0.276   8.330   1.168  1.7820  3.0338 -2.4602
21947SOL    HW272188   0.378   8.229   1.118 -0.3779 -1.0128  0.6618
21948SOL     OW72189   0.735   4.614   7.380  0.6751 -0.3244 -0.1836
21948SOL    HW172190   0.736   4.528   7.337  0.5218 -0.3663 -0.1054
21948SOL    HW272191   0.643   4.633   7.393  0.6875  0.1217 -0.7237
21949SOL     OW72192   0.371   5.875   3.082 -0.2098  0.0992  0.3549
21949SOL    HW172193   0.302   5.921   3.130 -0.2592  0.2941  0.0977
21949SOL    HW272194   0.440   5.941   3.070 -1.4893  1.0242 -2.6029
21950SOL     OW72195   8.454   7.789   1.733  0.0068 -0.3579  0.4511
21950SOL    HW172196   8.522   7.727   1.756  0.4184  0.2411  0.8805
21950SOL    HW272197   8.413   7.752   1.654  0.7209 -0.7941  0.2784
21951SOL     OW72198   1.552   3.161   6.327  0.6537  0.2394  0.1599
21951SOL    HW172199   1.477   3.140   6.382  2.0095  0.0305  2.0226
21951SOL    HW272200   1.554   3.092   6.261 -0.2318 -0.2865  0.6656
21952SOL     OW72201   6.665   5.027   0.957 -0.5903 -0.1927 -0.2701
21952SOL    HW172202   6.605   5.090   0.996  0.3812  0.2137  0.5968
21952SOL    HW272203   6.731   5.080   0.912  0.5701 -0.5512  0.9624
21953SOL     OW72204   5.386   2.670   3.785 -0.1737  0.1868  0.2042
21953SOL    HW172205   5.300   2.628   3.788  0.0352 -0.2115  0.8618
21953SOL    HW272206   5.383   2.726   3.707 -1.4110  1.0057  0.8018
21954SOL     OW72207   0.734   1.229   6.875 -0.4289 -0.0771 -0.1595
21954SOL    HW172208   0.711   1.172   6.949  2.7441 -2.6416 -0.9187
21954SOL    HW272209   0.772   1.170   6.811  1.1217  2.6821 -1.9624
21955SOL     OW72210   1.376   2.256   9.020 -0.1511 -0.0553  0.3446
21955SOL    HW172211   1.398   2.163   9.026  2.0489  0.4173  0.4777
21955SOL    HW272212   1.382   2.288   9.110  0.9583  0.5591  0.0780
21956SOL     OW72213   8.826   7.215   8.470 -0.8673 -0.7078 -0.0681
21956SOL    HW172214   8.776   7.263   8.403  3.3212  0.8742 -2.4218
21956SOL    HW272215   8.814   7.123   8.447 -3.8906 -0.5885  0.5753
21957SOL     OW72216   8.829   7.581   0.995 -0.3367 -0.3486  0.3330
21957SOL    HW172217   8.922   7.575   1.016 -0.4639  0.7905  1.3066
21957SOL    HW272218   8.823   7.655   0.935 -0.7104  0.1471  0.9702
21958SOL     OW72219   4.609   2.603   1.302  0.0816  0.1906  0.4291
21958SOL    HW172220   4.611   2.599   1.397  3.0943 -1.9106  0.4483
21958SOL    HW272221   4.608   2.697   1.282  0.9923  0.7293  2.5722
21959SOL     OW72222   8.550   8.854   0.213  0.3823 -0.0136 -0.3783
21959SOL    HW172223   8.498   8.933   0.230  0.1225 -0.3876  0.6828
21959SOL    HW272224   8.605   8.877   0.138 -0.6045  0.7301 -0.9018
21960SOL     OW72225   0.951   1.539   2.073 -0.5048  0.6281 -0.7831
21960SOL    HW172226   1.003   1.541   2.153  0.4535 -0.8558 -1.3405
21960SOL    HW272227   0.865   1.508   2.101  0.1338 -0.9395 -0.4490
21961SOL     OW72228   6.295   1.853   7.860 -0.3791 -0.0954  0.1047
21961SOL    HW172229   6.301   1.760   7.838 -0.1213  0.0495 -0.4512
21961SOL    HW272230   6.280   1.897   7.777  2.4850  0.6577 -0.1104
21962SOL     OW72231   7.415   3.052   5.952 -0.6739 -0.1354  0.2251
21962SOL    HW172232   7.459   2.995   5.889  1.4677  0.2012  1.3158
21962SOL    HW272233   7.361   2.992   6.004 -2.3369 -0.4351 -1.7480
21963SOL     OW72234   7.867   6.183   1.067  0.3289  0.0610 -0.0609
21963SOL    HW172235   7.934   6.168   1.001 -1.3687 -1.2445 -1.6043
21963SOL    HW272236   7.891   6.125   1.139  1.2782  0.2358 -0.2195
21964SOL     OW72237   3.195   6.555   0.909  0.0185  0.2673 -0.0428
21964SOL    HW172238   3.146   6.590   0.834  0.0626 -0.9358 -0.6529
21964SOL    HW272239   3.287   6.562   0.883  0.0298 -0.2406 -0.1529
21965SOL     OW72240   2.467   2.672   9.182  0.1486  0.2432 -0.1671
21965SOL    HW172241   2.497   2.581   9.176  1.0701  0.5061  0.2716
21965SOL    HW272242   2.424   2.688   9.098  0.7272 -0.3474 -0.5938
21966SOL     OW72243   5.329   9.215   6.864 -0.6385  0.2132 -0.4319
21966SOL    HW172244   5.314   9.143   6.925 -0.0638 -0.4898 -1.1037
21966SOL    HW272245   5.241   9.240   6.835 -0.8980  0.3656  0.4557
21967SOL     OW72246   5.564   2.719   7.613  0.7436 -0.4901  0.1767
21967SOL    HW172247   5.657   2.706   7.630  1.0059  1.0726  0.0893
21967SOL    HW272248   5.549   2.678   7.528  1.0824 -1.7302  0.6903
21968SOL     OW72249   6.608   4.270   6.913  0.9761 -0.5155 -0.0957
21968SOL    HW172250   6.574   4.245   6.999  1.4037 -0.6286  0.0444
21968SOL    HW272251   6.639   4.188   6.874 -0.0727 -0.6195 -0.7589
21969SOL     OW72252   3.736   6.563   1.992  0.7660  0.4597 -0.0312
21969SOL    HW172253   3.814   6.617   2.000 -0.5008  2.1986  1.5360
21969SOL    HW272254   3.702   6.583   1.904  1.2392  0.9232 -0.1128
21970SOL     OW72255   3.070   1.424   8.605  0.0056  0.2079  0.1617
21970SOL    HW172256   3.071   1.458   8.695 -1.2200  2.0222 -0.4584
21970SOL    HW272257   2.979   1.400   8.590 -0.3938  2.5532 -1.4959
21971SOL     OW72258   3.944   8.655   0.477 -0.1684 -0.2079 -0.1583
21971SOL    HW172259   4.006   8.693   0.415 -0.1629 -0.8590 -0.5622
21971SOL    HW272260   3.999   8.621   0.548 -0.2504  1.7865  0.9439
21972SOL     OW72261   1.826   1.611   2.486 -0.2897 -0.4489  0.2502
21972SOL    HW172262   1.911   1.568   2.478 -0.2467 -0.1484 -1.0920
21972SOL    HW272263   1.768   1.543   2.521  0.5580 -0.5514  1.5437
21973SOL     OW72264   0.936   3.214   7.022 -0.3755  0.5013  0.0291
21973SOL    HW172265   0.998   3.176   6.959  0.4534 -0.1402  1.2079
21973SOL    HW272266   0.989   3.274   7.074 -1.1413  1.3189 -0.1222
21974SOL     OW72267   8.537   2.118   4.155  0.3279 -0.2406 -0.0482
21974SOL    HW172268   8.566   2.144   4.067  1.6245 -1.3480  0.0243
21974SOL    HW272269   8.600   2.052   4.183 -0.2691 -0.1683  1.5877
21975SOL     OW72270   7.478   5.711   1.838 -0.0005 -0.1573 -0.3428
21975SOL    HW172271   7.491   5.633   1.892 -1.1392 -0.5171 -0.5743
21975SOL    HW272272   7.565   5.752   1.834  0.5419 -1.2431  0.0292
21976SOL     OW72273   0.897   0.188   6.319 -0.1925 -0.1139 -0.3092
21976SOL    HW172274   0.981   0.223   6.348 -1.1534  0.9981  1.3275
21976SOL    HW272275   0.885   0.107   6.370 -0.8443  0.6418  0.8056
21977SOL     OW72276   3.647   0.738   5.263 -0.1441  0.7135  0.2676
21977SOL    HW172277   3.704   0.736   5.340  1.5185 -0.0741 -0.9195
21977SOL    HW272278   3.706   0.757   5.190 -1.6223  1.1003 -0.8716
21978SOL     OW72279   7.792   9.082   5.055  0.0741  0.4491 -0.1236
21978SOL    HW172280   7.849   9.156   5.036  0.6720  0.2861  0.9923
21978SOL    HW272281   7.703   9.115   5.041  0.3588  0.0532 -4.3962
21979SOL     OW72282   0.034   5.110   5.914 -0.0951 -0.1632 -0.1768
21979SOL    HW172283   0.037   5.181   5.850  0.9486  0.4100  0.4766
21979SOL    HW272284   0.062   5.150   5.996  0.5977 -1.3409  0.1903
21980SOL     OW72285   5.374   2.984   8.155  0.5146  0.1472 -0.1341
21980SOL    HW172286   5.304   2.987   8.221  0.4596  1.3218 -0.2255
21980SOL    HW272287   5.379   2.892   8.130 -0.7952 -0.0045  0.0922
21981SOL     OW72288   0.388   2.589   5.303  0.6714 -0.0392 -0.0307
21981SOL    HW172289   0.401   2.668   5.251  1.9282  0.5564  1.1421
21981SOL    HW272290   0.476   2.564   5.332  0.5963 -2.9545 -1.8607
21982SOL     OW72291   8.637   3.898   6.347  0.1938 -0.5477 -0.1784
21982SOL    HW172292   8.701   3.882   6.417  1.4670 -0.6330 -1.3156
21982SOL    HW272293   8.637   3.817   6.296 -1.1193 -0.6821  0.0042
21983SOL     OW72294   6.743   0.479   4.672  0.0003  0.3453 -0.4926
21983SOL    HW172295   6.765   0.487   4.579 -0.9527 -1.6420 -0.9406
21983SOL    HW272296   6.708   0.390   4.681 -0.5811  0.7331  1.6392
21984SOL     OW72297   2.149   8.115   5.280 -0.0860  0.1970 -0.1180
21984SOL    HW172298   2.226   8.137   5.332  1.0163 -1.2767 -1.0450
21984SOL    HW272299   2.087   8.077   5.342  0.0103  1.1575  0.5902
21985SOL     OW72300   4.958   3.165   6.573  0.1784  0.0763 -0.8680
21985SOL    HW172301   4.916   3.152   6.659 -1.2530  0.3682 -1.4914
21985SOL    HW272302   4.990   3.255   6.576  2.0306 -0.5741  0.1150
21986SOL     OW72303   7.268   1.017   3.679 -0.9125 -0.1535 -0.3455
21986SOL    HW172304   7.360   1.007   3.655 -1.1004 -1.4116 -0.6171
21986SOL    HW272305   7.268   1.083   3.748  0.6013 -2.3819  1.9415
21987SOL     OW72306   8.372   0.075   7.560 -0.0848  0.1016  0.5272
21987SOL    HW172307   8.386   0.169   7.556 -2.0916  0.4120 -0.2939
21987SOL    HW272308   8.356   0.057   7.653  0.7690  0.4759  0.7533
21988SOL     OW72309   2.943   1.973   8.834 -0.4520  0.5390  0.6657
21988SOL    HW172310   2.862   1.923   8.842 -0.4402  0.5070  0.5765
21988SOL    HW272311   2.999   1.921   8.777 -1.0286  1.4105 -0.7449
21989SOL     OW72312   7.654   2.475   3.639 -0.0470  0.7357  0.6598
21989SOL    HW172313   7.616   2.562   3.656  2.6120  2.1686 -0.2538
21989SOL    HW272314   7.685   2.480   3.549 -1.2648 -1.8098  0.0069
21990SOL     OW72315   5.547   5.988   7.555  0.8749 -0.6815 -0.2269
21990SOL    HW172316   5.505   5.903   7.569  1.0017 -0.6912  0.1200
21990SOL    HW272317   5.579   6.013   7.642  0.1142  0.1090 -0.1577
21991SOL     OW72318   2.191   5.448   5.579 -0.1981 -0.2570  0.4624
21991SOL    HW172319   2.165   5.466   5.670 -0.9502 -0.1410  0.2314
21991SOL    HW272320   2.116   5.404   5.541 -0.2022  0.4123 -0.3300
21992SOL     OW72321   0.128   6.295   8.511  0.1990  0.1671 -0.2370
21992SOL    HW172322   0.098   6.370   8.561  2.9365  0.4278  1.2049
21992SOL    HW272323   0.098   6.219   8.562 -0.1475  0.3417 -0.1768
21993SOL     OW72324   0.128   7.042   4.704  0.4458  0.0129  0.0362
21993SOL    HW172325   0.183   6.985   4.651 -0.5958 -0.1196 -0.9463
21993SOL    HW272326   0.086   6.983   4.767  0.6639 -0.0368  0.1366
21994SOL     OW72327   6.138   5.241   7.471 -0.5010  0.1713  0.2321
21994SOL    HW172328   6.093   5.181   7.412  0.0394 -0.1489  0.1385
21994SOL    HW272329   6.229   5.211   7.472 -0.6477 -0.3512  1.8776
21995SOL     OW72330   4.547   2.045   3.896  0.1214  0.1399  0.3231
21995SOL    HW172331   4.618   2.084   3.845  0.9635 -0.1501  1.2492
21995SOL    HW272332   4.470   2.053   3.840 -0.0880  4.2581  0.9149
21996SOL     OW72333   8.793   4.235   4.152 -1.1010 -0.0455 -0.1153
21996SOL    HW172334   8.845   4.181   4.092 -1.3997 -0.2235 -0.2167
21996SOL    HW272335   8.795   4.187   4.234 -1.1466 -0.0775 -0.1329
21997SOL     OW72336   5.820   1.465   2.586 -0.1387 -0.2879  0.0728
21997SOL    HW172337   5.747   1.406   2.569  0.2425 -0.8137  0.2302
21997SOL    HW272338   5.794   1.515   2.663 -0.4503 -0.2766 -0.0407
21998SOL     OW72339   8.420   4.397   3.714 -0.5331 -0.1917 -0.2725
21998SOL    HW172340   8.500   4.447   3.722 -1.1827  0.8358 -0.0021
21998SOL    HW272341   8.412   4.379   3.620 -0.8505  1.1989 -0.5374
21999SOL     OW72342   2.028   2.548   4.796 -0.2157 -0.1461  0.4525
21999SOL    HW172343   1.990   2.498   4.869 -1.5951  0.5978  0.2793
21999SOL    HW272344   1.985   2.513   4.718  0.1224  0.0961  0.1583
22000SOL     OW72345   7.766   5.476   9.063  0.3330  0.1910  1.0137
22000SOL    HW172346   7.760   5.515   8.976  1.5334 -0.1372  0.7663
22000SOL    HW272347   7.835   5.526   9.106  0.3586 -0.2339  1.4686
22001SOL     OW72348   2.809   8.040   4.442  0.0419 -0.8251  0.3628
22001SOL    HW172349   2.828   8.044   4.536  1.8220  1.2559  0.0128
22001SOL    HW272350   2.730   8.093   4.431  0.8300  0.4246  0.5228
22002SOL     OW72351   7.598   0.252   2.771 -0.2037  0.7829  0.0571
22002SOL    HW172352   7.616   0.230   2.862  2.4253  1.6152 -0.1991
22002SOL    HW272353   7.589   0.348   2.770 -1.5181  0.6899 -0.4045
22003SOL     OW72354   0.816   7.509   5.944 -0.3678  0.7342  0.0523
22003SOL    HW172355   0.810   7.475   5.855 -1.7332  0.2782  0.2881
22003SOL    HW272356   0.848   7.599   5.934  2.2264 -0.1729 -0.6602
22004SOL     OW72357   7.620   6.838   6.969  0.5528 -0.7423 -0.2669
22004SOL    HW172358   7.662   6.890   6.900  2.6166 -1.0514  0.6771
22004SOL    HW272359   7.546   6.891   6.997  1.6475  0.9616 -0.4478
22005SOL     OW72360   1.917   3.259   5.133 -0.1425  0.4224 -0.2282
22005SOL    HW172361   1.870   3.223   5.058 -1.3386  0.6260  0.3991
22005SOL    HW272362   1.932   3.351   5.111 -0.8392  0.5814 -0.0704
22006SOL     OW72363   0.738   6.490   6.537 -0.0646 -0.2337  0.2212
22006SOL    HW172364   0.830   6.464   6.539  0.2662  0.9080  0.5806
22006SOL    HW272365   0.730   6.543   6.457  0.1850  1.6390  1.3667
22007SOL     OW72366   1.640   7.955   1.658  0.1000 -0.3392 -0.7688
22007SOL    HW172367   1.550   7.966   1.630  0.1281 -1.0674 -1.1635
22007SOL    HW272368   1.646   8.006   1.739 -0.7974 -0.6915 -0.4708
22008SOL     OW72369   3.221   1.064   8.944  0.1150 -0.3573  0.1141
22008SOL    HW172370   3.209   0.973   8.915  1.6551 -0.9879  1.2911
22008SOL    HW272371   3.247   1.111   8.865  1.5390 -1.4538 -0.1053
22009SOL     OW72372   2.493   3.800   8.808  0.3381 -0.3684 -1.0825
22009SOL    HW172373   2.401   3.802   8.781 -0.5564 -0.4012  1.6554
22009SOL    HW272374   2.512   3.706   8.820 -0.2794 -0.2510  1.2460
22010SOL     OW72375   1.777   3.805   5.465 -0.0163 -0.1109  0.5487
22010SOL    HW172376   1.723   3.783   5.389 -0.8840 -0.7240  1.3105
22010SOL    HW272377   1.746   3.745   5.534  0.9770  0.1970  1.2855
22011SOL     OW72378   0.719   8.092   5.549  0.0742  0.4427  0.5181
22011SOL    HW172379   0.717   8.045   5.465 -0.3110 -2.7357  2.1804
22011SOL    HW272380   0.626   8.104   5.571  0.1773  1.2757  0.5534
22012SOL     OW72381   2.786   7.243   0.440  0.4037  1.0964 -0.6160
22012SOL    HW172382   2.759   7.176   0.377 -1.5359  2.7443 -1.6657
22012SOL    HW272383   2.871   7.214   0.471 -0.2124 -1.6784 -1.2367
22013SOL     OW72384   5.255   8.034   3.384 -0.3786 -0.4073 -0.0084
22013SOL    HW172385   5.264   8.110   3.442 -0.1112  0.6829 -1.4044
22013SOL    HW272386   5.340   7.990   3.387  0.7768  1.4682 -1.9248
22014SOL     OW72387   3.072   5.210   2.973 -0.9049 -0.0074 -0.4760
22014SOL    HW172388   3.008   5.219   2.903 -0.9323 -1.2173 -0.6342
22014SOL    HW272389   3.020   5.189   3.050 -0.8644  1.2155 -0.0970
22015SOL     OW72390   0.091   2.401   1.780 -0.4472  0.2002 -0.2458
22015SOL    HW172391   0.079   2.422   1.688 -0.2961  0.2585 -0.2530
22015SOL    HW272392   0.055   2.313   1.789  2.4687 -1.2228 -1.1063
22016SOL     OW72393   4.667   6.789   4.375 -0.5395  0.3692 -0.0893
22016SOL    HW172394   4.581   6.825   4.397 -0.9329 -0.9020  0.5569
22016SOL    HW272395   4.670   6.705   4.421  0.3152 -0.4583 -1.5688
22017SOL     OW72396   6.060   2.635   5.842 -0.5911  0.9588  0.5706
22017SOL    HW172397   6.038   2.595   5.758  0.4888  2.0214 -0.2653
22017SOL    HW272398   6.139   2.589   5.871  0.8108  2.5371 -0.5244
22018SOL     OW72399   2.525   2.096   2.508 -0.1079  0.5315 -0.4151
22018SOL    HW172400   2.484   2.020   2.468 -1.8150  0.7825  0.7255
22018SOL    HW272401   2.542   2.070   2.599  0.6448  1.0378 -0.3958
22019SOL     OW72402   3.595   1.397   6.786 -0.3734  0.2163 -0.9977
22019SOL    HW172403   3.682   1.432   6.769 -0.2707 -0.5868 -2.2791
22019SOL    HW272404   3.611   1.312   6.827 -0.6073  0.8936  0.5980
22020SOL     OW72405   0.412   2.173   6.993  0.5161  0.6685 -0.2934
22020SOL    HW172406   0.337   2.163   6.935  0.5028 -2.3924  0.1068
22020SOL    HW272407   0.385   2.132   7.074  1.1434  3.4016  1.4422
22021SOL     OW72408   7.128   7.036   1.953  0.1751 -0.1087 -0.1216
22021SOL    HW172409   7.169   7.105   2.005  0.2301  0.2307 -0.6111
22021SOL    HW272410   7.071   7.082   1.892  0.7475 -0.4466 -0.9348
22022SOL     OW72411   5.234   5.637   0.844 -0.1868  0.2325 -0.5558
22022SOL    HW172412   5.222   5.675   0.757  0.8469  2.1478  0.0750
22022SOL    HW272413   5.173   5.684   0.900  0.5917  0.4659  0.1211
22023SOL     OW72414   1.912   0.567   0.839  0.3096 -0.4143  0.3933
22023SOL    HW172415   1.902   0.647   0.788  1.3307  0.7933  1.9994
22023SOL    HW272416   1.905   0.496   0.775 -0.2723  0.9532 -1.1161
22024SOL     OW72417   3.719   5.681   5.577  0.6012  0.0847  0.8340
22024SOL    HW172418   3.796   5.625   5.574  0.4062 -0.1896  1.0228
22024SOL    HW272419   3.645   5.621   5.568  0.4472  0.5283 -2.2148
22025SOL     OW72420   4.825   8.156   3.920 -0.5473 -0.4353 -0.0190
22025SOL    HW172421   4.770   8.164   3.842  0.7930 -2.6217 -1.2802
22025SOL    HW272422   4.811   8.238   3.967  0.3682  2.1459 -3.7450
22026SOL     OW72423   1.039   8.824   2.577 -0.2288 -0.2702 -0.0719
22026SOL    HW172424   1.130   8.851   2.586  0.5509 -2.9753  1.1574
22026SOL    HW272425   1.033   8.787   2.489 -0.5820  1.2174 -0.7073
22027SOL     OW72426   3.120   7.866   7.137 -0.0265 -0.3518 -0.2244
22027SOL    HW172427   3.154   7.822   7.059 -1.1141 -0.5008 -0.6405
22027SOL    HW272428   3.037   7.904   7.108 -1.6833 -2.4476  1.4204
22028SOL     OW72429   2.459   6.160   5.744  0.4878  0.0692 -0.0863
22028SOL    HW172430   2.533   6.193   5.796  0.9057  2.1362 -1.8818
22028SOL    HW272431   2.500   6.114   5.671 -0.0643 -0.7510  0.1052
22029SOL     OW72432   3.977   4.243   3.750 -0.0408  0.4641 -0.0836
22029SOL    HW172433   3.896   4.290   3.767 -0.2131 -0.2063  0.9887
22029SOL    HW272434   3.950   4.154   3.731  0.3654  0.5288 -1.0631
22030SOL     OW72435   4.281   8.190   4.326  0.1267 -0.9000  0.0851
22030SOL    HW172436   4.217   8.168   4.259  0.0276  0.1300 -0.1729
22030SOL    HW272437   4.249   8.273   4.363  0.9339 -0.7399  0.4351
22031SOL     OW72438   8.207   7.168   6.585  0.2288  0.4373  0.0842
22031SOL    HW172439   8.223   7.211   6.668  1.3461  0.7856 -0.2979
22031SOL    HW272440   8.120   7.130   6.594 -0.8113  2.7253  0.4581
22032SOL     OW72441   1.462   3.547   7.482  0.3834 -0.1945 -0.8622
22032SOL    HW172442   1.449   3.549   7.387 -1.2279 -0.6525 -0.6791
22032SOL    HW272443   1.436   3.634   7.511  2.0481  0.3766 -0.9246
22033SOL     OW72444   3.624   3.762   0.027  0.5457  0.7842 -0.0707
22033SOL    HW172445   3.695   3.738  -0.033 -1.1000 -2.5225 -0.9863
22033SOL    HW272446   3.600   3.851   0.002  1.1947  0.2211 -3.0723
22034SOL     OW72447   5.989   0.564   5.498  0.1916 -0.6117  0.3732
22034SOL    HW172448   6.024   0.635   5.552  0.1059 -0.4961  0.2797
22034SOL    HW272449   6.067   0.517   5.467  0.2939 -0.0948 -0.1842
22035SOL     OW72450   3.940   8.868   7.275 -0.1804 -0.1220 -1.1041
22035SOL    HW172451   3.939   8.868   7.370 -0.6678 -1.0052 -1.0980
22035SOL    HW272452   3.949   8.960   7.250  0.9709  0.0231 -0.2067
22036SOL     OW72453   0.204   5.965   1.912  0.5963  0.0418 -0.0387
22036SOL    HW172454   0.214   6.056   1.884  1.0744 -0.3645 -1.2714
22036SOL    HW272455   0.212   5.915   1.831 -0.8947 -1.0273  0.4310
22037SOL     OW72456   3.275   8.180   8.744 -0.0781 -0.1807  0.9489
22037SOL    HW172457   3.202   8.152   8.799 -1.0381  0.4919  0.0547
22037SOL    HW272458   3.337   8.221   8.805 -0.2656 -1.0975  1.7690
22038SOL     OW72459   2.828   0.641   8.417  0.0485  0.0520 -0.0911
22038SOL    HW172460   2.812   0.665   8.326  0.5730  0.0554 -0.1804
22038SOL    HW272461   2.829   0.724   8.465  0.2478  0.0859 -0.1543
22039SOL     OW72462   2.768   1.393   1.672 -0.5359  0.2620  0.8384
22039SOL    HW172463   2.699   1.411   1.736 -0.8800 -1.4756  1.0058
22039SOL    HW272464   2.755   1.302   1.647  0.6376  0.4106 -0.4609
22040SOL     OW72465   0.854   0.336   7.555 -0.4002 -0.2540  0.2968
22040SOL    HW172466   0.919   0.299   7.615 -0.9107 -0.4944  0.7177
22040SOL    HW272467   0.855   0.430   7.574 -0.3603 -0.2916  0.4847
22041SOL     OW72468   4.062   3.489   6.896  0.0995  0.2328 -0.1452
22041SOL    HW172469   4.042   3.486   6.990  1.1081 -0.4094  0.0681
22041SOL    HW272470   3.977   3.487   6.853 -0.4452  1.8118  0.7645
22042SOL     OW72471   2.346   4.750   1.523  0.2938 -0.1053  0.0342
22042SOL    HW172472   2.321   4.787   1.608 -0.1757  0.8710 -0.5141
22042SOL    HW272473   2.357   4.656   1.540 -1.7989 -0.2703  0.7455
22043SOL     OW72474   7.643   7.817   5.663 -0.0687  0.0593  0.0443
22043SOL    HW172475   7.723   7.867   5.646 -1.6746  2.9692  0.3467
22043SOL    HW272476   7.658   7.775   5.748  0.7760  1.4083  0.5893
22044SOL     OW72477   8.571   1.427   5.713 -0.5406  0.1552  0.6405
22044SOL    HW172478   8.521   1.370   5.655 -0.9137 -0.1715  1.2774
22044SOL    HW272479   8.630   1.369   5.761 -1.2362  0.2285  1.6165
22045SOL     OW72480   2.611   4.208   4.800 -0.7041 -1.2553 -1.0176
22045SOL    HW172481   2.693   4.239   4.837 -1.6055 -0.6874  0.6293
22045SOL    HW272482   2.609   4.114   4.820  0.3494 -1.6929 -2.7389
22046SOL     OW72483   2.563   7.543   1.067 -0.2132  0.0571 -0.7198
22046SOL    HW172484   2.529   7.545   1.156 -2.4081  0.2168 -1.5022
22046SOL    HW272485   2.578   7.450   1.049 -2.7611 -0.3410 -1.1740
22047SOL     OW72486   5.279   4.633   2.493  0.8328 -0.2675  0.2472
22047SOL    HW172487   5.240   4.613   2.578  2.9034 -0.7189  1.1388
22047SOL    HW272488   5.335   4.558   2.474  1.1176  0.2570 -1.0835
22048SOL     OW72489   9.130   8.884   8.939 -0.0433  0.1066 -0.2583
22048SOL    HW172490   9.118   8.807   8.995 -1.1272  0.4013 -0.0672
22048SOL    HW272491   9.225   8.891   8.928  0.0882 -1.1063 -0.0677
22049SOL     OW72492   0.657   2.735   6.290 -0.1823 -0.3650  0.8269
22049SOL    HW172493   0.673   2.817   6.243 -0.6268  0.1431  1.5443
22049SOL    HW272494   0.623   2.675   6.224  2.2390 -0.7174 -0.2324
22050SOL     OW72495   3.221   3.163   0.112  0.4460 -0.9499  0.0341
22050SOL    HW172496   3.171   3.120   0.181 -0.1849 -0.1113  0.1160
22050SOL    HW272497   3.311   3.134   0.126  0.0748 -2.0617  0.2060
22051SOL     OW72498   1.475   6.979   7.328  0.2925 -0.0788 -0.0715
22051SOL    HW172499   1.495   7.063   7.368  2.9107 -0.6513 -0.0170
22051SOL    HW272500   1.511   6.914   7.388 -2.5458 -1.3978  0.4037
22052SOL     OW72501   7.495   1.865   7.313 -0.0569  0.6026  0.3365
22052SOL    HW172502   7.429   1.884   7.380  0.8974  1.5911  1.0264
22052SOL    HW272503   7.454   1.894   7.231 -0.6653  0.7677  0.6892
22053SOL     OW72504   1.973   2.875   4.482  0.2797 -0.1904 -0.0791
22053SOL    HW172505   1.912   2.900   4.413  0.3720 -0.7911 -0.3820
22053SOL    HW272506   1.932   2.906   4.562 -0.9063 -1.4334 -0.1637
22054SOL     OW72507   7.348   4.990   4.183 -0.4316 -0.0950 -0.3005
22054SOL    HW172508   7.328   5.079   4.212 -0.9979  0.4887 -2.3717
22054SOL    HW272509   7.349   4.939   4.264 -1.8583  1.4534  0.7627
22055SOL     OW72510   5.602   7.615   3.601 -0.0647  0.3945 -0.2897
22055SOL    HW172511   5.520   7.610   3.552 -0.2842 -0.5848  0.1488
22055SOL    HW272512   5.656   7.545   3.565 -0.2085 -0.3099  0.7996
22056SOL     OW72513   6.645   9.120   6.629  0.5189  0.1041 -0.7961
22056SOL    HW172514   6.622   9.053   6.565 -0.5754 -0.0934 -0.2250
22056SOL    HW272515   6.638   9.076   6.714 -0.3209  0.9420 -0.4038
22057SOL     OW72516   0.368   6.759   7.812  0.0356 -0.0408 -0.0328
22057SOL    HW172517   0.354   6.664   7.815  1.1931 -0.2167 -0.0337
22057SOL    HW272518   0.296   6.794   7.865 -0.1366 -0.9454  0.3640
22058SOL     OW72519   5.032   1.931   4.303 -0.0975 -0.1933  0.0866
22058SOL    HW172520   5.090   1.986   4.251 -2.0494 -0.0408 -2.0837
22058SOL    HW272521   4.947   1.939   4.261 -1.0382 -2.8604  1.2373
22059SOL     OW72522   5.257   3.949   6.998 -0.1810 -0.3509 -0.5850
22059SOL    HW172523   5.162   3.940   6.993 -0.3149 -0.7827  1.5851
22059SOL    HW272524   5.291   3.864   6.972 -0.5069 -0.8758  0.6652
22060SOL     OW72525   7.437   5.818   6.154  0.1280 -0.1319  0.4301
22060SOL    HW172526   7.353   5.774   6.164 -0.6981  0.9920 -1.1894
22060SOL    HW272527   7.485   5.765   6.091 -0.7062  0.9908 -1.2041
22061SOL     OW72528   4.817   5.855   3.978 -0.0362  0.2243  0.4517
22061SOL    HW172529   4.834   5.841   3.885  1.3331 -0.9093  0.8288
22061SOL    HW272530   4.815   5.950   3.988  1.0059  0.3775 -0.5577
22062SOL     OW72531   8.700   4.709   8.996  0.3478  0.3432  0.3145
22062SOL    HW172532   8.729   4.631   9.043  0.0794  0.7762  1.2275
22062SOL    HW272533   8.780   4.762   8.987  0.3765  0.3187  0.4191
22063SOL     OW72534   8.079   4.209   7.956  0.6061 -0.2053  0.4452
22063SOL    HW172535   8.117   4.185   8.040 -0.5826  0.7365  1.2959
22063SOL    HW272536   8.027   4.288   7.975  1.3216  0.7828 -1.4289
22064SOL     OW72537   4.791   7.455   7.408 -0.3416 -0.0570  0.0607
22064SOL    HW172538   4.731   7.394   7.450  1.3645 -0.1431  2.5488
22064SOL    HW272539   4.845   7.399   7.350  0.1378 -0.6899  1.0875
22065SOL     OW72540   8.859   4.475   5.467  0.6109 -0.3336  0.1559
22065SOL    HW172541   8.814   4.486   5.383  0.7849 -2.4631 -0.2904
22065SOL    HW272542   8.894   4.562   5.487 -0.6486  0.5526 -1.2523
22066SOL     OW72543   4.096   1.544   6.241  0.1776  0.0326 -0.1991
22066SOL    HW172544   4.137   1.457   6.240 -0.0943 -0.0942 -0.3339
22066SOL    HW272545   4.111   1.578   6.153  0.2712  0.1166 -0.1507
22067SOL     OW72546   8.684   2.626   8.358 -0.0468  0.0864 -0.8032
22067SOL    HW172547   8.689   2.630   8.262  0.8967  0.9544 -0.7392
22067SOL    HW272548   8.609   2.570   8.376 -0.3209  0.0222 -2.0521
22068SOL     OW72549   4.404   0.338   0.235  0.0413  0.8095 -0.2715
22068SOL    HW172550   4.368   0.251   0.218  0.9424 -0.0160  1.6647
22068SOL    HW272551   4.498   0.324   0.239  0.1996  1.8954 -0.0096
22069SOL     OW72552   3.124   4.839   6.866 -0.6533  0.0571 -0.4329
22069SOL    HW172553   3.220   4.842   6.870 -0.5548 -2.4461  0.6522
22069SOL    HW272554   3.096   4.848   6.957 -1.4222  0.0332 -0.6560
22070SOL     OW72555   5.636   5.893   4.724  0.1056  0.0299  0.2498
22070SOL    HW172556   5.732   5.892   4.722  0.0943 -0.7798 -0.5088
22070SOL    HW272557   5.614   5.867   4.813  0.5844  0.4228  0.4931
22071SOL     OW72558   4.781   1.742   2.056 -0.3831 -0.0832  0.2194
22071SOL    HW172559   4.726   1.665   2.042 -1.7041  0.9218 -0.4107
22071SOL    HW272560   4.720   1.811   2.083  0.6052  1.0042 -0.1946
22072SOL     OW72561   3.437   4.811   8.391  0.2165 -0.1952 -0.2102
22072SOL    HW172562   3.532   4.803   8.395  0.2391 -1.5828 -2.0843
22072SOL    HW272563   3.421   4.873   8.319 -0.3021 -0.6742 -0.5123
22073SOL     OW72564   3.775   0.983   6.657 -0.5191 -0.4468  0.7166
22073SOL    HW172565   3.710   0.914   6.672 -1.5571  0.4543  0.4239
22073SOL    HW272566   3.777   1.032   6.739 -0.1181 -0.5380  0.7634
22074SOL     OW72567   0.566   2.320   3.173 -0.3849 -0.3446 -0.0902
22074SOL    HW172568   0.543   2.246   3.229 -1.0044 -1.5881 -1.8847
22074SOL    HW272569   0.494   2.326   3.110  0.5619  0.5845 -1.1365
22075SOL     OW72570   2.867   6.870   5.457  0.0760 -0.4392  0.3801
22075SOL    HW172571   2.961   6.856   5.461  0.4427  1.4837 -0.3796
22075SOL    HW272572   2.835   6.800   5.400  1.1599 -0.6496  0.0120
22076SOL     OW72573   1.807   0.078   0.063 -0.3942  0.4568  0.1778
22076SOL    HW172574   1.732   0.065   0.004  1.1184 -1.4434 -1.4718
22076SOL    HW272575   1.813  -0.004   0.112  0.0751  0.9498  0.9637
22077SOL     OW72576   9.128   3.506   7.277 -0.3853 -0.1111  0.4484
22077SOL    HW172577   9.196   3.562   7.314  0.2058  0.7309 -1.7555
22077SOL    HW272578   9.046   3.543   7.310  0.0449  1.5561 -0.2399
22078SOL     OW72579   3.019   1.204   3.002 -0.0018  0.1578  0.1445
22078SOL    HW172580   3.113   1.206   3.015  0.0752  1.3032 -0.4390
22078SOL    HW272581   2.983   1.249   3.079  0.0053  0.7688 -0.2091
22079SOL     OW72582   6.764   3.687   8.472 -0.0401 -0.0279 -0.9400
22079SOL    HW172583   6.785   3.596   8.494  1.6164  0.5730  0.1656
22079SOL    HW272584   6.775   3.693   8.378  1.0098 -0.7086 -0.8739
22080SOL     OW72585   8.923   2.851   7.165  0.1689  0.4942  0.2613
22080SOL    HW172586   8.846   2.907   7.163  0.9107  1.6703  1.8438
22080SOL    HW272587   8.939   2.836   7.258  2.5394  1.3168  0.0480
22081SOL     OW72588   5.682   8.029   0.523  0.1940  0.4995  0.2084
22081SOL    HW172589   5.622   7.972   0.571  0.2358  0.1776 -0.1162
22081SOL    HW272590   5.672   8.002   0.432  0.1204  1.0975  0.0368
22082SOL     OW72591   1.167   5.620   6.294  0.2420 -0.3011  0.3704
22082SOL    HW172592   1.256   5.622   6.259  0.4812 -1.7032  0.8767
22082SOL    HW272593   1.166   5.689   6.361  1.2630 -0.9610  1.0857
22083SOL     OW72594   6.413   8.002   0.616  0.4929 -0.1894  0.9259
22083SOL    HW172595   6.317   8.000   0.613  0.4721  1.2483 -0.3411
22083SOL    HW272596   6.435   8.094   0.626  1.7558 -0.5659  1.9032
22084SOL     OW72597   6.987   0.701   3.763  0.6688 -0.3116 -0.1450
22084SOL    HW172598   7.080   0.702   3.741  0.7113  0.0887  0.0576
22084SOL    HW272599   6.984   0.721   3.856  0.4422 -1.3051  0.0747
22085SOL     OW72600   2.101   5.807   7.775 -0.2975  0.0214  0.0528
22085SOL    HW172601   2.019   5.794   7.727 -0.3634  0.8298 -0.0656
22085SOL    HW272602   2.156   5.733   7.748 -0.3703  0.4057 -1.2077
22086SOL     OW72603   8.551   4.089   7.406 -0.2013 -0.4456 -0.0856
22086SOL    HW172604   8.597   4.149   7.465 -1.0353 -0.4760  0.6080
22086SOL    HW272605   8.479   4.055   7.458 -0.9684 -0.4605 -1.1264
22087SOL     OW72606   6.322   3.499   7.459 -0.5957 -0.0202  0.2550
22087SOL    HW172607   6.232   3.526   7.479 -0.7173 -0.6530  0.5835
22087SOL    HW272608   6.316   3.464   7.370 -0.5874  0.3519  0.1093
22088SOL     OW72609   5.676   1.227   6.578 -0.0356 -0.4516  0.0913
22088SOL    HW172610   5.609   1.206   6.514  0.6763 -0.1842 -0.7544
22088SOL    HW272611   5.691   1.321   6.568 -0.4280 -0.2525  1.1583
22089SOL     OW72612   7.611   2.092   2.005  0.7060 -0.0441 -0.4647
22089SOL    HW172613   7.644   2.003   2.020  0.7351  0.1608  0.7835
22089SOL    HW272614   7.532   2.080   1.954  0.3742 -0.8447  0.2128
22090SOL     OW72615   7.048   3.068   6.073 -0.1028  0.2148  0.0403
22090SOL    HW172616   7.103   2.990   6.063 -0.2398  0.1329 -0.0799
22090SOL    HW272617   6.962   3.041   6.042 -0.4808  0.0389  1.2080
22091SOL     OW72618   7.914   1.802   5.627  0.1802  0.2315 -0.3171
22091SOL    HW172619   7.958   1.812   5.543  0.1845  0.9139 -0.2411
22091SOL    HW272620   7.961   1.731   5.671  1.1034  0.8360 -0.3006
22092SOL     OW72621   2.876   6.601   3.940 -0.4221  0.0717  0.2137
22092SOL    HW172622   2.855   6.538   4.009 -3.7248 -0.1307 -0.8192
22092SOL    HW272623   2.910   6.677   3.987 -1.9199 -0.3134  2.0501
22093SOL     OW72624   3.104   0.501   7.898 -0.1095  0.1841 -0.3547
22093SOL    HW172625   3.169   0.434   7.921 -2.1272 -1.7026  0.1112
22093SOL    HW272626   3.069   0.473   7.813 -0.3476  1.1614 -0.5872
22094SOL     OW72627   3.648   6.073   6.553 -0.4855 -0.3319 -0.2085
22094SOL    HW172628   3.732   6.026   6.550 -0.4722 -0.4254  0.9690
22094SOL    HW272629   3.645   6.110   6.641 -1.9195 -0.7626 -0.0608
22095SOL     OW72630   6.596   3.300   1.439  0.0430  0.0108  1.0412
22095SOL    HW172631   6.554   3.260   1.515  1.7749 -3.0685  0.5749
22095SOL    HW272632   6.649   3.372   1.475 -2.7887  1.7515  2.0062
22096SOL     OW72633   0.741   1.115   8.444 -0.1713 -0.1536  0.1480
22096SOL    HW172634   0.769   1.206   8.447 -3.3661  0.9605  2.4406
22096SOL    HW272635   0.656   1.118   8.400 -0.3756 -1.9845  0.3382
22097SOL     OW72636   8.121   8.866   8.876 -0.6808 -0.7809 -0.5683
22097SOL    HW172637   8.102   8.772   8.876 -0.0525 -0.9099 -0.3339
22097SOL    HW272638   8.039   8.906   8.847 -1.3186 -1.3272  0.3990
22098SOL     OW72639   0.993   4.200   7.188 -0.0778  0.1932  0.4232
22098SOL    HW172640   0.935   4.142   7.237  0.4412 -0.6057  0.1130
22098SOL    HW272641   1.021   4.149   7.112 -0.9973  1.4638 -0.8266
22099SOL     OW72642   1.609   2.792   1.828 -0.0984 -0.1006  0.0494
22099SOL    HW172643   1.677   2.860   1.827  0.7817 -0.9014  1.6452
22099SOL    HW272644   1.657   2.710   1.819 -1.1392 -0.5714 -1.7563
22100SOL     OW72645   4.701   8.392   2.761 -0.0440  0.8795 -0.1441
22100SOL    HW172646   4.637   8.451   2.722  0.5515  1.5292 -0.1495
22100SOL    HW272647   4.738   8.344   2.687 -1.5550 -0.5914 -0.0252
22101SOL     OW72648   3.046   6.315   7.771  0.0217  0.3426  0.2465
22101SOL    HW172649   3.014   6.331   7.683  0.8700  1.8205  0.1584
22101SOL    HW272650   2.987   6.250   7.808  0.4600 -1.3278 -1.8584
22102SOL     OW72651   0.764   2.273   1.584 -0.1125 -0.5275  0.1784
22102SOL    HW172652   0.811   2.304   1.662 -0.5994  2.5152 -0.5837
22102SOL    HW272653   0.830   2.271   1.515  0.3835 -3.5084  0.6171
22103SOL     OW72654   0.070   1.250   1.779 -0.2014  0.2576 -0.3221
22103SOL    HW172655   0.048   1.342   1.795  0.1787  0.2359  0.3660
22103SOL    HW272656  -0.014   1.209   1.758 -0.5643  0.5261  0.5484
22104SOL     OW72657   3.952   8.919   2.516  0.4964 -0.2954  0.2711
22104SOL    HW172658   3.941   9.006   2.556  2.3976 -0.9067  2.3057
22104SOL    HW272659   3.917   8.858   2.581  1.3720 -1.1910 -0.0736
22105SOL     OW72660   6.052   7.812   3.954  0.2699  0.0066  0.2368
22105SOL    HW172661   6.136   7.778   3.985  0.1567  0.3979  1.0172
22105SOL    HW272662   6.007   7.841   4.034  0.5347  2.3519 -0.3835
22106SOL     OW72663   5.258   8.612   6.844 -1.1682  0.0880 -0.2907
22106SOL    HW172664   5.319   8.682   6.819  2.9418 -1.6777  3.3387
22106SOL    HW272665   5.257   8.553   6.769  1.0777  0.6031 -0.7966
22107SOL     OW72666   3.594   7.726   0.770 -0.6457  0.0760 -0.0984
22107SOL    HW172667   3.553   7.763   0.848  2.3465  1.8060  0.8148
22107SOL    HW272668   3.580   7.631   0.777 -2.0944  0.3791  1.4885
22108SOL     OW72669   4.256   9.095   4.146  0.1651  0.7619 -0.8570
22108SOL    HW172670   4.291   9.165   4.091  0.9346  2.8707  2.0594
22108SOL    HW272671   4.170   9.126   4.174 -0.3937 -0.4497 -1.1500
22109SOL     OW72672   8.078   1.272   2.853 -0.5584  0.7328 -0.2275
22109SOL    HW172673   8.021   1.306   2.923 -0.8261 -1.0223  0.4576
22109SOL    HW272674   8.025   1.205   2.811  0.7852 -0.5191  0.0343
22110SOL     OW72675   7.191   5.977   2.777 -0.0161  0.1763 -0.1949
22110SOL    HW172676   7.132   5.926   2.722 -1.3405  0.4852  0.8777
22110SOL    HW272677   7.229   6.043   2.719 -1.8207  0.8640 -0.6563
22111SOL     OW72678   1.911   4.322   4.051 -0.1328 -0.4339  0.2526
22111SOL    HW172679   1.985   4.379   4.033 -0.8732  0.0339 -1.4378
22111SOL    HW272680   1.858   4.324   3.971 -1.5310 -1.4254  1.1039
22112SOL     OW72681   1.234   5.084   2.381 -0.3238  0.2273  0.1636
22112SOL    HW172682   1.288   5.161   2.402  0.4159  0.2998 -1.7858
22112SOL    HW272683   1.170   5.079   2.452  0.9236  1.4057  1.4307
22113SOL     OW72684   9.067   0.458   8.077  0.6495  0.0629  0.2351
22113SOL    HW172685   9.035   0.385   8.130 -0.0290 -0.3353 -0.6959
22113SOL    HW272686   9.160   0.439   8.064  1.1668  0.8497  2.3539
22114SOL     OW72687   2.076   5.727   7.022  1.0717  0.6209  0.4145
22114SOL    HW172688   2.158   5.701   6.981  0.4269 -0.0004 -0.5267
22114SOL    HW272689   2.059   5.815   6.987 -0.2539 -0.4845 -2.0001
22115SOL     OW72690   8.752   4.644   6.908 -0.2205 -0.3598 -0.5413
22115SOL    HW172691   8.771   4.697   6.986 -1.4132  1.1516 -1.2099
22115SOL    HW272692   8.689   4.579   6.938 -1.0836  0.5483 -0.3202
22116SOL     OW72693   7.080   7.031   7.830 -0.1008  0.0454  0.1782
22116SOL    HW172694   7.103   7.031   7.923  1.8517  0.0807 -0.2578
22116SOL    HW272695   7.079   7.123   7.806  1.6320 -0.0224 -0.2946
22117SOL     OW72696   7.681   0.220   0.147 -0.1004 -0.4963  0.2139
22117SOL    HW172697   7.722   0.232   0.061  3.6824 -1.1621  1.7075
22117SOL    HW272698   7.622   0.145   0.136 -1.5284  0.8992 -2.2713
22118SOL     OW72699   8.804   3.273   7.124  0.2005  0.1310  0.2757
22118SOL    HW172700   8.886   3.253   7.169  0.1135 -1.3991 -0.1728
22118SOL    HW272701   8.828   3.275   7.031 -0.5319 -2.2981 -0.0551
22119SOL     OW72702   5.560   6.685   1.597  0.3632 -0.3876  0.0031
22119SOL    HW172703   5.587   6.594   1.609 -0.0678 -0.5256 -0.0727
22119SOL    HW272704   5.608   6.733   1.665 -1.1508 -0.9892  1.5560
22120SOL     OW72705   8.197   5.472   7.120  0.7660  0.4563  0.8583
22120SOL    HW172706   8.252   5.551   7.122  0.3089  0.8422 -0.5753
22120SOL    HW272707   8.108   5.506   7.126  0.4055  0.3166 -2.1602
22121SOL     OW72708   3.698   5.442   6.886 -0.2234  0.1170  0.2015
22121SOL    HW172709   3.699   5.490   6.969  0.0397  0.2088  0.1472
22121SOL    HW272710   3.734   5.504   6.823 -0.4519  0.0570  0.0123
22122SOL     OW72711   3.697   0.710   8.475 -0.0666 -0.2029 -0.5571
22122SOL    HW172712   3.691   0.616   8.494  1.2822 -0.0735  0.6760
22122SOL    HW272713   3.697   0.752   8.561 -1.7125  1.0370 -1.1176
22123SOL     OW72714   6.529   8.828   3.654 -0.1609  0.5369 -0.1742
22123SOL    HW172715   6.557   8.840   3.745 -2.2494  1.7290  0.3963
22123SOL    HW272716   6.610   8.836   3.603  0.9277  0.8874  1.5049
22124SOL     OW72717   4.251   3.576   4.249  1.2565 -0.6123 -0.4463
22124SOL    HW172718   4.170   3.575   4.197  0.2542 -0.1203  1.0430
22124SOL    HW272719   4.271   3.484   4.263 -0.0201 -0.7484  0.5977
22125SOL     OW72720   1.521   0.957   4.673  0.7979 -0.2139  0.9399
22125SOL    HW172721   1.601   1.008   4.663  1.7330 -1.5911  1.1104
22125SOL    HW272722   1.478   0.963   4.588  0.6572  1.1870  1.0839
22126SOL     OW72723   1.631   5.414   6.666 -0.6706  0.6742  0.3400
22126SOL    HW172724   1.597   5.456   6.587  1.3169 -0.8968 -1.4551
22126SOL    HW272725   1.565   5.433   6.733 -2.9626  1.1971 -1.9139
22127SOL     OW72726   2.602   6.076   2.809 -0.1849 -0.0382 -0.4273
22127SOL    HW172727   2.650   6.079   2.727  0.2724 -1.4588 -0.2335
22127SOL    HW272728   2.518   6.037   2.787  0.4567 -1.7127 -0.0077
22128SOL     OW72729   5.060   0.497   0.488 -0.5981  0.2428 -0.1424
22128SOL    HW172730   5.144   0.518   0.528  0.7822 -1.5988 -1.8646
22128SOL    HW272731   5.082   0.442   0.413 -3.3779 -0.6379 -0.4349
22129SOL     OW72732   9.092   8.549   1.784 -0.6048  0.2262  0.5307
22129SOL    HW172733   9.080   8.568   1.691 -1.2519  0.6638  0.6973
22129SOL    HW272734   9.004   8.555   1.821 -0.7779 -2.3795  0.7424
22130SOL     OW72735   8.338   3.237   3.686  0.0526 -0.5816  0.3875
22130SOL    HW172736   8.258   3.201   3.725  0.0014 -0.7558  0.1240
22130SOL    HW272737   8.407   3.216   3.748 -0.2770  0.5287  1.1579
22131SOL     OW72738   6.485   8.236   1.708 -0.2805  0.2793  0.1809
22131SOL    HW172739   6.428   8.198   1.641 -1.9254  0.7370  1.2623
22131SOL    HW272740   6.509   8.162   1.764  1.0215 -0.0869 -0.8088
22132SOL     OW72741   5.311   7.455   6.178  0.6281 -0.6762 -0.3158
22132SOL    HW172742   5.236   7.503   6.144  1.4207  0.8306 -0.0304
22132SOL    HW272743   5.386   7.509   6.155  1.3728 -0.6954  1.8966
22133SOL     OW72744   2.509   1.289   5.099  0.1210  0.1572  0.1355
22133SOL    HW172745   2.565   1.238   5.157 -0.0351  0.4251  0.5261
22133SOL    HW272746   2.473   1.224   5.038  0.9511  0.0043 -0.2028
22134SOL     OW72747   6.987   3.961   3.765 -0.5560  0.2705 -0.2321
22134SOL    HW172748   6.939   3.881   3.782 -1.4280  0.4581 -1.6524
22134SOL    HW272749   6.921   4.022   3.730  0.6751  0.5342 -2.2320
22135SOL     OW72750   4.012   4.550   6.548  0.0692 -0.3641 -0.4014
22135SOL    HW172751   4.024   4.554   6.453 -0.2568 -0.8938 -0.4718
22135SOL    HW272752   4.002   4.641   6.575 -2.9802 -0.3087 -1.3227
22136SOL     OW72753   2.580   0.844   7.118 -0.3133 -0.2873  0.2941
22136SOL    HW172754   2.559   0.802   7.035 -1.0789 -1.1522  0.9040
22136SOL    HW272755   2.517   0.807   7.180  0.6825 -0.1654  1.4100
22137SOL     OW72756   8.187   1.330   0.826 -0.0917 -0.1429 -0.2370
22137SOL    HW172757   8.225   1.297   0.908  0.1325 -1.9971 -1.0438
22137SOL    HW272758   8.147   1.254   0.785  0.4675  0.5615 -2.2273
22138SOL     OW72759   1.727   8.633   0.022 -0.2458  0.0844 -0.3175
22138SOL    HW172760   1.691   8.581   0.095 -2.0126  0.6638 -0.7203
22138SOL    HW272761   1.653   8.644  -0.038  0.7128  1.1176 -1.3579
22139SOL     OW72762   6.462   1.487   5.763 -0.2448 -0.0640  0.1117
22139SOL    HW172763   6.422   1.403   5.738 -1.3542  0.3112  0.5376
22139SOL    HW272764   6.463   1.538   5.682 -0.3080 -0.2049  0.0205
22140SOL     OW72765   2.705   0.016   7.498 -0.1814  0.2630  0.2162
22140SOL    HW172766   2.797   0.026   7.474 -0.5453  0.6212 -1.1054
22140SOL    HW272767   2.674  -0.058   7.445 -0.4912 -0.2982  1.1580
22141SOL     OW72768   8.753   6.476   8.626  0.2538  0.1643 -0.2718
22141SOL    HW172769   8.792   6.523   8.553  3.4468 -1.5348  0.1720
22141SOL    HW272770   8.739   6.387   8.593 -0.8996  0.0782  0.3897
22142SOL     OW72771   7.780   5.379   4.979 -0.4617 -0.1663  0.0282
22142SOL    HW172772   7.807   5.470   4.991  1.1111 -0.6202  0.2926
22142SOL    HW272773   7.758   5.348   5.067 -2.0425  0.2348 -0.2038
22143SOL     OW72774   4.915   9.093   0.764 -0.5528 -0.4948  0.0182
22143SOL    HW172775   4.982   9.102   0.832 -1.6451 -0.4230  1.1184
22143SOL    HW272776   4.838   9.137   0.800 -1.0729 -0.1859 -1.4084
22144SOL     OW72777   4.132   7.432   8.714 -0.7397  0.4606 -0.0186
22144SOL    HW172778   4.214   7.415   8.762 -0.1217  1.7232 -0.5759
22144SOL    HW272779   4.091   7.346   8.706  0.4311 -0.1726  0.4554
22145SOL     OW72780   0.852   2.437   5.575  0.4870  0.1473 -0.3191
22145SOL    HW172781   0.918   2.419   5.643  0.3688 -0.5281 -0.3766
22145SOL    HW272782   0.830   2.351   5.540 -2.5672 -0.0473  1.6723
22146SOL     OW72783   1.490   6.087   6.917  0.4339  0.0033 -0.3780
22146SOL    HW172784   1.499   6.003   6.963  2.1635 -0.0686 -0.7641
22146SOL    HW272785   1.424   6.135   6.967  1.3494 -0.5622  1.4629
22147SOL     OW72786   8.266   3.454   5.557 -0.1794 -0.4056 -0.0373
22147SOL    HW172787   8.191   3.513   5.544  0.7860  1.0801  0.7688
22147SOL    HW272788   8.324   3.503   5.615  1.8336 -1.1435 -1.3360
22148SOL     OW72789   2.305   7.369   3.051  0.1578  0.2768 -0.0316
22148SOL    HW172790   2.345   7.390   2.967  0.5239  0.8238  0.2706
22148SOL    HW272791   2.272   7.454   3.083 -0.8966 -0.0929 -0.0956
22149SOL     OW72792   5.578   0.020   3.887 -0.5576 -0.1630 -0.7145
22149SOL    HW172793   5.636  -0.036   3.937  0.4580 -0.2383 -1.9346
22149SOL    HW272794   5.533   0.073   3.953  0.4540 -0.5107  0.2849
22150SOL     OW72795   5.484   4.471   1.735 -0.2960 -0.1049 -0.6268
22150SOL    HW172796   5.530   4.552   1.754  2.5237 -1.6650 -0.2430
22150SOL    HW272797   5.453   4.439   1.820  0.3987 -0.4067 -0.4796
22151SOL     OW72798   4.481   8.028   2.306 -0.2266  0.4783 -0.0226
22151SOL    HW172799   4.460   8.067   2.221 -0.1006  1.5683  0.4248
22151SOL    HW272800   4.452   8.094   2.370 -1.0176 -0.6364  0.8168
22152SOL     OW72801   7.783   6.969   6.768 -0.4132 -0.0988 -0.3343
22152SOL    HW172802   7.725   7.045   6.762  2.5488  2.3829 -0.0409
22152SOL    HW272803   7.856   6.990   6.710  2.0052 -1.2627  2.1064
22153SOL     OW72804   2.497   4.885   0.464 -0.0165  0.1712 -0.4478
22153SOL    HW172805   2.541   4.925   0.539 -0.3490  1.3799 -0.8707
22153SOL    HW272806   2.566   4.836   0.419  0.1869 -0.5556  0.6225
22154SOL     OW72807   6.852   6.487   4.381 -0.5488 -0.0312  0.0228
22154SOL    HW172808   6.801   6.524   4.309  0.9610 -0.9767 -1.6284
22154SOL    HW272809   6.833   6.394   4.379 -1.1226  0.0329  1.4309
22155SOL     OW72810   3.450   3.243   8.784 -0.2818 -0.5442  0.3844
22155SOL    HW172811   3.471   3.315   8.843 -0.3799  0.0478 -0.2857
22155SOL    HW272812   3.478   3.165   8.830  1.7648  0.0662  0.2588
22156SOL     OW72813   1.904   0.311   5.087 -0.1576 -0.1191  0.6097
22156SOL    HW172814   1.929   0.345   5.001  0.0053  0.5832  0.9305
22156SOL    HW272815   1.841   0.241   5.067 -0.5227  0.3795 -0.0630
22157SOL     OW72816   4.332   1.271   8.151 -0.1095 -0.1499  0.4457
22157SOL    HW172817   4.380   1.353   8.148  1.5624 -1.0339  1.6484
22157SOL    HW272818   4.337   1.236   8.061 -2.1570  1.7090 -0.4797
22158SOL     OW72819   1.612   3.418   1.720 -0.2002  0.4159  0.3293
22158SOL    HW172820   1.600   3.340   1.667  0.0079 -0.2399  1.2192
22158SOL    HW272821   1.663   3.477   1.664 -1.4371  0.4350 -0.8192
22159SOL     OW72822   8.149   4.296   3.034  0.0010 -0.4850 -0.0807
22159SOL    HW172823   8.083   4.361   3.011  2.1689  1.2754 -1.6849
22159SOL    HW272824   8.230   4.345   3.044  1.4662 -2.7651  0.0994
22160SOL     OW72825   3.312   8.591   1.290  0.6248  0.5074 -0.1122
22160SOL    HW172826   3.364   8.568   1.212  1.0209  1.3300 -0.1023
22160SOL    HW272827   3.265   8.670   1.264 -0.4216 -0.0808 -0.0213
22161SOL     OW72828   0.320   5.023   6.268  0.1588 -0.0025 -0.4788
22161SOL    HW172829   0.250   5.046   6.330  0.6311 -0.3547  0.1935
22161SOL    HW272830   0.394   4.998   6.323  0.2304 -1.4337 -1.1674
22162SOL     OW72831   9.156   8.474   6.582 -0.1203 -0.3344 -0.6741
22162SOL    HW172832   9.173   8.448   6.491  1.8732 -3.2077  0.3458
22162SOL    HW272833   9.108   8.400   6.618  0.3031  0.1493  0.9308
22163SOL     OW72834   0.935   8.206   5.688 -0.0847 -0.1269  0.3421
22163SOL    HW172835   0.874   8.148   5.642  0.0934  1.4544 -2.1076
22163SOL    HW272836   0.888   8.288   5.697  0.5166  0.1030  1.5343
22164SOL     OW72837   4.150   3.201   1.404  0.5134  0.1372  0.2009
22164SOL    HW172838   4.131   3.276   1.347  0.8185  1.4568  1.7824
22164SOL    HW272839   4.222   3.156   1.361  0.5860  0.9742 -0.5865
22165SOL     OW72840   7.717   5.609   8.232  0.2907 -0.2456  0.3771
22165SOL    HW172841   7.795   5.657   8.205  0.6410 -1.8481 -1.7138
22165SOL    HW272842   7.644   5.667   8.208  0.7852  0.9337  1.6367
22166SOL     OW72843   6.168   2.580   1.668  0.6523 -0.1324  0.3719
22166SOL    HW172844   6.164   2.491   1.633  3.2313 -0.5736  0.9609
22166SOL    HW272845   6.112   2.577   1.746 -0.7726 -0.6560 -0.6220
22167SOL     OW72846   7.020   1.503   1.218  0.2633 -0.0144 -0.7523
22167SOL    HW172847   7.082   1.437   1.189 -0.4024 -0.4570 -1.1845
22167SOL    HW272848   6.969   1.525   1.140 -1.8564 -1.5462  0.0968
22168SOL     OW72849   2.217   3.916   2.667 -0.3376  0.3897  0.7484
22168SOL    HW172850   2.124   3.898   2.685 -0.7191  0.7456 -0.7520
22168SOL    HW272851   2.226   4.010   2.683 -0.9653  0.9636 -1.8365
22169SOL     OW72852   8.690   8.960   1.582  0.0545  0.6503  0.4203
22169SOL    HW172853   8.639   8.914   1.516  0.9522 -0.2082  0.3100
22169SOL    HW272854   8.729   9.034   1.536 -1.6652  1.7772  0.6748
22170SOL     OW72855   7.812   5.835   2.585 -0.0380 -0.0750 -0.2170
22170SOL    HW172856   7.847   5.913   2.541 -0.4226 -0.0505 -0.4909
22170SOL    HW272857   7.718   5.851   2.588 -0.2686 -1.0949 -1.3993
22171SOL     OW72858   1.308   3.420   5.139 -0.0941 -0.1943 -0.6879
22171SOL    HW172859   1.403   3.413   5.144 -0.1015 -0.3855 -0.8222
22171SOL    HW272860   1.284   3.370   5.061 -0.1970  0.7626 -1.2996
22172SOL     OW72861   0.818   3.486   0.001  0.7031 -0.3342  0.0070
22172SOL    HW172862   0.856   3.473   0.088 -1.4850  0.5396  1.1888
22172SOL    HW272863   0.782   3.400  -0.022 -0.4999 -0.1064  0.9371
22173SOL     OW72864   8.848   0.209   3.607  0.1971 -0.3613  0.4314
22173SOL    HW172865   8.936   0.176   3.590 -0.1362 -1.3356  0.5240
22173SOL    HW272866   8.819   0.162   3.686 -0.7137 -0.6840 -0.0777
22174SOL     OW72867   0.190   0.879   4.512  0.2136 -0.1399 -0.5579
22174SOL    HW172868   0.234   0.861   4.430 -0.4313 -1.6298 -0.6048
22174SOL    HW272869   0.097   0.884   4.489 -0.0670 -1.4904  0.1986
22175SOL     OW72870   1.274   6.160   1.704  0.2609  0.6233  0.2680
22175SOL    HW172871   1.278   6.197   1.792  1.1392  2.8123 -0.6139
22175SOL    HW272872   1.199   6.203   1.664  0.2741  0.1565 -0.2684
22176SOL     OW72873   5.826   7.661   8.294 -0.6314  0.3456  0.3105
22176SOL    HW172874   5.909   7.710   8.300  0.0994 -0.7386 -0.5452
22176SOL    HW272875   5.785   7.673   8.380 -0.0063  1.6146  0.4586
22177SOL     OW72876   6.724   5.702   0.732 -0.4937 -0.1861  0.4942
22177SOL    HW172877   6.679   5.787   0.728 -1.9770 -0.9292  0.8419
22177SOL    HW272878   6.672   5.650   0.793  0.3966 -1.3590  0.2872
22178SOL     OW72879   2.259   2.890   5.580 -0.8766  0.7676  0.3770
22178SOL    HW172880   2.223   2.810   5.618  0.2011 -0.3753 -0.9134
22178SOL    HW272881   2.211   2.900   5.498 -1.1106  1.5462  0.6029
22179SOL     OW72882   3.068   0.154   8.589  0.2434  0.5465 -0.2840
22179SOL    HW172883   3.124   0.217   8.543 -0.7659  1.7844  0.1351
22179SOL    HW272884   3.031   0.204   8.662  1.1825 -1.1453  1.4438
22180SOL     OW72885   5.345   5.249   6.661  0.6951 -0.1459  0.5851
22180SOL    HW172886   5.295   5.187   6.715 -2.0913  0.8502 -0.6633
22180SOL    HW272887   5.366   5.321   6.721  1.2347 -0.8561  1.2765
22181SOL     OW72888   6.005   0.085   1.725  0.9140  0.4023 -0.5004
22181SOL    HW172889   5.971   0.166   1.763  2.2679  0.7639 -0.0154
22181SOL    HW272890   5.928   0.040   1.692 -0.0602  1.0659  0.7997
22182SOL     OW72891   1.882   4.341   2.165 -0.2696 -0.4560 -0.3459
22182SOL    HW172892   1.912   4.355   2.254  0.2916  0.1841 -0.6207
22182SOL    HW272893   1.814   4.408   2.152  0.0565 -0.1663 -0.5803
22183SOL     OW72894   0.675   3.405   6.381 -0.4326 -0.0327 -0.3702
22183SOL    HW172895   0.751   3.456   6.408 -0.1396  0.1561 -1.5191
22183SOL    HW272896   0.630   3.461   6.318 -1.6165 -0.0818  0.3982
22184SOL     OW72897   9.074   7.773   1.334 -0.0407  0.0986  0.1786
22184SOL    HW172898   9.090   7.752   1.242 -0.8447 -1.6202  0.3877
22184SOL    HW272899   9.153   7.743   1.380  0.3146  0.8575  0.0821
22185SOL     OW72900   0.349   7.181   4.575 -0.3768  0.1713  0.3389
22185SOL    HW172901   0.292   7.185   4.651  0.5788 -1.7983  1.2154
22185SOL    HW272902   0.418   7.245   4.593 -0.7340  0.4842  0.6100
22186SOL     OW72903   7.210   7.000   5.682 -0.3301  0.1911 -0.4093
22186SOL    HW172904   7.213   7.088   5.719 -1.0172  0.5667 -1.2218
22186SOL    HW272905   7.155   7.008   5.604 -2.8277 -1.5346  1.0205
22187SOL     OW72906   5.412   3.453   4.666 -0.4433 -0.2860 -0.5113
22187SOL    HW172907   5.468   3.511   4.615  0.6514  0.1461  1.1021
22187SOL    HW272908   5.472   3.388   4.704 -1.3719 -1.2505 -0.6254
22188SOL     OW72909   5.211   3.088   1.145  0.0525  0.1960  0.5305
22188SOL    HW172910   5.246   3.066   1.231  1.1632  0.1769  0.0940
22188SOL    HW272911   5.276   3.147   1.107 -0.6731  0.6117 -0.0979
22189SOL     OW72912   3.617   7.453   0.538 -0.3611 -0.3660 -0.1088
22189SOL    HW172913   3.595   7.438   0.630  0.8859  0.4550  0.3402
22189SOL    HW272914   3.600   7.546   0.524 -0.4576 -0.4662 -0.6918
22190SOL     OW72915   2.681   1.954   4.550  0.5855  0.0297 -0.3749
22190SOL    HW172916   2.651   1.877   4.598  0.4344  0.2549 -0.1053
22190SOL    HW272917   2.604   1.983   4.500  0.5439  0.2031 -0.2136
22191SOL     OW72918   2.193   4.916   4.948  0.0727 -0.2032  0.1842
22191SOL    HW172919   2.100   4.891   4.944 -0.2977  1.1035  0.3211
22191SOL    HW272920   2.193   5.003   4.987  1.3910 -0.2845  0.4111
22192SOL     OW72921   4.816   4.600   2.686 -0.0778 -0.2545  0.2423
22192SOL    HW172922   4.829   4.677   2.630 -0.8912 -0.1021  0.2592
22192SOL    HW272923   4.834   4.632   2.775  0.0558 -0.2078  0.1992
22193SOL     OW72924   3.590   8.407   6.558  0.4419 -0.1626 -0.2499
22193SOL    HW172925   3.581   8.398   6.653  0.7410 -1.1929 -0.3078
22193SOL    HW272926   3.610   8.499   6.545  1.1663 -0.1616  0.7569
22194SOL     OW72927   6.210   4.607   0.169  0.4102  0.3235 -0.2050
22194SOL    HW172928   6.178   4.590   0.080 -0.0702  0.0164  0.0191
22194SOL    HW272929   6.158   4.682   0.199 -0.5863 -0.5720  0.3931
22195SOL     OW72930   3.677   3.952   2.748  0.3448 -0.0516 -0.0724
22195SOL    HW172931   3.679   4.046   2.769 -0.5206 -0.3225  1.3819
22195SOL    HW272932   3.620   3.946   2.672 -2.0838  0.3743  1.5904
22196SOL     OW72933   5.109   7.084   2.525 -0.3815  0.0992 -0.2565
22196SOL    HW172934   5.123   7.054   2.614 -1.6367  1.4023  0.4150
22196SOL    HW272935   5.164   7.162   2.516 -0.1714 -0.0885 -0.6825
22197SOL     OW72936   0.203   4.264   6.237  0.1480  0.2409 -0.4869
22197SOL    HW172937   0.260   4.337   6.213 -0.9527  1.5821  0.7585
22197SOL    HW272938   0.118   4.286   6.197  0.5973 -2.0821 -2.9430
22198SOL     OW72939   0.391   2.104   5.923  0.5900 -0.6901 -0.3961
22198SOL    HW172940   0.374   2.012   5.901 -0.1854 -0.0540 -2.6406
22198SOL    HW272941   0.486   2.112   5.921  0.6126 -1.1044 -1.8064
22199SOL     OW72942   8.675   5.912   1.021 -0.1503  0.3492 -0.6633
22199SOL    HW172943   8.714   5.956   0.945  0.7229  0.5236 -0.1240
22199SOL    HW272944   8.729   5.834   1.033  1.8642  1.9707  1.7712
22200SOL     OW72945   6.076   1.769   4.970 -0.1477 -0.8099  0.1473
22200SOL    HW172946   6.023   1.700   5.010 -0.7054 -0.5202 -0.0911
22200SOL    HW272947   6.021   1.848   4.975  0.8949 -0.1150  1.4180
22201SOL     OW72948   2.242   0.048   0.872 -0.3661  0.5765 -0.4598
22201SOL    HW172949   2.325   0.067   0.828 -0.1854 -0.3003 -0.5200
22201SOL    HW272950   2.183   0.021   0.802  0.3145 -2.1713 -0.1124
22202SOL     OW72951   0.293   3.272   7.869 -0.0135  0.5194  0.6321
22202SOL    HW172952   0.212   3.233   7.902 -0.9497  1.0339 -0.9748
22202SOL    HW272953   0.308   3.347   7.926 -0.5249  0.2728  1.1018
22203SOL     OW72954   5.895   3.542   6.477  0.3951 -0.5056 -0.2725
22203SOL    HW172955   5.981   3.579   6.456  0.5919 -0.9738 -0.2959
22203SOL    HW272956   5.884   3.557   6.571 -0.0618  0.7106 -0.5013
22204SOL     OW72957   7.825   1.385   0.802 -0.0308 -0.1280 -0.3833
22204SOL    HW172958   7.889   1.314   0.796 -0.0162 -0.4434  2.3594
22204SOL    HW272959   7.789   1.392   0.713  0.9030 -2.6765 -1.0565
22205SOL     OW72960   0.915   3.242   3.904 -0.1570 -0.5340  0.0628
22205SOL    HW172961   0.892   3.220   3.814  0.4864  1.8865 -0.7684
22205SOL    HW272962   0.911   3.159   3.951 -0.2756 -1.9007 -2.2348
22206SOL     OW72963   0.471   7.578   3.394  0.6880  0.0580 -0.0425
22206SOL    HW172964   0.522   7.603   3.471  0.1042 -1.0184  0.7332
22206SOL    HW272965   0.473   7.655   3.337  2.4492  0.3290  0.3381
22207SOL     OW72966   0.251   5.750   0.194  0.1420 -0.7855 -0.0829
22207SOL    HW172967   0.267   5.828   0.246 -0.3384 -0.8017  0.0959
22207SOL    HW272968   0.168   5.767   0.150 -0.0140 -1.2340  0.0347
22208SOL     OW72969   8.111   6.537   6.265 -0.1037 -0.0796  0.0848
22208SOL    HW172970   8.191   6.579   6.232  1.2128 -2.4569  0.0856
22208SOL    HW272971   8.136   6.446   6.280 -2.9216 -0.9885 -0.2251
22209SOL     OW72972   6.910   2.260   4.664  0.0968 -0.1355 -0.6780
22209SOL    HW172973   6.848   2.233   4.732  0.4133  0.2434 -0.2320
22209SOL    HW272974   6.894   2.200   4.591 -0.6045 -0.2177 -0.4645
22210SOL     OW72975   0.379   8.928   3.416 -0.0963  0.1013  0.7404
22210SOL    HW172976   0.402   9.016   3.386 -1.0749  0.5951  1.3612
22210SOL    HW272977   0.437   8.869   3.367  0.7861  1.1067  0.5454
22211SOL     OW72978   7.899   1.494   8.028 -0.4897  0.2464  0.4508
22211SOL    HW172979   7.944   1.559   7.973 -2.8733  0.7782 -1.0434
22211SOL    HW272980   7.818   1.475   7.981 -0.4377 -3.0106  1.4235
22212SOL     OW72981   4.823   2.900   7.015 -0.0504  0.1609  0.6539
22212SOL    HW172982   4.731   2.906   7.042 -0.8320  2.0269 -2.0559
22212SOL    HW272983   4.829   2.813   6.975 -0.9380  0.3985 -0.0443
22213SOL     OW72984   8.810   6.519   8.009 -0.0388  0.1250  0.2054
22213SOL    HW172985   8.738   6.496   7.951  0.0482 -1.3130  0.6249
22213SOL    HW272986   8.865   6.441   8.010  1.9265  1.4126 -0.6618
22214SOL     OW72987   5.457   1.033   4.765  0.2370 -0.1819  0.0070
22214SOL    HW172988   5.446   0.952   4.814 -0.0502 -0.9928 -1.3370
22214SOL    HW272989   5.536   1.019   4.713  0.0127  0.2771 -0.4606
22215SOL     OW72990   0.615   4.977   8.324  0.6975 -0.4261 -0.1206
22215SOL    HW172991   0.693   5.032   8.336  0.5439  0.0861 -1.2358
22215SOL    HW272992   0.624   4.943   8.235  0.7344 -2.1665  0.5168
22216SOL     OW72993   5.700   5.171   7.527 -0.5033  0.6199 -0.6196
22216SOL    HW172994   5.786   5.188   7.564 -0.7257  1.3315 -0.4057
22216SOL    HW272995   5.651   5.251   7.544 -1.4077 -0.0153 -0.1716
22217SOL     OW72996   8.724   0.795   6.989  0.3638  0.1775  0.4813
22217SOL    HW172997   8.740   0.812   6.896 -0.3852 -0.3378  0.2545
22217SOL    HW272998   8.742   0.879   7.031  0.2444  0.5483 -0.1876
22218SOL     OW72999   7.862   3.042   2.657 -0.0620  0.1605 -0.8290
22218SOL    HW173000   7.854   3.036   2.562  1.0339  0.3045 -0.9428
22218SOL    HW273001   7.931   2.979   2.679 -1.1571 -0.7875  0.0154
22219SOL     OW73002   3.941   3.970   8.869 -0.1080 -0.3993  0.0825
22219SOL    HW173003   3.943   4.052   8.821 -0.4700 -1.1590 -1.2980
22219SOL    HW273004   4.001   3.912   8.821 -0.3540 -1.1333  0.6352
22220SOL     OW73005   7.533   0.735   8.671  0.0583  0.2835 -0.4285
22220SOL    HW173006   7.602   0.766   8.730 -0.0759  1.2532 -0.7676
22220SOL    HW273007   7.479   0.678   8.726  1.3542 -0.8257 -0.2635
22221SOL     OW73008   2.231   1.780   5.858  0.0037 -0.0472 -0.1055
22221SOL    HW173009   2.201   1.689   5.852  1.1247 -0.4379  0.0408
22221SOL    HW273010   2.256   1.791   5.949  1.4518 -0.1146 -0.4774
22222SOL     OW73011   7.599   2.589   8.126 -0.3266  0.5726 -0.4895
22222SOL    HW173012   7.681   2.568   8.172 -0.5221 -1.6683 -1.0139
22222SOL    HW273013   7.551   2.645   8.186  1.2475  1.2802  0.1712
22223SOL     OW73014   8.812   4.802   0.352  0.0752 -0.7323  0.2369
22223SOL    HW173015   8.879   4.799   0.420 -0.4985 -0.9061  0.8013
22223SOL    HW273016   8.792   4.711   0.333 -1.1837 -0.7204  1.2807
22224SOL     OW73017   8.944   2.760   6.738  0.3634 -0.3784  0.1449
22224SOL    HW173018   8.941   2.731   6.646  1.7678  0.9639 -0.3791
22224SOL    HW273019   8.926   2.854   6.734 -3.5688 -0.8938  1.7315
22225SOL     OW73020   5.625   5.550   3.903  0.5577 -0.8332  0.1052
22225SOL    HW173021   5.662   5.462   3.899  1.1780 -0.5973  0.4575
22225SOL    HW273022   5.594   5.559   3.993  1.5026 -0.3033  0.3891
22226SOL     OW73023   8.525   7.657   7.410  0.2694  0.0019  0.1845
22226SOL    HW173024   8.510   7.586   7.348  0.6377  1.2301 -1.3723
22226SOL    HW273025   8.535   7.735   7.355 -2.0375  1.6371  1.9012
22227SOL     OW73026   7.660   8.591   7.422 -0.3185  0.2303 -0.5089
22227SOL    HW173027   7.674   8.520   7.484  0.8967 -0.6177 -1.6841
22227SOL    HW273028   7.743   8.639   7.422  0.4345 -0.9025 -2.7710
22228SOL     OW73029   5.971   1.434   5.400 -0.6225 -0.1930  0.2143
22228SOL    HW173030   6.043   1.428   5.338 -0.3419 -1.1893  0.6149
22228SOL    HW273031   6.014   1.440   5.486 -1.0082  0.6949  0.3486
22229SOL     OW73032   5.633   1.420   5.068 -0.1871  0.0249  0.3447
22229SOL    HW173033   5.716   1.372   5.063  0.5858  1.3134  0.3378
22229SOL    HW273034   5.574   1.373   5.009  1.0091 -0.0061 -0.8697
22230SOL     OW73035   4.381   4.037   1.995  0.2663  0.2816  0.1633
22230SOL    HW173036   4.383   3.967   1.929 -1.1837 -0.4075  0.7900
22230SOL    HW273037   4.473   4.056   2.013  0.7006  0.3062 -1.8451
22231SOL     OW73038   8.991   4.595   3.438 -0.0865  1.1392 -0.4787
22231SOL    HW173039   9.078   4.555   3.445 -1.2815 -2.1213 -1.9230
22231SOL    HW273040   8.957   4.594   3.528  0.3407 -0.3196 -0.3004
22232SOL     OW73041   1.805   2.826   2.534 -0.6274  0.0719  0.4448
22232SOL    HW173042   1.788   2.860   2.622  1.7599  1.1177  0.5828
22232SOL    HW273043   1.746   2.876   2.478  1.2064  3.0635  0.9329
22233SOL     OW73044   0.743   2.559   8.503 -0.2043 -0.5370  0.2995
22233SOL    HW173045   0.831   2.594   8.509 -0.5817  0.5615 -0.2342
22233SOL    HW273046   0.695   2.625   8.452 -1.1969 -1.3562  0.1519
22234SOL     OW73047   5.693   7.723   2.094  0.0591 -0.1669  0.0595
22234SOL    HW173048   5.670   7.749   2.183 -1.8114  0.6088 -0.6062
22234SOL    HW273049   5.715   7.805   2.050  0.1797 -0.4510 -0.4220
22235SOL     OW73050   5.602   5.696   8.850 -0.3212 -0.0634  0.4929
22235SOL    HW173051   5.668   5.690   8.918 -0.8644  0.1712  1.0528
22235SOL    HW273052   5.546   5.620   8.863 -0.9861  0.4812  0.9269
22236SOL     OW73053   5.643   5.750   5.232 -0.7319 -0.1995 -0.1551
22236SOL    HW173054   5.597   5.736   5.315 -0.7144  2.1976  0.3064
22236SOL    HW273055   5.721   5.695   5.238 -0.9323 -0.3606  1.2463
22237SOL     OW73056   3.603   1.112   0.993 -0.3822 -0.3393 -0.4921
22237SOL    HW173057   3.600   1.119   1.088 -0.6123 -2.6298 -0.2613
22237SOL    HW273058   3.696   1.112   0.971 -0.3277  2.4978 -0.5610
22238SOL     OW73059   6.332   4.970   2.466 -0.1438  0.0448 -0.0630
22238SOL    HW173060   6.369   4.968   2.554  1.0831  2.0981 -0.4601
22238SOL    HW273061   6.251   4.920   2.472  1.5284 -2.6894  1.4085
22239SOL     OW73062   5.687   3.485   3.477  0.6007  0.5487  0.1309
22239SOL    HW173063   5.647   3.427   3.412  2.2303  0.0501 -0.4891
22239SOL    HW273064   5.629   3.480   3.553 -0.4348 -0.2056 -0.6724
22240SOL     OW73065   7.467   5.492   7.206 -0.6053 -0.1550  0.0395
22240SOL    HW173066   7.384   5.535   7.184  0.6718  2.2704 -0.3231
22240SOL    HW273067   7.515   5.489   7.123  0.2901 -0.1036  0.5476
22241SOL     OW73068   1.307   6.509   1.249 -0.3494  0.1603 -0.4380
22241SOL    HW173069   1.395   6.545   1.240 -0.1359 -0.1119  0.4462
22241SOL    HW273070   1.305   6.474   1.338 -1.7692  1.3021  0.0024
22242SOL     OW73071   4.922   0.950   3.399  0.0792  0.8264  0.2419
22242SOL    HW173072   4.880   0.866   3.414 -0.9632  1.4842  1.1861
22242SOL    HW273073   4.916   0.963   3.304 -1.1978  0.5594  0.2705
22243SOL     OW73074   3.145   7.970   3.539 -0.2297  0.2447  0.0739
22243SOL    HW173075   3.224   7.968   3.594 -1.2448  0.5079  1.5847
22243SOL    HW273076   3.074   7.949   3.599 -1.8949  4.2469 -0.2280
22244SOL     OW73077   6.610   7.381   3.626  0.1660 -0.0140 -0.3035
22244SOL    HW173078   6.663   7.359   3.703 -0.4756  0.3270  0.2514
22244SOL    HW273079   6.519   7.376   3.658 -0.0650  1.9376 -0.5256
22245SOL     OW73080   0.054   3.215   8.643 -0.0011  0.2518  0.3680
22245SOL    HW173081   0.018   3.182   8.725  1.1242  0.4295  0.9461
22245SOL    HW273082   0.053   3.311   8.653 -0.1500  0.2866  0.0437
22246SOL     OW73083   7.382   8.526   7.729 -0.1879  0.7126  0.0486
22246SOL    HW173084   7.420   8.609   7.700 -1.0195  1.6454  1.5186
22246SOL    HW273085   7.393   8.468   7.654  1.3867  1.8168 -0.6466
22247SOL     OW73086   4.298   8.393   8.110  0.1002  0.4580 -0.1904
22247SOL    HW173087   4.277   8.327   8.176 -2.2670  2.3847  1.1342
22247SOL    HW273088   4.280   8.477   8.153 -0.0528  1.8576 -2.8006
22248SOL     OW73089   5.937   0.733   6.506 -0.4072  0.1492 -0.5595
22248SOL    HW173090   5.887   0.794   6.452 -0.5139  0.3615 -0.2183
22248SOL    HW273091   5.896   0.737   6.592  0.0794  0.1937 -0.3234
22249SOL     OW73092   1.427   3.046   4.003  0.3824  0.0968  0.2683
22249SOL    HW173093   1.336   3.054   4.031  1.0180  1.1459  2.1977
22249SOL    HW273094   1.422   3.025   3.910 -1.8244  1.8015 -0.0591
22250SOL     OW73095   0.220   4.311   5.272  0.1133 -0.1108 -0.3589
22250SOL    HW173096   0.312   4.329   5.294 -0.1846  0.6451  0.3184
22250SOL    HW273097   0.222   4.224   5.233  1.2667  0.3337 -1.3673
22251SOL     OW73098   7.278   9.186   4.406  0.2465  0.4054  0.1917
22251SOL    HW173099   7.287   9.127   4.480  1.2803 -1.2090 -1.1586
22251SOL    HW273100   7.364   9.227   4.397  0.6348 -0.6007 -1.0297
22252SOL     OW73101   1.937   7.467   3.642 -0.3228 -0.3451 -0.3375
22252SOL    HW173102   1.889   7.408   3.584  1.2530  1.0023 -3.2622
22252SOL    HW273103   1.944   7.420   3.725 -1.8745 -2.8416 -1.5117
22253SOL     OW73104   2.558   1.322   7.760  0.5928  0.4976  0.1974
22253SOL    HW173105   2.587   1.300   7.848  3.3512 -0.6360 -0.8578
22253SOL    HW273106   2.626   1.286   7.703 -2.5213 -1.5406 -2.6332
22254SOL     OW73107   1.137   1.313   7.597 -0.5970  0.5301  0.1349
22254SOL    HW173108   1.225   1.276   7.596 -0.2307  1.3828  0.0729
22254SOL    HW273109   1.111   1.315   7.505 -1.1248 -0.7184  0.2347
22255SOL     OW73110   3.970   0.996   0.258 -0.2638 -0.1582 -0.6527
22255SOL    HW173111   3.998   1.066   0.318 -1.8641 -1.0489  1.2589
22255SOL    HW273112   3.881   0.975   0.287 -1.4190 -0.1920 -3.8483
22256SOL     OW73113   9.210   3.207   5.756  0.6489 -0.5213 -0.1272
22256SOL    HW173114   9.305   3.212   5.767  0.6277  0.1847 -0.2014
22256SOL    HW273115   9.197   3.192   5.663  0.6981 -1.2395 -0.0239
22257SOL     OW73116   9.196   9.246   2.157 -0.2009  0.3890  0.3541
22257SOL    HW173117   9.232   9.312   2.215 -0.0451  0.2339  0.4338
22257SOL    HW273118   9.145   9.296   2.092 -2.6646  0.4540  2.1795
22258SOL     OW73119   4.734   6.596   3.247  0.2057 -0.0555 -0.4501
22258SOL    HW173120   4.700   6.512   3.216  1.7790 -0.2713 -1.7136
22258SOL    HW273121   4.773   6.576   3.332  1.8158 -0.9630 -1.3557
22259SOL     OW73122   7.992   1.344   4.365 -0.0536 -0.2326 -0.3022
22259SOL    HW173123   8.021   1.329   4.455  0.3754  1.5800 -0.0770
22259SOL    HW273124   7.903   1.311   4.361 -1.6286  3.1466  2.0312
22260SOL     OW73125   1.415   7.754   2.820  0.2350 -0.4153  0.2505
22260SOL    HW173126   1.388   7.801   2.899 -2.3324 -0.3624 -0.5749
22260SOL    HW273127   1.499   7.792   2.797  0.0086  1.0954  1.7397
22261SOL     OW73128   3.568   2.367   6.997 -0.4976 -0.5209  0.4124
22261SOL    HW173129   3.606   2.300   7.054 -2.5574 -2.3684 -0.2343
22261SOL    HW273130   3.482   2.384   7.034 -0.5634  0.7374 -0.2669
22262SOL     OW73131   2.150   0.795   1.282  0.1156  0.0491 -0.1953
22262SOL    HW173132   2.185   0.716   1.324 -1.2976 -0.0016  0.9842
22262SOL    HW273133   2.081   0.763   1.224  0.6356  0.3078 -0.9761
22263SOL     OW73134   2.118   5.517   7.926 -0.6763  0.2597 -0.2213
22263SOL    HW173135   2.204   5.538   7.891 -1.7618  2.6066 -1.7177
22263SOL    HW273136   2.062   5.508   7.849 -1.6955 -1.8893  0.6844
22264SOL     OW73137   6.318   6.917   3.732 -0.1561  0.3852  0.1620
22264SOL    HW173138   6.264   6.853   3.779  2.9454 -1.0612  2.0858
22264SOL    HW273139   6.320   6.993   3.790  0.1923  0.2970  0.2622
22265SOL     OW73140   2.547   7.391   2.338 -0.3215 -0.2420  0.3705
22265SOL    HW173141   2.470   7.448   2.331 -0.3137  0.0323  2.0364
22265SOL    HW273142   2.593   7.423   2.416  0.4757 -1.5876  0.4789
22266SOL     OW73143   9.077   8.801   5.701  0.0205 -0.4708 -0.3193
22266SOL    HW173144   9.141   8.862   5.664  0.5158  1.4721  3.3342
22266SOL    HW273145   9.130   8.727   5.731  0.6619  0.8838  2.1884
22267SOL     OW73146   6.056   7.729   3.202  0.8903  0.7622  0.4808
22267SOL    HW173147   5.998   7.681   3.142 -1.4821  1.9887  1.6393
22267SOL    HW273148   6.055   7.819   3.171  1.4314  0.9862  1.0756
22268SOL     OW73149   6.528   3.533   3.194 -0.1882 -0.2208  0.1260
22268SOL    HW173150   6.618   3.558   3.218 -0.5382  2.0599 -0.6765
22268SOL    HW273151   6.478   3.545   3.275 -0.0801  0.2706  0.1221
22269SOL     OW73152   9.046   3.382   2.108  0.1075  0.0614 -0.0549
22269SOL    HW173153   9.084   3.306   2.152  1.6519  1.0288  0.3706
22269SOL    HW273154   8.966   3.401   2.158 -0.3928 -1.3538 -0.2758
22270SOL     OW73155   0.354   8.020   0.309 -0.2111  0.1123 -0.5145
22270SOL    HW173156   0.343   7.991   0.218 -0.5274 -0.7975 -0.1956
22270SOL    HW273157   0.364   8.115   0.302  0.4212 -0.0073 -1.5556
22271SOL     OW73158   6.841   1.720   6.233  0.0112 -0.3134 -0.4242
22271SOL    HW173159   6.771   1.785   6.224  0.0098 -0.3080 -0.3755
22271SOL    HW273160   6.835   1.690   6.324  0.2926 -0.0573 -0.3188
22272SOL     OW73161   2.278   3.716   5.319  0.0763  0.3531 -0.2093
22272SOL    HW173162   2.339   3.718   5.246 -0.3348 -0.0374 -0.5745
22272SOL    HW273163   2.315   3.775   5.384  0.0064  1.3815 -1.0887
22273SOL     OW73164   6.997   7.439   2.618 -0.7184 -0.2017  0.1902
22273SOL    HW173165   6.926   7.429   2.555 -0.1872 -0.5985 -0.3547
22273SOL    HW273166   7.013   7.351   2.650 -0.2109 -0.1700  0.0238
22274SOL     OW73167   3.593   8.140   7.146  0.4373 -0.2808 -0.5907
22274SOL    HW173168   3.575   8.071   7.082  1.1252  1.4652 -2.8050
22274SOL    HW273169   3.557   8.107   7.228 -0.8277 -2.4861 -1.9341
22275SOL     OW73170   5.115   7.776   9.016  0.7875  0.1202  0.1712
22275SOL    HW173171   5.210   7.786   9.011  0.8567 -0.7277 -0.5971
22275SOL    HW273172   5.080   7.845   8.960  1.0179 -0.4442 -0.6829
22276SOL     OW73173   1.107   3.017   2.962  0.2255 -0.7098 -0.5948
22276SOL    HW173174   1.154   3.095   2.931 -0.9479 -0.1096 -0.9254
22276SOL    HW273175   1.176   2.956   2.986  1.1933  0.6078  0.1299
22277SOL     OW73176   6.751   1.568   6.526 -0.2907 -0.4869  0.4638
22277SOL    HW173177   6.724   1.498   6.466 -1.8250  0.8101 -0.4346
22277SOL    HW273178   6.729   1.535   6.613 -0.0386 -1.5265  0.1467
22278SOL     OW73179   8.157   6.296   1.820  0.3701 -0.7310 -0.2325
22278SOL    HW173180   8.220   6.266   1.886 -0.4212 -1.9207  0.0220
22278SOL    HW273181   8.071   6.278   1.859 -0.1397  0.5590 -0.7086
22279SOL     OW73182   2.872   8.361   7.922  0.2398  0.0105  0.6316
22279SOL    HW173183   2.780   8.381   7.904 -0.1133  0.0404  2.2615
22279SOL    HW273184   2.896   8.296   7.857 -0.9204  0.0694  0.1221
22280SOL     OW73185   3.651   5.660   4.034 -0.2736  0.4008 -0.0047
22280SOL    HW173186   3.599   5.703   4.102  0.3568  2.3663 -0.6812
22280SOL    HW273187   3.742   5.677   4.059 -0.0075 -0.2850 -0.4770
22281SOL     OW73188   2.082   2.802   2.912 -0.0737 -0.2979 -0.4124
22281SOL    HW173189   2.021   2.876   2.903 -0.1099 -0.4349 -1.4589
22281SOL    HW273190   2.147   2.832   2.975  0.5749  1.0953 -1.6817
22282SOL     OW73191   3.575   7.809   4.356  0.1083  1.0591 -0.0096
22282SOL    HW173192   3.625   7.830   4.277  0.9790  0.2959  0.3230
22282SOL    HW273193   3.615   7.863   4.424  1.9689 -1.0672  0.7221
22283SOL     OW73194   3.053   2.915   3.143 -0.0297 -0.0352 -0.3784
22283SOL    HW173195   3.110   2.944   3.215 -0.9611  0.5337  0.1560
22283SOL    HW273196   3.086   2.828   3.120 -0.0066 -0.4500  1.0941
22284SOL     OW73197   4.515   2.326   1.263 -0.3962  0.6293 -0.0148
22284SOL    HW173198   4.569   2.304   1.187 -0.5180  1.2584 -0.2933
22284SOL    HW273199   4.560   2.401   1.303  0.4591 -0.5876  1.3779
22285SOL     OW73200   2.831   5.488   3.086 -0.0278 -0.3913 -0.2235
22285SOL    HW173201   2.761   5.547   3.115  1.5892  1.2186  0.6493
22285SOL    HW273202   2.809   5.468   2.995 -2.2939 -1.0267  0.3993
22286SOL     OW73203   4.048   2.285   3.171  1.4071 -0.5257  0.0804
22286SOL    HW173204   3.978   2.249   3.117  0.2000 -2.2567  2.6058
22286SOL    HW273205   4.121   2.224   3.160  1.1873 -0.8349  0.3140
22287SOL     OW73206   5.237   7.928   3.126  0.3234  0.0839  0.3489
22287SOL    HW173207   5.196   7.989   3.064  2.0798  0.2758 -0.6759
22287SOL    HW273208   5.261   7.982   3.201 -1.3671 -0.0570  1.0323
22288SOL     OW73209   2.496   3.861   7.791  0.1248 -0.0809  0.1792
22288SOL    HW173210   2.430   3.901   7.847 -1.2323 -0.5711 -1.0240
22288SOL    HW273211   2.509   3.773   7.827  1.4979  0.6108  1.4960
22289SOL     OW73212   2.600   0.401   3.835  0.0802 -0.6260  0.5823
22289SOL    HW173213   2.541   0.474   3.819 -0.3358 -0.4372  2.7247
22289SOL    HW273214   2.671   0.438   3.887  1.1901 -1.2314 -0.4537
22290SOL     OW73215   4.684   3.015   3.484  1.1492  0.2182 -0.1059
22290SOL    HW173216   4.702   2.928   3.518  2.0942  0.4857  0.1061
22290SOL    HW273217   4.768   3.045   3.449  0.6913  0.7995 -0.7259
22291SOL     OW73218   5.088   8.500   0.068  0.2251 -0.3305 -0.4659
22291SOL    HW173219   5.001   8.469   0.043  0.5996 -1.7296 -0.1558
22291SOL    HW273220   5.074   8.589   0.101 -1.2215 -0.8275  0.3363
22292SOL     OW73221   0.101   5.027   0.559 -0.2308  0.1336 -0.6813
22292SOL    HW173222   0.148   5.091   0.505  0.6144 -0.9360 -1.2596
22292SOL    HW273223   0.079   4.956   0.498  0.4973 -0.9756  0.2953
22293SOL     OW73224   4.777   8.338   7.509  0.1525 -0.0729 -0.4042
22293SOL    HW173225   4.806   8.286   7.584  0.7495  0.0363 -0.5513
22293SOL    HW273226   4.686   8.313   7.495 -0.0669  0.1548  0.5661
22294SOL     OW73227   5.402   2.554   1.978 -0.2611 -0.3490 -0.1084
22294SOL    HW173228   5.400   2.532   1.885 -2.5263  0.0197 -0.2008
22294SOL    HW273229   5.371   2.644   1.982  0.0452 -0.2810  1.0117
22295SOL     OW73230   3.586   8.813   5.643  0.1303 -0.2775  0.4927
22295SOL    HW173231   3.608   8.725   5.611 -1.5959 -0.5732  0.0020
22295SOL    HW273232   3.512   8.840   5.588 -0.0295  1.0497  1.3297
22296SOL     OW73233   8.884   3.113   7.450 -0.3044  0.3591 -0.3224
22296SOL    HW173234   8.806   3.060   7.433 -0.0853 -0.0362 -0.1018
22296SOL    HW273235   8.955   3.049   7.455  0.0377  0.7197 -0.5440
22297SOL     OW73236   6.669   6.234   5.466  0.3363  0.7765 -0.2544
22297SOL    HW173237   6.607   6.162   5.477 -0.9843  1.5635 -1.9933
22297SOL    HW273238   6.752   6.191   5.445 -0.9983 -0.3908 -4.0251
22298SOL     OW73239   4.104   0.022   1.512 -0.2727  0.2685  0.6519
22298SOL    HW173240   4.097   0.112   1.478  2.0409  1.0528  1.9716
22298SOL    HW273241   4.064   0.027   1.599 -2.8879 -0.8189 -0.3980
22299SOL     OW73242   3.324   6.191   5.214  0.2244  0.5410 -0.1219
22299SOL    HW173243   3.283   6.210   5.130  0.9410  0.5013 -0.4831
22299SOL    HW273244   3.278   6.248   5.276 -0.1895  0.6986 -0.5687
22300SOL     OW73245   7.908   1.080   1.368  0.0906 -0.6232  0.4374
22300SOL    HW173246   7.957   1.008   1.406 -0.7341 -1.4177  0.0228
22300SOL    HW273247   7.932   1.080   1.275  0.8956  0.3190  0.6259
22301SOL     OW73248   0.708   0.920   9.173  0.0227 -0.2214 -0.3861
22301SOL    HW173249   0.750   0.941   9.090 -0.9356  1.1574 -0.5403
22301SOL    HW273250   0.734   0.991   9.232  1.6908 -1.7814  0.9116
22302SOL     OW73251   0.189   8.956   4.761  0.4582  0.1977  0.2138
22302SOL    HW173252   0.243   8.950   4.840 -0.2235  0.7888  0.7382
22302SOL    HW273253   0.226   8.891   4.702  1.1211 -0.1009  0.9362
22303SOL     OW73254   2.355   3.190   0.603  0.0710 -0.3470  0.2885
22303SOL    HW173255   2.333   3.227   0.688  2.2868  1.9452 -0.0228
22303SOL    HW273256   2.317   3.102   0.605 -0.6319 -0.0871  3.3048
22304SOL     OW73257   4.751   0.854   9.071  0.2416  0.0559 -0.4899
22304SOL    HW173258   4.792   0.868   8.986  0.4038  0.3955 -0.3567
22304SOL    HW273259   4.679   0.793   9.054  0.5897 -0.2753 -0.7837
22305SOL     OW73260   5.190   3.422   4.025  0.0391  0.5604 -0.8206
22305SOL    HW173261   5.130   3.461   4.088  0.5872  1.5168 -0.8845
22305SOL    HW273262   5.134   3.392   3.954 -0.5146  0.0603 -0.1827
22306SOL     OW73263   1.963   3.666   3.888  0.1046 -0.1280  0.1658
22306SOL    HW173264   2.041   3.614   3.908  0.5109  0.2761 -0.3289
22306SOL    HW273265   1.997   3.742   3.840 -0.6372 -0.1216 -0.3550
22307SOL     OW73266   3.031   3.098   8.981  0.2861  0.1316  0.0110
22307SOL    HW173267   3.097   3.150   8.936 -0.8236  0.8933 -0.7726
22307SOL    HW273268   3.079   3.052   9.049  1.3715  1.8649  0.4674
22308SOL     OW73269   7.784   5.824   5.421  0.7634 -0.7223 -0.4739
22308SOL    HW173270   7.806   5.871   5.502  0.3498  1.5116 -1.5639
22308SOL    HW273271   7.709   5.871   5.386 -0.5272 -3.0653 -1.0542
22309SOL     OW73272   5.854   0.567   3.657 -0.2702  0.5137  0.0473
22309SOL    HW173273   5.848   0.615   3.740  1.4687 -0.9516  1.1045
22309SOL    HW273274   5.948   0.558   3.641 -0.5416 -1.4251 -0.7377
22310SOL     OW73275   0.124   3.064   7.246 -0.4011  0.1681 -0.1125
22310SOL    HW173276   0.195   3.118   7.281  0.9263 -1.7866  0.3663
22310SOL    HW273277   0.123   3.085   7.152  1.0434  0.0448 -0.1924
22311SOL     OW73278   1.390   3.616   1.720  0.6692 -0.6673 -0.2355
22311SOL    HW173279   1.430   3.532   1.743  1.7018  0.4545  2.5299
22311SOL    HW273280   1.297   3.595   1.707  0.5910 -2.0523  2.0319
22312SOL     OW73281   4.131   6.212   0.497 -0.6598 -0.6418 -0.0889
22312SOL    HW173282   4.217   6.248   0.518  0.0055 -2.8343  1.2241
22312SOL    HW273283   4.086   6.283   0.451  1.7500  0.6345 -0.6206
22313SOL     OW73284   2.459   5.664   6.223 -0.1408  1.1105 -0.5097
22313SOL    HW173285   2.521   5.678   6.151  2.0739  0.9349  1.2443
22313SOL    HW273286   2.504   5.699   6.300 -1.9475  0.2792  0.9963
22314SOL     OW73287   9.037   6.511   2.109 -0.2257 -0.2270  0.4349
22314SOL    HW173288   8.947   6.543   2.100 -0.1267 -0.0467  0.0794
22314SOL    HW273289   9.034   6.453   2.185 -0.4967  0.3022  0.8387
22315SOL     OW73290   5.344   7.542   0.822  0.1388  0.2184 -0.3601
22315SOL    HW173291   5.379   7.548   0.733 -0.6225 -1.7231 -0.8621
22315SOL    HW273292   5.409   7.490   0.869 -0.1818 -0.0482 -0.2094
22316SOL     OW73293   5.430   8.214   2.750  0.2840 -0.5056 -0.1419
22316SOL    HW173294   5.522   8.242   2.741  0.8506 -1.8853  0.9969
22316SOL    HW273295   5.380   8.296   2.752  1.3139  0.2589 -2.1913
22317SOL     OW73296   6.756   4.642   9.125  0.3456 -0.3476  0.0476
22317SOL    HW173297   6.739   4.672   9.036  0.4169 -0.0407  0.1377
22317SOL    HW273298   6.826   4.577   9.115  1.2868  0.6388  0.0171
22318SOL     OW73299   7.217   8.663   0.826  0.1550  0.1846 -0.2403
22318SOL    HW173300   7.261   8.741   0.859  2.3942 -0.9728 -0.2901
22318SOL    HW273301   7.136   8.696   0.786  1.2588  2.5346 -0.7129
22319SOL     OW73302   4.249   6.720   4.500 -0.5988  0.4697  0.2689
22319SOL    HW173303   4.314   6.789   4.490  0.1104 -0.2514 -0.2099
22319SOL    HW273304   4.265   6.684   4.587 -1.4095  1.3297  0.7958
22320SOL     OW73305   6.378   0.226   8.061  0.1017 -0.2378 -0.1421
22320SOL    HW173306   6.355   0.313   8.029 -2.1123 -0.7719 -0.1991
22320SOL    HW273307   6.316   0.210   8.132  1.0369 -1.4429  0.4390
22321SOL     OW73308   0.636   2.684   0.173  0.0879  0.0570 -0.0380
22321SOL    HW173309   0.548   2.713   0.199  0.0278 -0.6883  0.6172
22321SOL    HW273310   0.695   2.736   0.227 -0.0148 -0.8259  0.9711
22322SOL     OW73311   7.529   2.906   3.424  0.3632 -0.3390  0.1892
22322SOL    HW173312   7.543   2.911   3.329  1.3793  0.5732  0.3635
22322SOL    HW273313   7.442   2.943   3.437  0.3579 -0.1467 -0.3628
22323SOL     OW73314   0.913   6.577   4.739  0.7385  0.2121 -0.1360
22323SOL    HW173315   0.938   6.495   4.782 -2.5048 -0.9720 -0.2432
22323SOL    HW273316   0.945   6.566   4.649 -0.0799 -1.2426 -0.2956
22324SOL     OW73317   3.690   4.971   3.222 -0.0484  0.0515 -0.3168
22324SOL    HW173318   3.664   4.983   3.130 -0.7992 -0.2252 -0.1460
22324SOL    HW273319   3.609   4.980   3.271  0.2882 -0.1870  0.2930
22325SOL     OW73320   1.171   7.034   4.531  0.2119  0.4775  0.2710
22325SOL    HW173321   1.205   7.020   4.619  0.1644 -1.4138  0.0161
22325SOL    HW273322   1.247   7.019   4.474  0.4554  2.4884 -0.0240
22326SOL     OW73323   7.438   4.524   4.207 -0.4346 -0.0902 -0.0022
22326SOL    HW173324   7.496   4.583   4.158  1.9193 -1.2226  1.2563
22326SOL    HW273325   7.435   4.444   4.154 -1.1993  0.0898 -0.2449
22327SOL     OW73326   2.187   1.018   6.296 -0.1776  0.3007  0.6093
22327SOL    HW173327   2.220   1.023   6.206  0.2416  2.0115  0.8217
22327SOL    HW273328   2.247   1.072   6.347 -2.4169  2.3674  1.2525
22328SOL     OW73329   8.263   0.357   8.783 -0.3066 -0.3260 -0.0870
22328SOL    HW173330   8.327   0.330   8.848 -0.7887 -0.5154  0.3170
22328SOL    HW273331   8.246   0.449   8.803 -0.3126 -0.3318 -0.0655
22329SOL     OW73332   5.944   2.530   0.530 -0.1059 -0.3069 -0.6946
22329SOL    HW173333   5.908   2.499   0.613 -0.8444  2.5440  0.1658
22329SOL    HW273334   5.905   2.473   0.464 -0.8993 -1.5229  0.7668
22330SOL     OW73335   0.548   2.570   2.457 -0.6381  0.2996  0.3740
22330SOL    HW173336   0.493   2.492   2.456 -0.1208 -0.0692  0.2782
22330SOL    HW273337   0.620   2.550   2.396 -1.1599  1.3329 -0.6361
22331SOL     OW73338   3.011   4.862   7.462  0.0687  0.3683  0.2769
22331SOL    HW173339   3.084   4.803   7.482 -1.6138 -1.2910  1.8046
22331SOL    HW273340   3.016   4.930   7.529 -0.3784 -0.3244  1.0243
22332SOL     OW73341   3.318   0.439   4.177 -0.3222  0.0006  0.3348
22332SOL    HW173342   3.311   0.349   4.146  0.4697  0.3418 -0.8825
22332SOL    HW273343   3.250   0.486   4.129 -1.6780 -0.1745  1.9845
22333SOL     OW73344   7.502   3.978   4.390  0.2610  0.4315  0.2694
22333SOL    HW173345   7.548   4.062   4.386 -1.2080  1.2420 -0.7630
22333SOL    HW273346   7.543   3.925   4.322  1.1784  0.2950  0.9077
22334SOL     OW73347   2.956   1.473   5.544 -0.3045 -0.1952 -0.9399
22334SOL    HW173348   2.914   1.415   5.607  0.9576 -0.8327 -0.6612
22334SOL    HW273349   3.003   1.537   5.597  0.8035 -0.7617 -1.2172
22335SOL     OW73350   0.434   0.482   7.284 -0.1959 -0.0341  0.1622
22335SOL    HW173351   0.444   0.473   7.378  2.2920  2.3672  0.2497
22335SOL    HW273352   0.381   0.561   7.273 -1.6622 -1.0557 -0.5171
22336SOL     OW73353   7.767   4.699   3.730  0.0363 -0.0476  0.7732
22336SOL    HW173354   7.796   4.764   3.794 -0.3797 -0.2726  1.1932
22336SOL    HW273355   7.771   4.616   3.777 -0.3942 -0.1971  0.5432
22337SOL     OW73356   1.004   6.341   2.598 -0.5517 -0.6135 -0.5495
22337SOL    HW173357   0.965   6.256   2.619 -2.7644  0.1730 -1.1692
22337SOL    HW273358   1.006   6.343   2.502 -1.8071  0.5397 -0.5743
22338SOL     OW73359   4.620   0.179   8.348  0.1287  0.4649 -0.3630
22338SOL    HW173360   4.707   0.152   8.316 -0.3649  0.3063 -1.6321
22338SOL    HW273361   4.634   0.266   8.386  0.9574  0.1785  0.0088
22339SOL     OW73362   5.326   6.068   5.500  0.3169 -0.2494  0.0786
22339SOL    HW173363   5.416   6.088   5.475  0.1784  0.9909  0.5056
22339SOL    HW273364   5.306   5.987   5.453  1.4201 -0.1723 -0.5705
22340SOL     OW73365   1.743   3.394   8.133  0.3465 -0.5116  0.3669
22340SOL    HW173366   1.758   3.354   8.048 -2.4208 -0.3068 -0.3214
22340SOL    HW273367   1.783   3.334   8.196  0.0452 -2.1201 -0.9180
22341SOL     OW73368   4.175   8.812   2.025  0.2894  0.0116  0.7743
22341SOL    HW173369   4.268   8.791   2.034  0.2107 -0.8161 -0.1385
22341SOL    HW273370   4.155   8.866   2.101  1.3385 -0.4279  1.3885
22342SOL     OW73371   3.280   8.316   4.148 -0.0905 -0.2742 -1.0199
22342SOL    HW173372   3.249   8.235   4.106  1.1454 -1.3585  0.0882
22342SOL    HW273373   3.369   8.328   4.115  0.2445 -0.1562 -0.1018
22343SOL     OW73374   0.199   6.987   5.194 -0.2267 -0.3932 -0.0771
22343SOL    HW173375   0.269   6.940   5.149  0.1398  0.5498 -0.5193
22343SOL    HW273376   0.197   6.948   5.282  0.1649 -1.1193 -0.3833
22344SOL     OW73377   3.856   6.066   2.300  0.9787 -0.0120  0.0623
22344SOL    HW173378   3.841   6.102   2.388 -0.1191 -1.1824  0.3897
22344SOL    HW273379   3.898   5.981   2.315  0.4054 -0.4070 -0.5062
22345SOL     OW73380   8.442   6.185   4.136 -0.0758 -0.2453 -0.9934
22345SOL    HW173381   8.461   6.213   4.225  0.4046 -1.3437 -0.7392
22345SOL    HW273382   8.368   6.125   4.144 -0.1614 -0.1909 -1.3511
22346SOL     OW73383   3.003   8.986   0.813 -0.5475 -0.3448  0.0231
22346SOL    HW173384   2.937   8.940   0.761 -2.1605  0.3863  1.3223
22346SOL    HW273385   3.086   8.945   0.788 -1.3833 -0.8539 -2.1577
22347SOL     OW73386   6.267   0.855   3.354  0.0878 -0.2490 -0.0319
22347SOL    HW173387   6.338   0.902   3.311 -2.2457  3.0891 -0.6774
22347SOL    HW273388   6.292   0.851   3.446  0.4947  2.3884  0.0614
22348SOL     OW73389   1.487   8.495   4.932  0.4848 -0.2507 -0.5342
22348SOL    HW173390   1.549   8.566   4.915 -0.6926  1.1070  0.5939
22348SOL    HW273391   1.442   8.482   4.848  1.0766 -0.0526 -0.8893
22349SOL     OW73392   6.477   8.311   8.361 -0.0230  0.4485  0.4438
22349SOL    HW173393   6.412   8.261   8.312 -1.4875  1.3445  1.4098
22349SOL    HW273394   6.439   8.321   8.448  0.6303  2.4425  0.5496
22350SOL     OW73395   4.608   3.341   3.461  0.0009  0.8375  0.4152
22350SOL    HW173396   4.534   3.307   3.511 -0.3147  2.1223  0.8701
22350SOL    HW273397   4.632   3.270   3.402 -0.9504  0.0390  0.9613
22351SOL     OW73398   6.531   2.439   4.176 -0.2359  0.0079  0.4517
22351SOL    HW173399   6.512   2.396   4.259 -3.4124  0.5955  0.1548
22351SOL    HW273400   6.510   2.374   4.110 -1.1188  0.6375  0.0888
22352SOL     OW73401   3.537   6.719   5.309 -0.2059 -0.0589 -0.1658
22352SOL    HW173402   3.624   6.758   5.303  0.2741 -0.7029  1.7777
22352SOL    HW273403   3.554   6.625   5.317 -1.1378 -0.2904 -0.7657
22353SOL     OW73404   7.397   3.252   2.094  0.0647 -0.0956  0.8267
22353SOL    HW173405   7.480   3.297   2.113 -0.3244  0.9532  0.1459
22353SOL    HW273406   7.334   3.295   2.152 -0.7583  1.8531 -1.3628
22354SOL     OW73407   3.496   2.673   2.511 -0.3040  0.6711  0.2938
22354SOL    HW173408   3.464   2.698   2.598 -0.5411  1.2635  0.0406
22354SOL    HW273409   3.417   2.650   2.462 -0.0461 -1.4237  0.7593
22355SOL     OW73410   1.361   3.579   7.238  0.1115  0.2674 -0.5202
22355SOL    HW173411   1.391   3.603   7.151 -2.5395 -1.5040 -2.0438
22355SOL    HW273412   1.302   3.649   7.264 -0.7091 -0.2051 -1.0835
22356SOL     OW73413   6.183   7.497   6.352 -0.2482 -0.0356  0.4585
22356SOL    HW173414   6.259   7.452   6.389 -0.4647  0.1407  1.1279
22356SOL    HW273415   6.175   7.577   6.404 -0.4310  0.3265 -0.1107
22357SOL     OW73416   0.568   8.757   0.644 -0.3137  0.2304  0.2005
22357SOL    HW173417   0.549   8.826   0.581  0.2838  0.4391  0.2508
22357SOL    HW273418   0.582   8.803   0.726 -0.3446  0.0113  0.3285
22358SOL     OW73419   1.673   2.642   3.515 -0.2461 -0.2548  0.6909
22358SOL    HW173420   1.767   2.625   3.507 -0.6333 -1.7326 -2.7226
22358SOL    HW273421   1.662   2.731   3.481 -0.0574  0.0883  1.5135
22359SOL     OW73422   2.281   2.993   7.665  0.1197 -0.0800 -0.6134
22359SOL    HW173423   2.271   3.068   7.724  0.4623  1.0269 -1.9034
22359SOL    HW273424   2.340   3.025   7.597  3.8235 -2.8036  0.9427
22360SOL     OW73425   1.601   6.508   5.559 -0.3501 -0.3538 -0.3655
22360SOL    HW173426   1.648   6.573   5.506 -0.6575  0.4785  0.3471
22360SOL    HW273427   1.650   6.427   5.547  1.3930  0.5257  0.5038
22361SOL     OW73428   1.466   5.867   7.089  0.0892  0.6782 -0.0847
22361SOL    HW173429   1.424   5.787   7.059  0.4996  0.2695  0.4036
22361SOL    HW273430   1.494   5.847   7.179  2.2131  0.5771 -0.7024
22362SOL     OW73431   3.259   4.277   6.484  0.3415 -0.0945  0.1188
22362SOL    HW173432   3.164   4.264   6.482  0.4612 -1.0222 -0.9155
22362SOL    HW273433   3.271   4.372   6.484 -0.5830  0.0287  0.3928
22363SOL     OW73434   2.914   0.424   4.614 -0.5967 -0.6255  0.4349
22363SOL    HW173435   2.896   0.513   4.647 -0.0523 -0.9040  1.5348
22363SOL    HW273436   2.960   0.381   4.686  1.0715 -1.1208 -0.8820
22364SOL     OW73437   4.263   8.310   6.603  0.5765  0.3061  0.1046
22364SOL    HW173438   4.338   8.314   6.663  0.0939 -1.2252  0.8659
22364SOL    HW273439   4.302   8.289   6.518  0.9610 -1.6872  0.7244
22365SOL     OW73440   5.615   2.857   6.066  0.0355  0.5912 -0.1303
22365SOL    HW173441   5.678   2.797   6.026  0.6248  1.5531 -0.6639
22365SOL    HW273442   5.531   2.812   6.057  0.6617 -0.8963  0.9497
22366SOL     OW73443   7.082   1.442   7.814 -0.0174 -0.4786  0.4397
22366SOL    HW173444   6.993   1.427   7.846 -0.4289 -0.6326 -0.7260
22366SOL    HW273445   7.099   1.368   7.755  0.4780  0.0781 -0.1308
22367SOL     OW73446   8.824   4.094   4.375  0.2494 -0.1343  0.5246
22367SOL    HW173447   8.894   4.029   4.382  0.9004  0.5332  0.3449
22367SOL    HW273448   8.753   4.059   4.429 -0.5901 -2.4647 -1.8278
22368SOL     OW73449   1.848   3.753   5.782 -0.0075 -0.9359 -0.2495
22368SOL    HW173450   1.815   3.831   5.738  0.9051 -1.9675 -2.9796
22368SOL    HW273451   1.847   3.775   5.875  0.8843  2.5735 -0.9499
22369SOL     OW73452   7.422   2.338   8.610  0.2587  0.2691 -0.7128
22369SOL    HW173453   7.437   2.338   8.705 -2.1691  2.4948 -0.2200
22369SOL    HW273454   7.420   2.245   8.586  0.7558 -0.3526  1.4299
22370SOL     OW73455   8.961   7.290   4.757  0.5192  0.7874 -0.0633
22370SOL    HW173456   8.989   7.209   4.713  0.6995  1.6306 -1.5877
22370SOL    HW273457   9.027   7.305   4.824 -0.4152 -1.1881  1.3964
22371SOL     OW73458   9.191   2.632   7.477  0.0221 -0.3829  0.1818
22371SOL    HW173459   9.118   2.672   7.524  0.6997  2.5375 -1.0656
22371SOL    HW273460   9.155   2.549   7.443 -2.5200  0.6397  0.1601
22372SOL     OW73461   6.771   7.609   2.732  0.1896  0.4757  0.4653
22372SOL    HW173462   6.848   7.554   2.721 -0.2176  0.0621 -0.4532
22372SOL    HW273463   6.806   7.694   2.758  1.3668  1.4585 -3.5868
22373SOL     OW73464   7.360   2.247   8.141 -0.4326 -0.4932 -0.1843
22373SOL    HW173465   7.436   2.240   8.199  1.6964 -0.2323 -2.7020
22373SOL    HW273466   7.318   2.161   8.145  0.6480 -1.0130  0.4439
22374SOL     OW73467   1.597   6.196   8.780  0.2332  0.0523  0.0098
22374SOL    HW173468   1.616   6.178   8.873 -1.0041 -0.1687  0.2306
22374SOL    HW273469   1.662   6.143   8.733 -0.2936 -1.3026  0.7353
22375SOL     OW73470   0.236   0.767   2.558 -0.7683 -0.0223 -0.0841
22375SOL    HW173471   0.155   0.717   2.568 -1.2933  1.0202  1.3034
22375SOL    HW273472   0.280   0.760   2.642 -0.1143  0.5810 -0.3599
22376SOL     OW73473   6.501   2.362   7.147 -0.0382  0.5071  0.3777
22376SOL    HW173474   6.548   2.444   7.137  0.2860  0.5920  2.2242
22376SOL    HW273475   6.411   2.382   7.120  0.4382  0.9661 -0.9205
22377SOL     OW73476   7.356   0.293   7.080 -0.0113 -0.2353  0.4028
22377SOL    HW173477   7.293   0.224   7.100 -2.1212  1.5747  0.3290
22377SOL    HW273478   7.422   0.286   7.150  0.9302 -3.4321 -0.6114
22378SOL     OW73479   2.414   2.449   5.666 -0.0635  0.2280 -0.3103
22378SOL    HW173480   2.407   2.355   5.646  1.6478  0.2738 -1.4010
22378SOL    HW273481   2.400   2.455   5.761  1.2056 -1.3537  0.0292
22379SOL     OW73482   8.170   1.527   7.356  0.0351  0.0857  0.0084
22379SOL    HW173483   8.203   1.437   7.359  3.4045  1.1340 -0.6755
22379SOL    HW273484   8.145   1.540   7.265 -0.0173 -0.0159  0.0081
22380SOL     OW73485   0.788   2.979   8.897  0.4026  0.0495  0.2437
22380SOL    HW173486   0.797   3.068   8.930 -1.0568  0.2265  0.2137
22380SOL    HW273487   0.703   2.949   8.929  0.8221 -1.3094  0.1797
22381SOL     OW73488   8.558   2.890   4.396 -0.2881 -0.1327 -0.0530
22381SOL    HW173489   8.625   2.945   4.437  0.3205 -0.8452 -0.0583
22381SOL    HW273490   8.481   2.899   4.453 -0.3191  0.9989 -0.2600
22382SOL     OW73491   0.367   9.240   3.363  0.2615 -0.4448 -0.4747
22382SOL    HW173492   0.386   9.274   3.451 -0.6702  0.8406 -0.7302
22382SOL    HW273493   0.440   9.272   3.309 -0.1511  0.4488 -0.5302
22383SOL     OW73494   5.240   4.118   4.682  0.2442 -0.6840  0.5234
22383SOL    HW173495   5.218   4.105   4.774  1.2130 -2.0733  0.5978
22383SOL    HW273496   5.286   4.201   4.680 -0.3506 -0.3245  1.1813
22384SOL     OW73497   4.056   5.581   5.149  0.2120 -0.5355  0.1117
22384SOL    HW173498   4.018   5.592   5.237 -2.0016 -0.6685 -0.7738
22384SOL    HW273499   4.096   5.666   5.130 -2.6202  0.8508 -0.1918
22385SOL     OW73500   1.936   6.891   6.875 -0.0563 -0.3122 -0.0389
22385SOL    HW173501   1.947   6.809   6.922 -2.3024  0.1019  1.3307
22385SOL    HW273502   1.930   6.958   6.943  1.8570  1.0805 -1.1256
22386SOL     OW73503   4.046   8.415   7.871  0.3555 -0.2046  0.0014
22386SOL    HW173504   4.109   8.448   7.807 -1.4197 -1.8645 -2.8420
22386SOL    HW273505   4.051   8.476   7.944  2.8681  1.5642 -1.4857
22387SOL     OW73506   3.661   7.016   7.073 -0.0216  0.3985 -0.0367
22387SOL    HW173507   3.674   7.110   7.070 -0.6704  0.5232  0.6595
22387SOL    HW273508   3.603   7.002   7.149  1.4347 -0.7062  0.9292
22388SOL     OW73509   5.886   2.293   7.158 -0.1984  0.1688  0.4808
22388SOL    HW173510   5.880   2.294   7.254  0.9239  0.7007  0.5722
22388SOL    HW273511   5.936   2.373   7.137  0.8573 -0.6904 -0.4320
22389SOL     OW73512   1.128   1.579   7.704 -0.1355  0.0467 -0.1758
22389SOL    HW173513   1.054   1.574   7.763  0.9739 -2.6428  1.1520
22389SOL    HW273514   1.121   1.501   7.649  1.5396 -0.1470 -0.1850
22390SOL     OW73515   2.102   2.955   2.510  0.0564  0.5048 -0.3558
22390SOL    HW173516   2.125   2.958   2.417  0.2340 -0.6604 -0.3656
22390SOL    HW273517   2.036   3.023   2.521 -0.0671  0.5577 -1.3638
22391SOL     OW73518   3.457   3.973   0.993  0.1129  0.5486  0.0133
22391SOL    HW173519   3.419   3.922   1.064 -0.2012  0.6718 -0.0678
22391SOL    HW273520   3.498   4.048   1.036  0.3796  0.3515  0.1113
22392SOL     OW73521   6.335   6.221   5.189 -0.1938  0.2928  0.3193
22392SOL    HW173522   6.363   6.241   5.099  2.2146  1.1821  1.1854
22392SOL    HW273523   6.350   6.127   5.198  2.6130  0.6600  0.6479
22393SOL     OW73524   1.753   7.375   1.175 -0.2772  0.1040 -0.0187
22393SOL    HW173525   1.793   7.298   1.136  0.2923  1.5595 -2.4550
22393SOL    HW273526   1.813   7.400   1.245 -0.3367 -1.4586  0.6436
22394SOL     OW73527   7.622   5.041   6.503 -0.5145  0.4070 -0.2730
22394SOL    HW173528   7.635   5.093   6.582 -1.2948  0.2291 -0.0182
22394SOL    HW273529   7.637   5.102   6.431  1.5796  0.2452 -0.0323
22395SOL     OW73530   9.136   1.033   8.262  0.2621 -0.0119 -0.0727
22395SOL    HW173531   9.111   1.120   8.293  1.7672  0.7488 -0.8772
22395SOL    HW273532   9.210   1.008   8.318  0.0818 -0.6060 -0.0977
22396SOL     OW73533   8.386   1.866   3.430  0.1469  0.0218 -0.8931
22396SOL    HW173534   8.315   1.851   3.492 -0.0038  1.6257 -0.6527
22396SOL    HW273535   8.409   1.778   3.400  1.3917 -1.0693  2.6931
22397SOL     OW73536   1.355   8.316   6.225 -0.1116 -0.1485  0.1697
22397SOL    HW173537   1.396   8.231   6.210 -0.0473  0.3091 -2.8618
22397SOL    HW273538   1.390   8.372   6.157 -0.5150  2.2301  1.7961
22398SOL     OW73539   6.954   7.647   8.735 -0.5781  0.7101 -0.5879
22398SOL    HW173540   6.894   7.577   8.763 -2.0645  2.1973  0.1318
22398SOL    HW273541   6.914   7.682   8.656  0.1724  0.7389 -0.9595
22399SOL     OW73542   5.863   0.028   0.641  0.1181 -0.0705  0.0174
22399SOL    HW173543   5.929   0.073   0.694  0.5028 -1.3121  0.6241
22399SOL    HW273544   5.903   0.022   0.554  1.8584 -2.7370  0.8634
22400SOL     OW73545   8.847   2.217   7.629 -0.3856  0.1281 -0.3810
22400SOL    HW173546   8.824   2.208   7.537 -2.1720  3.0212 -0.3484
22400SOL    HW273547   8.773   2.179   7.676  1.0544 -2.4544 -0.0015
22401SOL     OW73548   3.935   4.389   0.735  0.0298 -0.3325 -0.0811
22401SOL    HW173549   3.962   4.298   0.736  1.3062  0.0121 -0.7506
22401SOL    HW273550   3.936   4.416   0.827  0.9590 -0.6311 -0.0001
22402SOL     OW73551   0.286   8.169   2.224 -0.1786 -0.2868  0.1654
22402SOL    HW173552   0.252   8.083   2.251 -1.9422 -0.1000 -1.2437
22402SOL    HW273553   0.241   8.231   2.282 -1.8507 -0.0906 -1.2565
22403SOL     OW73554   8.552   1.479   8.278  0.2186 -0.2623 -0.2639
22403SOL    HW173555   8.467   1.509   8.248  0.1868 -0.6304 -0.5510
22403SOL    HW273556   8.537   1.388   8.304  0.3871 -0.1397  0.2623
22404SOL     OW73557   6.137   1.936   4.157 -0.3102  0.3098  0.0597
22404SOL    HW173558   6.128   1.949   4.251 -1.5717  0.7504 -0.1018
22404SOL    HW273559   6.047   1.936   4.124  0.0032 -1.6539 -0.9211
22405SOL     OW73560   5.329   1.538   0.547 -0.0959  0.1810  0.2055
22405SOL    HW173561   5.286   1.465   0.504  0.6374 -0.1137 -0.0513
22405SOL    HW273562   5.335   1.606   0.480  3.1171 -1.0850 -0.9989
22406SOL     OW73563   1.829   7.263   3.908 -0.4090 -0.3364  0.4491
22406SOL    HW173564   1.789   7.179   3.930 -0.1064 -0.3592  0.9160
22406SOL    HW273565   1.919   7.242   3.885 -0.4354 -0.1838  0.2026
22407SOL     OW73566   5.744   3.757   8.080  0.3421  0.1836 -0.9700
22407SOL    HW173567   5.774   3.767   8.170 -0.6611  0.2225 -0.6210
22407SOL    HW273568   5.797   3.818   8.030  2.4481 -1.3766 -0.7852
22408SOL     OW73569   6.645   1.861   6.620 -0.0815 -0.6700 -0.0571
22408SOL    HW173570   6.672   1.808   6.545  0.1805 -1.7830  0.8021
22408SOL    HW273571   6.557   1.829   6.642  0.4565 -1.4540  1.0589
22409SOL     OW73572   2.278   7.577   7.900 -0.2915  0.0324  0.0671
22409SOL    HW173573   2.295   7.567   7.994  0.5712 -0.3838 -0.1273
22409SOL    HW273574   2.229   7.499   7.876 -0.0928 -0.0926  0.0705
22410SOL     OW73575   4.327   5.195   1.513  0.5323  0.5718 -0.1639
22410SOL    HW173576   4.255   5.174   1.454 -0.4061 -0.0666  1.1583
22410SOL    HW273577   4.375   5.112   1.522  0.9396  0.7825 -0.3856
22411SOL     OW73578   6.651   7.724   6.239  0.9639  0.4977  0.3539
22411SOL    HW173579   6.727   7.675   6.272  1.5494  2.3333  1.9117
22411SOL    HW273580   6.678   7.815   6.243 -0.8163  1.1100 -0.5086
22412SOL     OW73581   7.265   0.896   1.207 -0.0781  0.2801  0.0051
22412SOL    HW173582   7.321   0.973   1.221 -0.7245  0.6240  0.8336
22412SOL    HW273583   7.310   0.826   1.253 -0.3384  0.5671  0.7137
22413SOL     OW73584   6.488   1.289   2.145  0.1945  0.6430 -0.0003
22413SOL    HW173585   6.566   1.344   2.149 -0.0610  0.9520  0.9198
22413SOL    HW273586   6.417   1.350   2.126  0.0551  0.4868  0.0238
22414SOL     OW73587   5.365   6.235   2.384 -0.6165 -0.1120 -0.2719
22414SOL    HW173588   5.370   6.271   2.296 -0.1135  0.0135 -0.1942
22414SOL    HW273589   5.416   6.295   2.438 -0.3334 -0.5744 -0.0184
22415SOL     OW73590   2.226   3.404   0.209  0.3001 -0.0803 -0.6203
22415SOL    HW173591   2.241   3.496   0.185 -0.9863  0.0293 -1.0834
22415SOL    HW273592   2.182   3.409   0.294  0.5410 -0.2773 -0.4861
22416SOL     OW73593   3.844   5.090   2.043  0.1069  0.0633 -0.2641
22416SOL    HW173594   3.927   5.060   2.007  0.7903 -0.8049  1.8599
22416SOL    HW273595   3.809   5.014   2.089  0.5771  1.6716  3.0357
22417SOL     OW73596   2.776   8.286   2.380 -0.2549 -0.1283 -0.2076
22417SOL    HW173597   2.801   8.307   2.290 -0.3523 -0.0707 -0.2216
22417SOL    HW273598   2.805   8.361   2.431 -2.8913  1.2974 -0.6115
22418SOL     OW73599   5.873   4.289   1.075 -0.1165 -0.6358 -0.0517
22418SOL    HW173600   5.913   4.264   1.159  0.1821 -0.8487 -0.2509
22418SOL    HW273601   5.900   4.219   1.015  1.2781  0.4937 -0.7893
22419SOL     OW73602   7.378   2.863   9.014 -0.3569 -0.1583 -0.2843
22419SOL    HW173603   7.374   2.786   8.957  1.3130 -0.2134 -0.3859
22419SOL    HW273604   7.472   2.881   9.022 -0.6625  0.9879  0.9296
22420SOL     OW73605   4.090   3.306   4.138  0.2211  0.1051 -0.6121
22420SOL    HW173606   4.035   3.339   4.067 -2.2451 -2.4634 -0.0587
22420SOL    HW273607   4.110   3.384   4.190  0.3227  1.7137 -2.8823
22421SOL     OW73608   2.363   4.294   0.425  0.0931 -0.5497  0.3385
22421SOL    HW173609   2.409   4.318   0.345  2.5774 -1.3746  1.3924
22421SOL    HW273610   2.302   4.225   0.398  0.2502 -0.2028 -0.9734
22422SOL     OW73611   6.382   4.420   8.540 -0.0064 -0.4001  0.0198
22422SOL    HW173612   6.288   4.410   8.531  0.1036 -0.4610 -1.2548
22422SOL    HW273613   6.411   4.456   8.456  0.8865  1.2661  0.9856
22423SOL     OW73614   9.109   0.532   7.620  0.0176 -0.4611 -0.1488
22423SOL    HW173615   9.074   0.469   7.684  0.3303 -0.5329 -0.0474
22423SOL    HW273616   9.175   0.483   7.571  0.5990 -0.0870  0.2439
22424SOL     OW73617   1.086   2.420   3.196  0.1893  0.8518 -0.3469
22424SOL    HW173618   1.109   2.330   3.221  0.6028  1.5091  1.9483
22424SOL    HW273619   0.991   2.419   3.188  0.2512  0.0493 -1.0739
22425SOL     OW73620   0.263   7.850   7.838  0.2409 -0.0101  0.0662
22425SOL    HW173621   0.294   7.872   7.750 -0.2385  0.7632  0.0857
22425SOL    HW273622   0.172   7.820   7.824  0.5409 -1.0214  0.1641
22426SOL     OW73623   2.169   3.320   6.566  0.0892  0.8073  0.1619
22426SOL    HW173624   2.162   3.415   6.580 -0.5277  0.6356  1.1541
22426SOL    HW273625   2.140   3.282   6.649  1.9535 -0.2299  0.3886
22427SOL     OW73626   1.496   1.241   0.827  0.5220  0.3772 -1.0465
22427SOL    HW173627   1.531   1.305   0.889 -0.5797  0.1773 -0.1710
22427SOL    HW273628   1.572   1.209   0.779  1.4034  0.6020  0.1587
22428SOL     OW73629   3.196   6.901   9.145 -0.3324 -0.6065 -0.6303
22428SOL    HW173630   3.113   6.859   9.124 -1.1320  1.0824 -1.0380
22428SOL    HW273631   3.227   6.935   9.061  0.4242 -0.6205 -0.3629
22429SOL     OW73632   8.038   3.567   7.776  0.1191 -0.2100  0.1454
22429SOL    HW173633   8.122   3.583   7.734 -0.4006 -2.5164 -2.0129
22429SOL    HW273634   8.059   3.515   7.854  0.6886 -1.0999 -0.5850
22430SOL     OW73635   0.201   0.132   0.228  0.3178  0.2076 -0.6055
22430SOL    HW173636   0.131   0.074   0.257  0.7821  0.4116  1.0180
22430SOL    HW273637   0.208   0.198   0.298  0.6384  1.4985 -1.8023
22431SOL     OW73638   3.445   7.194   8.831  0.0145 -0.2587  0.3365
22431SOL    HW173639   3.488   7.280   8.833  0.6340 -0.4835 -1.5180
22431SOL    HW273640   3.355   7.212   8.859 -0.1469  1.1938 -0.9598
22432SOL     OW73641   4.665   7.994   7.703 -0.1199 -0.1908  0.0140
22432SOL    HW173642   4.598   8.016   7.768  0.1555 -0.4615  0.3961
22432SOL    HW273643   4.671   7.898   7.706  0.0862 -0.1871 -0.2142
22433SOL     OW73644   2.145   9.175   3.653  0.2824 -0.1362  0.0365
22433SOL    HW173645   2.067   9.188   3.707  0.3065 -0.1968  0.0852
22433SOL    HW273646   2.218   9.176   3.714  0.2980 -0.3446  0.0207
22434SOL     OW73647   2.583   3.515   5.216 -0.4198  0.0772 -0.4375
22434SOL    HW173648   2.559   3.604   5.189 -1.8809  0.7664  2.6101
22434SOL    HW273649   2.563   3.461   5.140 -2.2894  2.0210 -1.4637
22435SOL     OW73650   3.175   8.543   4.303 -0.5063  0.1647 -0.0571
22435SOL    HW173651   3.222   8.484   4.244  1.6937  1.3211  0.4262
22435SOL    HW273652   3.083   8.521   4.291  0.1663 -2.8442 -0.4195
22436SOL     OW73653   8.860   1.630   6.416  0.6144  0.2136  0.2495
22436SOL    HW173654   8.943   1.584   6.429  1.2992  1.7448  1.6868
22436SOL    HW273655   8.878   1.690   6.343  0.3766 -0.2832 -0.2266
22437SOL     OW73656   4.191   2.097   4.968 -0.1534 -0.0064  0.0962
22437SOL    HW173657   4.267   2.133   5.013 -1.6064  1.6643  1.3428
22437SOL    HW273658   4.123   2.165   4.976 -1.8080 -1.4413 -0.9243
22438SOL     OW73659   0.100   8.388   5.558  0.2952 -0.1469 -0.3640
22438SOL    HW173660   0.145   8.314   5.518 -0.0896 -0.9585  0.6459
22438SOL    HW273661   0.011   8.357   5.572 -0.2815  1.0361 -1.2623
22439SOL     OW73662   3.790   3.213   3.609 -0.1742  0.3785  1.0553
22439SOL    HW173663   3.737   3.134   3.616  0.0124  0.2761  1.3746
22439SOL    HW273664   3.877   3.181   3.583 -0.4970  0.6323 -0.3773
22440SOL     OW73665   2.362   5.424   7.268  0.4802 -0.4841 -0.6839
22440SOL    HW173666   2.394   5.335   7.287 -0.1696 -0.5352  0.2155
22440SOL    HW273667   2.267   5.418   7.279  0.4960  0.4860  0.0778
22441SOL     OW73668   9.055   5.789   2.976 -0.2787 -0.1499 -0.2864
22441SOL    HW173669   9.114   5.863   2.961  0.2629 -0.3995  0.5439
22441SOL    HW273670   9.105   5.712   2.951 -0.8298 -0.2455 -1.1101
22442SOL     OW73671   5.397   7.496   0.540 -0.5603  0.1153  0.1527
22442SOL    HW173672   5.334   7.479   0.470  0.7234 -2.1017 -0.5778
22442SOL    HW273673   5.467   7.432   0.525  0.2021  0.1705  2.9360
22443SOL     OW73674   5.187   7.900   6.406 -0.2245 -0.1455 -0.4935
22443SOL    HW173675   5.172   7.984   6.362  0.4418  1.3998  2.0645
22443SOL    HW273676   5.164   7.916   6.497  0.5652 -2.5858  0.1939
22444SOL     OW73677   0.064   2.512   1.542  0.0673  0.0651 -0.1602
22444SOL    HW173678   0.062   2.491   1.449  1.3162  0.1018 -0.2147
22444SOL    HW273679   0.133   2.578   1.550  0.1297 -0.1032  0.8196
22445SOL     OW73680   2.013   6.875   5.580 -0.2856  0.6592 -0.2991
22445SOL    HW173681   2.042   6.941   5.517 -2.5944 -0.0506 -2.2585
22445SOL    HW273682   1.957   6.923   5.641 -0.5937  0.8143 -0.7030
22446SOL     OW73683   2.861   6.978   2.366 -0.5752 -0.3021  0.8129
22446SOL    HW173684   2.775   7.021   2.366 -0.2944  0.2590  0.5052
22446SOL    HW273685   2.918   7.039   2.412 -0.2169 -0.4426  0.5529
22447SOL     OW73686   5.812   0.209   8.156 -0.0646  0.6722  0.6888
22447SOL    HW173687   5.807   0.210   8.061 -2.6011 -0.4987  0.7520
22447SOL    HW273688   5.766   0.289   8.183  2.0537  1.8970  1.0017
22448SOL     OW73689   2.448   0.556   3.165 -0.3228 -0.0109 -0.4695
22448SOL    HW173690   2.406   0.588   3.085  1.0988  1.8202 -0.5441
22448SOL    HW273691   2.422   0.618   3.233 -1.1684 -1.3038  0.4399
22449SOL     OW73692   5.302   0.651   1.060  0.0055  0.2615  0.3802
22449SOL    HW173693   5.271   0.715   0.996  1.3834  0.8015  0.2114
22449SOL    HW273694   5.318   0.572   1.009 -0.4339  0.1905  0.3499
22450SOL     OW73695   2.861   5.545   5.469 -0.6623  0.5831  0.4169
22450SOL    HW173696   2.840   5.479   5.536 -3.8242  0.5243 -0.4361
22450SOL    HW273697   2.854   5.629   5.516  3.2632  0.4982  1.4788
22451SOL     OW73698   4.765   3.826   2.056 -0.1778  0.2572  1.0887
22451SOL    HW173699   4.739   3.904   2.008  2.4122 -0.0528 -1.0715
22451SOL    HW273700   4.695   3.762   2.038  0.6760  0.1148 -2.6012
22452SOL     OW73701   0.294   5.516   8.379 -0.4327  0.4347  0.3655
22452SOL    HW173702   0.259   5.589   8.430 -1.6808 -0.3052  0.6227
22452SOL    HW273703   0.364   5.554   8.326 -1.2870  1.8800  0.2389
22453SOL     OW73704   8.481   0.501   5.941  0.3759  0.4252  0.1863
22453SOL    HW173705   8.454   0.544   5.859  1.9927 -0.5014 -0.9054
22453SOL    HW273706   8.520   0.571   5.993  1.0395  0.6920 -0.6488
22454SOL     OW73707   0.730   6.036   2.039 -0.5658 -0.2577 -0.4847
22454SOL    HW173708   0.771   6.078   1.964 -0.1282  0.7688  0.3033
22454SOL    HW273709   0.642   6.013   2.008 -1.4822  2.7899 -0.5171
22455SOL     OW73710   2.495   6.962   8.008  0.1068  0.4871  0.0148
22455SOL    HW173711   2.510   6.868   8.018 -0.1020  0.4642  0.1178
22455SOL    HW273712   2.577   6.995   7.971  0.2743  0.3074  0.2209
22456SOL     OW73713   1.514   5.760   0.874  0.6464  0.4004 -0.1452
22456SOL    HW173714   1.478   5.680   0.836  0.8100 -1.0222  2.4409
22456SOL    HW273715   1.565   5.800   0.803 -0.3014 -1.2236 -1.8095
22457SOL     OW73716   4.968   7.405   3.441  0.4535 -0.6164  0.0913
22457SOL    HW173717   5.048   7.400   3.388  0.9080  1.5221  0.5126
22457SOL    HW273718   4.903   7.446   3.384  0.8053  1.2399  0.9671
22458SOL     OW73719   7.047   0.740   7.182  0.1183  0.9578 -0.0120
22458SOL    HW173720   7.141   0.752   7.167 -0.3379  1.0399 -3.4659
22458SOL    HW273721   7.040   0.648   7.209  1.0425  0.1906 -2.1459
22459SOL     OW73722   5.089   7.609   7.978 -0.5226 -0.1215  0.1392
22459SOL    HW173723   5.107   7.552   8.053 -0.2827  0.7779  0.7947
22459SOL    HW273724   5.001   7.642   7.994 -0.2491  0.5315  0.3516
22460SOL     OW73725   5.137   2.727   6.612 -0.4813 -0.2402  0.5015
22460SOL    HW173726   5.107   2.811   6.577  2.2834  0.4020 -0.5979
22460SOL    HW273727   5.130   2.666   6.538  1.3923  0.1015 -0.0255
22461SOL     OW73728   9.026   4.788   4.501 -0.0817 -0.6241 -0.5163
22461SOL    HW173729   9.099   4.729   4.483 -0.2815 -1.0475  0.0156
22461SOL    HW273730   8.968   4.779   4.425  0.4016 -0.3129 -0.9237
22462SOL     OW73731   2.336   3.977   3.413 -0.2882  0.2629 -0.1221
22462SOL    HW173732   2.274   3.965   3.342 -1.6809 -0.3074  1.1467
22462SOL    HW273733   2.331   4.070   3.434  1.2782  0.7796 -1.7190
22463SOL     OW73734   7.714   3.861   1.684 -0.5554 -0.4149  0.5841
22463SOL    HW173735   7.711   3.839   1.777  1.2071  1.5062  1.1632
22463SOL    HW273736   7.659   3.939   1.676 -0.8925 -0.7046 -0.0661
22464SOL     OW73737   3.029   8.380   1.952  0.5462  0.0647 -0.5886
22464SOL    HW173738   3.060   8.294   1.924  0.4602 -0.2503  0.2506
22464SOL    HW273739   3.108   8.431   1.967  0.6016  0.0647 -0.8746
22465SOL     OW73740   2.427   1.138   0.937 -0.4006 -0.4030 -0.2160
22465SOL    HW173741   2.332   1.150   0.933 -0.4910 -0.6360  0.9223
22465SOL    HW273742   2.459   1.211   0.989  0.2395  0.4978 -1.8057
22466SOL     OW73743   2.298   1.902   7.903 -0.3368 -0.3843  0.1359
22466SOL    HW173744   2.270   1.878   7.991 -2.4010 -0.4350 -0.4943
22466SOL    HW273745   2.220   1.939   7.861  0.9230  0.8830 -1.2549
22467SOL     OW73746   3.399   6.059   5.872  0.2461 -0.0423 -0.2974
22467SOL    HW173747   3.337   6.007   5.923  1.0160  0.0683  0.7685
22467SOL    HW273748   3.437   5.996   5.810 -1.1892 -0.0258 -1.2490
22468SOL     OW73749   2.537   2.092   0.529  0.3024 -0.4357 -0.6082
22468SOL    HW173750   2.504   2.181   0.541  0.5683 -0.2595 -1.1484
22468SOL    HW273751   2.502   2.065   0.444  0.4367 -0.7524 -0.5633
22469SOL     OW73752   9.148   4.980   7.634 -0.1308 -0.2498 -0.3324
22469SOL    HW173753   9.053   4.972   7.625 -0.2707  1.2038 -0.4004
22469SOL    HW273754   9.164   4.982   7.728 -0.4041  1.5896 -0.2938
22470SOL     OW73755   4.022   2.568   0.903 -0.4651 -0.4256  0.7917
22470SOL    HW173756   4.057   2.619   0.977 -0.5868 -1.4208  1.5537
22470SOL    HW273757   4.025   2.477   0.933 -0.1860 -0.8865 -0.5792
22471SOL     OW73758   6.026   2.939   8.879  0.1230 -0.4732  0.4724
22471SOL    HW173759   6.075   2.911   8.956 -0.0367 -1.2330  0.3034
22471SOL    HW273760   6.061   2.885   8.808 -1.6842 -1.7940  0.5401
22472SOL     OW73761   8.999   2.769   8.516 -0.5380 -0.1837  0.3885
22472SOL    HW173762   9.055   2.742   8.443 -0.0275 -0.2057  0.7803
22472SOL    HW273763   9.049   2.837   8.561 -1.3938  0.7448 -0.0195
22473SOL     OW73764   0.779   3.697   0.197  0.0634 -0.4347  0.0921
22473SOL    HW173765   0.740   3.615   0.228 -0.9199  0.0069  0.0743
22473SOL    HW273766   0.775   3.690   0.101 -2.7363  0.8067  0.0226
22474SOL     OW73767   1.546   0.472   5.832 -0.1864 -0.0360  0.4725
22474SOL    HW173768   1.585   0.387   5.851  0.9028  0.2716 -0.2820
22474SOL    HW273769   1.457   0.452   5.805  0.1773 -0.9713 -0.0727
22475SOL     OW73770   6.551   0.401   0.931 -0.2789  0.1535 -0.3594
22475SOL    HW173771   6.521   0.321   0.888 -1.5029  0.5570 -0.3060
22475SOL    HW273772   6.643   0.407   0.909  0.1331 -1.8695  0.5671
22476SOL     OW73773   5.873   8.514   2.684  0.3264 -0.0611  0.5146
22476SOL    HW173774   5.885   8.509   2.779  0.8194 -2.0734  0.3891
22476SOL    HW273775   5.842   8.603   2.669  0.2553  0.3174  2.5577
22477SOL     OW73776   5.432   4.948   2.174 -0.0152  0.3124 -0.7222
22477SOL    HW173777   5.391   4.877   2.224  0.6438  0.8608  0.6445
22477SOL    HW273778   5.396   5.028   2.212  1.3971  0.7709 -0.2927
22478SOL     OW73779   2.177   4.025   4.144  0.2690 -0.6883 -0.5069
22478SOL    HW173780   2.242   4.030   4.214 -0.2709  0.4743 -0.0762
22478SOL    HW273781   2.105   3.974   4.181  0.6907 -1.5294 -0.8094
22479SOL     OW73782   0.977   9.028   6.648 -0.6634 -0.5016 -0.2210
22479SOL    HW173783   0.984   8.945   6.600 -1.8745 -2.1294  2.2284
22479SOL    HW273784   1.064   9.040   6.688 -0.8526 -1.2909  0.4472
22480SOL     OW73785   6.277   9.140   5.160 -0.7181  0.6208  0.4275
22480SOL    HW173786   6.199   9.142   5.216 -1.9959  2.2793 -1.2357
22480SOL    HW273787   6.243   9.112   5.074  0.0944  3.0122 -0.7730
22481SOL     OW73788   4.634   3.960   4.181 -0.2899 -0.5646  0.2463
22481SOL    HW173789   4.588   3.920   4.107  1.1087  1.1526 -1.6622
22481SOL    HW273790   4.727   3.940   4.165  0.1480  0.8249  0.8764
22482SOL     OW73791   6.468   0.203   0.484 -0.0328  0.1638  0.2128
22482SOL    HW173792   6.432   0.199   0.572 -1.1960  1.2299 -0.1877
22482SOL    HW273793   6.409   0.260   0.436  0.2385 -0.8678 -1.4348
22483SOL     OW73794   3.209   2.422   9.002 -0.0570  0.2780 -0.1406
22483SOL    HW173795   3.272   2.488   8.975 -0.8771  0.9652 -0.4181
22483SOL    HW273796   3.234   2.343   8.954  0.5416  0.5640 -0.2997
22484SOL     OW73797   0.130   3.655   5.964  0.3656  0.2914  0.1732
22484SOL    HW173798   0.096   3.663   6.053  0.3478 -0.7660  0.2818
22484SOL    HW273799   0.180   3.735   5.949  1.1306  0.0810  1.4758
22485SOL     OW73800   6.683   2.274   5.895  0.3734 -0.0707  0.2899
22485SOL    HW173801   6.601   2.265   5.944  0.3763 -2.1746 -0.0071
22485SOL    HW273802   6.658   2.323   5.817 -0.2069  0.8755  1.0340
22486SOL     OW73803   8.343   5.143   2.074  0.2223  0.5362 -0.5119
22486SOL    HW173804   8.411   5.077   2.057  0.3690  0.2547  0.9780
22486SOL    HW273805   8.386   5.226   2.055  0.6342  0.2919 -0.6709
22487SOL     OW73806   5.377   4.726   0.560  0.2713  0.0733  0.4338
22487SOL    HW173807   5.391   4.660   0.628  2.3289  0.4328  0.4019
22487SOL    HW273808   5.372   4.676   0.479 -1.3904 -0.2814  0.7105
22488SOL     OW73809   3.506   6.529   5.054  0.6157  0.1725  0.2894
22488SOL    HW173810   3.414   6.549   5.037  0.6936 -0.1418 -0.5979
22488SOL    HW273811   3.517   6.542   5.148 -0.8741 -1.9177  0.8130
22489SOL     OW73812   5.009   0.125   5.756  0.0896 -0.2924 -0.2245
22489SOL    HW173813   4.926   0.077   5.758  0.1159 -0.3405  1.7708
22489SOL    HW273814   4.991   0.206   5.803  1.2188 -0.4113  0.4483
22490SOL     OW73815   1.664   6.366   7.502 -0.0191 -0.4971  0.2251
22490SOL    HW173816   1.640   6.356   7.410 -1.4614  0.5518  0.4613
22490SOL    HW273817   1.676   6.276   7.534 -1.6915 -0.9951 -0.4392
22491SOL     OW73818   6.489   2.927   0.306  1.1892 -0.0612  0.2295
22491SOL    HW173819   6.410   2.924   0.361  1.9069  0.7357  1.3360
22491SOL    HW273820   6.494   3.017   0.276  1.5645 -0.1651 -0.0251
22492SOL     OW73821   8.012   8.516   2.528  0.9593  0.0249 -0.8749
22492SOL    HW173822   8.049   8.451   2.469  2.2230 -0.5012  0.4362
22492SOL    HW273823   7.982   8.587   2.471  2.3076 -0.3757 -2.1296
22493SOL     OW73824   5.525   2.423   3.828  0.5126 -0.1786 -0.2160
22493SOL    HW173825   5.552   2.444   3.738  1.9178  0.3657  0.3128
22493SOL    HW273826   5.445   2.473   3.841  0.8678  0.5598 -0.8165
22494SOL     OW73827   0.944   2.366   6.872  0.1088  0.4842  0.1217
22494SOL    HW173828   0.936   2.432   6.941  0.2601  1.4512 -0.7574
22494SOL    HW273829   0.884   2.296   6.899 -0.9634  1.5038  0.4921
22495SOL     OW73830   9.013   8.029   8.336 -0.7822  0.0904 -0.2179
22495SOL    HW173831   8.944   8.024   8.402 -2.4840  0.5056 -1.8736
22495SOL    HW273832   9.007   8.119   8.302  1.1375  0.3956  0.1529
22496SOL     OW73833   0.036   2.093   3.022 -0.5780 -0.3296  0.0318
22496SOL    HW173834  -0.056   2.094   3.052 -0.5512 -1.1746  0.1721
22496SOL    HW273835   0.031   2.060   2.933 -0.4584  0.1639 -0.1573
22497SOL     OW73836   2.417   8.778   6.013  0.0036  0.0814  0.6094
22497SOL    HW173837   2.449   8.864   5.986 -0.1991 -0.3503 -1.0991
22497SOL    HW273838   2.474   8.715   5.968  0.0007 -0.6950  1.6478
22498SOL     OW73839   3.426   5.566   0.173  0.1394 -0.8403 -0.1382
22498SOL    HW173840   3.456   5.656   0.188  0.8393 -1.0370 -0.3126
22498SOL    HW273841   3.492   5.512   0.216 -0.2568 -1.2761 -0.0698
22499SOL     OW73842   8.046   1.608   5.747 -0.2210 -0.1247 -0.0895
22499SOL    HW173843   8.088   1.568   5.671 -1.3759 -1.0693 -0.2543
22499SOL    HW273844   8.116   1.658   5.789  0.4012  0.6117 -1.8865
22500SOL     OW73845   1.389   3.287   2.327  0.1777  0.2249 -0.0925
22500SOL    HW173846   1.299   3.261   2.311  0.5816 -0.9514 -0.5873
22500SOL    HW273847   1.382   3.367   2.380 -1.1385  0.2193 -0.2227
22501SOL     OW73848   0.385   2.047   2.755  0.1683  0.0680 -0.0682
22501SOL    HW173849   0.294   2.058   2.783  0.2755  1.7001 -0.3026
22501SOL    HW273850   0.417   1.974   2.808 -0.9519  0.1870  0.8154
22502SOL     OW73851   8.270   1.431   1.857  0.1270  0.0078  0.0188
22502SOL    HW173852   8.323   1.462   1.783 -1.4688  1.2916 -0.6508
22502SOL    HW273853   8.206   1.372   1.817  0.7941 -1.2633  0.7682
22503SOL     OW73854   5.560   5.025   2.738 -0.1392 -0.3797 -0.1058
22503SOL    HW173855   5.548   4.947   2.683 -0.0940 -0.1228 -0.4843
22503SOL    HW273856   5.476   5.070   2.735  0.6283  1.0550 -2.1937
22504SOL     OW73857   8.614   2.747   6.901  0.1971  0.0759  0.2149
22504SOL    HW173858   8.574   2.818   6.851  0.5387  1.5422  1.9180
22504SOL    HW273859   8.582   2.759   6.990  0.3471 -1.8760  0.5724
22505SOL     OW73860   7.394   1.508   3.695  0.1076 -0.0492  0.0771
22505SOL    HW173861   7.451   1.511   3.618  1.4031 -0.8787  0.9592
22505SOL    HW273862   7.412   1.590   3.741  0.2604 -0.1076  0.1228
22506SOL     OW73863   2.050   2.425   7.539 -0.1651 -0.3845 -0.4710
22506SOL    HW173864   2.020   2.443   7.450  0.1023  0.2368 -0.4402
22506SOL    HW273865   2.137   2.387   7.529 -0.2690 -0.6175 -0.4893
22507SOL     OW73866   6.089   2.583   0.015 -0.7210  0.4856  0.4100
22507SOL    HW173867   6.049   2.563  -0.069 -0.0915  0.8012  0.0306
22507SOL    HW273868   6.021   2.631   0.063 -0.8322  0.9407 -0.1951
22508SOL     OW73869   0.572   0.165   3.249 -0.0511  0.1523  0.4346
22508SOL    HW173870   0.624   0.141   3.325  0.0714 -0.6937  0.0895
22508SOL    HW273871   0.635   0.173   3.178 -0.2719  0.0746  0.2276
22509SOL     OW73872   4.362   5.802   3.808 -0.6149  0.4221  0.0400
22509SOL    HW173873   4.398   5.780   3.722  0.1761 -0.2498  0.5331
22509SOL    HW273874   4.334   5.893   3.799  1.0867  0.9342 -0.4239
22510SOL     OW73875   0.364   1.097   0.946 -0.2188  0.0105  0.3661
22510SOL    HW173876   0.426   1.035   0.985  0.1119 -0.0172 -0.1908
22510SOL    HW273877   0.406   1.125   0.865 -0.2617  1.1438  0.7191
22511SOL     OW73878   8.607   7.596   0.539  0.6110  0.0146  0.2301
22511SOL    HW173879   8.603   7.508   0.578 -1.8404  0.1141  0.3601
22511SOL    HW273880   8.609   7.655   0.614  1.3048  0.1242  0.1382
22512SOL     OW73881   8.568   2.972   3.001  0.0525  0.1489 -0.2575
22512SOL    HW173882   8.516   2.921   3.064  2.0269 -1.1755  0.3875
22512SOL    HW273883   8.510   2.983   2.926 -1.6293 -0.0696  0.9437
22513SOL     OW73884   1.165   4.778   3.608 -0.0458 -0.7576 -0.6276
22513SOL    HW173885   1.167   4.732   3.524 -0.6765  0.3427 -1.2707
22513SOL    HW273886   1.219   4.856   3.593  1.0752 -1.2800  0.4711
22514SOL     OW73887   0.630   3.805   3.682 -0.5301 -0.1238 -0.1778
22514SOL    HW173888   0.634   3.856   3.763 -0.1151  1.3095 -1.0631
22514SOL    HW273889   0.536   3.794   3.665 -0.6423  1.0859 -0.4056
22515SOL     OW73890   6.891   7.978   3.077 -0.3431 -0.2678 -0.2120
22515SOL    HW173891   6.951   7.907   3.101 -1.2246 -1.2567 -0.8590
22515SOL    HW273892   6.830   7.984   3.151  1.3079  1.7090  1.1340
22516SOL     OW73893   4.935   0.031   7.222  0.2671  0.4585  0.0264
22516SOL    HW173894   4.940  -0.000   7.312 -2.4049  0.8989  0.4220
22516SOL    HW273895   4.894   0.118   7.229 -1.9232 -0.3415 -1.6849
22517SOL     OW73896   0.928   9.141   0.568 -0.1218 -0.3398  0.6547
22517SOL    HW173897   0.911   9.180   0.482  0.8468  1.1339  1.0941
22517SOL    HW273898   0.841   9.124   0.604 -0.5809 -2.8934 -1.4000
22518SOL     OW73899   1.836   6.773   4.514  0.2581 -0.5757 -0.5326
22518SOL    HW173900   1.861   6.717   4.440  2.8067 -0.8661  0.4227
22518SOL    HW273901   1.815   6.712   4.585  0.6605 -0.3327 -0.1977
22519SOL     OW73902   5.372   4.205   3.037  0.0633  0.0724 -0.0870
22519SOL    HW173903   5.390   4.113   3.056  0.2565 -0.0606 -0.8740
22519SOL    HW273904   5.397   4.251   3.117  1.1119 -0.4330 -0.1016
22520SOL     OW73905   6.987   8.332   4.637 -0.4987 -0.1458  0.2474
22520SOL    HW173906   6.906   8.345   4.687 -0.6839 -2.6004  0.7069
22520SOL    HW273907   6.960   8.284   4.559  0.0296  2.3062 -1.5581
22521SOL     OW73908   8.225   8.877   6.981 -0.2381  0.1633 -0.3433
22521SOL    HW173909   8.183   8.944   7.036 -0.3590  0.0092 -0.2466
22521SOL    HW273910   8.304   8.920   6.948  0.2086  0.0263  0.5229
22522SOL     OW73911   1.605   3.289   0.823 -0.7540 -0.5536 -0.1519
22522SOL    HW173912   1.603   3.208   0.873 -1.9572 -1.3270 -1.3704
22522SOL    HW273913   1.671   3.273   0.755  1.9865  1.0344  1.9055
22523SOL     OW73914   0.965   6.303   5.793 -0.4269 -0.0472 -0.4399
22523SOL    HW173915   1.017   6.263   5.863 -3.0140 -1.6295  0.7756
22523SOL    HW273916   0.917   6.373   5.837  1.9201  2.7247 -1.9545
22524SOL     OW73917   5.881   5.057   7.936  0.6874  0.3482 -0.6166
22524SOL    HW173918   5.787   5.055   7.955  0.2575 -0.3037 -2.6491
22524SOL    HW273919   5.892   5.129   7.874  1.6989  1.0070  0.2840
22525SOL     OW73920   4.239   2.884   8.713  0.2728  0.6287 -0.1838
22525SOL    HW173921   4.255   2.828   8.637 -0.0689  2.0675 -1.3536
22525SOL    HW273922   4.149   2.863   8.739  0.4170  0.0784 -0.0991
22526SOL     OW73923   8.965   7.270   0.382  0.2143 -0.1564 -0.5821
22526SOL    HW173924   8.886   7.227   0.415 -0.3459  1.4143  0.2200
22526SOL    HW273925   9.036   7.234   0.435 -0.0914 -0.7928 -0.5892
22527SOL     OW73926   7.674   1.672   7.983  0.0316 -0.6540 -0.0916
22527SOL    HW173927   7.710   1.680   7.895 -0.9524 -0.2383 -0.4650
22527SOL    HW273928   7.742   1.708   8.041 -0.5905  2.0742 -0.9440
22528SOL     OW73929   3.699   5.289   5.851 -0.1850 -0.3523  0.0859
22528SOL    HW173930   3.638   5.252   5.915  0.8472  1.4007  2.2311
22528SOL    HW273931   3.643   5.325   5.782 -1.5214 -0.0708  1.2681
22529SOL     OW73932   3.198   5.216   5.365 -0.4491  0.4047  0.1812
22529SOL    HW173933   3.261   5.159   5.409 -0.1569 -0.2563 -1.0421
22529SOL    HW273934   3.252   5.272   5.309 -0.9295 -0.0709 -0.7779
22530SOL     OW73935   2.908   8.485   7.303  0.3890  0.4752  0.1000
22530SOL    HW173936   2.821   8.513   7.275 -0.1710  3.2883  3.8816
22530SOL    HW273937   2.967   8.555   7.275  0.9561  0.0462  0.1923
22531SOL     OW73938   3.685   3.495   4.797  0.1575  0.0049 -0.0489
22531SOL    HW173939   3.764   3.519   4.749  0.4733 -1.2246 -0.1824
22531SOL    HW273940   3.717   3.458   4.879 -0.3134  0.2913  0.2687
22532SOL     OW73941   4.697   5.673   0.553 -0.3781  0.1879 -0.4909
22532SOL    HW173942   4.724   5.747   0.608 -1.0321 -0.1717  0.3297
22532SOL    HW273943   4.626   5.708   0.499  0.4559  0.6214 -1.3376
22533SOL     OW73944   3.783   7.262   5.650  0.1332 -0.1032 -0.2037
22533SOL    HW173945   3.734   7.313   5.586  0.9247  1.7122  0.5446
22533SOL    HW273946   3.728   7.263   5.728 -0.1043 -0.9032 -0.3596
22534SOL     OW73947   0.379   4.782   1.923 -0.5015 -0.0558 -0.0599
22534SOL    HW173948   0.370   4.797   2.017 -0.8148  1.7573 -0.3482
22534SOL    HW273949   0.368   4.868   1.883 -0.0546 -0.7313 -1.7499
22535SOL     OW73950   1.724   2.017   3.830 -0.0945  0.3446  0.0731
22535SOL    HW173951   1.699   1.961   3.903 -0.8476 -2.3651 -2.0708
22535SOL    HW273952   1.663   1.993   3.760  1.2835  1.9490 -1.7910
22536SOL     OW73953   3.886   4.005   6.599  0.3932 -0.0280  0.9023
22536SOL    HW173954   3.958   4.064   6.622 -0.0581  1.1084 -0.4217
22536SOL    HW273955   3.922   3.917   6.610  1.1248  0.4593  2.8298
22537SOL     OW73956   8.699   2.607   3.148 -0.2207 -0.0736 -0.7457
22537SOL    HW173957   8.650   2.600   3.066  0.5400  0.9390 -1.3153
22537SOL    HW273958   8.632   2.625   3.214 -0.7522  0.0331 -1.2976
22538SOL     OW73959   0.949   8.337   6.851  0.4272 -0.4463  1.0165
22538SOL    HW173960   1.013   8.301   6.913 -0.6210 -2.8221  0.8099
22538SOL    HW273961   0.866   8.333   6.897  0.1195  0.9640  0.6382
22539SOL     OW73962   5.840   0.483   8.659 -0.1976  0.3739 -0.3044
22539SOL    HW173963   5.867   0.392   8.666 -1.2041  0.0152 -0.9119
22539SOL    HW273964   5.918   0.533   8.685  0.0140 -0.6554  1.1431
22540SOL     OW73965   2.623   4.263   3.773  0.0452 -0.5675 -0.2275
22540SOL    HW173966   2.547   4.205   3.763 -0.3536 -0.1538  0.3135
22540SOL    HW273967   2.589   4.337   3.824  0.1574  0.8639 -2.1648
22541SOL     OW73968   8.816   8.838   6.036  0.0639 -0.4278  0.0134
22541SOL    HW173969   8.829   8.757   5.987 -0.8930  0.0375 -1.0600
22541SOL    HW273970   8.732   8.827   6.080  1.4986 -1.3967  2.7904
22542SOL     OW73971   7.515   7.654   3.512 -0.1702  0.1356 -0.6991
22542SOL    HW173972   7.510   7.592   3.585  1.5319  0.8353  0.0635
22542SOL    HW273973   7.463   7.730   3.541  2.2434  1.3363  0.8358
22543SOL     OW73974   6.486   4.430   0.813  0.6920  0.0598 -0.2575
22543SOL    HW173975   6.479   4.362   0.879 -0.7867  0.3551 -0.0707
22543SOL    HW273976   6.428   4.401   0.742 -0.5807  1.4608  0.1603
22544SOL     OW73977   8.613   7.228   8.767  0.0798  0.1848  0.6656
22544SOL    HW173978   8.568   7.271   8.839 -0.4607  0.5784  0.1014
22544SOL    HW273979   8.706   7.233   8.790 -0.0808  0.3796  1.2876
22545SOL     OW73980   9.130   0.973   8.833  0.4981  0.4257  0.5506
22545SOL    HW173981   9.212   0.927   8.811  0.0960  0.2729 -0.6962
22545SOL    HW273982   9.078   0.968   8.753 -0.9219  0.1363  1.4627
22546SOL     OW73983   4.339   2.671   5.121  0.1661 -0.0985 -0.5223
22546SOL    HW173984   4.302   2.714   5.199 -0.4419  0.7051 -1.2261
22546SOL    HW273985   4.278   2.600   5.102 -0.3181  0.4039 -0.9044
22547SOL     OW73986   3.389   8.202   6.324 -0.3286 -0.2911  0.3865
22547SOL    HW173987   3.327   8.230   6.392  0.0243  2.2521 -0.2461
22547SOL    HW273988   3.341   8.136   6.275 -1.5505 -0.3104  1.5385
22548SOL     OW73989   7.752   0.933   0.435 -0.4572  0.5697 -0.6001
22548SOL    HW173990   7.755   0.840   0.458  1.5763  0.5563 -0.7246
22548SOL    HW273991   7.765   0.934   0.340 -1.8517  0.9614 -0.8169
22549SOL     OW73992   5.799   7.823   5.322 -0.6564  0.1031 -0.3240
22549SOL    HW173993   5.865   7.874   5.369 -0.4105  0.6583 -1.2548
22549SOL    HW273994   5.722   7.824   5.379 -0.0228 -0.1684  0.5661
22550SOL     OW73995   7.762   5.584   6.213  0.5245 -0.5857 -0.0445
22550SOL    HW173996   7.788   5.569   6.305 -1.7824 -2.1953  0.4391
22550SOL    HW273997   7.746   5.496   6.179 -1.7688  0.1217 -0.9795
22551SOL     OW73998   6.643   7.761   4.267 -0.5138  0.1179  0.2711
22551SOL    HW173999   6.694   7.790   4.191  1.6278 -1.7979  0.8643
22551SOL    HW274000   6.601   7.680   4.238  0.0144 -0.4240  0.9933
22552SOL     OW74001   1.207   2.679   4.250 -0.0755  0.0365 -0.0056
22552SOL    HW174002   1.302   2.678   4.259 -0.1845  1.4578  1.6616
22552SOL    HW274003   1.176   2.616   4.315 -0.3796  1.9610  1.7802
22553SOL     OW74004   8.140   0.140   8.573 -0.5381 -0.0039 -0.4361
22553SOL    HW174005   8.161   0.218   8.623 -1.0975  0.9633 -1.6506
22553SOL    HW274006   8.125   0.172   8.484  0.4530 -1.6649 -1.2406
22554SOL     OW74007   8.085   6.654   2.056  0.3539 -0.7006  0.5558
22554SOL    HW174008   8.028   6.597   2.107  0.0743  0.3108  1.4110
22554SOL    HW274009   8.173   6.638   2.091  0.1550  0.0331  1.4227
22555SOL     OW74010   4.626   5.062   7.276  0.7630  0.0661 -0.0063
22555SOL    HW174011   4.584   5.146   7.261  2.2815  0.7440 -0.7599
22555SOL    HW274012   4.712   5.071   7.235  0.5758 -2.2354 -1.0404
22556SOL     OW74013   4.026   0.518   6.539  0.6565 -0.3087 -0.3047
22556SOL    HW174014   4.022   0.585   6.471  2.5489 -0.8570 -1.0276
22556SOL    HW274015   4.095   0.548   6.598  0.4221 -0.8377  0.2499
22557SOL     OW74016   4.881   5.676   5.617  0.0216  0.2383  0.0872
22557SOL    HW174017   4.916   5.650   5.532 -0.5964  1.7892 -0.6797
22557SOL    HW274018   4.949   5.652   5.680 -0.1294 -2.3393 -0.6178
22558SOL     OW74019   1.689   1.447   1.391 -0.2749 -0.1307 -0.3122
22558SOL    HW174020   1.747   1.471   1.319  0.9451 -1.3858  0.2000
22558SOL    HW274021   1.740   1.384   1.443  0.1833  3.0420  3.5211
22559SOL     OW74022   1.510   4.873   8.200  0.2960 -0.6133 -0.3747
22559SOL    HW174023   1.596   4.831   8.200  1.2185  1.1865 -0.4159
22559SOL    HW274024   1.492   4.889   8.293  1.1674  1.1917 -0.4756
22560SOL     OW74025   5.044   7.924   7.858  0.3227  0.1366  0.5231
22560SOL    HW174026   5.065   8.002   7.908  1.1314  1.0992 -1.2240
22560SOL    HW274027   5.124   7.871   7.861  0.0540 -0.2514  1.0122
22561SOL     OW74028   8.360   6.054   6.051  0.0179 -0.6619 -0.6982
22561SOL    HW174029   8.303   5.977   6.046  0.2465 -1.0373  1.4647
22561SOL    HW274030   8.403   6.046   6.136  0.9640  1.2369 -0.9549
22562SOL     OW74031   5.480   4.540   3.484 -0.2463 -0.1483  0.5338
22562SOL    HW174032   5.565   4.581   3.465  0.0419 -0.2839  1.4847
22562SOL    HW274033   5.497   4.486   3.561 -1.1608 -0.3198  0.6163
22563SOL     OW74034   8.597   6.478   7.852 -0.7981 -0.2227 -0.4333
22563SOL    HW174035   8.577   6.418   7.781 -1.5709 -0.4752 -0.0119
22563SOL    HW274036   8.595   6.565   7.812 -2.5155 -0.2558 -0.4697
22564SOL     OW74037   2.066   8.322   4.871  0.0482 -0.2042 -0.0642
22564SOL    HW174038   2.091   8.335   4.963 -0.3557  0.5800 -0.0542
22564SOL    HW274039   2.113   8.243   4.844  1.7065  0.6349  0.2427
22565SOL     OW74040   8.335   5.559   8.632  0.7188 -0.3629 -0.7446
22565SOL    HW174041   8.290   5.475   8.625 -1.1039  0.5421 -0.5007
22565SOL    HW274042   8.322   5.601   8.548  2.3467 -0.6152 -1.1644
22566SOL     OW74043   6.263   8.737   9.211 -0.3247 -0.8133 -0.0640
22566SOL    HW174044   6.327   8.746   9.140  1.4174 -0.9287  1.4166
22566SOL    HW274045   6.234   8.826   9.229 -0.5914 -0.7586 -0.7429
22567SOL     OW74046   4.043   2.173   5.783  0.1099 -0.1381  0.0234
22567SOL    HW174047   4.073   2.231   5.713 -0.1076 -0.2552 -0.1700
22567SOL    HW274048   4.075   2.214   5.863  1.2281 -0.5350 -0.2057
22568SOL     OW74049   7.759   6.765   4.949  0.8216  0.3283 -0.6299
22568SOL    HW174050   7.784   6.688   4.899  0.9565 -0.0226 -0.0285
22568SOL    HW274051   7.679   6.797   4.906  0.1562 -0.7620 -0.2340
22569SOL     OW74052   7.317   7.928   6.593  0.5252  0.1026  0.2464
22569SOL    HW174053   7.400   7.956   6.553  0.8500 -1.4897 -0.2294
22569SOL    HW274054   7.256   7.999   6.572  1.8660  1.5712  1.0509
22570SOL     OW74055   6.329   5.698   8.073 -0.4551  0.3368  0.2450
22570SOL    HW174056   6.357   5.737   8.156  1.3627  1.7516 -0.9700
22570SOL    HW274057   6.247   5.744   8.052 -0.6597  0.3303  0.9835
22571SOL     OW74058   4.471   0.667   8.753  0.3415  0.1523  0.0232
22571SOL    HW174059   4.424   0.738   8.797  0.2260  0.0632  0.0422
22571SOL    HW274060   4.483   0.698   8.663  1.2369  0.6625  0.2936
22572SOL     OW74061   7.277   3.960   8.061  0.1461  0.3739 -0.1678
22572SOL    HW174062   7.278   3.866   8.079  1.2210  0.2546 -0.8042
22572SOL    HW274063   7.247   3.967   7.971 -2.0570  0.7986  0.5232
22573SOL     OW74064   0.527   8.052   9.043  0.3252  0.2830 -1.0658
22573SOL    HW174065   0.500   8.076   9.132  1.7215 -1.2555 -0.1751
22573SOL    HW274066   0.445   8.053   8.993 -0.4774  1.3063  0.1902
22574SOL     OW74067   3.145   8.219   5.758 -0.3421  0.2467  0.5431
22574SOL    HW174068   3.159   8.157   5.686 -0.3065  0.6949  0.1575
22574SOL    HW274069   3.121   8.164   5.832 -0.9225 -0.1885  0.0472
22575SOL     OW74070   7.815   4.262   1.513 -0.1641 -0.2116 -0.1691
22575SOL    HW174071   7.905   4.274   1.541 -0.6747  1.5767  0.8597
22575SOL    HW274072   7.771   4.343   1.538 -1.7901 -0.5366 -1.7723
22576SOL     OW74073   4.691   2.381   6.971  0.0728 -0.1245 -0.6252
22576SOL    HW174074   4.617   2.389   7.031 -1.2205 -0.7093 -2.0615
22576SOL    HW274075   4.701   2.287   6.957 -0.0468  0.0029 -1.7317
22577SOL     OW74076   8.847   5.722   5.504  0.3764 -0.2363  0.3990
22577SOL    HW174077   8.751   5.713   5.509  0.3462  0.8091  2.8560
22577SOL    HW274078   8.878   5.632   5.494 -0.8530 -0.5142 -1.6120
22578SOL     OW74079   3.742   0.947   5.722  0.5984  0.0456  0.9420
22578SOL    HW174080   3.717   0.885   5.654  0.7056 -0.5656  1.4550
22578SOL    HW274081   3.673   0.941   5.788 -1.1792  2.8780 -0.4757
22579SOL     OW74082   3.339   0.702   0.725  0.1936  0.2744 -0.5122
22579SOL    HW174083   3.263   0.748   0.688 -0.4986  0.7841  1.4052
22579SOL    HW274084   3.324   0.610   0.703 -0.7383  0.4321 -0.6111
22580SOL     OW74085   7.619   5.411   7.987 -0.0876 -0.4087 -0.1644
22580SOL    HW174086   7.547   5.469   8.012 -0.9046 -0.1865 -2.7298
22580SOL    HW274087   7.696   5.468   7.984 -0.1252 -0.2783  0.8800
22581SOL     OW74088   1.465   8.131   3.144  0.0052 -0.0129 -0.1035
22581SOL    HW174089   1.463   8.126   3.240  0.2087  2.0654  0.0450
22581SOL    HW274090   1.373   8.128   3.119 -0.0650 -0.2983  0.1777
22582SOL     OW74091   1.698   7.549   0.964  0.5035  0.0117  0.2510
22582SOL    HW174092   1.715   7.476   1.025 -0.1790  0.3371  0.8438
22582SOL    HW274093   1.621   7.522   0.915  1.5878 -0.6641 -1.1700
22583SOL     OW74094   2.674   9.226   7.833 -0.1272 -0.1414  0.4665
22583SOL    HW174095   2.647   9.134   7.833 -0.8370  0.0616  0.2181
22583SOL    HW274096   2.699   9.244   7.742  0.1521 -0.1232  0.5443
22584SOL     OW74097   6.397   7.175   6.102 -0.2321 -0.8153 -0.8297
22584SOL    HW174098   6.369   7.265   6.113  1.4033 -0.3944  0.1950
22584SOL    HW274099   6.490   7.181   6.077  0.5383 -2.2157  1.4072
22585SOL     OW74100   4.636   5.829   4.436  0.1274  0.3994 -0.0206
22585SOL    HW174101   4.611   5.893   4.370  1.9697  0.7004 -0.4814
22585SOL    HW274102   4.731   5.821   4.427  0.0640 -1.7112  0.6428
22586SOL     OW74103   2.337   2.055   7.225 -0.7033  0.6412 -0.4245
22586SOL    HW174104   2.363   2.001   7.150 -0.6865  1.1159 -0.7616
22586SOL    HW274105   2.354   2.145   7.197  0.2032  0.7690  0.5035
22587SOL     OW74106   7.045   7.877   8.970  0.1468  0.4169 -0.3644
22587SOL    HW174107   6.988   7.829   9.029 -0.0388  2.0645  0.8533
22587SOL    HW274108   7.074   7.812   8.906 -0.2681 -1.2382  1.0731
22588SOL     OW74109   8.793   8.376   8.948 -0.1985 -0.1302  0.0334
22588SOL    HW174110   8.775   8.457   8.900  0.2813  0.4049  0.7302
22588SOL    HW274111   8.720   8.318   8.927 -0.0828  0.1419 -1.2163
22589SOL     OW74112   8.795   8.668   5.363 -0.3283 -0.8267 -0.0842
22589SOL    HW174113   8.801   8.727   5.439  0.1367  1.0796 -1.5270
22589SOL    HW274114   8.881   8.626   5.359  0.3086  0.4631 -0.5865
22590SOL     OW74115   6.653   9.223   8.685  0.2885  0.0758 -0.2098
22590SOL    HW174116   6.678   9.148   8.631  1.2837 -0.0141  0.3491
22590SOL    HW274117   6.593   9.187   8.750  0.6878 -0.2248 -0.0020
22591SOL     OW74118   3.387   2.213   2.062 -0.1009 -0.6313  0.5702
22591SOL    HW174119   3.446   2.269   2.113 -1.7336 -0.6529  2.6205
22591SOL    HW274120   3.387   2.130   2.110  0.9880 -1.9010 -1.4863
22592SOL     OW74121   5.206   9.096   5.972 -0.0714 -0.5096 -0.2505
22592SOL    HW174122   5.261   9.062   6.042 -1.3019 -0.3246  0.8300
22592SOL    HW274123   5.142   9.151   6.016 -0.9201 -0.4515 -1.5167
22593SOL     OW74124   7.119   0.053   0.049  0.0836  0.3105 -0.2996
22593SOL    HW174125   7.081   0.076  -0.036  1.6110  0.2896 -1.0217
22593SOL    HW274126   7.202   0.101   0.052  1.6863 -2.2918 -0.3275
22594SOL     OW74127   0.661   7.050   4.280 -0.2266  0.2802 -0.1260
22594SOL    HW174128   0.618   7.004   4.352 -0.5396  1.1112  0.2325
22594SOL    HW274129   0.614   7.022   4.201 -0.0676 -0.4113  0.0178
22595SOL     OW74130   1.336   4.408   3.168  0.4266 -0.0341 -0.2474
22595SOL    HW174131   1.402   4.454   3.219  0.0853  0.4787 -0.2649
22595SOL    HW274132   1.364   4.418   3.077 -0.0889  0.8714 -0.3208
22596SOL     OW74133   6.350   2.229   5.546 -0.7918 -0.7850  0.7002
22596SOL    HW174134   6.332   2.294   5.479  2.9627  0.1251  0.3534
22596SOL    HW274135   6.347   2.145   5.500  0.3238 -0.2890 -0.3225
22597SOL     OW74136   8.345   1.012   2.804  0.1563  0.2292 -0.4315
22597SOL    HW174137   8.294   0.949   2.855  0.3458 -0.4410 -1.0397
22597SOL    HW274138   8.357   1.086   2.862 -0.4282 -0.1274  0.1643
22598SOL     OW74139   7.189   2.665   5.038  0.3280 -0.2512  0.0233
22598SOL    HW174140   7.107   2.623   5.011  0.3550  0.0011 -0.4646
22598SOL    HW274141   7.169   2.703   5.123 -0.3748  0.6672 -0.5323
22599SOL     OW74142   2.659   6.429   1.487  0.3007  0.3742 -0.1914
22599SOL    HW174143   2.749   6.416   1.455  0.1625 -0.7602 -0.1648
22599SOL    HW274144   2.616   6.345   1.472 -0.4964  0.6120  0.6682
22600SOL     OW74145   6.973   5.282   4.099 -0.5622  0.0876  0.5382
22600SOL    HW174146   6.912   5.247   4.033 -1.1286  0.2662  0.9577
22600SOL    HW274147   6.935   5.366   4.124  0.1025  0.4096  0.4836
22601SOL     OW74148   1.819   8.175   2.265  0.5502 -0.2216 -0.1094
22601SOL    HW174149   1.820   8.112   2.193  1.3783  1.1412 -1.3602
22601SOL    HW274150   1.730   8.211   2.265  0.2487 -0.9572  0.2292
22602SOL     OW74151   5.516   0.405   0.111  0.0986  0.1482  0.5638
22602SOL    HW174152   5.468   0.355   0.177  0.4763  1.2634  1.7414
22602SOL    HW274153   5.453   0.471   0.082  0.4339  0.6865  1.0323
22603SOL     OW74154   1.622   5.930   8.901 -0.6768 -0.0379 -0.6754
22603SOL    HW174155   1.682   5.985   8.952 -0.1333  2.0370 -3.2836
22603SOL    HW274156   1.540   5.933   8.949 -0.3047  2.1017 -0.0569
22604SOL     OW74157   2.024   5.813   2.566  0.1221 -0.6036 -0.2462
22604SOL    HW174158   1.961   5.812   2.493  2.1102 -2.7148 -2.0771
22604SOL    HW274159   1.992   5.745   2.626  1.2068 -2.6028 -1.8060
22605SOL     OW74160   1.830   2.460   5.899  0.4825 -0.0938 -0.4547
22605SOL    HW174161   1.754   2.516   5.915  0.4943  0.5273 -2.2831
22605SOL    HW274162   1.798   2.394   5.837  0.7592 -1.5030  0.8379
22606SOL     OW74163   2.884   1.902   0.340  0.0356 -0.2015 -0.3565
22606SOL    HW174164   2.900   1.971   0.404 -0.0216 -1.3698  0.9721
22606SOL    HW274165   2.966   1.853   0.336 -0.1221 -0.4345 -0.8097
22607SOL     OW74166   3.832   8.656   6.276 -0.5896  0.8571 -0.0808
22607SOL    HW174167   3.770   8.643   6.348 -0.5343  0.9064 -0.0245
22607SOL    HW274168   3.812   8.585   6.215  0.0778  0.1755  0.4716
22608SOL     OW74169   9.013   5.361   7.491  0.7760 -0.2740  0.2001
22608SOL    HW174170   8.935   5.327   7.536  0.6811  0.8309  0.8973
22608SOL    HW274171   9.029   5.446   7.531  1.9787 -0.2067 -0.3814
22609SOL     OW74172   7.859   4.423   5.859  0.4565 -0.0938  0.0573
22609SOL    HW174173   7.880   4.417   5.952  0.8336  1.0082  0.0569
22609SOL    HW274174   7.769   4.392   5.853 -0.1171  1.2906  1.0309
22610SOL     OW74175   7.944   1.853   8.016  0.7068 -0.1203  0.3865
22610SOL    HW174176   7.892   1.877   7.939  2.1796 -0.3755 -0.7223
22610SOL    HW274177   7.961   1.936   8.060  1.0784  0.2067 -0.3632
22611SOL     OW74178   6.023   7.747   4.827  0.4090 -0.0933 -0.0594
22611SOL    HW174179   6.053   7.656   4.821 -0.7016 -0.4737 -0.0357
22611SOL    HW274180   6.057   7.778   4.911  0.4189 -0.6280  0.1382
22612SOL     OW74181   5.422   0.115   5.560  0.2695 -0.0276 -0.2263
22612SOL    HW174182   5.416   0.038   5.504 -2.1231  0.8247 -1.3010
22612SOL    HW274183   5.371   0.093   5.638  2.1761 -0.5946  0.9128
22613SOL     OW74184   5.515   1.664   1.461  0.6016 -0.1761  0.3029
22613SOL    HW174185   5.440   1.639   1.514  0.0141 -1.7301 -1.1347
22613SOL    HW274186   5.515   1.760   1.461 -0.9308 -0.1542  0.9500
22614SOL     OW74187   0.550   5.639   5.498  0.2670 -0.5225 -0.6496
22614SOL    HW174188   0.538   5.565   5.438 -0.3735 -0.3040 -0.8010
22614SOL    HW274189   0.549   5.599   5.585 -0.6183 -0.6414 -0.7029
22615SOL     OW74190   4.372   8.830   0.357  0.3524  0.1827  0.2604
22615SOL    HW174191   4.360   8.925   0.358  0.2853  0.1813 -0.0818
22615SOL    HW274192   4.435   8.813   0.427  1.0486  0.5752 -0.2568
22616SOL     OW74193   1.524   5.125   3.459 -0.2957  0.0895  0.1492
22616SOL    HW174194   1.579   5.135   3.381  1.2957 -2.1259  0.9223
22616SOL    HW274195   1.585   5.120   3.532 -1.5675 -1.4562  1.1646
22617SOL     OW74196   7.077   1.743   8.827 -0.3907  0.4348  0.2129
22617SOL    HW174197   6.984   1.735   8.807 -0.4623 -1.5371  1.0749
22617SOL    HW274198   7.121   1.736   8.742 -0.9124 -2.3798  0.0674
22618SOL     OW74199   5.357   0.190   3.163  0.4589 -0.1457 -0.7331
22618SOL    HW174200   5.432   0.183   3.104 -0.0215  2.2281 -1.7723
22618SOL    HW274201   5.387   0.247   3.234  0.1047 -0.4893 -0.3019
22619SOL     OW74202   2.556   2.018   3.999 -1.1080 -0.1501 -0.1395
22619SOL    HW174203   2.468   2.002   3.964 -0.6318 -1.2985 -0.8537
22619SOL    HW274204   2.603   1.936   3.984  0.9145  1.2852 -2.2506
22620SOL     OW74205   8.100   2.111   0.415 -0.1925 -0.3147  0.4236
22620SOL    HW174206   8.018   2.062   0.422 -0.8334  0.4041 -1.3543
22620SOL    HW274207   8.120   2.138   0.505 -1.3882 -1.3179  1.0211
22621SOL     OW74208   3.375   5.810   6.340 -0.1088  0.5804 -0.3776
22621SOL    HW174209   3.350   5.718   6.349  0.4915  0.4286 -0.2162
22621SOL    HW274210   3.348   5.850   6.423 -2.1624  0.9988 -1.1732
22622SOL     OW74211   2.179   4.512   0.032  0.1443  0.0347 -0.2109
22622SOL    HW174212   2.194   4.418   0.026  0.1855  0.0925 -1.1686
22622SOL    HW274213   2.190   4.533   0.124  3.0876 -0.4088 -0.3874
22623SOL     OW74214   4.952   0.297   4.204  0.1546 -0.4576  0.5614
22623SOL    HW174215   5.032   0.344   4.179 -1.5653  2.5510  0.2601
22623SOL    HW274216   4.922   0.255   4.124 -0.1767  0.9765 -0.0763
22624SOL     OW74217   8.372   3.532   0.703 -0.1896  0.1026 -0.2512
22624SOL    HW174218   8.442   3.597   0.695 -1.0102  0.8549 -1.8731
22624SOL    HW274219   8.316   3.549   0.627 -1.0676 -1.7462 -0.0550
22625SOL     OW74220   0.350   7.946   5.160 -0.2819 -0.6043  0.0382
22625SOL    HW174221   0.398   7.927   5.080 -0.5702  0.7847 -0.4832
22625SOL    HW274222   0.258   7.946   5.134 -0.4281 -0.9000  0.5392
22626SOL     OW74223   1.561   1.409   5.578 -0.2615 -0.1828  0.1358
22626SOL    HW174224   1.587   1.354   5.652 -0.6378 -0.8087 -0.1911
22626SOL    HW274225   1.551   1.348   5.505 -1.0023  0.2737 -0.1556
22627SOL     OW74226   3.348   1.022   6.359 -0.2025 -0.5633 -0.2600
22627SOL    HW174227   3.266   1.005   6.313 -0.6447 -0.0172  0.2889
22627SOL    HW274228   3.323   1.083   6.429  0.5676 -0.8370  0.2701
22628SOL     OW74229   5.106   4.667   5.226  0.1509 -0.2322  0.0927
22628SOL    HW174230   5.027   4.717   5.209  1.0494  0.3247 -2.8886
22628SOL    HW274231   5.170   4.732   5.256  1.1804  0.5014 -3.3366
22629SOL     OW74232   5.847   5.029   0.348  0.2700  0.2980 -0.1925
22629SOL    HW174233   5.764   4.991   0.375  0.6500 -0.3096  0.1590
22629SOL    HW274234   5.824   5.111   0.305 -0.6835 -0.9390 -2.2040
22630SOL     OW74235   2.483   3.380   6.582 -0.3292 -0.0746  0.2566
22630SOL    HW174236   2.545   3.406   6.514 -0.6102 -0.3584 -0.1128
22630SOL    HW274237   2.399   3.370   6.536 -0.1959 -1.8077  0.3213
22631SOL     OW74238   4.451   2.367   6.707  0.0017  0.3029  0.5563
22631SOL    HW174239   4.420   2.390   6.620  2.7528 -0.4832 -0.7546
22631SOL    HW274240   4.488   2.279   6.697 -0.2133 -0.0983  2.7173
22632SOL     OW74241   6.815   2.573   7.787  0.7896 -0.1878  0.3268
22632SOL    HW174242   6.839   2.480   7.784 -0.0407 -0.4075 -1.4958
22632SOL    HW274243   6.817   2.600   7.695  1.7446  1.8200  0.8953
22633SOL     OW74244   6.058   4.832   5.072 -0.0365 -0.2530  0.5911
22633SOL    HW174245   6.062   4.807   4.980  0.0969 -0.4014  0.6352
22633SOL    HW274246   6.063   4.927   5.072  1.3925 -0.2985  0.5085
22634SOL     OW74247   0.823   6.652   4.394  0.7481  0.3732  0.5139
22634SOL    HW174248   0.897   6.598   4.366  1.2851  0.8240  1.0462
22634SOL    HW274249   0.862   6.720   4.449 -0.2236 -0.2637  2.0711
22635SOL     OW74250   6.469   0.774   4.152 -0.3748  0.3639  0.0699
22635SOL    HW174251   6.419   0.836   4.205 -0.4892 -0.4077  0.8815
22635SOL    HW274252   6.540   0.744   4.209  0.0401  0.2023 -0.5161
22636SOL     OW74253   4.186   5.670   0.479  0.3186 -0.5503 -0.8475
22636SOL    HW174254   4.182   5.761   0.451 -0.3701 -0.1236  0.5160
22636SOL    HW274255   4.123   5.624   0.423 -0.0641  0.0111 -0.8804
22637SOL     OW74256   8.415   3.900   1.185 -0.0836  0.2353 -0.0044
22637SOL    HW174257   8.352   3.879   1.254 -0.5753 -1.1735 -0.8688
22637SOL    HW274258   8.416   3.824   1.128  0.6475  1.2005 -1.3345
22638SOL     OW74259   2.393   2.460   4.047  0.4222  0.1104 -0.0063
22638SOL    HW174260   2.442   2.384   4.017 -0.8248 -0.5302 -0.4323
22638SOL    HW274261   2.326   2.475   3.981 -0.5867  0.3874  1.0404
22639SOL     OW74262   2.558   2.026   7.921  0.0672  0.4611  0.3985
22639SOL    HW174263   2.580   2.082   7.846  3.2783  0.8436  1.4875
22639SOL    HW274264   2.464   2.013   7.913  0.1681  0.8081 -3.4573
22640SOL     OW74265   0.185   3.018   1.127 -0.2259  0.4481  0.1662
22640SOL    HW174266   0.194   2.979   1.214 -3.6719  0.6681  0.7406
22640SOL    HW274267   0.217   2.950   1.068 -2.1848 -1.7124  1.3919
22641SOL     OW74268   0.609   0.652   1.407 -0.2534  0.1497 -0.2961
22641SOL    HW174269   0.703   0.670   1.398  0.0812 -1.2225  0.1790
22641SOL    HW274270   0.592   0.582   1.344 -0.9767  0.4201 -0.4102
22642SOL     OW74271   4.964   5.188   2.239 -0.2211  0.0383  0.6988
22642SOL    HW174272   4.999   5.119   2.296 -0.2488 -1.0500 -0.5656
22642SOL    HW274273   5.002   5.170   2.153  0.2077  1.9331  0.4341
22643SOL     OW74274   3.210   8.853   8.913 -0.2932  0.0414 -0.1203
22643SOL    HW174275   3.158   8.852   8.833 -0.5934 -0.6548  0.0715
22643SOL    HW274276   3.272   8.781   8.902 -0.1731  0.0979  0.1732
22644SOL     OW74277   0.496   1.075   8.716 -0.0859 -0.9548 -0.3117
22644SOL    HW174278   0.494   1.148   8.778 -0.4747 -1.4057  0.2197
22644SOL    HW274279   0.460   1.111   8.635  0.9329 -0.2138 -0.4522
22645SOL     OW74280   1.321   7.792   8.627 -0.2828 -0.1391 -0.4120
22645SOL    HW174281   1.306   7.887   8.620  1.5311  0.1319 -1.4056
22645SOL    HW274282   1.417   7.783   8.624 -0.3504 -1.9230  1.0900
22646SOL     OW74283   1.712   3.634   6.487  0.6406  0.4022  0.2903
22646SOL    HW174284   1.652   3.618   6.414  1.2799  0.7241 -0.3294
22646SOL    HW274285   1.722   3.549   6.529  0.9847 -0.0014 -0.5743
22647SOL     OW74286   9.202   4.263   1.777  0.0693  0.1843  0.0924
22647SOL    HW174287   9.286   4.245   1.733 -0.1744 -0.7855  0.0054
22647SOL    HW274288   9.206   4.356   1.798  0.6038  0.4569 -1.1274
22648SOL     OW74289   6.234   1.211   4.435 -0.3314  0.3749 -0.0708
22648SOL    HW174290   6.189   1.241   4.513 -1.8674  0.0131 -0.7850
22648SOL    HW274291   6.327   1.223   4.455 -0.5505 -1.3576  2.5177
22649SOL     OW74292   4.389   7.058   6.011 -0.3206  0.2098 -0.2335
22649SOL    HW174293   4.408   7.002   6.087  0.7964  1.5269  0.5057
22649SOL    HW274294   4.326   7.122   6.044  0.8882  1.3772 -0.0870
22650SOL     OW74295   4.894   8.842   6.749 -0.4333  0.2191 -0.4062
22650SOL    HW174296   4.804   8.827   6.778 -0.9692  2.4065 -0.7076
22650SOL    HW274297   4.947   8.784   6.803 -2.0957 -2.1865 -1.2062
22651SOL     OW74298   4.609   8.185   3.736 -0.6440  0.0833 -0.1474
22651SOL    HW174299   4.536   8.244   3.758 -0.0155  0.7406  0.2339
22651SOL    HW274300   4.567   8.106   3.701 -1.4940  1.5735 -2.8299
22652SOL     OW74301   4.084   3.618   5.195  0.3334  0.0856 -0.2204
22652SOL    HW174302   3.996   3.656   5.188  0.8085  1.6757  1.6834
22652SOL    HW274303   4.096   3.571   5.112 -2.3926 -0.4038 -0.4345
22653SOL     OW74304   6.746   1.224   0.196 -0.5063  0.0894 -0.4943
22653SOL    HW174305   6.666   1.258   0.236 -0.1981 -0.2169  0.4029
22653SOL    HW274306   6.722   1.208   0.105 -1.3096  0.5074 -0.3688
22654SOL     OW74307   1.318   7.049   1.367 -0.5906 -0.0967 -1.1355
22654SOL    HW174308   1.388   6.985   1.362  1.1921  1.5431  0.6569
22654SOL    HW274309   1.237   6.998   1.361  0.7460 -2.2346 -1.7402
22655SOL     OW74310   3.182   4.096   4.333 -0.1440 -0.0413  0.2926
22655SOL    HW174311   3.163   4.047   4.413 -2.3651 -0.2258 -0.2733
22655SOL    HW274312   3.168   4.188   4.357  0.2745 -0.0062  0.3984
22656SOL     OW74313   6.135   0.666   0.495 -0.2223 -0.6077 -0.3804
22656SOL    HW174314   6.108   0.584   0.537  0.8045 -0.4624  0.6018
22656SOL    HW274315   6.074   0.676   0.422 -0.3878 -2.2461 -0.5191
22657SOL     OW74316   0.820   6.287   1.893  0.3364  0.0905 -0.4307
22657SOL    HW174317   0.732   6.278   1.857  0.1846 -1.8667  0.3358
22657SOL    HW274318   0.878   6.274   1.817 -0.0150 -0.9794 -0.5280
22658SOL     OW74319   7.490   6.153   8.821 -0.5113 -0.1593 -0.3215
22658SOL    HW174320   7.511   6.070   8.862 -1.3836  0.2319  0.9905
22658SOL    HW274321   7.479   6.132   8.728  1.6158 -1.0482 -0.4133
22659SOL     OW74322   7.467   3.919   8.695  0.2473 -0.3728 -0.5182
22659SOL    HW174323   7.490   3.872   8.615 -0.8829  0.7686 -1.5649
22659SOL    HW274324   7.548   3.923   8.746  1.0096 -1.0134 -1.6576
22660SOL     OW74325   8.557   7.090   8.336  0.6235 -0.2587  0.1051
22660SOL    HW174326   8.540   7.014   8.391  0.0394 -0.5224 -0.4309
22660SOL    HW274327   8.547   7.165   8.395  0.6512 -0.5667  0.5055
22661SOL     OW74328   8.959   5.452   1.135 -0.0909 -0.3652 -0.3167
22661SOL    HW174329   9.009   5.484   1.060  0.0587 -0.7876 -0.4011
22661SOL    HW274330   9.025   5.415   1.194 -0.2282 -0.2262 -0.0763
22662SOL     OW74331   6.798   0.441   0.814 -0.7516 -0.1050 -0.4381
22662SOL    HW174332   6.890   0.428   0.793 -0.5817 -0.6085  0.5365
22662SOL    HW274333   6.756   0.461   0.730  0.1290 -0.5220 -0.9886
22663SOL     OW74334   7.205   6.171   8.246  0.2537  0.1633 -0.0428
22663SOL    HW174335   7.209   6.266   8.256  0.7861 -0.0449  2.1932
22663SOL    HW274336   7.254   6.153   8.165  0.1943  1.7668 -0.4638
22664SOL     OW74337   6.124   6.763   2.146  0.5398 -0.1709 -0.1715
22664SOL    HW174338   6.065   6.802   2.211 -0.1885  0.6641 -1.2981
22664SOL    HW274339   6.108   6.669   2.153 -0.6494  0.0114 -0.1818
22665SOL     OW74340   7.083   7.552   0.452  0.6316  0.4185  0.2731
22665SOL    HW174341   7.081   7.646   0.438 -1.5345  0.5069  0.8334
22665SOL    HW274342   7.094   7.515   0.364  1.8203  1.1779  0.0841
22666SOL     OW74343   1.769   8.839   0.747  0.2011  0.3977  0.5882
22666SOL    HW174344   1.847   8.880   0.786  0.5837 -1.7596  2.2601
22666SOL    HW274345   1.723   8.800   0.822 -1.1520 -0.5264 -0.6840
22667SOL     OW74346   7.564   7.639   1.803 -0.6670  0.1834  0.0362
22667SOL    HW174347   7.593   7.575   1.737  0.4888  1.2948 -0.5876
22667SOL    HW274348   7.540   7.716   1.752 -0.6451  0.7435  0.8646
22668SOL     OW74349   6.753   2.858   9.201  0.3549 -0.1466 -0.1616
22668SOL    HW174350   6.761   2.953   9.208 -0.9441 -0.0400  0.2119
22668SOL    HW274351   6.732   2.842   9.109  4.2203 -0.4345 -1.1644
22669SOL     OW74352   0.592   5.492   0.420  0.1403  0.4462 -0.6848
22669SOL    HW174353   0.585   5.582   0.387  2.5922  0.9113 -0.0821
22669SOL    HW274354   0.610   5.440   0.342  1.5574  0.9217 -0.7084
22670SOL     OW74355   1.441   7.209   5.435 -0.0829  0.4318  0.1174
22670SOL    HW174356   1.415   7.287   5.385  1.0939  2.3357  2.2737
22670SOL    HW274357   1.455   7.242   5.524  1.8553 -1.9939  0.8040
22671SOL     OW74358   5.043   7.422   2.290  0.3951  0.6426  0.5869
22671SOL    HW174359   4.980   7.423   2.218 -0.5250  0.9867  1.3752
22671SOL    HW274360   5.011   7.489   2.350  1.0136  0.2021  1.4252
22672SOL     OW74361   2.175   6.643   1.507  0.3891 -0.5134  0.9071
22672SOL    HW174362   2.101   6.621   1.451  1.7061  0.0285 -1.1487
22672SOL    HW274363   2.243   6.581   1.482  1.0426 -0.2016  1.8583
22673SOL     OW74364   6.624   2.009   8.763  0.0308  0.3867 -0.1017
22673SOL    HW174365   6.590   2.092   8.796 -0.8828  0.3672 -0.9320
22673SOL    HW274366   6.646   2.027   8.671 -0.0830 -0.2587 -0.2623
22674SOL     OW74367   1.065   8.489   7.865 -0.0640  0.0646  0.0580
22674SOL    HW174368   1.015   8.553   7.813 -1.4296  0.4099  1.6862
22674SOL    HW274369   1.004   8.417   7.879  0.7541 -0.6466  0.0067
22675SOL     OW74370   5.012   8.835   7.734 -0.1631  0.4244 -0.4984
22675SOL    HW174371   5.088   8.830   7.792  1.1163 -1.1362 -2.1539
22675SOL    HW274372   4.983   8.744   7.725 -1.5844  0.8829 -0.7320
22676SOL     OW74373   7.851   9.179   8.872  0.3888  0.3386 -0.3016
22676SOL    HW174374   7.946   9.183   8.858  0.4652  0.7466  0.2786
22676SOL    HW274375   7.840   9.200   8.965 -0.2558  0.0671 -0.3128
22677SOL     OW74376   2.236   0.808   2.995  0.2825  0.1667 -0.1889
22677SOL    HW174377   2.324   0.775   2.977  0.3932 -0.5985  1.5231
22677SOL    HW274378   2.187   0.791   2.915  1.5413  0.0922 -0.9687
22678SOL     OW74379   3.253   3.243   1.646 -0.8501 -0.5554  0.5210
22678SOL    HW174380   3.310   3.182   1.599 -0.2432  0.4274 -0.0569
22678SOL    HW274381   3.250   3.209   1.735 -0.5220 -1.4182  0.2121
22679SOL     OW74382   3.432   7.457   0.159 -0.1558  0.3074 -1.0301
22679SOL    HW174383   3.460   7.420   0.075  1.5773  0.6414 -0.6405
22679SOL    HW274384   3.459   7.392   0.224 -0.9853  0.3033 -0.6824
22680SOL     OW74385   6.290   8.936   2.870  0.1221 -0.7073 -0.0570
22680SOL    HW174386   6.200   8.908   2.890  0.3027 -0.6449  0.9184
22680SOL    HW274387   6.341   8.855   2.874  0.2918 -0.5794  0.6013
22681SOL     OW74388   4.925   5.852   9.141 -0.1743  0.3852 -0.1256
22681SOL    HW174389   4.967   5.784   9.088 -2.0054 -1.8056  1.0384
22681SOL    HW274390   4.992   5.920   9.151  0.9289 -0.0357 -3.4102
22682SOL     OW74391   5.781   0.344   7.243 -0.4729  0.4415 -0.7614
22682SOL    HW174392   5.730   0.342   7.324  0.2125  2.1143 -0.2597
22682SOL    HW274393   5.866   0.308   7.267 -0.7573 -0.5208 -1.1374
22683SOL     OW74394   1.373   8.794   4.658  0.5905  0.2226 -0.7938
22683SOL    HW174395   1.374   8.871   4.715  1.3853  0.0434 -0.5546
22683SOL    HW274396   1.370   8.719   4.718 -0.0211  0.0555 -1.0220
22684SOL     OW74397   3.421   8.345   4.650 -0.2880 -0.0681  0.6000
22684SOL    HW174398   3.491   8.411   4.655  0.8432 -0.7540 -3.0540
22684SOL    HW274399   3.467   8.262   4.636 -1.7929 -1.0667  1.3011
22685SOL     OW74400   9.013   1.503   3.450 -0.1037 -0.4870 -0.4909
22685SOL    HW174401   8.921   1.530   3.456  0.3163  0.8994 -0.0679
22685SOL    HW274402   9.009   1.407   3.454 -1.4177 -0.4108  1.5249
22686SOL     OW74403   1.142   2.174   0.966 -0.1057 -0.5084  0.2521
22686SOL    HW174404   1.235   2.187   0.951 -0.1215 -0.5124  0.1468
22686SOL    HW274405   1.135   2.083   0.994 -0.0057 -0.3189  0.8954
22687SOL     OW74406   2.694   7.923   8.198 -0.3065  0.0692 -0.2654
22687SOL    HW174407   2.682   8.015   8.222 -0.2078 -0.4203  1.8373
22687SOL    HW274408   2.772   7.923   8.143 -0.3317  1.2293 -0.3378
22688SOL     OW74409   0.809   6.344   9.157  0.6055  0.0687  0.6403
22688SOL    HW174410   0.766   6.418   9.199  1.5064  1.3302 -0.5616
22688SOL    HW274411   0.850   6.381   9.079 -0.1083 -1.9639 -0.7988
22689SOL     OW74412   5.301   8.278   0.069  0.4102  0.0293  0.5736
22689SOL    HW174413   5.227   8.336   0.088  0.4237  0.6236 -1.0774
22689SOL    HW274414   5.373   8.337   0.047  1.3981 -0.5431  2.0460
22690SOL     OW74415   6.253   4.239   7.333  0.4085 -0.4265 -0.0556
22690SOL    HW174416   6.157   4.234   7.335  0.3941  0.1696  1.0631
22690SOL    HW274417   6.282   4.149   7.347  0.0185 -0.5044  0.2606
22691SOL     OW74418   5.985   6.033   0.950 -0.7720  0.1213 -0.2970
22691SOL    HW174419   6.033   5.976   1.010  1.4943  0.4077 -1.7301
22691SOL    HW274420   6.052   6.072   0.893 -2.6749  0.7635 -2.2766
22692SOL     OW74421   8.349   3.524   2.190 -0.7962  0.2240  0.4543
22692SOL    HW174422   8.410   3.511   2.262  0.0002  0.2129 -0.1944
22692SOL    HW274423   8.266   3.489   2.221 -0.3937 -0.0426  1.2516
22693SOL     OW74424   5.614   8.325   1.860  0.0628 -0.1959 -0.1739
22693SOL    HW174425   5.602   8.415   1.891 -0.9768 -0.1452 -0.6659
22693SOL    HW274426   5.531   8.282   1.882  0.7039 -1.1501  0.4293
22694SOL     OW74427   5.369   1.459   2.625 -0.1243 -0.6140  0.1049
22694SOL    HW174428   5.285   1.414   2.637 -0.8936  0.7348  0.0173
22694SOL    HW274429   5.370   1.526   2.693  1.0872 -0.8658  0.3580
22695SOL     OW74430   1.665   4.534   2.164  0.0430 -0.3407  0.2849
22695SOL    HW174431   1.646   4.612   2.111  0.1224  1.2940  2.5129
22695SOL    HW274432   1.579   4.500   2.188 -0.0123 -1.6294 -1.5142
22696SOL     OW74433   2.746   7.610   1.816  0.1751  0.4380 -0.5351
22696SOL    HW174434   2.737   7.626   1.722 -1.1491  0.9444 -0.3439
22696SOL    HW274435   2.828   7.653   1.839 -0.3773  1.9173 -1.1466
22697SOL     OW74436   6.687   8.152   4.763  0.2049 -0.1168 -0.1958
22697SOL    HW174437   6.636   8.203   4.700  0.3972 -1.1259 -1.1935
22697SOL    HW274438   6.688   8.063   4.727  3.4242  0.0240 -0.7378
22698SOL     OW74439   7.646   4.937   6.162 -0.4444 -0.5148  0.4073
22698SOL    HW174440   7.660   5.013   6.219  2.6991 -1.6181  1.2653
22698SOL    HW274441   7.602   4.873   6.217  0.0722 -0.5748  0.7491
22699SOL     OW74442   2.206   2.157   6.564 -0.0224  0.2742 -0.0045
22699SOL    HW174443   2.279   2.095   6.557 -1.0641 -0.9611 -0.3373
22699SOL    HW274444   2.248   2.241   6.583  1.4515 -0.4788  0.2456
22700SOL     OW74445   8.772   6.367   7.190  0.4574  0.0061  0.0455
22700SOL    HW174446   8.862   6.386   7.216  0.8268 -2.4557  0.7570
22700SOL    HW274447   8.719   6.397   7.264  0.6597  1.4125 -0.3529
22701SOL     OW74448   0.791   0.761   6.546  0.1404 -0.0933 -0.3108
22701SOL    HW174449   0.730   0.803   6.484 -0.3475  1.1303  0.9287
22701SOL    HW274450   0.859   0.724   6.491  0.0004  1.4096 -1.5788
22702SOL     OW74451   8.719   8.291   4.859 -0.9556 -0.6137 -0.4897
22702SOL    HW174452   8.724   8.278   4.764 -2.2170  0.7336 -0.7736
22702SOL    HW274453   8.648   8.233   4.887 -1.6589  0.1667 -0.6298
22703SOL     OW74454   1.658   7.843   5.349 -0.0062 -0.1842 -0.2744
22703SOL    HW174455   1.749   7.816   5.361 -0.0309 -0.6888 -1.1233
22703SOL    HW274456   1.632   7.802   5.266 -1.0920 -0.2937  0.1075
22704SOL     OW74457   7.883   0.478   1.967  0.4678  0.1762 -0.2747
22704SOL    HW174458   7.870   0.481   1.872 -0.0337  1.6152 -0.1765
22704SOL    HW274459   7.815   0.417   1.998  1.5107 -1.3799 -0.9491
22705SOL     OW74460   0.195   7.242   7.744  0.6064  0.0264  0.6387
22705SOL    HW174461   0.197   7.295   7.824 -0.5169 -0.6062  1.1038
22705SOL    HW274462   0.132   7.173   7.763  1.9896 -1.4605  0.0183
22706SOL     OW74463   2.077   3.084   4.772  0.4815  0.1244 -0.6249
22706SOL    HW174464   1.986   3.067   4.748  0.0288  1.6442 -0.0926
22706SOL    HW274465   2.102   3.010   4.827 -0.4743 -0.2544 -0.6877
22707SOL     OW74466   8.013   8.346   5.185 -0.0098  0.4915 -0.0605
22707SOL    HW174467   8.077   8.415   5.205 -1.6841  2.6298 -1.5366
22707SOL    HW274468   7.959   8.383   5.115 -3.2728 -0.8874  1.4918
22708SOL     OW74469   5.498   1.287   2.224  0.1780 -0.0870 -0.1895
22708SOL    HW174470   5.452   1.308   2.143 -1.3975  0.2375  0.7243
22708SOL    HW274471   5.499   1.192   2.227 -2.3588 -0.1620  0.7135
22709SOL     OW74472   3.235   5.429   7.972  0.1934  0.6565 -0.9521
22709SOL    HW174473   3.197   5.485   8.039  0.8405  2.0131 -1.6716
22709SOL    HW274474   3.326   5.458   7.965  1.1221 -1.7491 -0.0501
22710SOL     OW74475   1.552   1.696   4.381 -0.0049  0.4428  0.9872
22710SOL    HW174476   1.561   1.791   4.390  0.5701  0.3904  1.0034
22710SOL    HW274477   1.553   1.663   4.471 -1.3939  0.5121  1.0488
22711SOL     OW74478   1.966   2.845   7.424 -0.3104 -0.5880 -0.7570
22711SOL    HW174479   1.973   2.917   7.487 -0.4517 -1.5010  0.3419
22711SOL    HW274480   2.010   2.877   7.345 -0.5681  0.7776 -0.3718
22712SOL     OW74481   0.414   7.104   1.073 -0.4875  0.3401 -0.3304
22712SOL    HW174482   0.462   7.030   1.109  1.7723  1.6610 -0.4555
22712SOL    HW274483   0.436   7.103   0.980  0.3887  1.7129 -0.1629
22713SOL     OW74484   8.237   3.692   3.346 -0.3545 -0.2941 -0.2213
22713SOL    HW174485   8.195   3.609   3.323  0.2283 -0.2214 -1.6780
22713SOL    HW274486   8.169   3.743   3.388 -0.4473 -1.8925  1.6883
22714SOL     OW74487   4.733   2.356   8.190  0.1956  0.4973  0.1176
22714SOL    HW174488   4.722   2.366   8.284  0.4941 -0.8293  0.3100
22714SOL    HW274489   4.712   2.443   8.154 -1.7603  0.5528  1.2304
22715SOL     OW74490   0.777   4.348   0.557  0.4283  0.1379 -0.2427
22715SOL    HW174491   0.842   4.367   0.490  1.4326 -0.2327  0.6044
22715SOL    HW274492   0.792   4.414   0.625  1.1635 -1.0681  0.7986
22716SOL     OW74493   2.221   3.672   1.978  0.2013  0.1457  0.4560
22716SOL    HW174494   2.188   3.731   2.046 -0.0322 -2.5897  2.8975
22716SOL    HW274495   2.245   3.592   2.024 -0.3807 -2.0996 -2.7635
22717SOL     OW74496   3.867   6.787   2.284  0.1064 -1.0065 -0.5981
22717SOL    HW174497   3.921   6.776   2.206  1.3412 -0.9358  0.2097
22717SOL    HW274498   3.929   6.780   2.357 -0.9634 -0.7754  0.3646
22718SOL     OW74499   6.340   2.340   7.652 -0.1065 -0.2839  0.3224
22718SOL    HW174500   6.349   2.435   7.661  0.7904 -0.4891  2.1095
22718SOL    HW274501   6.391   2.305   7.725 -1.2221 -2.1181  0.2684
22719SOL     OW74502   5.945   0.266   2.260 -0.5185  0.1659 -0.0912
22719SOL    HW174503   5.922   0.326   2.331  0.1083 -0.6213  0.7958
22719SOL    HW274504   5.861   0.250   2.216 -0.7403  1.4710 -0.1928
22720SOL     OW74505   0.944   1.453   5.522  0.5987 -0.1000  0.0844
22720SOL    HW174506   0.941   1.405   5.605  0.0304  1.5730  1.0785
22720SOL    HW274507   0.939   1.385   5.455  0.2223 -1.4445  1.4171
22721SOL     OW74508   7.038   2.614   5.731 -0.3618 -0.1128 -0.2698
22721SOL    HW174509   6.997   2.564   5.801 -0.4182  1.8923  1.2050
22721SOL    HW274510   6.967   2.633   5.670 -1.5499  2.4123  1.7162
22722SOL     OW74511   3.708   3.970   1.208 -0.6675 -0.1640 -0.1881
22722SOL    HW174512   3.700   4.051   1.259 -0.2669 -0.0934 -0.2333
22722SOL    HW274513   3.660   3.905   1.259  0.3334 -0.2629  0.6470
22723SOL     OW74514   2.584   2.453   4.890  0.1130 -0.4111 -0.0447
22723SOL    HW174515   2.491   2.473   4.875  0.0401 -0.8426 -0.1752
22723SOL    HW274516   2.583   2.369   4.936  0.3138  0.9268  2.5945
22724SOL     OW74517   8.990   3.023   6.741  0.2347  0.3306 -0.1550
22724SOL    HW174518   9.026   3.033   6.829  1.2039  0.7928 -0.5920
22724SOL    HW274519   9.066   3.020   6.684 -0.4055  1.0843 -1.0839
22725SOL     OW74520   4.557   0.876   6.996  0.0969 -0.0027 -1.1982
22725SOL    HW174521   4.587   0.831   7.075  0.7250  1.0051 -0.8368
22725SOL    HW274522   4.566   0.812   6.926 -1.0720 -1.1228 -0.3651
22726SOL     OW74523   1.009   5.658   3.201  0.1065 -0.0792  0.0545
22726SOL    HW174524   1.064   5.597   3.250 -0.0374  0.3290  0.7243
22726SOL    HW274525   0.920   5.637   3.229  0.0558  0.4465  0.2931
22727SOL     OW74526   1.127   2.186   4.644  1.0120  0.0322 -0.3061
22727SOL    HW174527   1.164   2.105   4.610  0.5743 -0.4859  0.4134
22727SOL    HW274528   1.192   2.253   4.623  1.7600 -0.6405 -0.1825
22728SOL     OW74529   0.973   4.327   1.141  0.0045 -0.3403 -0.0840
22728SOL    HW174530   0.936   4.415   1.147  0.9235  0.0806 -0.3160
22728SOL    HW274531   1.050   4.329   1.199  1.3474 -0.2740 -1.7898
22729SOL     OW74532   4.484   0.900   3.864  0.7394 -0.3512  0.0834
22729SOL    HW174533   4.411   0.890   3.802  1.1427  2.7687 -1.0676
22729SOL    HW274534   4.558   0.859   3.819  0.6406  0.3954 -0.8053
22730SOL     OW74535   4.989   1.395   4.066 -0.5391 -0.0182  0.2838
22730SOL    HW174536   5.029   1.429   3.986 -0.7791 -1.6789 -0.5664
22730SOL    HW274537   4.979   1.473   4.122  3.9435  0.5809  0.6241
22731SOL     OW74538   1.595   6.357   3.045 -0.1628 -0.3046 -0.0048
22731SOL    HW174539   1.555   6.443   3.033  0.9841  0.5733  1.9453
22731SOL    HW274540   1.533   6.296   3.006 -1.9807  1.2393  0.3107
22732SOL     OW74541   8.253   8.083   8.611 -0.2870 -0.0704  0.3368
22732SOL    HW174542   8.318   8.041   8.666 -0.2512 -2.8124 -1.5838
22732SOL    HW274543   8.298   8.158   8.573  2.2470 -2.3913 -1.6599
22733SOL     OW74544   8.034   6.558   5.943  0.0702 -0.0365  0.1867
22733SOL    HW174545   8.031   6.617   5.868 -0.2922 -0.0678  0.1756
22733SOL    HW274546   8.126   6.555   5.967  0.2980 -0.5968 -0.7105
22734SOL     OW74547   2.715   2.397   8.195  0.3759 -0.5027  0.0576
22734SOL    HW174548   2.805   2.379   8.168  0.6674 -0.2667  0.8147
22734SOL    HW274549   2.704   2.491   8.179  0.6566 -0.2932  0.9876
22735SOL     OW74550   0.404   7.676   4.268 -0.3546 -0.2264 -0.1703
22735SOL    HW174551   0.423   7.585   4.247 -1.1113 -0.8431  1.5586
22735SOL    HW274552   0.487   7.722   4.256  0.2445 -1.3110 -0.2930
22736SOL     OW74553   8.379   2.088   7.643  0.5616  0.1339 -0.0412
22736SOL    HW174554   8.304   2.129   7.599  0.7019  1.7901  1.1488
22736SOL    HW274555   8.450   2.092   7.579  0.7310  2.3825  0.2106
22737SOL     OW74556   0.048   2.192   4.627 -0.3291 -0.0535 -0.2106
22737SOL    HW174557  -0.043   2.194   4.655 -0.1458  0.1746  0.3977
22737SOL    HW274558   0.092   2.136   4.691 -0.1856 -0.8197 -0.9678
22738SOL     OW74559   4.663   1.467   7.044 -0.8321 -0.2512 -0.7102
22738SOL    HW174560   4.589   1.431   7.093 -1.0099  0.8040 -0.1729
22738SOL    HW274561   4.623   1.515   6.972 -0.6254 -0.5178 -1.0062
22739SOL     OW74562   3.363   7.099   3.905  0.6135  0.3519  0.0894
22739SOL    HW174563   3.289   7.159   3.893  1.0894  0.5693 -2.5078
22739SOL    HW274564   3.408   7.132   3.982 -1.2013  1.0656  0.9028
22740SOL     OW74565   7.925   4.876   6.540 -0.0132  0.3489 -0.3812
22740SOL    HW174566   8.020   4.863   6.547  0.0781  1.5578  1.3418
22740SOL    HW274567   7.903   4.843   6.453  2.0962  0.6842 -1.1162
22741SOL     OW74568   2.176   5.065   4.564  0.3575  0.0962  0.1917
22741SOL    HW174569   2.183   5.048   4.470 -2.0499 -0.3097  0.0323
22741SOL    HW274570   2.093   5.111   4.574  1.2820  1.5271  1.9838
22742SOL     OW74571   2.955   7.845   4.063 -0.0927 -0.3627 -0.2301
22742SOL    HW174572   2.889   7.870   3.998 -0.4162 -1.0856 -0.1797
22742SOL    HW274573   3.028   7.812   4.011 -0.7807 -1.9895 -0.2113
22743SOL     OW74574   0.133   8.044   6.035  0.3287 -0.1162 -0.1591
22743SOL    HW174575   0.223   8.041   6.066  0.0775  0.6877  0.7006
22743SOL    HW274576   0.107   7.952   6.026  1.1483 -0.3481 -0.1847
22744SOL     OW74577   7.854   7.510   7.690 -0.2937 -0.6115  0.2134
22744SOL    HW174578   7.807   7.566   7.629  0.1478 -0.3236  0.1336
22744SOL    HW274579   7.872   7.430   7.640  0.0052 -0.4045 -0.0106
22745SOL     OW74580   5.355   0.633   5.930  0.1742 -0.5314  0.3251
22745SOL    HW174581   5.313   0.662   5.849  0.6013  1.0088  0.6108
22745SOL    HW274582   5.442   0.605   5.903 -0.3603 -1.9403 -0.0063
22746SOL     OW74583   1.655   2.679   4.825  0.0650  0.9998  0.0713
22746SOL    HW174584   1.628   2.699   4.735 -2.1116  1.9384  0.8589
22746SOL    HW274585   1.668   2.584   4.826  0.9566  1.0743 -1.4129
22747SOL     OW74586   2.356   7.154   8.242 -0.0376  0.0138 -0.3845
22747SOL    HW174587   2.439   7.147   8.289  0.1893  2.6333 -0.2708
22747SOL    HW274588   2.378   7.134   8.151  0.1062 -2.0868  0.0613
22748SOL     OW74589   7.282   6.532   8.679  0.9968 -0.1269 -0.3904
22748SOL    HW174590   7.215   6.598   8.658 -0.5132 -0.9581  1.4796
22748SOL    HW274591   7.324   6.566   8.759  2.1475 -0.1116 -0.9835
22749SOL     OW74592   1.254   3.597   5.526  0.1954 -0.8203 -0.1696
22749SOL    HW174593   1.235   3.557   5.441 -1.1207 -0.2916 -0.1429
22749SOL    HW274594   1.337   3.642   5.513  0.9912 -2.3415 -0.6080
22750SOL     OW74595   8.597   1.115   1.823  0.1587  0.3406 -0.5798
22750SOL    HW174596   8.525   1.055   1.804  1.0792 -1.6846  1.7651
22750SOL    HW274597   8.644   1.123   1.740 -0.3613 -1.7662 -1.1369
22751SOL     OW74598   1.925   5.937   1.552 -0.2821  0.0923  0.5224
22751SOL    HW174599   1.890   6.007   1.607  2.7024  2.2761 -0.1158
22751SOL    HW274600   1.864   5.930   1.479 -1.6868  0.5956  1.6166
22752SOL     OW74601   1.328   5.619   7.111  0.1417  0.0952  0.5150
22752SOL    HW174602   1.330   5.524   7.115  0.4846  0.0299 -0.7803
22752SOL    HW274603   1.357   5.648   7.198  2.0290 -0.9814  0.2927
22753SOL     OW74604   3.558   3.054   1.072 -0.5956  0.3653  0.2183
22753SOL    HW174605   3.632   2.998   1.097  0.2599  2.0620  1.7021
22753SOL    HW274606   3.490   3.035   1.137 -0.5275  0.6200  0.3639
22754SOL     OW74607   5.403   6.410   7.189 -0.2735 -0.1934  0.1568
22754SOL    HW174608   5.384   6.368   7.105  2.1793 -2.3087  0.5321
22754SOL    HW274609   5.369   6.349   7.254 -0.7036  0.6430  0.7340
22755SOL     OW74610   6.410   0.196   4.231 -0.3723  0.6827  0.1904
22755SOL    HW174611   6.474   0.266   4.247  1.0683 -0.0794 -1.7997
22755SOL    HW274612   6.330   0.242   4.207 -0.0358  1.6454  0.8362
22756SOL     OW74613   6.008   0.286   7.351  0.8532  0.5452 -0.1166
22756SOL    HW174614   6.103   0.297   7.355  1.3134 -2.6265  2.8958
22756SOL    HW274615   5.975   0.341   7.422  0.2524  2.2101 -1.6150
22757SOL     OW74616   0.870   8.219   5.289  0.0467 -0.3063  0.7570
22757SOL    HW174617   0.958   8.182   5.278  0.2760  0.5203 -0.3895
22757SOL    HW274618   0.882   8.290   5.352  0.6321  1.0838 -0.8384
22758SOL     OW74619   1.613   1.446   0.969 -0.3592  0.6430 -0.2914
22758SOL    HW174620   1.699   1.419   0.936  0.0031  0.5347  0.6943
22758SOL    HW274621   1.629   1.531   1.010 -0.6343  0.4384  0.2496
22759SOL     OW74622   4.441   1.419   4.569  0.4530  0.4121 -0.0107
22759SOL    HW174623   4.437   1.345   4.509  1.5707  0.8692 -0.6641
22759SOL    HW274624   4.352   1.424   4.606 -0.2060  0.0216 -1.4752
22760SOL     OW74625   8.849   5.039   4.397 -0.3674 -0.7504  0.0691
22760SOL    HW174626   8.819   4.950   4.412 -1.9069 -0.3694 -0.5668
22760SOL    HW274627   8.945   5.032   4.393 -0.4168 -2.2070  0.9390
22761SOL     OW74628   2.297   3.701   6.132  0.4703 -0.4395  0.0747
22761SOL    HW174629   2.380   3.653   6.133  1.4436  1.1396 -0.4294
22761SOL    HW274630   2.252   3.671   6.053  1.7104  0.4746 -1.0204
22762SOL     OW74631   8.373   2.681   0.511  0.4951  0.0963  0.3528
22762SOL    HW174632   8.410   2.750   0.457 -0.5032 -0.4382 -1.0834
22762SOL    HW274633   8.440   2.613   0.512  0.7759  0.3714  0.3088
22763SOL     OW74634   0.263   0.337   0.414  0.2445  0.2089 -0.4254
22763SOL    HW174635   0.338   0.303   0.462 -0.6657  1.2272  1.8497
22763SOL    HW274636   0.267   0.432   0.427  1.5118  1.0164 -4.8076
22764SOL     OW74637   2.834   1.560   6.539 -0.4270 -0.1741 -0.2078
22764SOL    HW174638   2.798   1.481   6.497 -2.1221  0.2329  0.3898
22764SOL    HW274639   2.864   1.614   6.466 -0.4509 -0.8007 -0.6993
22765SOL     OW74640   5.712   4.293   6.488 -0.0527  0.5109 -0.2069
22765SOL    HW174641   5.729   4.198   6.487 -0.8263  0.3599  0.0930
22765SOL    HW274642   5.652   4.305   6.562 -0.2814  1.1808 -0.4983
22766SOL     OW74643   0.301   0.643   1.429  0.5027  0.0431  0.3596
22766SOL    HW174644   0.216   0.615   1.464  0.4682  0.2838  0.4711
22766SOL    HW274645   0.289   0.646   1.334 -0.5668  3.0557  0.4824
22767SOL     OW74646   0.508   2.878   4.105 -0.4920  0.3563  0.0344
22767SOL    HW174647   0.425   2.916   4.132 -0.1146  1.8027 -0.7372
22767SOL    HW274648   0.562   2.879   4.185 -1.0312 -0.1296  0.4129
22768SOL     OW74649   0.469   6.499   2.239  0.3106 -0.6306  0.1369
22768SOL    HW174650   0.395   6.521   2.182 -0.5496 -1.3167  0.9376
22768SOL    HW274651   0.546   6.504   2.183 -0.2200  1.0395 -0.4999
22769SOL     OW74652   3.588   0.193   5.311 -0.6930 -0.0911  0.3443
22769SOL    HW174653   3.594   0.274   5.260  1.1678 -0.0186  0.5831
22769SOL    HW274654   3.589   0.123   5.246  1.6283  0.0022  0.1678
22770SOL     OW74655   4.232   4.452   4.077 -0.6868 -0.4706 -0.3882
22770SOL    HW174656   4.208   4.367   4.041 -0.8301 -0.6634  0.1514
22770SOL    HW274657   4.293   4.489   4.013  0.3741 -1.5265 -0.0192
22771SOL     OW74658   3.926   5.055   3.310  0.1359  0.3636 -0.6536
22771SOL    HW174659   4.002   5.027   3.259 -0.4406 -0.8666 -0.8684
22771SOL    HW274660   3.853   5.005   3.273 -0.2758 -0.7282  1.5223
22772SOL     OW74661   5.990   4.194   7.293 -0.4212 -0.1004 -0.1206
22772SOL    HW174662   5.992   4.131   7.221 -1.9777 -0.9085  0.4908
22772SOL    HW274663   5.908   4.242   7.280 -0.5289  0.0024  0.8891
22773SOL     OW74664   3.773   2.387   9.230  0.4425  0.3159  0.1010
22773SOL    HW174665   3.821   2.415   9.153  0.7201  0.9070  0.4822
22773SOL    HW274666   3.833   2.329   9.277  1.7562  2.8995  1.8069
22774SOL     OW74667   3.535   6.858   3.461  0.5525 -0.0990 -0.9304
22774SOL    HW174668   3.596   6.872   3.389  0.5265  1.7158 -0.6648
22774SOL    HW274669   3.489   6.942   3.470  0.3692 -0.3574  1.0043
22775SOL     OW74670   4.289   6.943   0.624  0.1264 -0.1118 -0.5212
22775SOL    HW174671   4.200   6.947   0.588 -0.0627 -0.7465 -0.1297
22775SOL    HW274672   4.307   6.850   0.633  0.7958  0.0182 -0.4906
22776SOL     OW74673   1.804   9.059   2.024 -0.1438 -0.2940 -0.0516
22776SOL    HW174674   1.739   9.086   1.959 -0.0040  0.5704  0.1532
22776SOL    HW274675   1.800   9.127   2.091 -1.0957 -1.7367  1.4401
22777SOL     OW74676   7.272   3.423   4.652  0.6096 -0.1389  0.2692
22777SOL    HW174677   7.223   3.486   4.598 -0.2341 -0.8433  0.2015
22777SOL    HW274678   7.239   3.437   4.740  0.0910 -0.7844  0.1854
22778SOL     OW74679   6.118   1.994   1.547  0.0095  0.5966 -0.6379
22778SOL    HW174680   6.212   1.988   1.565 -0.0332  0.5051 -0.4443
22778SOL    HW274681   6.076   1.958   1.625 -0.1248 -2.1666 -1.8428
22779SOL     OW74682   8.173   5.709   6.776 -0.4058 -0.3724  0.0254
22779SOL    HW174683   8.201   5.719   6.685 -0.5427  0.1685  0.0427
22779SOL    HW274684   8.237   5.759   6.827 -0.0648 -1.0466  0.2747
22780SOL     OW74685   5.659   0.271   7.477  0.3885  0.6342  0.0311
22780SOL    HW174686   5.672   0.177   7.472 -1.6194  0.3699 -1.0539
22780SOL    HW274687   5.733   0.303   7.530  1.4441 -1.4384 -0.1153
22781SOL     OW74688   3.672   0.723   1.702  0.3187  0.5962  0.2168
22781SOL    HW174689   3.711   0.687   1.781 -0.6432 -2.2751 -0.5095
22781SOL    HW274690   3.584   0.686   1.698  0.6053 -0.0712 -2.5609
22782SOL     OW74691   3.790   4.005   5.739  0.2554  0.4804 -0.1582
22782SOL    HW174692   3.829   4.002   5.652 -1.5005 -2.0408 -0.9663
22782SOL    HW274693   3.850   3.955   5.794  0.6581  0.8775 -0.2324
22783SOL     OW74694   6.520   1.127   2.615  0.7741 -0.3183  0.9549
22783SOL    HW174695   6.578   1.052   2.608  0.4153 -0.5240  0.1951
22783SOL    HW274696   6.476   1.133   2.531  1.8445  1.6072  0.4505
22784SOL     OW74697   2.094   3.378   3.211  0.4775 -0.3645 -0.0575
22784SOL    HW174698   2.107   3.459   3.260 -1.9951  1.4916 -2.2097
22784SOL    HW274699   2.032   3.328   3.264 -0.5094  0.6473 -0.2250
22785SOL     OW74700   5.539   3.010   0.713  0.1599 -0.5875  0.1470
22785SOL    HW174701   5.570   3.095   0.684  0.0354 -0.7683 -0.5274
22785SOL    HW274702   5.604   2.948   0.680  0.0982 -0.7843  0.3882
22786SOL     OW74703   4.248   9.070   6.489 -0.4371  0.1336 -0.3779
22786SOL    HW174704   4.238   9.094   6.582 -0.1074  1.4740 -0.6714
22786SOL    HW274705   4.317   9.004   6.489 -0.2548  0.3144  0.3066
22787SOL     OW74706   1.727   2.182   2.178 -0.5052 -0.0982 -0.2746
22787SOL    HW174707   1.728   2.270   2.139  3.5179  0.3110  0.3052
22787SOL    HW274708   1.754   2.197   2.269 -3.4466 -1.6856  0.9943
22788SOL     OW74709   8.430   1.355   3.507  0.6407 -0.4479  0.5543
22788SOL    HW174710   8.524   1.340   3.510  0.8062  0.1870 -0.7675
22788SOL    HW274711   8.393   1.269   3.487  1.0256 -0.5279  0.1622
22789SOL     OW74712   8.774   1.527   6.124 -0.2531 -0.4062  0.0213
22789SOL    HW174713   8.790   1.433   6.116  1.6556 -0.3245  1.8412
22789SOL    HW274714   8.796   1.547   6.215  2.6533  2.3294 -1.0820
22790SOL     OW74715   1.095   4.087   6.267 -0.9020 -0.2668  0.1938
22790SOL    HW174716   1.009   4.123   6.245 -0.7179 -0.3682 -0.7149
22790SOL    HW274717   1.126   4.141   6.339 -1.0306  0.7979 -0.5325
22791SOL     OW74718   6.316   0.556   3.335  0.0547  0.7292 -0.0025
22791SOL    HW174719   6.338   0.649   3.329  0.5544  0.6136  0.0036
22791SOL    HW274720   6.400   0.511   3.336 -0.1842  0.2452 -0.5035
22792SOL     OW74721   7.433   2.908   8.554  0.2564 -0.2275 -0.7341
22792SOL    HW174722   7.349   2.869   8.579  0.0533 -0.2407 -1.4057
22792SOL    HW274723   7.473   2.935   8.637  0.0709 -1.1933 -0.3163
22793SOL     OW74724   3.779   7.397   1.120 -0.8011 -0.2673 -0.8127
22793SOL    HW174725   3.783   7.488   1.150 -1.7602 -0.3948 -0.2601
22793SOL    HW274726   3.712   7.357   1.174 -0.4666 -1.2858 -1.1318
22794SOL     OW74727   7.813   6.625   3.773 -0.1584  0.2501  0.2469
22794SOL    HW174728   7.848   6.547   3.731 -0.8765 -0.0109  0.1174
22794SOL    HW274729   7.884   6.689   3.769 -0.6168  0.7220 -2.6855
22795SOL     OW74730   5.676   7.111   5.857  0.5284 -0.9747  0.0937
22795SOL    HW174731   5.678   7.015   5.847 -2.8155 -0.9758 -1.8803
22795SOL    HW274732   5.630   7.126   5.939 -0.5453 -1.0810 -0.4826
22796SOL     OW74733   0.570   0.987   0.203 -0.5196  0.3793  0.0668
22796SOL    HW174734   0.583   1.081   0.219  0.0192  0.7113 -2.0629
22796SOL    HW274735   0.657   0.953   0.185 -1.0112  0.0331 -1.8122
22797SOL     OW74736   5.558   0.566   3.691 -0.4267  0.1616 -0.3384
22797SOL    HW174737   5.650   0.539   3.694 -0.7260 -0.9064  0.0922
22797SOL    HW274738   5.543   0.591   3.600 -0.0167 -0.8257 -0.6923
22798SOL     OW74739   3.507   4.925   3.626  0.0302 -0.6882 -0.1196
22798SOL    HW174740   3.450   4.971   3.687  0.5068 -1.7052  1.1476
22798SOL    HW274741   3.523   4.840   3.667  2.7020 -0.3471 -0.2466
22799SOL     OW74742   6.894   6.342   4.009  0.4681  0.7780 -0.1887
22799SOL    HW174743   6.862   6.411   3.951  1.3875  1.0717 -0.3620
22799SOL    HW274744   6.815   6.300   4.042 -0.1153  1.9967  0.0158
22800SOL     OW74745   8.180   6.283   6.687  0.1150 -0.1099 -0.0827
22800SOL    HW174746   8.184   6.256   6.779  0.2276  0.7530  0.1720
22800SOL    HW274747   8.259   6.245   6.647  2.0185  2.3820  0.9890
22801SOL     OW74748   5.806   6.564   6.443  0.3963  0.2504  0.2692
22801SOL    HW174749   5.795   6.490   6.384  0.5572  1.1203 -0.9048
22801SOL    HW274750   5.795   6.528   6.530  0.5906 -1.1673 -0.2689
22802SOL     OW74751   8.342   8.087   7.905  1.0612  0.5682  0.3932
22802SOL    HW174752   8.408   8.147   7.939  2.2351 -1.2626  1.4385
22802SOL    HW274753   8.379   8.054   7.823  1.3105 -0.1786  0.7953
22803SOL     OW74754   7.881   0.007   8.576 -0.1058  0.1529  0.1498
22803SOL    HW174755   7.969   0.027   8.610  0.2379  1.1388 -1.2450
22803SOL    HW274756   7.857  -0.075   8.619  0.8400  0.6643  1.7480
22804SOL     OW74757   3.466   0.429   0.017  0.0318 -0.5368  0.4344
22804SOL    HW174758   3.433   0.519   0.013  1.4714  0.1918  2.5946
22804SOL    HW274759   3.390   0.374   0.001 -1.3354  1.0784  1.0931
22805SOL     OW74760   0.651   1.372   5.879 -0.1078  0.6009 -0.5681
22805SOL    HW174761   0.724   1.351   5.939  0.4404  1.5522 -0.8853
22805SOL    HW274762   0.623   1.287   5.846 -0.7226 -0.0082  1.3566
22806SOL     OW74763   3.845   7.419   0.224 -0.1162  0.6677 -0.4066
22806SOL    HW174764   3.831   7.362   0.300  0.5571 -0.3375 -1.0107
22806SOL    HW274765   3.930   7.460   0.239 -0.2883  0.9966 -0.3067
22807SOL     OW74766   0.921   6.617   8.651  0.2906 -0.1953 -0.0694
22807SOL    HW174767   0.916   6.687   8.586  1.0718  0.3537  0.4492
22807SOL    HW274768   0.996   6.564   8.623 -0.2570 -0.8044 -0.4230
22808SOL     OW74769   2.437   7.543   4.122  0.4885 -0.3298  0.3222
22808SOL    HW174770   2.498   7.602   4.166  0.9620 -0.6896  0.1687
22808SOL    HW274771   2.362   7.536   4.181  0.3728  0.5137  0.2795
22809SOL     OW74772   0.701   5.163   6.323 -0.3122 -0.0812  0.5050
22809SOL    HW174773   0.641   5.093   6.349 -0.0424 -0.2301  0.7298
22809SOL    HW274774   0.724   5.142   6.232  1.1379 -1.2846  1.0912
22810SOL     OW74775   0.083   1.792   8.821 -0.5547 -0.9544 -0.1082
22810SOL    HW174776   0.029   1.869   8.842  1.4683  0.3882  0.5219
22810SOL    HW274777   0.132   1.819   8.743  0.4381 -1.4579  0.3339
22811SOL     OW74778   8.641   0.552   7.339 -0.1759  0.0989 -0.3952
22811SOL    HW174779   8.625   0.592   7.425 -1.0818 -1.0742  0.0235
22811SOL    HW274780   8.731   0.574   7.318  0.6265 -0.9849  1.6547
22812SOL     OW74781   3.782   4.879   5.948  0.3898  0.2427  0.4285
22812SOL    HW174782   3.823   4.909   5.868 -0.1349  1.8778  0.7380
22812SOL    HW274783   3.847   4.822   5.989  1.6238  1.3338  0.0359
22813SOL     OW74784   3.669   2.605   7.645 -0.1272 -0.1451 -0.3320
22813SOL    HW174785   3.659   2.511   7.662 -0.1601 -0.3363 -1.3211
22813SOL    HW274786   3.754   2.612   7.601  0.4965  0.4694  0.9027
22814SOL     OW74787   0.635   6.822   2.295 -0.6816  0.2624 -0.4363
22814SOL    HW174788   0.670   6.909   2.317  0.2285 -0.4773  1.2464
22814SOL    HW274789   0.672   6.802   2.209 -0.4071  1.2807 -0.5669
22815SOL     OW74790   3.467   0.988   1.865  0.0329 -0.2042  1.0843
22815SOL    HW174791   3.430   0.976   1.778 -0.5112 -2.0660  1.5274
22815SOL    HW274792   3.445   1.078   1.889 -1.9496 -0.4349  0.2704
22816SOL     OW74793   1.415   7.921   8.031 -0.1350  0.1023  0.1725
22816SOL    HW174794   1.326   7.931   8.065 -0.4534  2.0462 -1.0573
22816SOL    HW274795   1.405   7.863   7.955 -0.0462 -1.0024  0.9698
22817SOL     OW74796   0.183   5.438   3.045 -0.5809 -0.6337 -0.6986
22817SOL    HW174797   0.195   5.526   3.009  0.5832 -1.1402 -1.6120
22817SOL    HW274798   0.140   5.389   2.974 -0.4580 -1.0242 -0.5084
22818SOL     OW74799   0.261   3.500   8.976 -0.3197 -0.1937 -0.0223
22818SOL    HW174800   0.351   3.468   8.971 -0.5043 -0.7616  0.1817
22818SOL    HW274801   0.270   3.594   8.994  0.2346 -0.0508 -0.9951
22819SOL     OW74802   4.789   0.746   5.203  0.0201  0.3585  0.6567
22819SOL    HW174803   4.734   0.670   5.189 -1.0167  1.4166 -1.4809
22819SOL    HW274804   4.768   0.775   5.292 -0.1817 -1.3216  1.1859
22820SOL     OW74805   3.317   9.012   5.978 -0.0857  0.0225  0.1022
22820SOL    HW174806   3.291   8.941   6.037  1.7698 -1.0253 -0.2419
22820SOL    HW274807   3.283   8.986   5.893  1.7812 -1.2451 -0.3103
22821SOL     OW74808   3.705   1.035   0.328 -1.0801 -0.3049 -0.2638
22821SOL    HW174809   3.610   1.023   0.325 -1.4911  2.4838 -1.0478
22821SOL    HW274810   3.718   1.109   0.387  0.5994 -0.4019 -0.4537
22822SOL     OW74811   3.995   0.404   5.455  0.2658  0.1032 -0.4968
22822SOL    HW174812   3.906   0.373   5.469 -0.3184  2.2484  1.1251
22822SOL    HW274813   4.038   0.393   5.539  1.2103  0.0507 -0.9795
22823SOL     OW74814   6.296   2.908   3.218 -0.4266  0.5657 -0.1190
22823SOL    HW174815   6.391   2.900   3.205 -0.5782  1.5084 -2.1209
22823SOL    HW274816   6.259   2.833   3.171 -0.6659 -0.5614  1.7636
22824SOL     OW74817   7.011   2.051   7.860 -0.1725 -0.3067 -0.0924
22824SOL    HW174818   6.991   1.983   7.924  1.9416 -0.6928  0.2397
22824SOL    HW274819   7.046   2.004   7.785 -2.3643  0.1684 -1.5083
22825SOL     OW74820   5.464   1.918   3.247  0.2466  0.2519 -0.2155
22825SOL    HW174821   5.512   2.000   3.240  0.0442  0.3981  0.0414
22825SOL    HW274822   5.531   1.851   3.260  0.5535  0.1192 -2.1705
22826SOL     OW74823   7.273   6.137   2.554 -0.3235  0.0559 -0.7217
22826SOL    HW174824   7.369   6.143   2.560 -0.2366 -1.2106 -0.5601
22826SOL    HW274825   7.253   6.165   2.465 -0.1446  3.5281  0.1761
22827SOL     OW74826   3.861   8.668   2.181  0.3356 -0.3312 -0.5369
22827SOL    HW174827   3.776   8.632   2.206  0.5275  0.1838  0.9345
22827SOL    HW274828   3.854   8.685   2.087 -1.3250  0.1131 -0.3485
22828SOL     OW74829   5.848   3.439   0.416 -0.1919 -0.0932  0.0655
22828SOL    HW174830   5.820   3.442   0.507  0.6510  0.6312  0.3123
22828SOL    HW274831   5.827   3.526   0.381 -1.8893 -0.8271 -0.8801
22829SOL     OW74832   0.060   5.247   7.049  0.0481  0.2274 -0.4106
22829SOL    HW174833  -0.006   5.222   7.115 -0.4510 -1.5497 -1.5169
22829SOL    HW274834   0.010   5.258   6.969  1.0530 -1.2258 -1.2925
22830SOL     OW74835   4.482   4.612   2.928  0.4716  0.2726  0.4222
22830SOL    HW174836   4.514   4.677   2.866 -0.4284 -0.8364 -1.2658
22830SOL    HW274837   4.525   4.531   2.902  0.6660 -0.0763  1.7568
22831SOL     OW74838   3.006   5.977   3.246 -0.2043 -0.0248  0.0698
22831SOL    HW174839   2.964   6.024   3.174 -1.0892  0.9644  1.1724
22831SOL    HW274840   2.933   5.936   3.293  0.3555 -0.6527  0.4053
22832SOL     OW74841   6.674   0.125   6.243  0.4464  0.4439 -0.4966
22832SOL    HW174842   6.769   0.115   6.245  0.5313  0.7052 -1.9354
22832SOL    HW274843   6.643   0.049   6.193 -0.1332  0.1768  0.2612
22833SOL     OW74844   1.194   7.247   2.829  0.1428 -0.7219  0.0163
22833SOL    HW174845   1.280   7.285   2.847 -0.0746 -0.3856  0.3481
22833SOL    HW274846   1.214   7.162   2.789  0.6283 -0.5303 -0.1618
22834SOL     OW74847   2.631   7.038   8.889 -0.3301  0.1590  0.2046
22834SOL    HW174848   2.655   7.090   8.812 -1.9912  1.0322  0.2198
22834SOL    HW274849   2.546   7.000   8.867 -1.9755  2.2512  2.3561
22835SOL     OW74850   8.388   8.562   8.210 -0.5583 -0.1685  0.0148
22835SOL    HW174851   8.414   8.505   8.282 -0.9082  2.3657  2.3201
22835SOL    HW274852   8.445   8.639   8.219 -1.9736  1.0775 -1.1628
22836SOL     OW74853   1.854   8.389   4.230  0.7194 -0.0531 -0.1529
22836SOL    HW174854   1.864   8.463   4.169  2.1708  0.4878  0.6852
22836SOL    HW274855   1.925   8.401   4.293 -0.7578 -0.5863  1.6678
22837SOL     OW74856   2.861   7.561   4.495  0.4267  0.0355 -0.2038
22837SOL    HW174857   2.902   7.601   4.418 -1.5941  0.5035 -1.0988
22837SOL    HW274858   2.856   7.468   4.473  0.4628  0.0668 -0.3479
22838SOL     OW74859   2.602   1.687   4.632  0.6179  0.0583 -0.0673
22838SOL    HW174860   2.644   1.703   4.716  0.0381 -1.6335  0.5881
22838SOL    HW274861   2.667   1.636   4.582  0.4776 -0.0393 -0.1519
22839SOL     OW74862   6.398   4.580   2.502  0.4537 -0.0878  0.1578
22839SOL    HW174863   6.411   4.629   2.583  1.8124  0.0385 -0.1228
22839SOL    HW274864   6.303   4.582   2.489  0.4244  2.6551  0.0594
22840SOL     OW74865   5.646   7.758   5.100  0.2008  0.2256 -0.1603
22840SOL    HW174866   5.715   7.783   5.162  0.6232  0.9948 -0.9266
22840SOL    HW274867   5.577   7.822   5.113  1.6537  2.5637 -2.7584
22841SOL     OW74868   4.788   8.495   7.292 -0.2134  0.0841 -0.0346
22841SOL    HW174869   4.800   8.434   7.365  2.2831 -1.2906 -1.4636
22841SOL    HW274870   4.712   8.461   7.245 -0.2073 -0.6183  0.4420
22842SOL     OW74871   1.951   6.576   4.721  0.4745 -0.8598 -0.1227
22842SOL    HW174872   2.029   6.625   4.747 -0.4607  0.6511 -0.0317
22842SOL    HW274873   1.897   6.572   4.800 -0.1038 -0.7352 -0.5026
22843SOL     OW74874   5.828   8.087   7.811  0.0096  0.0360  0.0503
22843SOL    HW174875   5.884   8.014   7.783 -0.1401 -0.4147  0.8806
22843SOL    HW274876   5.819   8.075   7.906 -0.7465  0.6294  0.0632
22844SOL     OW74877   1.957   8.920   0.407 -0.1829 -0.2755  0.5761
22844SOL    HW174878   1.933   9.000   0.455  2.2917  1.5265 -0.9038
22844SOL    HW274879   2.024   8.878   0.461  0.8420  0.4493 -0.0834
22845SOL     OW74880   2.322   2.313   8.788 -0.1914  0.1892 -0.5431
22845SOL    HW174881   2.328   2.399   8.830  1.9413  0.7325 -1.8295
22845SOL    HW274882   2.344   2.251   8.856 -2.0084  0.5803  0.4751
22846SOL     OW74883   1.542   7.841   3.108  0.0471  0.0418 -0.1013
22846SOL    HW174884   1.451   7.814   3.126 -0.3540  1.2377 -0.2482
22846SOL    HW274885   1.586   7.833   3.192 -0.3663  0.0978  0.1268
22847SOL     OW74886   2.001   3.719   0.141 -0.7670  0.3364 -0.2103
22847SOL    HW174887   1.921   3.770   0.131  0.1808  1.6437 -1.4616
22847SOL    HW274888   2.045   3.758   0.217 -0.9598  0.0900  0.0310
22848SOL     OW74889   4.133   7.466   1.630  0.2609 -0.4695  0.2832
22848SOL    HW174890   4.083   7.444   1.553  0.3993 -1.4219  0.4568
22848SOL    HW274891   4.119   7.560   1.642 -0.0290 -0.3821 -0.6943
22849SOL     OW74892   7.919   4.766   6.300  0.4813 -0.4762  0.3772
22849SOL    HW174893   7.924   4.790   6.208 -0.4614 -0.1902  0.3836
22849SOL    HW274894   7.993   4.707   6.314  1.9368  1.1694 -0.0166
22850SOL     OW74895   4.122   0.517   7.473 -0.1846 -0.6753 -0.0188
22850SOL    HW174896   4.128   0.561   7.558  1.4851 -1.7305  0.4645
22850SOL    HW274897   4.198   0.549   7.424  0.2907 -1.9443 -0.1517
22851SOL     OW74898   0.136   8.304   2.432  0.4884 -0.1605  0.2919
22851SOL    HW174899   0.199   8.308   2.504  0.3698  0.8762  0.3452
22851SOL    HW274900   0.065   8.362   2.459 -1.0145 -2.0949  0.7010
22852SOL     OW74901   8.640   0.779   0.949  0.1285  0.0277  0.7097
22852SOL    HW174902   8.617   0.846   1.014  2.5284 -0.2245  1.9333
22852SOL    HW274903   8.641   0.697   0.999  1.2735 -0.2824  0.2158
22853SOL     OW74904   8.089   2.552   9.222  0.2156 -0.7420  0.2109
22853SOL    HW174905   8.105   2.638   9.182  1.4454 -0.6612  0.8380
22853SOL    HW274906   8.152   2.494   9.180 -0.9039 -1.4630 -0.5209
22854SOL     OW74907   2.159   1.034   1.127 -0.4343 -0.0362 -0.0631
22854SOL    HW174908   2.183   0.966   1.189 -0.5099  1.2802  1.4538
22854SOL    HW274909   2.151   0.987   1.043  1.8375 -1.4791  0.4348
22855SOL     OW74910   1.316   8.716   1.748 -0.1308 -0.6769  0.0347
22855SOL    HW174911   1.279   8.804   1.760  0.0905 -0.4109 -1.1243
22855SOL    HW274912   1.403   8.732   1.713 -0.2390 -1.3694 -0.5603
22856SOL     OW74913   8.253   7.169   7.132 -0.2890  0.6519 -0.6802
22856SOL    HW174914   8.205   7.146   7.053 -0.0940  0.9797 -0.8976
22856SOL    HW274915   8.274   7.262   7.121 -1.3753  1.0292  0.3491
22857SOL     OW74916   8.340   4.474   7.534  0.4196 -0.4496  0.1625
22857SOL    HW174917   8.294   4.390   7.528 -0.3150 -0.0857  0.5889
22857SOL    HW274918   8.283   4.529   7.587 -0.2110  1.0621 -1.9629
22858SOL     OW74919   1.877   1.672   1.716 -0.1064  0.0705  0.2276
22858SOL    HW174920   1.784   1.682   1.695 -0.0241 -0.2953 -0.3334
22858SOL    HW274921   1.900   1.753   1.761 -0.7050  0.1500  0.4073
22859SOL     OW74922   8.273   0.816   1.249 -0.2653  0.5436 -0.1293
22859SOL    HW174923   8.198   0.869   1.223 -1.5964 -0.5534  1.2907
22859SOL    HW274924   8.335   0.879   1.285 -1.2267  1.3137  0.2399
22860SOL     OW74925   5.130   5.134   0.198  0.0250  0.1168 -0.3005
22860SOL    HW174926   5.183   5.080   0.257 -1.9034 -1.0843  0.4257
22860SOL    HW274927   5.156   5.105   0.111 -0.3064 -1.3847  0.0629
22861SOL     OW74928   2.567   9.185   3.580 -0.0682  0.0480  0.5375
22861SOL    HW174929   2.545   9.248   3.649  1.2971  0.7886  0.3406
22861SOL    HW274930   2.572   9.237   3.500 -2.2924 -0.9128 -0.2986
22862SOL     OW74931   1.381   6.011   3.189 -0.0881 -0.4127  0.4032
22862SOL    HW174932   1.441   5.960   3.243 -1.8000 -2.2830  0.6797
22862SOL    HW274933   1.322   5.945   3.151 -1.3893  1.2390 -0.5502
22863SOL     OW74934   2.165   4.046   8.844  0.4772  0.2060 -0.0180
22863SOL    HW174935   2.129   4.014   8.761  1.0598  0.8399 -0.5368
22863SOL    HW274936   2.090   4.048   8.903 -0.0048 -0.0244 -0.6020
22864SOL     OW74937   1.566   8.937   9.005 -0.3940  0.2833 -0.1387
22864SOL    HW174938   1.596   8.857   8.961  0.2921  1.1802 -1.3862
22864SOL    HW274939   1.641   8.965   9.058  0.4170  1.5423 -1.8456
22865SOL     OW74940   5.619   9.216   2.631  0.0798 -0.2077 -0.0140
22865SOL    HW174941   5.548   9.173   2.680  0.3980 -1.1411 -0.3560
22865SOL    HW274942   5.690   9.224   2.694 -0.9154  2.4442  0.9000
22866SOL     OW74943   4.341   0.953   1.462  0.0176 -0.5253  0.2805
22866SOL    HW174944   4.393   1.005   1.524  0.7255  0.2603 -0.9233
22866SOL    HW274945   4.289   0.895   1.518 -0.0441  0.7569  1.6550
22867SOL     OW74946   8.284   5.505   7.904 -0.0045 -0.0316  0.0947
22867SOL    HW174947   8.209   5.477   7.851  1.4875 -0.2244 -2.0798
22867SOL    HW274948   8.347   5.434   7.896 -0.1837 -0.6573  3.3285
22868SOL     OW74949   8.701   7.816   3.546  0.2174 -0.0472 -0.3665
22868SOL    HW174950   8.749   7.874   3.606  2.1186 -0.3156 -1.5495
22868SOL    HW274951   8.769   7.762   3.505 -1.2131 -1.0914 -1.4621
22869SOL     OW74952   5.873   1.743   1.563 -0.6690 -0.3023  0.7365
22869SOL    HW174953   5.789   1.789   1.560 -0.5956 -0.1945 -0.9485
22869SOL    HW274954   5.884   1.708   1.474  2.2446  1.8614  0.1078
22870SOL     OW74955   8.164   4.255   2.273  0.3431 -0.4848 -0.1074
22870SOL    HW174956   8.171   4.350   2.281 -1.1066 -0.4654  1.1666
22870SOL    HW274957   8.076   4.234   2.303  0.7494 -2.2774 -0.0612
22871SOL     OW74958   9.039   6.083   7.641 -0.0037 -0.6370 -0.6922
22871SOL    HW174959   9.131   6.092   7.666 -0.1001 -1.1447 -0.1002
22871SOL    HW274960   9.023   5.988   7.645 -1.3889 -0.3938  2.4804
22872SOL     OW74961   3.955   0.813   1.219  0.0075 -0.1354  0.7469
22872SOL    HW174962   3.975   0.843   1.307  0.5200 -1.2656  1.0308
22872SOL    HW274963   3.978   0.720   1.219 -0.3707 -0.2499 -0.4565
22873SOL     OW74964   9.000   1.157   0.056 -0.4677 -0.4637  0.0707
22873SOL    HW174965   8.966   1.089  -0.002  1.2292 -0.8159 -0.5613
22873SOL    HW274966   9.053   1.109   0.120  0.6648  0.2240 -0.3234
22874SOL     OW74967   0.958   7.762   5.057 -0.0071 -0.1541 -0.4267
22874SOL    HW174968   1.018   7.729   4.989  2.2640  0.6436  1.0936
22874SOL    HW274969   0.926   7.845   5.022  1.0300  0.1833 -0.6271
22875SOL     OW74970   0.949   8.820   3.865  0.0420 -0.4969  0.0369
22875SOL    HW174971   0.897   8.897   3.843 -0.2100 -0.6373  0.1341
22875SOL    HW274972   1.030   8.855   3.903 -0.5209 -0.2926  1.0957
22876SOL     OW74973   5.293   4.168   3.719  0.5190 -0.0966  0.7204
22876SOL    HW174974   5.268   4.084   3.758  0.2027 -0.4607 -0.2267
22876SOL    HW274975   5.345   4.143   3.642 -0.6120  0.5261 -0.2814
22877SOL     OW74976   7.305   1.088   7.536 -0.2782 -0.2430  0.2047
22877SOL    HW174977   7.363   1.147   7.489 -0.4084  1.3011  1.8471
22877SOL    HW274978   7.352   1.005   7.541  2.0713  1.0645  1.8408
22878SOL     OW74979   6.993   2.095   6.927 -0.0966  0.4902  0.4169
22878SOL    HW174980   7.022   2.048   7.005 -1.1762  0.9896  1.1505
22878SOL    HW274981   6.910   2.053   6.903 -0.2681  0.9784  0.1323
22879SOL     OW74982   1.197   7.959   4.872 -0.0003 -0.2244 -0.2848
22879SOL    HW174983   1.157   8.032   4.825  0.5429 -0.4018 -1.0527
22879SOL    HW274984   1.290   7.967   4.854  0.1813 -0.4900  0.5136
22880SOL     OW74985   2.536   5.569   0.712 -0.4168 -0.0362 -0.4330
22880SOL    HW174986   2.595   5.623   0.765  0.1523 -0.1595 -0.9244
22880SOL    HW274987   2.463   5.628   0.690  0.4002  0.6809 -1.3143
22881SOL     OW74988   2.196   3.578   5.878  0.0161  0.1200 -0.3898
22881SOL    HW174989   2.198   3.522   5.801 -1.5270  0.3571 -0.6356
22881SOL    HW274990   2.168   3.664   5.845  0.8457  0.6382  0.2106
22882SOL     OW74991   1.512   7.117   0.119  0.1107  0.4992  0.3702
22882SOL    HW174992   1.424   7.084   0.133  0.1185  0.5640  0.5688
22882SOL    HW274993   1.569   7.045   0.145  0.0993 -0.2458 -1.5186
22883SOL     OW74994   0.583   4.229   8.553 -0.4223  0.5588  0.1540
22883SOL    HW174995   0.624   4.181   8.625  0.0782  1.1110  0.2475
22883SOL    HW274996   0.519   4.287   8.595  0.5743  1.6165  0.2762
22884SOL     OW74997   8.452   4.419   1.158 -0.1431 -0.3017  0.4135
22884SOL    HW174998   8.453   4.351   1.091  1.3977 -0.1903  0.2907
22884SOL    HW274999   8.359   4.433   1.176 -0.5297 -1.5155 -0.4833
22885SOL     OW75000   4.325   4.581   1.452 -0.1223 -0.4571 -0.0745
22885SOL    HW175001   4.259   4.639   1.413 -0.3439 -0.5165  0.2158
22885SOL    HW275002   4.315   4.592   1.546 -0.5679 -1.4142  0.0005
22886SOL     OW75003   2.167   6.610   7.690 -0.3405  0.3400 -0.0446
22886SOL    HW175004   2.207   6.568   7.767 -2.1717  2.4334  2.2433
22886SOL    HW275005   2.122   6.539   7.645 -0.1320 -0.8079  1.4566
22887SOL     OW75006   8.715   0.412   0.408 -0.5089  0.3494 -0.3022
22887SOL    HW175007   8.742   0.503   0.397 -0.5457  0.4474  0.3646
22887SOL    HW275008   8.665   0.412   0.489 -0.6930 -0.2283 -0.4138
22888SOL     OW75009   5.270   7.232   4.766  0.1288  0.2134 -0.8345
22888SOL    HW175010   5.212   7.287   4.713  1.0351  0.2893 -1.7727
22888SOL    HW275011   5.214   7.159   4.794 -0.3241  0.0448 -2.0958
22889SOL     OW75012   4.128   5.180   7.262  0.3771 -0.3576 -0.2245
22889SOL    HW175013   4.211   5.217   7.233  0.1354 -0.8554 -1.5908
22889SOL    HW275014   4.113   5.105   7.205  0.4617 -2.1502  1.9464
22890SOL     OW75015   5.652   8.591   5.437  0.2268 -0.2111 -0.1033
22890SOL    HW175016   5.619   8.671   5.478 -0.6554 -1.6741  2.2487
22890SOL    HW275017   5.587   8.569   5.370  0.0101  0.5383 -0.1416
22891SOL     OW75018   0.930   7.534   1.052 -0.7525  0.0220  0.3590
22891SOL    HW175019   1.002   7.471   1.059 -0.4061  0.6057  3.3580
22891SOL    HW275020   0.937   7.568   0.963  1.6542 -1.1339  0.0174
22892SOL     OW75021   1.051   3.855   1.687 -0.2958 -0.3094  0.3176
22892SOL    HW175022   1.146   3.847   1.696 -0.3239 -0.0411  0.9251
22892SOL    HW275023   1.037   3.916   1.615 -0.0123 -0.7572 -0.1170
22893SOL     OW75024   2.061   8.258   2.906  0.0624  0.1559 -0.7380
22893SOL    HW175025   2.038   8.202   2.980 -2.2347  0.6637 -0.9916
22893SOL    HW275026   2.125   8.319   2.941 -0.1834 -0.2797  0.5402
22894SOL     OW75027   1.358   6.740   7.853 -0.1779 -0.1928  0.4058
22894SOL    HW175028   1.408   6.810   7.894  1.3415 -1.2194  0.4171
22894SOL    HW275029   1.269   6.751   7.886  0.4319  0.5912  1.8953
22895SOL     OW75030   8.454   2.993   0.154  0.8608 -0.0237  0.2475
22895SOL    HW175031   8.397   3.036   0.219  1.4368  2.5519 -0.8443
22895SOL    HW275032   8.513   2.939   0.207 -0.9028 -0.7545  1.5780
22896SOL     OW75033   3.572   4.182   0.533  0.3858  0.8026 -0.2233
22896SOL    HW175034   3.540   4.092   0.525 -0.6133  1.0680  0.5928
22896SOL    HW275035   3.655   4.182   0.485  0.5575 -0.6355  0.0218
22897SOL     OW75036   8.459   6.205   4.441 -0.5736 -0.3200  0.5100
22897SOL    HW175037   8.401   6.132   4.466  1.3057 -2.1511 -0.1428
22897SOL    HW275038   8.529   6.203   4.506  0.0587  0.2289 -0.1414
22898SOL     OW75039   1.473   7.468   6.867  0.0638 -0.6441  0.2294
22898SOL    HW175040   1.485   7.544   6.923  1.2761 -0.6501  0.0147
22898SOL    HW275041   1.558   7.424   6.868 -0.1274 -1.0815 -0.9736
22899SOL     OW75042   6.783   0.654   3.452 -0.3785  0.1564 -0.1455
22899SOL    HW175043   6.860   0.702   3.483  0.3755 -1.5622  0.7692
22899SOL    HW275044   6.815   0.600   3.380 -0.9387  0.1294 -0.3797
22900SOL     OW75045   9.065   9.013   8.717  0.1364 -0.2192  0.1050
22900SOL    HW175046   9.069   8.947   8.786  2.3604 -0.1606  0.1090
22900SOL    HW275047   9.129   9.079   8.743  0.9995 -0.1676 -1.9580
22901SOL     OW75048   3.133   0.820   0.607  0.3398  0.0034  0.1819
22901SOL    HW175049   3.046   0.783   0.596  0.6557 -0.4876 -0.8351
22901SOL    HW275050   3.118   0.905   0.649 -0.6640  0.1034 -0.3500
22902SOL     OW75051   0.900   1.169   6.282  0.1760 -0.6966 -0.1162
22902SOL    HW175052   0.970   1.220   6.242  1.2235 -0.8842  1.3964
22902SOL    HW275053   0.884   1.212   6.366 -1.1897 -0.9590 -0.2191
22903SOL     OW75054   6.264   8.225   3.039  0.5230 -0.3184 -0.0892
22903SOL    HW175055   6.178   8.218   3.079 -0.8244 -1.2943 -2.8734
22903SOL    HW275056   6.251   8.195   2.949  3.2745  1.7468 -1.3243
22904SOL     OW75057   4.116   5.691   5.589  0.3648  0.5738  0.0574
22904SOL    HW175058   4.114   5.619   5.652  0.1702  2.2271  2.0752
22904SOL    HW275059   4.204   5.727   5.597  0.5862  0.3687 -1.2185
22905SOL     OW75060   8.298   3.630   4.936  0.3643  0.0695  0.4741
22905SOL    HW175061   8.285   3.535   4.942 -0.6150  0.1363 -0.4230
22905SOL    HW275062   8.382   3.640   4.890  0.8206 -0.3457  1.1900
22906SOL     OW75063   7.394   7.446   0.144  0.0569 -0.6065 -0.1540
22906SOL    HW175064   7.418   7.391   0.070 -0.0146  0.5142 -1.0379
22906SOL    HW275065   7.433   7.531   0.125 -1.4078  0.1896  0.2350
22907SOL     OW75066   2.775   3.337   3.486  0.0754  0.1898  0.0585
22907SOL    HW175067   2.797   3.247   3.511 -0.1460 -0.3308 -1.5000
22907SOL    HW275068   2.857   3.375   3.454 -0.0182  0.2252 -0.1468
22908SOL     OW75069   4.039   7.225   4.043  0.4969  0.2871  0.5775
22908SOL    HW175070   4.106   7.196   3.982  0.6102  3.2325 -0.8727
22908SOL    HW275071   3.957   7.193   4.006  0.7262  0.4693 -0.1050
22909SOL     OW75072   0.510   2.357   2.133 -0.1636  0.0902 -0.1769
22909SOL    HW175073   0.458   2.371   2.054  0.8372 -0.3686 -0.9430
22909SOL    HW275074   0.446   2.338   2.201 -1.0467  0.5080 -0.8736
22910SOL     OW75075   5.374   4.220   0.001 -0.4512 -0.4533 -0.1026
22910SOL    HW175076   5.284   4.253  -0.011 -0.4952 -0.6320 -0.2811
22910SOL    HW275077   5.408   4.269   0.075  0.5235  2.1921 -2.1516
22911SOL     OW75078   2.375   3.460   2.881 -0.3240  0.2324 -0.3664
22911SOL    HW175079   2.354   3.440   2.790  0.7396 -0.3607 -0.4895
22911SOL    HW275080   2.339   3.548   2.894 -3.9646 -1.1220 -0.1788
22912SOL     OW75081   2.743   5.167   0.248 -0.3685  0.3593 -0.1010
22912SOL    HW175082   2.764   5.203   0.162 -1.6361  2.4162  0.4038
22912SOL    HW275083   2.773   5.076   0.243  0.6148  0.7338 -2.3099
22913SOL     OW75084   3.940   4.468   5.424 -0.3033 -0.1453 -0.4242
22913SOL    HW175085   3.992   4.537   5.466  1.2053 -1.4279 -0.0834
22913SOL    HW275086   3.850   4.490   5.445  0.1660  1.4509  0.0820
22914SOL     OW75087   6.036   1.831   1.786 -0.3248 -0.5860 -0.4616
22914SOL    HW175088   6.094   1.755   1.787 -0.4182 -0.7634  2.7199
22914SOL    HW275089   5.966   1.809   1.725  0.8309 -2.0552 -1.3096
22915SOL     OW75090   5.754   8.746   6.253  0.1361 -0.1735  0.2994
22915SOL    HW175091   5.779   8.671   6.306 -1.0980  0.4637  1.8716
22915SOL    HW275092   5.714   8.807   6.315  0.8346  1.6802 -0.9678
22916SOL     OW75093   0.848   4.251   1.454  0.3848  0.3156 -0.2964
22916SOL    HW175094   0.829   4.331   1.504  0.6371  0.9695 -1.2189
22916SOL    HW275095   0.793   4.259   1.376  1.7628  0.4961 -1.2809
22917SOL     OW75096   1.148   3.728   0.183 -0.0646  0.0607 -0.9778
22917SOL    HW175097   1.135   3.751   0.275  0.1027  0.5596 -1.0786
22917SOL    HW275098   1.216   3.661   0.184 -1.1062 -1.0447 -0.6159
22918SOL     OW75099   1.461   7.739   8.258  0.5868  0.1548 -0.7471
22918SOL    HW175100   1.417   7.746   8.173  0.5464  1.1010 -0.6663
22918SOL    HW275101   1.485   7.830   8.279  1.7198 -0.2237 -0.3359
22919SOL     OW75102   5.380   0.664   5.290 -0.3648  0.0772  0.5219
22919SOL    HW175103   5.440   0.691   5.221  0.1727  0.3415  1.0894
22919SOL    HW275104   5.300   0.714   5.272  0.5716  2.0551  1.5057
22920SOL     OW75105   0.004   4.021   6.650  0.2590 -0.1916  0.1232
22920SOL    HW175106  -0.018   3.928   6.651  1.4097 -0.4913 -0.1453
22920SOL    HW275107   0.035   4.040   6.738 -0.6213  0.1070  0.3687
22921SOL     OW75108   6.476   4.750   3.662 -0.5943 -0.4162  0.1419
22921SOL    HW175109   6.446   4.792   3.582 -0.1968  1.3055  0.8640
22921SOL    HW275110   6.504   4.822   3.719 -0.4570 -1.6172  1.6706
22922SOL     OW75111   3.392   3.663   4.172  0.0758  0.3231  0.0230
22922SOL    HW175112   3.429   3.683   4.259  0.1070  1.9148 -0.3271
22922SOL    HW275113   3.361   3.747   4.140 -1.7395 -0.5790 -0.7051
22923SOL     OW75114   8.976   3.529   5.260 -0.3801  0.0237  0.5972
22923SOL    HW175115   9.000   3.460   5.322 -1.3056 -0.7025  0.1647
22923SOL    HW275116   8.882   3.520   5.249 -0.4086  0.9164 -0.0089
22924SOL     OW75117   2.678   6.764   6.283  0.2535  0.5022  0.2933
22924SOL    HW175118   2.607   6.822   6.256  1.2504  0.9939 -1.3801
22924SOL    HW275119   2.651   6.733   6.369 -2.8895 -0.7705 -0.9958
22925SOL     OW75120   5.054   6.833   8.540  0.4021 -0.0634  0.2462
22925SOL    HW175121   4.996   6.903   8.571 -1.4736 -1.2975 -0.3286
22925SOL    HW275122   5.060   6.773   8.615 -0.4905 -0.7947 -0.2515
22926SOL     OW75123   3.995   2.594   2.001  0.5428 -0.2932 -0.1885
22926SOL    HW175124   3.920   2.640   1.964  1.5307  1.5494 -0.0064
22926SOL    HW275125   4.061   2.594   1.931  1.5850  1.1894  0.7210
22927SOL     OW75126   8.785   5.226   1.054  0.1476  0.3314  0.1266
22927SOL    HW175127   8.852   5.160   1.036  0.1612  0.0019  1.2906
22927SOL    HW275128   8.823   5.280   1.123  0.2414  1.7388 -0.9974
22928SOL     OW75129   3.323   2.584   7.749  0.0266 -0.1699  0.0816
22928SOL    HW175130   3.386   2.599   7.820  0.1341  0.0722 -0.0617
22928SOL    HW275131   3.238   2.603   7.788  0.3132  3.6439 -0.7817
22929SOL     OW75132   0.542   0.087   4.785  0.2369 -0.1843  1.0912
22929SOL    HW175133   0.546   0.131   4.700  0.9410  0.3874  1.4097
22929SOL    HW275134   0.471   0.023   4.776 -0.6672  0.8640  0.5462
22930SOL     OW75135   7.673   3.533   8.085 -0.0598  0.1893  0.1425
22930SOL    HW175136   7.703   3.591   8.015  0.5467  0.4499  0.6073
22930SOL    HW275137   7.689   3.583   8.165 -3.0517  0.9325  0.3825
22931SOL     OW75138   2.096   6.526   8.551  0.2648  0.5447 -0.1552
22931SOL    HW175139   2.125   6.484   8.470 -0.6676  1.4219 -0.9814
22931SOL    HW275140   2.019   6.476   8.578  0.9129 -0.0993  0.5141
22932SOL     OW75141   0.758   1.696   4.844 -0.0457 -0.1952 -0.9741
22932SOL    HW175142   0.665   1.718   4.854  0.4914  1.7549  0.0801
22932SOL    HW275143   0.762   1.602   4.863 -1.9314 -0.5693 -2.1013
22933SOL     OW75144   2.143   6.298   4.065 -0.2658  0.3363  0.4552
22933SOL    HW175145   2.142   6.208   4.095 -2.4051  0.0395 -0.3187
22933SOL    HW275146   2.125   6.293   3.971 -0.4964  1.5502  0.4061
22934SOL     OW75147   6.630   3.200   1.008  0.3428 -0.4347  0.1597
22934SOL    HW175148   6.544   3.242   1.004  0.5552 -0.0149 -0.0809
22934SOL    HW275149   6.614   3.110   0.981  0.0207 -0.2941 -0.1303
22935SOL     OW75150   3.888   7.856   1.335  0.2504  0.0999  0.0788
22935SOL    HW175151   3.967   7.897   1.300  0.1825 -0.2743 -0.5405
22935SOL    HW275152   3.838   7.927   1.373  0.1036  0.6151 -1.0271
22936SOL     OW75153   2.678   2.978   7.999 -0.0114 -0.3113  0.0082
22936SOL    HW175154   2.741   2.907   7.990 -0.5751 -0.5691 -2.3513
22936SOL    HW275155   2.610   2.943   8.056 -0.2744 -1.6670 -1.1128
22937SOL     OW75156   1.368   7.596   3.726  0.3113  0.3097  0.2254
22937SOL    HW175157   1.386   7.626   3.815  0.5148 -0.2903  0.3927
22937SOL    HW275158   1.449   7.614   3.678 -0.1558  1.6145 -0.1183
22938SOL     OW75159   8.318   1.046   5.184 -0.2959 -0.2360  0.2471
22938SOL    HW175160   8.334   1.009   5.097 -0.0402 -1.1591  0.6790
22938SOL    HW275161   8.245   0.995   5.219  0.5655 -0.8743  1.1587
22939SOL     OW75162   0.315   0.399   6.787  0.5864  0.3094 -0.1227
22939SOL    HW175163   0.381   0.333   6.809 -0.1102 -0.6427 -0.7812
22939SOL    HW275164   0.312   0.398   6.691 -0.9345 -0.2699 -0.0990
22940SOL     OW75165   6.469   5.990   7.634 -0.8290  0.1263  0.3820
22940SOL    HW175166   6.539   5.934   7.668  0.6234  1.6597  0.0313
22940SOL    HW275167   6.401   5.928   7.607  0.2342 -1.4031  1.0364
22941SOL     OW75168   6.226   8.217   3.694 -0.1881  0.1184  0.4788
22941SOL    HW175169   6.150   8.160   3.709  0.0891 -0.7084 -1.0826
22941SOL    HW275170   6.193   8.289   3.641 -0.0522  0.2096  0.5157
22942SOL     OW75171   4.133   8.901   8.275 -0.0619  0.4102  0.1202
22942SOL    HW175172   4.172   8.955   8.344 -0.5344  0.5428  0.2934
22942SOL    HW275173   4.104   8.964   8.209  2.3620  0.1686 -1.2816
22943SOL     OW75174   2.509   3.138   1.665  0.0079 -0.9231  0.3172
22943SOL    HW175175   2.481   3.197   1.594  0.2875 -0.1038  0.8769
22943SOL    HW275176   2.427   3.098   1.696 -0.1399 -1.1337 -0.3229
22944SOL     OW75177   4.952   3.743   3.876  0.4309 -0.7859  0.8314
22944SOL    HW175178   5.043   3.763   3.856 -0.0780  1.1948  0.2796
22944SOL    HW275179   4.940   3.653   3.846  1.2663  0.0769 -2.4371
22945SOL     OW75180   0.306   3.838   5.903  0.1008  0.1809  0.0035
22945SOL    HW175181   0.349   3.842   5.818  1.2082  0.9073  0.5617
22945SOL    HW275182   0.270   3.926   5.916 -0.5062 -0.0700  0.0781
22946SOL     OW75183   1.466   6.384   8.910 -0.2487 -0.2531  0.0537
22946SOL    HW175184   1.460   6.315   8.977 -1.7261  0.6923  0.9534
22946SOL    HW275185   1.543   6.360   8.858  1.0971 -0.9388  2.2032
22947SOL     OW75186   2.873   3.427   8.055  0.0614 -0.0633 -0.0003
22947SOL    HW175187   2.854   3.345   8.010 -1.1820  0.5387 -0.6340
22947SOL    HW275188   2.842   3.413   8.145 -0.3587 -0.2270 -0.1642
22948SOL     OW75189   4.780   2.263   8.829 -0.2205 -0.1067 -0.5108
22948SOL    HW175190   4.793   2.169   8.843  0.3530 -0.0411 -0.5969
22948SOL    HW275191   4.839   2.285   8.758  1.5421  0.8150  1.1489
22949SOL     OW75192   6.629   1.044   0.716 -0.0547  0.3282  0.0385
22949SOL    HW175193   6.688   1.085   0.653 -1.3952  0.0740 -1.4363
22949SOL    HW275194   6.566   1.112   0.738  0.2594  0.3397  0.9408
22950SOL     OW75195   7.627   7.491   6.074 -1.0270  0.2469  0.7097
22950SOL    HW175196   7.611   7.397   6.083 -1.3827  0.2995  0.6449
22950SOL    HW275197   7.654   7.503   5.982  0.8307 -0.0404  1.1759
22951SOL     OW75198   0.723   8.171   5.037  0.1336  0.5908 -0.6201
22951SOL    HW175199   0.754   8.189   5.126 -0.3158  0.3196 -0.4022
22951SOL    HW275200   0.694   8.256   5.004  1.3528  0.9107 -0.9389
22952SOL     OW75201   3.446   8.524   7.171  0.0014 -0.1132 -0.5181
22952SOL    HW175202   3.532   8.529   7.213 -1.2470  0.6335  2.1721
22952SOL    HW275203   3.393   8.589   7.217 -2.1385 -0.8812 -1.7649
22953SOL     OW75204   2.436   1.093   5.424 -0.1418 -0.1097  0.5464
22953SOL    HW175205   2.417   1.177   5.464 -0.7276 -0.9442  2.1298
22953SOL    HW275206   2.502   1.112   5.357 -1.3693  1.8074 -0.1978
22954SOL     OW75207   3.319   7.297   7.274 -0.2845 -0.1459 -0.1889
22954SOL    HW175208   3.248   7.323   7.333 -0.1653 -1.2552  0.4564
22954SOL    HW275209   3.276   7.289   7.188 -0.9703 -0.8442  0.2026
22955SOL     OW75210   0.832   2.122   1.198 -0.2106 -0.1817 -0.0426
22955SOL    HW175211   0.890   2.174   1.254 -0.4514 -0.6870  0.6954
22955SOL    HW275212   0.847   2.032   1.226 -1.5848 -0.2907  0.4007
22956SOL     OW75213   6.945   4.146   4.886  0.0062 -0.2622 -0.0301
22956SOL    HW175214   6.955   4.054   4.861 -1.0086 -0.3948  0.0411
22956SOL    HW275215   6.978   4.194   4.810 -0.9268 -0.6807 -0.7172
22957SOL     OW75216   0.431   4.932   4.966  0.1815 -0.3430  0.6565
22957SOL    HW175217   0.462   4.890   5.046  0.0259 -0.4271  0.6730
22957SOL    HW275218   0.362   4.992   4.994  1.0054  0.5958  0.7433
22958SOL     OW75219   3.237   1.239   6.492  0.1157 -0.3631  0.5482
22958SOL    HW175220   3.318   1.289   6.506 -0.5928  1.5845 -1.5905
22958SOL    HW275221   3.178   1.267   6.562  0.0704  1.1074 -0.0486
22959SOL     OW75222   5.681   0.378   6.828 -0.0393  0.2495 -0.8255
22959SOL    HW175223   5.714   0.352   6.742  0.4618 -0.7132 -0.3615
22959SOL    HW275224   5.603   0.325   6.841 -0.7789  1.2378 -1.1665
22960SOL     OW75225   4.674   0.828   2.486 -0.1425  0.6879  0.2415
22960SOL    HW175226   4.586   0.854   2.516 -0.3576  0.1783  0.0485
22960SOL    HW275227   4.687   0.741   2.523 -0.0081  0.4658 -0.3224
22961SOL     OW75228   2.150   3.579   9.040 -0.6062 -0.2371 -0.0606
22961SOL    HW175229   2.227   3.633   9.055 -0.6808 -0.2804  0.5055
22961SOL    HW275230   2.155   3.511   9.107 -0.5875 -0.8538 -0.6736
22962SOL     OW75231   3.314   1.939   8.333 -0.5432  0.8273  0.1959
22962SOL    HW175232   3.326   1.912   8.424 -1.0202  2.3365  0.7408
22962SOL    HW275233   3.343   1.864   8.281 -3.2986 -1.4020  1.5793
22963SOL     OW75234   1.216   2.422   7.099  0.5573  0.0349  0.0198
22963SOL    HW175235   1.139   2.480   7.100 -0.7817 -1.4380  4.0963
22963SOL    HW275236   1.215   2.382   7.013 -1.5096  2.2230 -1.0984
22964SOL     OW75237   1.490   8.108   4.329 -0.1394  0.3043 -0.2740
22964SOL    HW175238   1.435   8.155   4.266 -0.2499 -1.4176 -1.5346
22964SOL    HW275239   1.527   8.035   4.279  1.7044  0.2488  1.0671
22965SOL     OW75240   5.026   2.944   7.481  0.4366  0.4024 -0.1110
22965SOL    HW175241   4.945   2.933   7.430  0.6647 -1.2023 -0.1701
22965SOL    HW275242   5.096   2.943   7.416  0.5341  2.0017 -0.0813
22966SOL     OW75243   6.836   2.670   0.714 -0.3447  0.1598  0.0238
22966SOL    HW175244   6.742   2.685   0.718 -0.0401  2.9588 -0.7114
22966SOL    HW275245   6.875   2.752   0.745  1.8681 -0.9374  0.3894
22967SOL     OW75246   2.721   1.280   6.490  0.4363  0.2819  0.1628
22967SOL    HW175247   2.757   1.192   6.485 -1.6267 -0.5648 -0.9154
22967SOL    HW275248   2.699   1.293   6.582  1.6621  0.1038  0.5025
22968SOL     OW75249   4.889   1.238   6.666 -0.2151  0.2098  0.4495
22968SOL    HW175250   4.823   1.280   6.611 -0.0779 -0.4646 -0.2515
22968SOL    HW275251   4.928   1.310   6.716 -1.6362  0.5829  1.0567
22969SOL     OW75252   1.402   1.001   5.719 -0.1406  0.0306  0.1395
22969SOL    HW175253   1.366   0.999   5.808  0.8735  0.6559  0.5863
22969SOL    HW275254   1.408   0.909   5.693 -0.9026 -0.1351  0.5207
22970SOL     OW75255   6.932   9.222   0.442  0.0945  0.4999 -0.4084
22970SOL    HW175256   6.939   9.142   0.390  1.6263 -0.6337  1.4191
22970SOL    HW275257   6.861   9.272   0.401 -0.1269 -1.2530 -2.2860
22971SOL     OW75258   6.531   1.734   4.463 -0.3742 -0.2780 -0.6343
22971SOL    HW175259   6.558   1.686   4.385  1.3320 -0.0682 -0.2347
22971SOL    HW275260   6.469   1.800   4.432  0.5798  0.0709 -1.8805
22972SOL     OW75261   1.564   4.590   2.813  0.0958 -0.1593  0.0745
22972SOL    HW175262   1.573   4.554   2.901 -0.7802  0.0300  0.2459
22972SOL    HW275263   1.572   4.685   2.824  1.7942 -0.2257 -0.3001
22973SOL     OW75264   6.099   4.416   8.480  0.2520 -0.6385  0.0259
22973SOL    HW175265   6.015   4.384   8.513  0.8937  0.0574  2.6003
22973SOL    HW275266   6.077   4.486   8.419 -1.0705  0.4804  1.7186
22974SOL     OW75267   2.533   8.850   3.873 -0.0094  0.0416 -0.1048
22974SOL    HW175268   2.517   8.773   3.927 -0.1209 -0.6310 -1.0810
22974SOL    HW275269   2.628   8.851   3.859  0.0800  0.4955  0.5013
22975SOL     OW75270   1.831   8.401   2.545  0.3221  0.1334 -0.3136
22975SOL    HW175271   1.825   8.350   2.626 -1.8779 -0.0538 -0.5237
22975SOL    HW275272   1.860   8.338   2.479  0.4153 -0.1462 -0.0081
22976SOL     OW75273   4.671   0.446   4.924  0.4166 -0.3752 -0.1619
22976SOL    HW175274   4.683   0.478   4.835  0.2309 -1.3544 -0.5485
22976SOL    HW275275   4.642   0.355   4.913 -1.8590  0.1553  0.8218
22977SOL     OW75276   3.827   7.822   4.905  0.2356  0.0531 -0.1105
22977SOL    HW175277   3.906   7.840   4.854  0.0655 -0.1912 -0.4691
22977SOL    HW275278   3.844   7.738   4.947  0.4146  0.3021  0.3192
22978SOL     OW75279   2.119   4.459   2.726  0.9052 -0.5572  0.2056
22978SOL    HW175280   2.196   4.462   2.783  3.0685  1.1350 -2.5881
22978SOL    HW275281   2.082   4.547   2.730  0.5751 -0.6674 -0.3508
22979SOL     OW75282   0.808   8.356   7.797  0.2399 -0.0164 -0.3741
22979SOL    HW175283   0.731   8.410   7.779 -0.1935 -1.0156 -1.6832
22979SOL    HW275284   0.774   8.284   7.850  0.3683 -0.1962 -0.5378
22980SOL     OW75285   7.731   7.487   6.976  0.4161 -0.1800 -0.7888
22980SOL    HW175286   7.636   7.484   6.963  0.2304 -0.0509  0.4761
22980SOL    HW275287   7.744   7.547   7.049  1.5540  0.6324 -1.6317
22981SOL     OW75288   4.884   1.733   6.899  0.3122 -0.0328 -0.0017
22981SOL    HW175289   4.876   1.678   6.977  1.4833  1.4818  1.2483
22981SOL    HW275290   4.801   1.780   6.894 -0.0477 -0.6785 -0.0971
22982SOL     OW75291   6.138   6.686   3.072  0.2567 -0.0875 -0.4919
22982SOL    HW175292   6.219   6.690   3.021 -0.3050 -0.3946 -1.4240
22982SOL    HW275293   6.071   6.720   3.014 -0.3897 -0.3858  0.0702
22983SOL     OW75294   2.734   7.181   3.466 -0.6221  0.3283  0.0866
22983SOL    HW175295   2.815   7.149   3.425 -0.7445  0.0697  0.0484
22983SOL    HW275296   2.762   7.257   3.517 -0.3915  0.3774 -0.1088
22984SOL     OW75297   1.360   8.314   7.403 -0.4204  0.3487  0.6937
22984SOL    HW175298   1.368   8.331   7.309 -1.3761  4.0460  1.1036
22984SOL    HW275299   1.283   8.259   7.411  0.2899 -0.9074 -0.7082
22985SOL     OW75300   1.991   1.884   0.991 -0.0519  0.4286 -0.0135
22985SOL    HW175301   1.986   1.792   1.015 -2.0036  0.7219  0.9982
22985SOL    HW275302   2.083   1.908   1.003  0.4043 -1.2690  0.0991
22986SOL     OW75303   2.914   4.871   1.606  0.4637 -1.0647 -0.0607
22986SOL    HW175304   2.916   4.778   1.581 -1.8459 -1.5511  1.2822
22986SOL    HW275305   2.865   4.914   1.536 -1.4688 -1.5123  0.9634
22987SOL     OW75306   4.537   5.189   3.266 -0.4151 -0.5686 -0.1324
22987SOL    HW175307   4.493   5.227   3.190  0.0407 -0.9826 -0.6162
22987SOL    HW275308   4.565   5.102   3.236  1.4287 -0.0229 -0.1250
22988SOL     OW75309   1.276   1.710   0.005 -0.7510 -0.4639  0.4305
22988SOL    HW175310   1.218   1.646  -0.038  0.6043 -0.1981 -1.9639
22988SOL    HW275311   1.245   1.795  -0.027  1.3713 -0.3609 -1.5547
22989SOL     OW75312   2.486   0.644   3.798 -0.3503 -0.2461 -0.2275
22989SOL    HW175313   2.547   0.683   3.735 -0.9475 -1.5356 -1.6853
22989SOL    HW275314   2.490   0.701   3.874  1.5097  0.5614 -0.8715
22990SOL     OW75315   4.191   7.828   8.916  0.1617  0.0786 -0.5387
22990SOL    HW175316   4.255   7.888   8.954  0.2796  1.0361 -2.1436
22990SOL    HW275317   4.240   7.748   8.900  0.7717  0.5288 -0.9923
22991SOL     OW75318   3.940   2.203   2.362 -0.1486 -0.2348 -0.5021
22991SOL    HW175319   3.847   2.208   2.380  0.1491  1.6967  0.7994
22991SOL    HW275320   3.959   2.281   2.310  0.9430  0.0971  0.3579
22992SOL     OW75321   7.523   1.491   6.829 -0.5560 -0.3932  0.3769
22992SOL    HW175322   7.595   1.471   6.769 -0.3851 -1.6430  0.9601
22992SOL    HW275323   7.542   1.578   6.861 -1.5294  1.0600 -2.5949
22993SOL     OW75324   7.950   3.222   5.713 -0.2853 -0.3531  0.2525
22993SOL    HW175325   7.900   3.140   5.712  1.2107 -1.3408 -2.1806
22993SOL    HW275326   8.029   3.201   5.764  0.4449 -0.7133 -0.9812
22994SOL     OW75327   5.485   8.452   7.502 -0.1008  0.5467 -0.0737
22994SOL    HW175328   5.496   8.477   7.593  0.0320  1.5293 -0.3521
22994SOL    HW275329   5.396   8.478   7.480  0.6162  2.5239 -0.8788
22995SOL     OW75330   8.465   5.293   7.942  0.7008 -0.2375 -0.6603
22995SOL    HW175331   8.486   5.204   7.912 -0.0198  0.4291 -3.4323
22995SOL    HW275332   8.425   5.281   8.027  0.8937 -2.5525 -0.8430
22996SOL     OW75333   0.252   7.849   3.674  0.2383 -0.3974  0.0398
22996SOL    HW175334   0.347   7.845   3.676  0.2754 -4.8870 -0.2128
22996SOL    HW275335   0.231   7.892   3.591  1.9082  1.8871  0.7092
22997SOL     OW75336   0.931   6.120   8.976 -0.1073 -0.6437  0.1889
22997SOL    HW175337   1.027   6.127   8.970 -0.1806 -0.5628 -1.1026
22997SOL    HW275338   0.906   6.193   9.034  0.6486 -1.0285  1.0276
22998SOL     OW75339   7.167   8.535   4.789 -0.2672 -0.1378  0.0898
22998SOL    HW175340   7.115   8.471   4.741 -0.6822  0.3157 -0.0687
22998SOL    HW275341   7.211   8.484   4.857 -0.7228 -0.5645  0.0663
22999SOL     OW75342   0.256   0.859   3.086 -0.0490 -0.0889  0.3322
22999SOL    HW175343   0.165   0.836   3.102  0.0458 -0.1371  0.8239
22999SOL    HW275344   0.257   0.954   3.083  0.0469 -0.0507  1.3657
23000SOL     OW75345   5.891   0.220   4.163  0.3434  0.6330 -0.3178
23000SOL    HW175346   5.865   0.312   4.157 -0.4812  0.4388  0.1035
23000SOL    HW275347   5.819   0.178   4.210  1.3609  0.0253  0.7363
23001SOL     OW75348   3.428   2.029   3.861 -0.3604  0.0593 -0.1523
23001SOL    HW175349   3.513   2.070   3.877 -0.1657 -0.8521  1.3487
23001SOL    HW275350   3.370   2.102   3.838  0.4025  0.9531  0.6578
23002SOL     OW75351   4.516   2.085   5.335 -0.6160 -0.1727  0.2045
23002SOL    HW175352   4.452   2.095   5.405  0.7307  0.7503  1.3529
23002SOL    HW275353   4.481   2.138   5.263 -0.5985  1.2943  1.2332
23003SOL     OW75354   1.218   8.558   6.582 -0.0601 -0.0953 -0.6876
23003SOL    HW175355   1.303   8.545   6.623  0.6923  1.6021 -1.6007
23003SOL    HW275356   1.157   8.570   6.655  1.0890  2.0091  0.0209
23004SOL     OW75357   7.716   9.220   3.313  0.3254  0.4445  0.2115
23004SOL    HW175358   7.725   9.315   3.310  0.0710  0.4586 -1.3534
23004SOL    HW275359   7.641   9.202   3.256  1.4737 -0.8012 -0.9713
23005SOL     OW75360   2.889   9.017   7.062 -0.0225  0.1253  0.1101
23005SOL    HW175361   2.840   9.094   7.033  0.1706 -0.1797 -1.1012
23005SOL    HW275362   2.950   9.000   6.990  1.6956  0.3299  1.4597
23006SOL     OW75363   0.329   3.984   4.640 -0.2924  0.1815 -0.1227
23006SOL    HW175364   0.234   3.996   4.645 -0.3152  0.0213 -0.1613
23006SOL    HW275365   0.360   4.002   4.729 -0.0860  2.4905 -0.6029
23007SOL     OW75366   4.163   0.941   5.320  0.2536 -0.0230  0.6382
23007SOL    HW175367   4.229   0.962   5.255 -0.7754  1.4576  0.0240
23007SOL    HW275368   4.115   0.867   5.283  0.3082  0.1728  0.1766
23008SOL     OW75369   3.762   4.366   4.589 -0.2725  0.2958  0.6648
23008SOL    HW175370   3.788   4.313   4.664 -0.3908 -1.6122 -0.5805
23008SOL    HW275371   3.844   4.402   4.555  0.4272 -2.4635 -0.8683
23009SOL     OW75372   6.616   8.840   4.558 -0.1564  0.2099  0.1265
23009SOL    HW175373   6.569   8.895   4.495  0.8939 -0.9783 -1.8189
23009SOL    HW275374   6.553   8.774   4.585 -0.5317  0.5525  0.0979
23010SOL     OW75375   5.828   8.494   2.949  0.8224 -0.4822 -0.0617
23010SOL    HW175376   5.842   8.522   3.040  0.2749 -0.5820  0.0582
23010SOL    HW275377   5.743   8.449   2.951  0.2437  0.5154 -0.8409
23011SOL     OW75378   3.732   7.377   1.582  0.2061  0.1211 -0.1541
23011SOL    HW175379   3.729   7.472   1.580  0.3164  0.1207 -0.4003
23011SOL    HW275380   3.728   7.354   1.675  0.1708  0.3637 -0.0960
23012SOL     OW75381   8.774   7.661   0.305  0.8102 -0.3672  0.7005
23012SOL    HW175382   8.842   7.595   0.292  0.7952 -0.2002 -0.3036
23012SOL    HW275383   8.705   7.616   0.353  1.2300 -0.7967  0.9046
23013SOL     OW75384   7.073   2.210   0.807 -0.4222  0.3436 -0.0486
23013SOL    HW175385   7.056   2.295   0.849 -1.0165  0.8981 -1.3662
23013SOL    HW275386   7.038   2.219   0.719 -2.5753 -2.0174  0.4360
23014SOL     OW75387   0.986   6.174   7.527 -0.3620 -0.1823 -0.1795
23014SOL    HW175388   0.965   6.267   7.518 -0.0779  0.1111  1.8352
23014SOL    HW275389   0.902   6.131   7.543 -0.6613 -0.5009 -2.2295
23015SOL     OW75390   4.769   8.912   7.140  0.5131 -0.1358  0.0328
23015SOL    HW175391   4.702   8.933   7.075 -0.7408 -2.4150  0.5030
23015SOL    HW275392   4.850   8.943   7.100 -0.1806 -1.5381 -2.7667
23016SOL     OW75393   2.651   7.316   5.933  0.1375 -0.2923  0.4178
23016SOL    HW175394   2.699   7.355   6.006 -0.0982 -0.8193  0.8582
23016SOL    HW275395   2.679   7.366   5.856 -1.0281  1.5010  1.1094
23017SOL     OW75396   7.956   6.294   6.527 -0.2071 -0.5540  0.3473
23017SOL    HW175397   7.933   6.204   6.552 -0.6176 -0.1637  1.4556
23017SOL    HW275398   8.049   6.302   6.550 -0.2704 -0.5843  0.6216
23018SOL     OW75399   2.995   2.552   4.428  0.3876  0.7470  0.4038
23018SOL    HW175400   2.981   2.468   4.385  1.4661 -0.5030  2.3397
23018SOL    HW275401   2.912   2.571   4.471  0.3961  0.2575  0.6384
23019SOL     OW75402   7.021   0.886   0.572  0.3216  0.1982  0.2641
23019SOL    HW175403   7.112   0.873   0.546  0.2910  0.0497  0.2302
23019SOL    HW275404   7.017   0.849   0.661  0.8546  2.2424  1.2115
23020SOL     OW75405   0.247   0.068   7.689 -0.3752 -0.0180  0.1634
23020SOL    HW175406   0.187  -0.004   7.708 -0.7362  0.1303 -0.3897
23020SOL    HW275407   0.268   0.057   7.596 -0.4005  0.5644  0.0868
23021SOL     OW75408   5.354   5.201   9.025  0.0899 -0.3068 -0.3422
23021SOL    HW175409   5.388   5.183   9.113  0.4299 -0.1464 -0.4387
23021SOL    HW275410   5.267   5.239   9.041 -0.3373 -1.3504 -0.1183
23022SOL     OW75411   6.743   4.538   6.593 -0.0655  0.3970 -0.7632
23022SOL    HW175412   6.796   4.466   6.627 -0.2760  0.9095  0.7359
23022SOL    HW275413   6.671   4.496   6.547 -0.2295 -0.3546  0.1620
23023SOL     OW75414   8.003   3.660   0.423 -0.0836 -0.1173  0.3335
23023SOL    HW175415   7.996   3.755   0.409  0.5686 -0.2758 -1.3834
23023SOL    HW275416   7.921   3.636   0.465 -0.5923  1.1008  0.0999
23024SOL     OW75417   0.984   4.545   6.351  0.2032 -0.0897 -0.0229
23024SOL    HW175418   0.958   4.626   6.307 -0.3980  0.2741  0.9647
23024SOL    HW275419   1.073   4.561   6.381 -0.0600  0.3584  0.5219
23025SOL     OW75420   0.282   2.126   4.426 -0.1573  0.0708 -0.1051
23025SOL    HW175421   0.324   2.052   4.470  0.5793  0.1151 -0.7212
23025SOL    HW275422   0.217   2.157   4.489 -0.5504 -1.1671  0.1166
23026SOL     OW75423   7.079   5.112   5.319 -0.2503 -0.0982 -0.0266
23026SOL    HW175424   7.165   5.149   5.337 -0.6213  0.5220  0.5178
23026SOL    HW275425   7.019   5.186   5.321 -0.8899 -0.6066  0.2478
23027SOL     OW75426   0.545   3.269   1.397 -0.3537 -0.7413  0.3520
23027SOL    HW175427   0.564   3.294   1.487  0.8515  0.2478 -0.1323
23027SOL    HW275428   0.450   3.261   1.393 -0.5730  0.9510  1.3020
23028SOL     OW75429   1.273   7.986   3.605  0.1129 -0.1187 -0.2489
23028SOL    HW175430   1.328   8.036   3.665 -2.9761  0.1084  2.6802
23028SOL    HW275431   1.199   8.043   3.586 -1.4524 -2.0128 -0.2211
23029SOL     OW75432   2.021   8.229   0.691  0.0915 -0.3462  0.2002
23029SOL    HW175433   2.020   8.300   0.754  1.3439  1.6798 -1.9139
23029SOL    HW275434   1.936   8.186   0.702 -0.5369  1.1819  1.8375
23030SOL     OW75435   6.902   6.791   3.101 -0.6832  0.8145  0.3172
23030SOL    HW175436   6.891   6.696   3.088  1.4610  0.6207 -0.3883
23030SOL    HW275437   6.938   6.799   3.189 -1.1537  1.0265  0.4968
23031SOL     OW75438   3.354   3.849   5.215  0.0642 -0.2768 -0.3934
23031SOL    HW175439   3.439   3.866   5.174  0.7030 -0.5181  0.7711
23031SOL    HW275440   3.349   3.753   5.221 -0.9754 -0.3400 -1.7938
23032SOL     OW75441   4.279   8.945   7.374  0.3967  0.1636 -0.0455
23032SOL    HW175442   4.339   8.913   7.442  0.6040  0.6162 -0.0157
23032SOL    HW275443   4.205   8.980   7.423 -0.2486 -1.0682 -0.0947
23033SOL     OW75444   4.029   7.646   5.931  0.4490 -0.3390 -0.1685
23033SOL    HW175445   4.047   7.729   5.886  2.2879 -0.9950 -0.7514
23033SOL    HW275446   3.967   7.601   5.874 -0.1129  0.3907 -0.1435
23034SOL     OW75447   4.209   3.605   8.410 -0.0031 -0.3413 -0.4692
23034SOL    HW175448   4.118   3.580   8.398  0.0503 -1.1437  0.7146
23034SOL    HW275449   4.211   3.699   8.392 -1.1813 -0.1902  0.1609
23035SOL     OW75450   9.049   4.033   3.662  0.5487  0.2226  0.7134
23035SOL    HW175451   9.120   4.094   3.641  1.4175 -0.8901  0.3220
23035SOL    HW275452   9.092   3.961   3.707  0.0973 -1.6371 -1.6602
23036SOL     OW75453   1.133   7.016   5.444 -0.1271 -0.4865 -0.1231
23036SOL    HW175454   1.177   7.100   5.432 -0.4709 -0.1621  0.7463
23036SOL    HW275455   1.089   7.025   5.529  0.7201 -1.9252  0.5120
23037SOL     OW75456   3.614   9.038   8.277 -0.0527 -0.2210 -0.3496
23037SOL    HW175457   3.693   9.000   8.316  0.5808  1.3258 -0.0509
23037SOL    HW275458   3.547   9.026   8.345  0.8182  1.6174  0.9175
23038SOL     OW75459   4.013   1.310   0.854 -0.1488 -0.0252  0.3026
23038SOL    HW175460   4.091   1.258   0.838  0.7344  1.3109  0.1026
23038SOL    HW275461   3.945   1.246   0.877  0.3891 -1.3919 -1.7331
23039SOL     OW75462   7.882   7.030   1.445 -0.0872  0.2239  0.0220
23039SOL    HW175463   7.906   7.026   1.352 -1.1967  1.6967 -0.3792
23039SOL    HW275464   7.950   6.981   1.490  1.3996  0.8660 -1.4175
23040SOL     OW75465   2.778   4.493   8.351 -0.1035  0.2687  0.4418
23040SOL    HW175466   2.731   4.547   8.288 -0.8788 -0.7387  0.1345
23040SOL    HW275467   2.751   4.526   8.436 -1.1772 -0.1247  0.2657
23041SOL     OW75468   0.713   5.220   2.180  0.2459 -0.4055 -0.0916
23041SOL    HW175469   0.785   5.267   2.137 -0.0549 -0.3719 -0.5717
23041SOL    HW275470   0.694   5.147   2.122 -0.0499 -0.4666  0.0814
23042SOL     OW75471   7.659   0.929   7.490 -0.1668  0.5416  0.2387
23042SOL    HW175472   7.690   0.996   7.550  0.8206  0.0712  0.2700
23042SOL    HW275473   7.723   0.929   7.419  0.0948 -0.6570  0.4511
23043SOL     OW75474   6.071   8.733   3.105 -0.4964 -0.4201  0.3465
23043SOL    HW175475   6.023   8.779   3.036 -0.9697  1.3506  1.7900
23043SOL    HW275476   6.159   8.723   3.070 -0.7376  0.3979 -0.5448
23044SOL     OW75477   0.346   6.695   4.377 -0.1775  0.1761  0.2948
23044SOL    HW175478   0.402   6.659   4.308 -2.2260 -0.6779 -1.0264
23044SOL    HW275479   0.329   6.622   4.436 -0.9550  0.0643 -0.0555
23045SOL     OW75480   1.547   0.760   2.540  0.2144 -0.0001  0.1154
23045SOL    HW175481   1.581   0.842   2.504 -1.3538  1.1076  1.0179
23045SOL    HW275482   1.529   0.780   2.632 -1.2690 -0.9833  0.0823
23046SOL     OW75483   3.759   8.338   3.422  0.0786 -0.0837 -0.2494
23046SOL    HW175484   3.781   8.430   3.410  0.5367 -0.4369 -2.7571
23046SOL    HW275485   3.841   8.297   3.450  0.0195  0.1689  0.2994
23047SOL     OW75486   4.820   4.076   6.496  0.6561  0.5345  0.2958
23047SOL    HW175487   4.804   3.988   6.532 -0.3270  0.4512 -0.3382
23047SOL    HW275488   4.797   4.135   6.568  0.1580  0.3152  0.3197
23048SOL     OW75489   5.485   1.929   6.807 -0.5772  0.5062 -0.2560
23048SOL    HW175490   5.521   1.947   6.720 -0.5192  0.0041 -0.3421
23048SOL    HW275491   5.422   1.999   6.822 -0.9328  0.3341 -0.9000
23049SOL     OW75492   4.409   3.370   2.371  0.5515  0.3160  0.7456
23049SOL    HW175493   4.314   3.379   2.383  0.3021  0.4146 -1.0703
23049SOL    HW275494   4.425   3.276   2.375 -0.1607 -0.0118 -2.2088
23050SOL     OW75495   4.385   6.278   0.472 -0.1896 -0.1631 -0.4543
23050SOL    HW175496   4.424   6.276   0.384  0.4444 -1.3237 -0.1821
23050SOL    HW275497   4.421   6.356   0.512 -0.1078  0.1219 -1.0648
23051SOL     OW75498   7.856   0.087   1.352  0.1715 -0.2390 -0.7904
23051SOL    HW175499   7.878   0.081   1.259 -0.2986  0.4478 -0.9543
23051SOL    HW275500   7.783   0.149   1.356 -0.2648 -0.7723 -0.0352
23052SOL     OW75501   4.679   3.532   7.141 -0.1045 -0.2844  0.2639
23052SOL    HW175502   4.589   3.562   7.150 -0.0622 -0.4853  1.5427
23052SOL    HW275503   4.686   3.507   7.049 -0.8829  1.1770 -0.2342
23053SOL     OW75504   0.949   4.462   2.913  0.5542 -0.1032  0.2284
23053SOL    HW175505   0.855   4.450   2.922  0.6236 -0.5944  0.3423
23053SOL    HW275506   0.987   4.402   2.978  0.9427  0.0307  0.1271
23054SOL     OW75507   1.299   1.456   0.480  0.1249 -0.0533 -0.9221
23054SOL    HW175508   1.290   1.549   0.463 -1.0707 -0.1664 -0.9825
23054SOL    HW275509   1.373   1.429   0.426  0.3556  0.8150 -1.0536
23055SOL     OW75510   8.877   2.958   1.855 -0.5276 -0.2004  0.1739
23055SOL    HW175511   8.911   2.985   1.941 -1.9301 -0.3997  0.8116
23055SOL    HW275512   8.813   2.890   1.875  0.4550 -1.5899 -1.1758
23056SOL     OW75513   8.224   6.548   8.632 -0.0374 -0.2771  0.4900
23056SOL    HW175514   8.144   6.599   8.640  0.4823  0.6929 -0.2926
23056SOL    HW275515   8.210   6.493   8.556  0.3918  0.5775 -0.2195
23057SOL     OW75516   3.395   6.712   5.611  0.6689  0.2276 -0.3464
23057SOL    HW175517   3.375   6.620   5.592 -0.8780 -0.0403  2.0463
23057SOL    HW275518   3.483   6.711   5.647  1.0974 -0.1414 -1.3844
23058SOL     OW75519   7.249   2.345   5.949  0.1181 -0.5729 -0.4481
23058SOL    HW175520   7.264   2.256   5.917 -0.6078 -1.2494  1.0063
23058SOL    HW275521   7.154   2.352   5.956  0.2180 -0.1165  0.6108
23059SOL     OW75522   4.635   5.968   5.696  0.3398  0.2016 -0.0582
23059SOL    HW175523   4.564   5.955   5.759  0.2636  2.1990  0.3045
23059SOL    HW275524   4.705   6.010   5.746  0.7276  0.7459 -1.0317
23060SOL     OW75525   7.018   8.837   1.180  0.8801  0.2638  0.0553
23060SOL    HW175526   7.062   8.890   1.113  2.0640 -0.5332  0.1786
23060SOL    HW275527   6.975   8.902   1.236  1.0940  1.0222 -0.6300
23061SOL     OW75528   6.258   6.429   0.684 -0.3398 -0.9970 -0.4108
23061SOL    HW175529   6.238   6.352   0.631 -2.1019 -0.6232 -0.3364
23061SOL    HW275530   6.227   6.406   0.772  0.8806 -0.9129  0.0607
23062SOL     OW75531   8.040   3.074   1.142  0.2451 -0.3386  0.2591
23062SOL    HW175532   8.032   3.144   1.077 -0.1836  0.2265  0.9006
23062SOL    HW275533   7.960   3.023   1.133  0.6464 -0.8837 -0.3450
23063SOL     OW75534   1.653   1.613   3.110  0.0734 -0.4198 -0.1502
23063SOL    HW175535   1.617   1.701   3.108 -0.0578 -0.4761 -0.4238
23063SOL    HW275536   1.726   1.617   3.171  0.6304  0.0943 -0.8465
23064SOL     OW75537   1.169   6.410   7.045  0.0434 -0.1913 -0.3231
23064SOL    HW175538   1.217   6.406   7.128  1.0884  1.6793 -0.7812
23064SOL    HW275539   1.211   6.343   6.990 -1.1262 -1.9507  0.8255
23065SOL     OW75540   0.966   4.309   8.618 -0.1209  0.5214 -0.0748
23065SOL    HW175541   1.014   4.384   8.583  2.5136 -1.3525 -0.7529
23065SOL    HW275542   1.028   4.266   8.678 -1.0494 -1.7951 -0.6600
23066SOL     OW75543   2.401   7.436   2.800 -0.3971 -0.2571 -0.1992
23066SOL    HW175544   2.348   7.511   2.773 -0.1130  0.2195  0.5345
23066SOL    HW275545   2.402   7.378   2.724 -0.3824  0.6201 -0.8797
23067SOL     OW75546   7.561   5.705   6.418  0.2658 -0.3186 -0.3227
23067SOL    HW175547   7.534   5.769   6.485 -1.1971 -0.6080 -0.5983
23067SOL    HW275548   7.649   5.732   6.393 -0.0274  1.1282  0.1240
23068SOL     OW75549   1.425   7.599   2.351  0.2436 -0.3075 -0.2727
23068SOL    HW175550   1.362   7.643   2.294 -1.5008 -3.2372 -0.8262
23068SOL    HW275551   1.485   7.668   2.378 -2.0134  2.2670 -1.3422
23069SOL     OW75552   3.055   0.356   2.435 -0.0338  0.2419  0.0585
23069SOL    HW175553   3.054   0.435   2.381  0.0467  0.2110  0.0122
23069SOL    HW275554   2.967   0.352   2.474 -0.1834  0.1136 -0.2896
23070SOL     OW75555   8.556   6.433   7.395 -0.0011 -0.4705  0.0936
23070SOL    HW175556   8.592   6.502   7.451  0.3414  1.3872 -2.2340
23070SOL    HW275557   8.461   6.444   7.401  0.0554  0.7382 -0.7816
23071SOL     OW75558   2.258   6.439   0.359  0.1663  0.0180 -0.0250
23071SOL    HW175559   2.289   6.525   0.329  2.6847 -1.0663 -0.8694
23071SOL    HW275560   2.246   6.450   0.453 -1.5981  1.8050 -0.3958
23072SOL     OW75561   6.524   4.954   8.280  0.1625 -0.1572 -0.2198
23072SOL    HW175562   6.538   4.971   8.187 -0.5700 -0.6281 -0.4251
23072SOL    HW275563   6.513   5.041   8.319 -1.4149 -0.0219 -0.9021
23073SOL     OW75564   6.000   0.929   2.823  0.4075  0.2689  0.0935
23073SOL    HW175565   6.046   0.959   2.901 -0.2942  2.0192 -0.1377
23073SOL    HW275566   5.939   0.999   2.802  0.8184  0.0045 -2.2307
23074SOL     OW75567   4.023   2.549   3.221 -0.7165  0.0538 -0.0599
23074SOL    HW175568   4.042   2.456   3.216 -2.0281 -0.1932 -1.2900
23074SOL    HW275569   3.929   2.555   3.203 -0.7301  1.5771  0.3936
23075SOL     OW75570   2.036   2.684   7.663  0.2815  0.0460 -0.2371
23075SOL    HW175571   2.087   2.619   7.614  0.4112 -0.6773  0.8216
23075SOL    HW275572   1.987   2.732   7.596  2.3117  0.7483 -1.3003
23076SOL     OW75573   8.589   7.265   2.922  0.2106 -0.0777  0.2423
23076SOL    HW175574   8.524   7.335   2.931  0.7562  0.4615  0.0443
23076SOL    HW275575   8.661   7.305   2.875 -0.2794 -1.3208 -1.6701
23077SOL     OW75576   0.446   7.054   4.829  0.0681 -0.0395  0.4510
23077SOL    HW175577   0.374   7.009   4.785  1.4482 -1.6573 -0.2272
23077SOL    HW275578   0.525   7.014   4.794  1.3565  2.1277  0.7095
23078SOL     OW75579   7.246   4.616   5.979 -0.4606 -0.2903 -0.0847
23078SOL    HW175580   7.339   4.616   5.955 -0.2361 -0.0892  0.7360
23078SOL    HW275581   7.230   4.526   6.008 -0.2136 -0.0460  0.8551
23079SOL     OW75582   4.387   2.902   2.671 -0.5921 -0.2461  0.1634
23079SOL    HW175583   4.307   2.934   2.713 -1.2137 -0.9464 -0.4685
23079SOL    HW275584   4.357   2.839   2.606  0.3954  0.2711 -0.8354
23080SOL     OW75585   1.665   5.501   1.590  0.0180 -0.3704  0.3135
23080SOL    HW175586   1.648   5.428   1.531  2.0047 -0.5250 -0.1551
23080SOL    HW275587   1.612   5.573   1.556  0.1494 -0.8297 -0.9052
23081SOL     OW75588   2.244   3.757   8.581  0.6047 -0.3584  0.0696
23081SOL    HW175589   2.293   3.738   8.501  1.1380  1.2390 -0.0087
23081SOL    HW275590   2.240   3.673   8.627  2.4252 -0.7806 -0.4628
23082SOL     OW75591   1.943   4.845   4.703  0.4386 -0.0653  0.2628
23082SOL    HW175592   1.938   4.856   4.798 -1.1012 -2.7297  0.5911
23082SOL    HW275593   1.922   4.932   4.668 -1.0075  0.5218  2.3539
23083SOL     OW75594   7.232   2.303   5.025  0.2000 -0.0304 -0.2370
23083SOL    HW175595   7.165   2.367   5.049  0.0127  0.3821 -1.7895
23083SOL    HW275596   7.224   2.294   4.930 -0.7489 -3.4131  0.0089
23084SOL     OW75597   3.538   8.613   8.608  0.4066 -0.1883 -0.2392
23084SOL    HW175598   3.451   8.578   8.628 -0.7059  2.5099  0.1129
23084SOL    HW275599   3.521   8.686   8.549  2.6489 -0.6808 -1.6199
23085SOL     OW75600   4.210   3.009   0.887  0.0981  0.1379  0.7755
23085SOL    HW175601   4.229   2.956   0.809 -0.4039  0.9153  0.1085
23085SOL    HW275602   4.226   3.099   0.859  0.4689  0.3827  1.7527
23086SOL     OW75603   2.986   6.056   2.210  0.5515  0.4183  0.4693
23086SOL    HW175604   3.034   5.995   2.153  1.0034 -0.5056  1.7862
23086SOL    HW275605   2.944   6.117   2.149  1.4945 -0.1578 -0.8248
23087SOL     OW75606   7.273   4.106   0.595 -0.3007 -0.0201  0.2183
23087SOL    HW175607   7.313   4.091   0.510 -2.1872  0.3433 -0.7711
23087SOL    HW275608   7.325   4.053   0.656  1.4041  0.1380 -1.0471
23088SOL     OW75609   1.538   6.802   6.282  0.3213  0.6578  0.2656
23088SOL    HW175610   1.513   6.884   6.324  0.3639  0.5746  0.4533
23088SOL    HW275611   1.487   6.735   6.328  0.4828  0.5491  0.2855
23089SOL     OW75612   2.821   9.220   3.099 -0.1886 -0.5457  0.1579
23089SOL    HW175613   2.877   9.293   3.072 -2.5041  2.0758  1.8820
23089SOL    HW275614   2.831   9.155   3.029  0.2535  2.3907 -2.7496
23090SOL     OW75615   2.665   3.676   2.912 -0.3398 -0.2241 -1.1892
23090SOL    HW175616   2.579   3.719   2.913 -0.6860 -0.9027 -0.4039
23090SOL    HW275617   2.654   3.600   2.856 -1.2292 -2.1458  1.3981
23091SOL     OW75618   7.298   4.044   4.226 -0.3397 -0.1774  0.0786
23091SOL    HW175619   7.368   4.051   4.291 -0.3140  0.3989 -0.0061
23091SOL    HW275620   7.342   4.060   4.143 -1.0269  3.1236  0.2378
23092SOL     OW75621   7.380   6.060   6.386  0.0246 -0.1342 -0.3193
23092SOL    HW175622   7.450   6.052   6.321  0.1045  0.0753 -0.2604
23092SOL    HW275623   7.410   6.009   6.461  1.1245  1.6901  0.5653
23093SOL     OW75624   1.449   3.574   4.198  0.1439 -0.0334 -0.3312
23093SOL    HW175625   1.446   3.659   4.156  1.4238 -0.2693 -0.9345
23093SOL    HW275626   1.438   3.511   4.126 -0.2236 -0.3955  0.0338
23094SOL     OW75627   0.086   7.672   1.417 -0.0075 -0.3549 -0.3603
23094SOL    HW175628   0.107   7.597   1.473  0.5725  0.8231  1.0702
23094SOL    HW275629   0.168   7.721   1.410 -0.7927  1.1340  0.3313
23095SOL     OW75630   1.678   7.263   6.900 -0.4468  0.2189  0.5406
23095SOL    HW175631   1.669   7.247   6.994 -0.6727  0.1009  0.5008
23095SOL    HW275632   1.762   7.224   6.876  0.0494  1.0548  0.8658
23096SOL     OW75633   6.162   7.390   3.214  0.1246  0.1380  0.6338
23096SOL    HW175634   6.088   7.407   3.156 -0.4128 -1.6033  0.7576
23096SOL    HW275635   6.153   7.454   3.284 -1.1766  0.0432  0.5646
23097SOL     OW75636   7.551   1.451   2.328 -0.1220 -0.1680 -0.5698
23097SOL    HW175637   7.592   1.375   2.370 -0.5207  0.2544  0.6257
23097SOL    HW275638   7.541   1.515   2.398  0.0100  0.9235 -1.5122
23098SOL     OW75639   8.496   8.844   8.201  0.0364 -0.0197  0.0055
23098SOL    HW175640   8.488   8.845   8.105 -0.6887  2.2794  0.0348
23098SOL    HW275641   8.580   8.885   8.218  0.6743 -1.4224  0.3698
23099SOL     OW75642   2.828   2.080   5.528  0.3043 -0.1592  0.1256
23099SOL    HW175643   2.833   2.164   5.482  0.5203  1.4176  2.7970
23099SOL    HW275644   2.913   2.039   5.511  0.0903  0.0266 -1.4567
23100SOL     OW75645   5.448   1.949   4.687  0.5079 -0.4219 -0.5339
23100SOL    HW175646   5.430   1.898   4.766 -0.1632  0.5123 -0.0616
23100SOL    HW275647   5.395   1.907   4.619 -0.8094  0.2086  0.0705
23101SOL     OW75648   3.098   0.946   2.750  0.4261 -0.0011 -0.4323
23101SOL    HW175649   3.106   0.881   2.680  1.6734  0.2764 -0.5688
23101SOL    HW275650   3.060   0.898   2.823 -2.6998  0.1054 -1.8256
23102SOL     OW75651   9.080   8.097   8.969  0.5764  0.1178 -0.3792
23102SOL    HW175652   9.092   8.166   8.905  0.5475  2.1080  1.6274
23102SOL    HW275653   9.002   8.049   8.940  1.1842  0.2511 -2.3511
23103SOL     OW75654   3.138   1.662   1.458  0.3124  0.5204 -0.2354
23103SOL    HW175655   3.182   1.742   1.429 -0.3801  0.8285 -0.4333
23103SOL    HW275656   3.065   1.693   1.512  0.1270  0.0188 -0.1961
23104SOL     OW75657   1.430   8.533   2.659  0.1903 -0.1690  0.6855
23104SOL    HW175658   1.351   8.515   2.608 -0.7463 -0.2568  2.1003
23104SOL    HW275659   1.425   8.472   2.733  0.6646  1.0299  1.7459
23105SOL     OW75660   4.211   0.906   6.743 -0.0401  0.0662 -0.3305
23105SOL    HW175661   4.150   0.979   6.749  0.2841  0.5016 -1.9614
23105SOL    HW275662   4.218   0.874   6.833  0.4202  2.5114  0.5880
23106SOL     OW75663   5.423   6.293   6.262  0.0349  0.3093  0.2880
23106SOL    HW175664   5.491   6.325   6.320 -0.0275 -0.6386  0.9057
23106SOL    HW275665   5.461   6.300   6.174  0.9239 -0.1704  0.6240
23107SOL     OW75666   4.281   1.227   0.851 -0.0180  0.1444  0.6094
23107SOL    HW175667   4.319   1.221   0.938  2.6328 -0.9450 -0.5092
23107SOL    HW275668   4.327   1.300   0.810  0.7106 -0.9725 -0.6671
23108SOL     OW75669   6.013   4.887   2.930  0.2660 -0.1188  0.1472
23108SOL    HW175670   5.989   4.975   2.903  2.8544  0.5339 -0.2636
23108SOL    HW275671   6.072   4.900   3.004 -0.6846 -1.6100  1.2261
23109SOL     OW75672   5.611   2.089   2.789 -0.7052 -0.7166 -0.1142
23109SOL    HW175673   5.619   2.018   2.725  0.1129 -0.6418 -0.1147
23109SOL    HW275674   5.545   2.058   2.852 -1.6500 -0.7092 -1.0793
23110SOL     OW75675   3.998   7.370   7.008  0.0008 -0.7173 -0.1603
23110SOL    HW175676   3.977   7.351   6.916 -0.4805  0.1522 -0.2424
23110SOL    HW275677   3.916   7.355   7.055 -0.3295  0.8097 -0.1910
23111SOL     OW75678   4.029   5.225   2.728  0.1706 -0.1448  0.6620
23111SOL    HW175679   4.011   5.217   2.821  0.3223 -2.5019  0.5396
23111SOL    HW275680   4.103   5.285   2.722  0.0916  0.1046  2.0325
23112SOL     OW75681   2.863   3.432   8.620  0.2617 -0.3356 -0.0393
23112SOL    HW175682   2.870   3.432   8.715 -1.5966  1.1136  0.1577
23112SOL    HW275683   2.800   3.363   8.600  0.0638 -0.1235 -0.1515
23113SOL     OW75684   8.331   5.624   0.013  0.1666  0.5810  0.0912
23113SOL    HW175685   8.239   5.600   0.002 -0.0317  1.2729  0.2202
23113SOL    HW275686   8.335   5.717  -0.009  0.5990  0.8813  1.3730
23114SOL     OW75687   2.586   0.703   2.565  0.1136  0.1039 -0.5862
23114SOL    HW175688   2.542   0.788   2.574 -1.0859 -0.7184  2.1978
23114SOL    HW275689   2.517   0.643   2.536  0.4699 -0.3379 -0.5237
23115SOL     OW75690   4.956   0.710   6.290 -0.0256  0.3435  0.2891
23115SOL    HW175691   5.017   0.680   6.223  0.0160 -0.4095  0.6507
23115SOL    HW275692   4.982   0.800   6.308 -0.2686  0.6886 -0.9560
23116SOL     OW75693   0.509   7.368   0.562 -0.2993 -0.1448 -0.5280
23116SOL    HW175694   0.495   7.460   0.541 -1.1834  0.0237  0.7033
23116SOL    HW275695   0.466   7.320   0.491 -0.6838  0.3958 -0.6622
23117SOL     OW75696   8.259   3.524   8.923 -0.6005 -0.4053 -0.5546
23117SOL    HW175697   8.196   3.562   8.861 -0.6697  0.7636  0.2012
23117SOL    HW275698   8.228   3.553   9.009  0.5859 -0.3980 -0.1148
23118SOL     OW75699   8.671   8.815   5.670  0.2858 -0.0617  0.1712
23118SOL    HW175700   8.607   8.845   5.606 -0.7754 -0.6358  0.9416
23118SOL    HW275701   8.728   8.890   5.684 -0.4053  0.5587 -0.2977
23119SOL     OW75702   2.839   8.188   8.394 -0.2661 -0.2260  0.1915
23119SOL    HW175703   2.883   8.103   8.388 -0.2554 -0.2268  0.2720
23119SOL    HW275704   2.784   8.181   8.472  0.2277  0.0623  0.5798
23120SOL     OW75705   2.095   6.892   7.386  0.5740  0.0405  0.3663
23120SOL    HW175706   2.057   6.976   7.362 -1.6307 -1.6475 -2.9590
23120SOL    HW275707   2.164   6.877   7.321  0.5822 -0.9235  0.5725
23121SOL     OW75708   3.278   4.048   2.602  0.3083  0.1546 -0.3007
23121SOL    HW175709   3.233   4.104   2.665 -0.2801 -1.1232  0.4519
23121SOL    HW275710   3.220   4.046   2.526 -1.2870 -1.9353  0.8706
23122SOL     OW75711   6.000   1.951   2.027 -0.1892  0.1916 -0.1714
23122SOL    HW175712   6.009   1.896   1.950 -0.7430  1.1666 -0.9664
23122SOL    HW275713   6.028   2.038   1.998  1.9551  0.1045  1.4092
23123SOL     OW75714   4.102   5.228   0.409  0.2143  0.2010 -0.3501
23123SOL    HW175715   4.030   5.167   0.394  1.2286 -0.8297 -1.2056
23123SOL    HW275716   4.089   5.297   0.344  0.2178 -0.1925 -0.7723
23124SOL     OW75717   4.349   6.501   6.537 -0.3065 -0.2235 -0.8628
23124SOL    HW175718   4.442   6.482   6.538 -0.5310 -1.6121 -2.1965
23124SOL    HW275719   4.313   6.455   6.613  0.2215  1.4430  0.4806
23125SOL     OW75720   4.523   1.069   4.586  0.3068 -0.0308  0.5837
23125SOL    HW175721   4.478   0.986   4.603 -0.8218 -0.0042 -1.8223
23125SOL    HW275722   4.612   1.043   4.563 -0.5018 -0.8850 -2.0112
23126SOL     OW75723   7.790   7.061   4.920 -0.0954 -0.5056  0.3136
23126SOL    HW175724   7.831   6.975   4.905 -0.7995 -0.8294  0.2064
23126SOL    HW275725   7.779   7.066   5.015 -0.2028 -0.5994  0.3054
23127SOL     OW75726   2.836   3.157   4.643  0.2392  0.0488 -0.0312
23127SOL    HW175727   2.771   3.176   4.711  1.4372  0.9707  0.9087
23127SOL    HW275728   2.919   3.187   4.681  1.5017 -2.5571 -0.5213
23128SOL     OW75729   1.785   1.894   3.092 -0.4693  0.0833  0.1523
23128SOL    HW175730   1.783   1.990   3.090 -0.1752  0.1190  1.1773
23128SOL    HW275731   1.819   1.872   3.178  0.9564 -0.9502 -0.6415
23129SOL     OW75732   5.421   0.956   5.588 -0.1863  0.0406 -0.4770
23129SOL    HW175733   5.351   0.907   5.633  0.5796 -0.0708  0.6382
23129SOL    HW275734   5.384   1.043   5.574 -1.3928 -0.6790 -2.0528
23130SOL     OW75735   1.028   5.119   8.783 -0.0995 -0.1271 -0.0259
23130SOL    HW175736   0.977   5.162   8.714 -1.9381 -0.5738  0.9811
23130SOL    HW275737   1.033   5.184   8.853 -1.2364 -0.8232  0.7427
23131SOL     OW75738   0.724   6.550   3.473  0.5164 -0.5111  0.1187
23131SOL    HW175739   0.790   6.546   3.404  0.6930  0.8255  0.1834
23131SOL    HW275740   0.646   6.584   3.430  1.0144  1.6347  0.8114
23132SOL     OW75741   2.181   8.571   5.490  0.2262 -0.5071 -0.1093
23132SOL    HW175742   2.125   8.647   5.473  2.2219  0.6516 -1.9822
23132SOL    HW275743   2.208   8.580   5.581  0.1939  0.8779 -0.2256
23133SOL     OW75744   8.908   6.970   9.219  0.2766 -0.2384 -0.2967
23133SOL    HW175745   9.002   6.972   9.236  0.0440  0.5553  1.0706
23133SOL    HW275746   8.871   7.031   9.283 -1.1945 -0.7283 -0.6407
23134SOL     OW75747   6.644   4.140   2.683 -0.1319  0.1300  0.2152
23134SOL    HW175748   6.622   4.219   2.733  0.3398 -0.2101  0.9688
23134SOL    HW275749   6.739   4.145   2.671 -0.0445 -0.5054  0.5910
23135SOL     OW75750   3.564   6.234   4.433  0.2471 -0.2707  0.3195
23135SOL    HW175751   3.652   6.199   4.423 -0.4104 -2.0010  0.1229
23135SOL    HW275752   3.525   6.227   4.346  0.1203  1.1292  0.2434
23136SOL     OW75753   0.477   4.468   2.296 -0.0732 -0.1969  0.3808
23136SOL    HW175754   0.389   4.460   2.260 -0.3375  0.9528  0.7320
23136SOL    HW275755   0.476   4.551   2.344  0.9704 -0.5501  1.0445
23137SOL     OW75756   4.775   2.641   6.926 -0.0906 -0.5680  0.2712
23137SOL    HW175757   4.860   2.618   6.887 -1.2611  0.8565 -3.6381
23137SOL    HW275758   4.725   2.560   6.924  0.6022 -1.0260  0.9690
23138SOL     OW75759   9.006   1.718   7.255  0.0354  0.0321 -0.3297
23138SOL    HW175760   9.074   1.765   7.207  0.3544  0.9632  0.9654
23138SOL    HW275761   9.054   1.655   7.309 -0.1833  0.1990  0.0601
23139SOL     OW75762   6.793   1.032   3.218  0.0474  0.1005 -0.2387
23139SOL    HW175763   6.710   1.013   3.261 -0.8161 -0.2769 -2.0017
23139SOL    HW275764   6.807   1.126   3.232  0.1120 -0.1181  1.3498
23140SOL     OW75765   1.270   5.487   2.514  0.0076  0.1269 -0.3335
23140SOL    HW175766   1.193   5.463   2.461 -1.1483 -1.0665  1.7389
23140SOL    HW275767   1.342   5.436   2.477 -0.3963  0.5034 -1.6901
23141SOL     OW75768   4.330   2.055   7.519 -0.2319 -0.1385  0.1259
23141SOL    HW175769   4.239   2.063   7.491  0.0599  0.3428 -0.7115
23141SOL    HW275770   4.339   2.120   7.589 -0.3599  0.2788 -0.2407
23142SOL     OW75771   7.653   6.355   2.116  0.3584 -0.5970  0.1393
23142SOL    HW175772   7.645   6.309   2.200 -1.3336  0.0507  0.3829
23142SOL    HW275773   7.684   6.442   2.138 -1.4585  0.0534  0.3098
23143SOL     OW75774   6.987   1.801   7.703 -0.0325  0.2060  0.7773
23143SOL    HW175775   7.026   1.714   7.690 -0.4288  0.1787 -0.3883
23143SOL    HW275776   6.975   1.808   7.797 -0.6580 -1.3141  0.8476
23144SOL     OW75777   4.992   0.940   3.795 -0.3387 -0.0739 -0.5632
23144SOL    HW175778   4.983   0.859   3.743 -1.5981 -0.8006  0.7068
23144SOL    HW275779   4.987   1.010   3.730  0.1400 -0.9934 -1.6364
23145SOL     OW75780   7.117   0.496   8.348  0.2885  0.2502  0.3316
23145SOL    HW175781   7.125   0.470   8.256 -1.6494  2.2881 -0.4812
23145SOL    HW275782   7.208   0.500   8.379  0.9199 -2.1340 -0.9337
23146SOL     OW75783   8.961   1.980   5.379  0.4666 -0.1480 -0.3575
23146SOL    HW175784   8.992   2.014   5.463  0.9859  1.3915 -1.1368
23146SOL    HW275785   8.866   1.982   5.386  0.5118 -0.5583  0.3967
23147SOL     OW75786   8.866   6.393   5.306 -0.2281 -0.3841 -0.4348
23147SOL    HW175787   8.945   6.353   5.269  2.5005  1.5452  2.7563
23147SOL    HW275788   8.861   6.479   5.265 -0.1196 -0.1530  0.0318
23148SOL     OW75789   1.327   6.132   4.453  0.0538 -0.4822  0.2726
23148SOL    HW175790   1.392   6.098   4.392 -0.0521  0.0051 -0.1232
23148SOL    HW275791   1.314   6.223   4.426 -1.8564 -0.9526 -0.6070
23149SOL     OW75792   8.305   0.231   1.390 -0.4227 -0.2392 -0.1319
23149SOL    HW175793   8.257   0.150   1.408  0.3006 -0.5983  0.2428
23149SOL    HW275794   8.255   0.274   1.321 -1.7438 -0.1862  0.8087
23150SOL     OW75795   9.235   3.729   6.601  0.2379 -0.3044  0.6444
23150SOL    HW175796   9.322   3.689   6.615  0.1442 -0.4018  0.9528
23150SOL    HW275797   9.194   3.673   6.534  1.0889  0.7687 -0.8419
23151SOL     OW75798   7.135   8.668   6.731  0.2856 -0.5495 -0.3450
23151SOL    HW175799   7.096   8.756   6.728 -0.0338 -0.7170 -1.4544
23151SOL    HW275800   7.120   8.639   6.821 -1.3766 -0.2444 -0.4891
23152SOL     OW75801   2.514   6.171   3.951 -0.5244  0.4553 -0.0429
23152SOL    HW175802   2.452   6.114   3.996  0.9891  0.5457  2.2856
23152SOL    HW275803   2.591   6.115   3.935 -0.7302  0.6402 -1.8786
23153SOL     OW75804   6.206   7.224   7.301  0.0220 -0.3178  0.1257
23153SOL    HW175805   6.302   7.231   7.300  0.1299 -1.6316 -0.4674
23153SOL    HW275806   6.189   7.135   7.330 -0.9492 -0.8384 -1.8652
23154SOL     OW75807   7.352   7.880   0.478  0.0759  0.1068 -0.4132
23154SOL    HW175808   7.428   7.845   0.431  0.0812 -0.8479  0.2862
23154SOL    HW275809   7.368   7.974   0.482  1.4715 -0.1257  0.1436
23155SOL     OW75810   5.956   4.771   7.040  0.4819 -0.0080 -0.1265
23155SOL    HW175811   6.000   4.774   7.125  0.0531 -0.2163  0.1043
23155SOL    HW275812   5.879   4.827   7.050  1.3286  1.3721 -0.9118
23156SOL     OW75813   0.818   4.160   9.208 -0.5733 -0.4530 -0.0260
23156SOL    HW175814   0.861   4.089   9.255 -0.8895 -0.6572 -0.0452
23156SOL    HW275815   0.823   4.234   9.268 -1.6889 -0.9250  0.6786
23157SOL     OW75816   6.749   5.221   8.078  0.1760 -0.2159  0.1760
23157SOL    HW175817   6.684   5.292   8.080 -0.3887 -0.7270  0.4537
23157SOL    HW275818   6.697   5.141   8.078  0.7690 -0.6579 -1.9876
23158SOL     OW75819   7.563   7.607   0.456  0.3501 -0.5018 -0.0907
23158SOL    HW175820   7.650   7.573   0.433 -0.1648 -1.7692 -0.2302
23158SOL    HW275821   7.538   7.662   0.381  0.8532 -0.4691 -0.2374
23159SOL     OW75822   5.451   1.344   1.587  0.1077 -0.5401 -0.5632
23159SOL    HW175823   5.514   1.325   1.518  1.2660  0.9627  0.0331
23159SOL    HW275824   5.505   1.364   1.664 -1.0780  1.1145 -0.1230
23160SOL     OW75825   1.512   4.950   1.172  0.1543  0.1859 -0.0196
23160SOL    HW175826   1.513   4.906   1.088  0.5350  0.0490  0.0510
23160SOL    HW275827   1.527   5.043   1.151  2.5807 -0.1188  0.0212
23161SOL     OW75828   9.043   8.050   5.170  0.8143  0.3855  0.2504
23161SOL    HW175829   9.135   8.028   5.183  0.5066 -0.3232  1.3889
23161SOL    HW275830   9.026   8.121   5.232  0.4095 -0.0108  0.6006
23162SOL     OW75831   3.114   4.228   7.639 -0.6901 -0.0549  0.1636
23162SOL    HW175832   3.202   4.263   7.655 -1.1468  2.1272 -1.5386
23162SOL    HW275833   3.128   4.133   7.629  1.4210  0.1833  0.2742
23163SOL     OW75834   0.878   5.526   7.305 -0.3073 -0.2440 -0.7720
23163SOL    HW175835   0.863   5.432   7.312  2.0250 -0.5416  1.2540
23163SOL    HW275836   0.926   5.537   7.223  1.6988 -1.2099  0.2228
23164SOL     OW75837   1.519   4.850   2.902  1.1116  0.2865 -0.1823
23164SOL    HW175838   1.448   4.915   2.904  1.4076  0.5966  0.4215
23164SOL    HW275839   1.562   4.859   2.988 -0.2971 -2.3168  0.9108
23165SOL     OW75840   2.469   2.861   5.002  0.2506 -0.1890  0.0220
23165SOL    HW175841   2.384   2.882   4.963 -0.1244 -2.7691 -0.7110
23165SOL    HW275842   2.447   2.807   5.078  1.2271 -0.4620  0.1173
23166SOL     OW75843   6.962   3.634   4.157 -0.0939 -0.4333 -0.1844
23166SOL    HW175844   6.896   3.587   4.207  0.6847  0.5400  1.8782
23166SOL    HW275845   6.991   3.704   4.215  0.7584  0.8910 -2.0913
23167SOL     OW75846   9.183   6.711   7.468  0.8822 -0.0760 -0.1174
23167SOL    HW175847   9.136   6.697   7.386 -0.4598  1.7568  0.2497
23167SOL    HW275848   9.201   6.624   7.502 -0.5542 -0.8547 -1.2637
23168SOL     OW75849   4.524   4.285   8.685  0.1635  0.2056 -0.3547
23168SOL    HW175850   4.539   4.244   8.600 -2.8005 -0.2569 -0.7517
23168SOL    HW275851   4.609   4.323   8.708  1.0065  0.6787 -3.6843
23169SOL     OW75852   1.438   9.032   4.234  0.1345  0.1240  0.7548
23169SOL    HW175853   1.367   8.976   4.203  0.1424  1.1512 -1.2598
23169SOL    HW275854   1.397   9.117   4.249  0.8835  0.6878 -0.2714
23170SOL     OW75855   2.428   4.157   7.297  0.0762 -0.5002  0.0760
23170SOL    HW175856   2.501   4.192   7.246  1.3835 -1.1666  1.4225
23170SOL    HW275857   2.351   4.197   7.257  1.2681  1.4967 -0.4005
23171SOL     OW75858   4.797   1.823   2.567  0.8644 -0.4649 -0.0443
23171SOL    HW175859   4.835   1.819   2.655 -0.1184 -1.9727  0.3393
23171SOL    HW275860   4.784   1.732   2.542  0.6953 -0.0451 -1.5769
23172SOL     OW75861   2.549   3.286   3.292  0.1939  0.2565 -0.0790
23172SOL    HW175862   2.623   3.288   3.353  0.1157  0.1286  0.0195
23172SOL    HW275863   2.497   3.363   3.316  1.2542  1.4399 -1.3493
23173SOL     OW75864   7.464   1.323   2.773  0.0759  0.3762  0.4098
23173SOL    HW175865   7.504   1.243   2.808 -0.4326  0.7131  1.8023
23173SOL    HW275866   7.397   1.291   2.712  0.2951 -0.2339  0.4783
23174SOL     OW75867   4.459   8.296   6.789 -0.4967  0.4253  0.3504
23174SOL    HW175868   4.513   8.373   6.808 -1.7536  1.0845  1.4784
23174SOL    HW275869   4.435   8.262   6.875 -1.4330 -0.1457 -0.1181
23175SOL     OW75870   5.379   6.195   7.413 -0.0056  0.2836 -0.1299
23175SOL    HW175871   5.289   6.170   7.398  0.7914 -2.2447 -1.1727
23175SOL    HW275872   5.418   6.119   7.457  2.2460  0.1160 -2.1941
23176SOL     OW75873   0.742   7.689   7.953  0.5644  0.1639  0.0293
23176SOL    HW175874   0.827   7.675   7.995  1.4287  1.7441 -1.0481
23176SOL    HW275875   0.707   7.601   7.938  3.6892 -0.8441 -2.7242
23177SOL     OW75876   4.766   1.827   0.308 -0.3381 -0.4491  0.3831
23177SOL    HW175877   4.836   1.891   0.319 -0.2081 -0.2268 -1.4044
23177SOL    HW275878   4.706   1.845   0.381  0.7099  0.3405  1.0848
23178SOL     OW75879   6.251   9.171   8.854 -0.3467 -0.0842 -0.4962
23178SOL    HW175880   6.254   9.149   8.760 -1.2282 -0.2365 -0.4960
23178SOL    HW275881   6.339   9.151   8.886 -0.4164 -1.3026 -1.0117
23179SOL     OW75882   8.199   8.064   8.137 -0.0107 -0.6965 -1.0208
23179SOL    HW175883   8.107   8.056   8.110 -0.0601 -0.2104 -1.0058
23179SOL    HW275884   8.248   8.070   8.055 -0.0841 -0.0388 -1.0234
23180SOL     OW75885   4.659   3.910   4.740  0.4617  0.3056  0.6939
23180SOL    HW175886   4.612   3.826   4.735  0.2361  0.3886  1.2876
23180SOL    HW275887   4.743   3.887   4.780  0.8371  0.1973 -0.1402
23181SOL     OW75888   2.156   2.393   0.713  0.4200 -0.0055  0.7533
23181SOL    HW175889   2.116   2.434   0.636  0.3174 -0.1658  0.7223
23181SOL    HW275890   2.208   2.463   0.752 -0.0372  0.2573  0.8969
23182SOL     OW75891   3.123   1.052   0.749 -0.3879  0.5924  0.1843
23182SOL    HW175892   3.035   1.048   0.786  0.0131 -1.5221  1.0678
23182SOL    HW275893   3.177   1.090   0.819 -0.3379  0.3263  0.2960
23183SOL     OW75894   6.418   5.267   1.062 -0.0450 -0.1672 -0.5972
23183SOL    HW175895   6.461   5.323   0.997 -0.4018 -0.6501 -1.2594
23183SOL    HW275896   6.428   5.315   1.145  0.5976  0.3562 -0.9649
23184SOL     OW75897   1.975   8.673   0.105 -0.0012 -0.3544  0.1622
23184SOL    HW175898   1.886   8.652   0.078  0.3453  0.2330 -1.5575
23184SOL    HW275899   2.005   8.595   0.152 -1.8981  0.0081  2.1431
23185SOL     OW75900   3.321   3.056   5.409 -0.2327  0.0318  0.4347
23185SOL    HW175901   3.293   2.965   5.397 -1.2132  0.4812 -1.0137
23185SOL    HW275902   3.271   3.105   5.343 -0.8733  1.8446  2.1728
23186SOL     OW75903   8.595   4.987   3.835  0.1207  0.2095 -0.3612
23186SOL    HW175904   8.678   4.939   3.835  0.2139  0.3165  1.0340
23186SOL    HW275905   8.530   4.922   3.808  0.4462 -0.3125  0.0822
23187SOL     OW75906   8.103   0.121   3.208 -0.1843  0.6581  0.1130
23187SOL    HW175907   8.023   0.095   3.253  0.2522  1.0034  1.1186
23187SOL    HW275908   8.105   0.216   3.217  1.1081  0.5320  1.4518
23188SOL     OW75909   0.215   1.584   3.913  0.7182 -0.2284 -0.0178
23188SOL    HW175910   0.190   1.657   3.970  0.0443  0.4783 -1.1855
23188SOL    HW275911   0.200   1.616   3.824 -0.0463 -1.9386 -0.5588
23189SOL     OW75912   5.652   1.524   6.952 -0.1051 -0.3489  0.4556
23189SOL    HW175913   5.562   1.557   6.961 -0.5256 -1.0069 -1.0917
23189SOL    HW275914   5.694   1.584   6.891  0.2244 -0.5795  0.4543
23190SOL     OW75915   4.972   2.191   2.399  0.0226  0.4031 -0.6377
23190SOL    HW175916   4.926   2.142   2.331  1.2627  0.8969 -1.8690
23190SOL    HW275917   5.005   2.124   2.459 -1.7313  0.0056 -0.0465
23191SOL     OW75918   2.417   0.992   2.041 -0.1241 -0.0881  0.4830
23191SOL    HW175919   2.449   1.082   2.034  1.0453 -0.3745  1.8758
23191SOL    HW275920   2.368   0.990   2.123  0.9725 -1.0420  1.1345
23192SOL     OW75921   5.038   0.080   0.980 -0.2188  0.2216  0.0667
23192SOL    HW175922   5.044  -0.015   0.970  1.2908  0.4513 -2.1318
23192SOL    HW275923   4.955   0.103   0.940 -1.0543 -0.2271  1.4881
23193SOL     OW75924   2.630   8.772   3.527 -0.4357 -0.2467  0.1360
23193SOL    HW175925   2.612   8.686   3.488  1.8650 -0.9973  0.5630
23193SOL    HW275926   2.685   8.752   3.603  0.9564  1.6689 -0.3102
23194SOL     OW75927   7.456   3.883   6.456 -0.1385 -0.3721 -0.1822
23194SOL    HW175928   7.429   3.970   6.485  2.9719  0.8667 -0.7052
23194SOL    HW275929   7.427   3.879   6.364  0.8871  0.7005 -0.5743
23195SOL     OW75930   1.072   6.023   6.178  0.4481  0.5085 -0.0117
23195SOL    HW175931   1.160   6.052   6.155 -0.1041  2.0041 -0.3944
23195SOL    HW275932   1.026   6.020   6.094  0.2933 -0.8947  0.1039
23196SOL     OW75933   7.470   2.300   8.883 -0.1838 -0.1388  0.4368
23196SOL    HW175934   7.527   2.352   8.939 -0.1847 -1.5489  1.8047
23196SOL    HW275935   7.508   2.213   8.883 -1.0589 -0.5519 -0.5096
23197SOL     OW75936   1.656   7.379   0.607  0.3573  0.1191 -0.2667
23197SOL    HW175937   1.611   7.393   0.524 -0.9373  2.7420  0.7862
23197SOL    HW275938   1.748   7.395   0.586  0.2827 -0.7700 -1.4548
23198SOL     OW75939   3.991   3.021   3.487  0.2743 -0.1374 -0.0659
23198SOL    HW175940   4.049   3.006   3.562 -0.3199  0.2887  0.4898
23198SOL    HW275941   3.951   2.935   3.470  0.2217 -0.1830  0.2743
23199SOL     OW75942   2.592   3.620   6.286  0.3820  0.3149  0.2149
23199SOL    HW175943   2.573   3.619   6.192  1.3908 -1.0535 -0.0050
23199SOL    HW275944   2.621   3.531   6.305  0.5827  0.6875  1.7544
23200SOL     OW75945   1.899   8.233   4.554  0.1410  0.5177  0.4028
23200SOL    HW175946   1.978   8.235   4.500  0.4190  0.8615  0.8248
23200SOL    HW275947   1.828   8.255   4.493  0.6841  3.0168  0.5707
23201SOL     OW75948   9.012   0.503   3.939  0.0785 -0.0406 -0.1874
23201SOL    HW175949   9.105   0.486   3.919  0.4258  2.8214 -1.5778
23201SOL    HW275950   9.010   0.518   4.034  0.9974 -0.3753 -0.1048
23202SOL     OW75951   2.327   4.941   7.944  0.5836  0.4783 -0.9612
23202SOL    HW175952   2.395   4.889   7.902 -1.0156 -3.7606  1.0919
23202SOL    HW275953   2.251   4.934   7.886  0.4941  1.0548 -0.9255
23203SOL     OW75954   6.801   6.956   0.140 -0.5163 -0.3842  0.0092
23203SOL    HW175955   6.865   6.889   0.163  3.3076  2.0982 -2.3540
23203SOL    HW275956   6.793   6.950   0.045 -1.5431  1.2650 -0.0483
23204SOL     OW75957   4.114   6.970   4.286 -0.4791 -0.1451  0.4068
23204SOL    HW175958   4.206   6.957   4.306 -0.0593 -1.6812 -2.0965
23204SOL    HW275959   4.067   6.917   4.350  0.5000 -1.0416  0.4054
23205SOL     OW75960   9.063   0.452   8.997 -0.1428  0.5717 -0.9262
23205SOL    HW175961   9.065   0.488   9.086  3.8239 -2.3133  0.4531
23205SOL    HW275962   9.128   0.504   8.949  1.4747 -0.9669 -0.5267
23206SOL     OW75963   5.288   9.194   2.486 -0.0893 -0.7544 -0.0111
23206SOL    HW175964   5.242   9.178   2.569  0.1715  0.6670  0.4396
23206SOL    HW275965   5.264   9.284   2.463 -0.4225 -1.2398 -1.6705
23207SOL     OW75966   5.369   4.857   5.326  0.5336  0.0412  0.7215
23207SOL    HW175967   5.386   4.847   5.420  1.9282  0.1417  0.4994
23207SOL    HW275968   5.303   4.926   5.321  2.1365  1.7178  1.5444
23208SOL     OW75969   7.629   9.220   2.417 -0.4275  0.0915 -0.4425
23208SOL    HW175970   7.562   9.164   2.456 -1.1582  1.1283 -0.1578
23208SOL    HW275971   7.582   9.271   2.351 -0.5325  2.5822  1.3965
23209SOL     OW75972   1.767   1.968   4.936  0.4578 -0.6416 -0.0382
23209SOL    HW175973   1.751   2.042   4.878  0.8500 -1.3342 -1.0588
23209SOL    HW275974   1.775   2.007   5.023 -0.9177  0.3298 -0.3195
23210SOL     OW75975   1.530   7.782   5.892  0.1872 -0.2933 -0.2836
23210SOL    HW175976   1.465   7.712   5.889 -0.7003  0.4167  1.0006
23210SOL    HW275977   1.482   7.860   5.865  1.5941 -0.3725 -3.4500
23211SOL     OW75978   5.954   2.666   8.293  0.0187  0.2639 -0.1737
23211SOL    HW175979   6.028   2.702   8.343  1.1708 -2.3862  0.2175
23211SOL    HW275980   5.971   2.694   8.203  0.9233  0.5934  0.0788
23212SOL     OW75981   4.672   1.813   0.067 -0.3902  0.2447 -0.4058
23212SOL    HW175982   4.702   1.822   0.157  1.9964  2.0216 -1.2797
23212SOL    HW275983   4.600   1.750   0.072  0.7227 -0.9673  2.4752
23213SOL     OW75984   0.437   4.312   6.453  0.4201 -0.6776  0.3538
23213SOL    HW175985   0.387   4.230   6.450 -0.5481 -0.1111  0.6885
23213SOL    HW275986   0.421   4.347   6.541 -0.7127  0.7906 -0.3854
23214SOL     OW75987   4.292   0.529   4.833 -0.4910 -0.4309 -0.1776
23214SOL    HW175988   4.313   0.581   4.911 -1.1263 -0.2076 -0.1526
23214SOL    HW275989   4.288   0.594   4.762 -0.7991 -0.5130 -0.2347
23215SOL     OW75990   3.161   3.011   0.330  0.1704 -0.0611  0.2754
23215SOL    HW175991   3.162   3.055   0.414  2.5071 -0.9506  0.7870
23215SOL    HW275992   3.093   2.944   0.338  1.6662 -1.4203  2.1982
23216SOL     OW75993   3.114   1.293   2.091 -0.5740 -0.3964 -0.2745
23216SOL    HW175994   3.072   1.276   2.006 -1.8175 -1.3519  0.5067
23216SOL    HW275995   3.143   1.207   2.121 -0.1837 -0.0692  0.2983
23217SOL     OW75996   5.828   1.774   2.158 -0.0892 -0.2609  0.5370
23217SOL    HW175997   5.881   1.841   2.114  1.1950 -0.1711  2.0967
23217SOL    HW275998   5.834   1.697   2.101  0.2754  0.2947 -0.1875
23218SOL     OW75999   1.292   5.452   0.903 -0.0870  0.0110 -0.1586
23218SOL    HW176000   1.375   5.471   0.947 -0.9758  1.1269  1.1407
23218SOL    HW276001   1.288   5.357   0.900  0.3175 -0.1137  1.6634
23219SOL     OW76002   1.692   9.183   2.796  0.5593  0.5464 -0.2449
23219SOL    HW176003   1.743   9.137   2.863  2.5287  2.5890 -0.2198
23219SOL    HW276004   1.734   9.159   2.713 -0.2195  0.0741 -0.5114
23220SOL     OW76005   8.702   3.897   1.448 -0.2772  0.8157 -0.2903
23220SOL    HW176006   8.633   3.835   1.473 -0.0978 -0.3829 -2.4982
23220SOL    HW276007   8.746   3.919   1.530 -2.6641  0.8765  1.0397
23221SOL     OW76008   7.098   2.203   7.240  0.0167  0.0865  0.3082
23221SOL    HW176009   7.083   2.110   7.225 -0.2766  0.1070  0.4565
23221SOL    HW276010   7.102   2.242   7.153  2.0372 -0.3387  0.1560
23222SOL     OW76011   4.759   4.459   8.742  0.4790 -0.0344 -0.5618
23222SOL    HW176012   4.825   4.492   8.681 -0.1148 -1.0884 -1.8147
23222SOL    HW276013   4.808   4.403   8.803  0.9741  0.4945 -0.4597
23223SOL     OW76014   4.762   7.714   1.218  0.1852 -0.0571 -0.1574
23223SOL    HW176015   4.758   7.708   1.314  1.5367 -1.5982 -0.1622
23223SOL    HW276016   4.794   7.802   1.201  0.2664  0.1147  0.8140
23224SOL     OW76017   5.904   8.942   7.637  0.3913 -0.1719  0.3236
23224SOL    HW176018   5.887   8.993   7.716  0.9711  0.1890  0.2218
23224SOL    HW276019   5.827   8.887   7.627 -1.4604  2.4621 -0.9640
23225SOL     OW76020   2.834   7.421   5.729  0.5084 -0.5076  0.0962
23225SOL    HW176021   2.900   7.377   5.675 -0.5594  0.0333 -1.7237
23225SOL    HW276022   2.880   7.494   5.769  1.3486 -0.9813  0.0126
23226SOL     OW76023   2.568   6.716   8.543 -0.0818  0.2685 -0.4269
23226SOL    HW176024   2.489   6.680   8.582 -0.4688  1.1179 -0.4044
23226SOL    HW276025   2.630   6.643   8.542 -0.0081  0.2374  1.8874
23227SOL     OW76026   4.282   2.008   5.882 -0.3749  0.0210 -0.8285
23227SOL    HW176027   4.212   2.071   5.901 -0.6647 -0.4261 -0.4002
23227SOL    HW276028   4.348   2.059   5.835 -0.7591  0.5657 -0.7833
23228SOL     OW76029   8.042   6.849   0.858 -0.1331  0.0717 -0.0403
23228SOL    HW176030   8.075   6.792   0.927  2.9170  0.2672 -1.1671
23228SOL    HW276031   8.061   6.937   0.889 -0.0883  0.2218 -0.4915
23229SOL     OW76032   4.798   0.054   0.416 -0.2406  0.8410  0.0781
23229SOL    HW176033   4.796   0.116   0.343  1.3943 -0.3898 -1.0951
23229SOL    HW276034   4.881   0.007   0.405 -1.4238 -1.5893  0.8646
23230SOL     OW76035   8.976   1.414   9.220  0.0532 -0.3166  0.3531
23230SOL    HW176036   8.989   1.332   9.268 -1.3036  0.0138  1.3380
23230SOL    HW276037   8.939   1.474   9.285  0.6246  0.9592 -0.4651
23231SOL     OW76038   8.106   0.535   6.675  0.1775 -0.0698 -0.2136
23231SOL    HW176039   8.058   0.612   6.646 -1.0462 -0.1284  1.5154
23231SOL    HW276040   8.039   0.474   6.705  1.1525 -1.6290 -1.0528
23232SOL     OW76041   3.000   9.059   7.311  0.1225  0.5961  0.1581
23232SOL    HW176042   2.962   9.012   7.385  0.9355  0.7609  0.6876
23232SOL    HW276043   2.973   9.009   7.234  2.7387 -2.0444  0.7825
23233SOL     OW76044   2.025   5.277   3.380 -0.0665 -0.6357  0.2010
23233SOL    HW176045   1.955   5.214   3.397 -0.4027 -0.2370  0.3154
23233SOL    HW276046   2.081   5.273   3.457  1.0107 -2.1952 -0.5998
23234SOL     OW76047   3.902   9.023   5.989 -0.3967  0.1319  0.3568
23234SOL    HW176048   3.907   8.990   6.079  0.9049 -1.0602 -0.1170
23234SOL    HW276049   3.869   8.949   5.938 -1.3705  0.8794 -0.1327
23235SOL     OW76050   5.266   8.426   5.347 -0.7417  0.4000 -0.1328
23235SOL    HW176051   5.334   8.481   5.308 -1.0009  0.4251 -0.5578
23235SOL    HW276052   5.283   8.338   5.313 -0.0738  0.1286  0.8785
23236SOL     OW76053   1.758   4.686   7.015 -0.1908  0.3657  0.1785
23236SOL    HW176054   1.768   4.677   7.110 -2.0498 -1.0692  0.2812
23236SOL    HW276055   1.759   4.597   6.982 -0.6893  0.7908 -1.0335
23237SOL     OW76056   7.104   8.555   8.686 -0.0197 -0.8626 -0.2816
23237SOL    HW176057   7.173   8.541   8.622  0.3177  2.9909 -1.0104
23237SOL    HW276058   7.051   8.475   8.683  1.6542 -2.0078 -3.1829
23238SOL     OW76059   1.804   7.422   9.035 -0.6784  0.0373  0.0965
23238SOL    HW176060   1.839   7.504   9.071 -1.1351  0.2542  0.0463
23238SOL    HW276061   1.725   7.405   9.085  0.5768 -1.5649  1.6447
23239SOL     OW76062   5.187   4.181   7.760 -0.0434 -0.1904  0.2508
23239SOL    HW176063   5.143   4.105   7.721 -0.7583  0.0925  0.4882
23239SOL    HW276064   5.185   4.165   7.854  1.4954 -0.7710  0.2113
23240SOL     OW76065   2.581   1.081   6.784  0.5854  0.6005  0.3458
23240SOL    HW176066   2.539   1.167   6.790  1.5783  1.1001  0.4395
23240SOL    HW276067   2.537   1.037   6.712 -1.6220  0.2146  1.8362
23241SOL     OW76068   1.178   2.589   3.392  0.0482  0.7893  0.0708
23241SOL    HW176069   1.211   2.520   3.450 -1.4021  0.7123  0.8354
23241SOL    HW276070   1.141   2.541   3.317  1.5930  0.8769 -0.7992
23242SOL     OW76071   0.505   6.442   7.581  0.3876  0.4261 -0.3306
23242SOL    HW176072   0.529   6.352   7.601  0.9235  0.9626  1.5969
23242SOL    HW276073   0.588   6.486   7.565  0.0475  0.0449 -4.2748
23243SOL     OW76074   5.273   0.860   3.218 -0.0806  0.4224 -0.5637
23243SOL    HW176075   5.204   0.846   3.154  0.5534  2.3549 -1.7436
23243SOL    HW276076   5.351   0.819   3.180 -0.1634 -0.2969  0.0016
23244SOL     OW76077   1.660   9.240   0.370  0.6194 -0.4430 -0.0384
23244SOL    HW176078   1.625   9.168   0.318 -0.1638 -1.0492  1.2663
23244SOL    HW276079   1.714   9.198   0.437 -0.0525  0.1412  0.9034
23245SOL     OW76080   2.649   4.846   3.877 -0.4953 -0.1422  0.1464
23245SOL    HW176081   2.690   4.902   3.811 -0.6816  0.2511  0.3602
23245SOL    HW276082   2.717   4.782   3.900  0.5820  1.4206  1.6154
23246SOL     OW76083   1.402   5.232   4.947 -0.1995  0.1098 -0.6651
23246SOL    HW176084   1.363   5.148   4.967  0.2559 -0.3183 -1.5312
23246SOL    HW276085   1.496   5.216   4.948 -0.0395  0.9399  0.5657
23247SOL     OW76086   4.346   1.719   3.477 -0.0976 -0.1908 -0.3450
23247SOL    HW176087   4.420   1.769   3.442  0.1773  1.0650  1.8837
23247SOL    HW276088   4.384   1.667   3.548 -0.9896 -1.1067 -0.5207
23248SOL     OW76089   1.088   0.205   3.578 -0.0681 -0.3634 -0.1779
23248SOL    HW176090   1.016   0.212   3.640  0.9226  0.4804  0.9367
23248SOL    HW276091   1.058   0.141   3.513 -1.7896 -0.0336  0.2437
23249SOL     OW76092   2.401   5.146   8.621 -0.0753 -0.1348  0.1785
23249SOL    HW176093   2.360   5.232   8.626  0.9599  0.7150 -3.1252
23249SOL    HW276094   2.330   5.084   8.634 -0.7019  1.0809  3.5395
23250SOL     OW76095   6.805   4.077   4.139  0.4889  0.0506  0.7299
23250SOL    HW176096   6.883   4.087   4.194 -0.0051 -0.6705  1.5964
23250SOL    HW276097   6.827   4.005   4.080  1.0013  0.7920  0.0017
23251SOL     OW76098   7.611   8.981   4.675 -0.4166  0.0748 -0.0143
23251SOL    HW176099   7.635   9.072   4.657 -0.3996 -0.2684 -1.9160
23251SOL    HW276100   7.682   8.948   4.730 -0.7822  1.3883  1.3060
23252SOL     OW76101   3.934   6.830   4.434 -0.3254  0.1610  0.3976
23252SOL    HW176102   3.992   6.783   4.494 -0.4897 -0.7166 -0.1167
23252SOL    HW276103   3.880   6.884   4.492  0.6435  0.6085  0.9211
23253SOL     OW76104   7.943   2.511   3.234  0.5727  0.3628  0.3544
23253SOL    HW176105   8.020   2.550   3.274 -0.5327  1.6572  1.3180
23253SOL    HW276106   7.874   2.576   3.248 -0.1777  0.2885 -2.5316
23254SOL     OW76107   0.301   7.889   4.388 -0.6034  0.2709  0.0187
23254SOL    HW176108   0.298   7.943   4.309 -1.7150  0.6898  0.3294
23254SOL    HW276109   0.323   7.801   4.357 -0.5690  0.5284 -0.6970
23255SOL     OW76110   3.116   0.731   3.279 -0.0292 -0.0816  0.1513
23255SOL    HW176111   3.125   0.676   3.202  1.4117  1.2197 -0.6614
23255SOL    HW276112   3.039   0.784   3.262  0.2987  0.2192 -0.4163
23256SOL     OW76113   3.213   9.067   6.552 -0.4847  0.7860 -0.7967
23256SOL    HW176114   3.223   9.072   6.457 -3.2986  2.0149 -1.1209
23256SOL    HW276115   3.125   9.101   6.569 -0.3066  0.0221  2.2130
23257SOL     OW76116   2.922   6.384   3.054 -0.0272 -0.2484  0.2225
23257SOL    HW176117   2.875   6.360   3.135  1.6452 -1.0014  1.0061
23257SOL    HW276118   2.887   6.325   2.988  0.5199 -1.5333  1.0344
23258SOL     OW76119   8.003   7.558   0.554  0.0377 -0.5086 -0.4239
23258SOL    HW176120   7.961   7.563   0.640  0.9623 -1.2845  0.0903
23258SOL    HW276121   7.955   7.621   0.501  1.1156  2.0093  1.3719
23259SOL     OW76122   7.219   1.215   5.479  0.2662 -0.6326 -0.6427
23259SOL    HW176123   7.298   1.269   5.476 -0.6006  0.7107 -0.1857
23259SOL    HW276124   7.202   1.201   5.572  0.9164 -2.4395 -0.7393
23260SOL     OW76125   0.232   0.207   8.807  0.7942 -0.1047  0.1916
23260SOL    HW176126   0.267   0.243   8.725  1.8563 -1.8403 -0.1905
23260SOL    HW276127   0.143   0.181   8.785  0.9430 -0.2124 -0.3142
23261SOL     OW76128   3.819   0.083   6.521 -0.5894  0.3286 -0.2922
23261SOL    HW176129   3.912   0.081   6.541 -0.8664  2.4414  1.6932
23261SOL    HW276130   3.812   0.139   6.444 -0.2205  0.0517 -0.5286
23262SOL     OW76131   9.036   3.285   8.472 -0.1741  0.0495 -0.0966
23262SOL    HW176132   8.960   3.232   8.447 -1.1744  1.3246  0.1472
23262SOL    HW276133   9.002   3.351   8.531  1.3500 -0.0304  0.9486
23263SOL     OW76134   5.815   2.360   7.427 -0.3701 -0.3193  0.2998
23263SOL    HW176135   5.785   2.430   7.368  1.8126 -1.7629 -2.8417
23263SOL    HW276136   5.734   2.317   7.455 -1.5868 -0.0034 -2.3690
23264SOL     OW76137   2.711   2.468   2.737  0.4627  0.2357  0.1993
23264SOL    HW176138   2.641   2.533   2.732 -0.4231 -0.7690 -1.8987
23264SOL    HW276139   2.714   2.430   2.649  0.8551 -2.6541  1.3639
23265SOL     OW76140   7.981   5.417   3.554  0.0916  0.1278  0.2069
23265SOL    HW176141   8.022   5.346   3.504 -1.4240 -0.6846  0.0856
23265SOL    HW276142   7.986   5.389   3.645  0.9868  0.6579  0.3350
23266SOL     OW76143   9.245   3.733   2.683  0.1909  0.3374  0.1148
23266SOL    HW176144   9.216   3.824   2.683  1.1319  0.6724  1.6768
23266SOL    HW276145   9.174   3.685   2.640 -0.3738  1.7746 -0.6230
23267SOL     OW76146   2.647   5.881   7.372 -0.0604  0.6514  0.8117
23267SOL    HW176147   2.638   5.954   7.310  0.1979  1.4598  1.7154
23267SOL    HW276148   2.612   5.806   7.324 -2.3529  1.7632  0.6096
23268SOL     OW76149   7.247   8.636   5.179  0.4801  0.7817  0.1284
23268SOL    HW176150   7.327   8.615   5.227 -0.3256  0.6458  1.4776
23268SOL    HW276151   7.273   8.638   5.087  1.5340 -1.6954  0.3012
23269SOL     OW76152   0.253   0.171   2.675  0.3235  0.1794 -0.3627
23269SOL    HW176153   0.195   0.239   2.639 -1.2313 -1.0384 -0.2937
23269SOL    HW276154   0.273   0.201   2.764 -1.4608 -0.0181  0.1668
23270SOL     OW76155   6.269   5.063   1.218  0.5440 -0.4985  0.5811
23270SOL    HW176156   6.328   4.987   1.216  0.1172 -0.8340  0.4700
23270SOL    HW276157   6.314   5.130   1.167 -0.4316 -1.6901 -2.0289
23271SOL     OW76158   4.508   2.972   6.029  0.0923 -0.1830  0.6599
23271SOL    HW176159   4.514   3.052   6.081 -1.9442  0.0627  0.6257
23271SOL    HW276160   4.494   3.003   5.940  0.5559 -0.5905  0.4456
23272SOL     OW76161   2.004   6.081   0.818  0.2395 -0.2311 -0.1664
23272SOL    HW176162   1.960   6.052   0.898 -1.9865  2.6001 -0.2250
23272SOL    HW276163   2.033   6.170   0.836 -0.3004  0.4883 -2.4779
23273SOL     OW76164   4.915   1.585   0.514  0.0419  0.4138 -0.2013
23273SOL    HW176165   4.914   1.563   0.421  0.0490 -0.6591  0.0443
23273SOL    HW276166   4.987   1.647   0.524  0.8231 -0.3953 -0.7052
23274SOL     OW76167   2.544   8.607   5.085  0.2117  0.0466 -0.0390
23274SOL    HW176168   2.536   8.613   4.990  1.3358 -1.1205 -0.2233
23274SOL    HW276169   2.456   8.583   5.115 -0.4315  1.5538 -0.6523
23275SOL     OW76170   9.126   0.586   6.710  0.3994 -0.7115 -0.1271
23275SOL    HW176171   9.146   0.679   6.715 -1.2575 -0.2597 -1.2581
23275SOL    HW276172   9.196   0.544   6.761 -0.0179  1.2823  2.2641
23276SOL     OW76173   1.928   6.077   8.741 -0.2188 -0.2762  0.1775
23276SOL    HW176174   1.880   6.044   8.665 -2.1331 -0.8464  1.5524
23276SOL    HW276175   2.020   6.070   8.716 -0.7846  0.0237 -2.2477
23277SOL     OW76176   4.613   2.002   2.621  0.1658  0.1251  1.0470
23277SOL    HW176177   4.660   2.084   2.604  1.1112 -1.0872 -3.3908
23277SOL    HW276178   4.681   1.935   2.621 -1.0341 -1.2551 -1.7552
23278SOL     OW76179   2.104   7.128   0.658 -0.4801  0.0254 -0.8557
23278SOL    HW176180   2.013   7.106   0.642  0.1102 -2.2744 -1.3479
23278SOL    HW276181   2.133   7.172   0.578 -0.7653 -0.5871 -1.3006
23279SOL     OW76182   7.926   5.531   7.152 -0.5960  0.5428  0.3527
23279SOL    HW176183   7.867   5.525   7.076 -0.2853  0.0953  0.1352
23279SOL    HW276184   7.940   5.624   7.165 -1.2598  0.6471  0.3309
23280SOL     OW76185   1.546   4.472   8.471  0.1508 -0.1133  0.2033
23280SOL    HW176186   1.470   4.419   8.447 -0.1025 -0.2666  1.2828
23280SOL    HW276187   1.510   4.541   8.527  0.5407  0.9690 -0.8407
23281SOL     OW76188   5.498   4.709   1.317 -0.3406  0.3258 -0.0672
23281SOL    HW176189   5.468   4.620   1.297 -1.0448  0.4277  0.5003
23281SOL    HW276190   5.471   4.723   1.408 -2.1769  1.8928 -0.7969
23282SOL     OW76191   6.859   2.529   7.065 -1.0103 -0.1257  0.1179
23282SOL    HW176192   6.865   2.489   7.151 -0.2522 -0.3663 -0.0315
23282SOL    HW276193   6.771   2.509   7.035 -1.5554  0.6492  1.1612
23283SOL     OW76194   6.314   4.266   8.811 -0.8405  0.0204  0.2548
23283SOL    HW176195   6.336   4.315   8.891 -2.2841  1.5099 -0.2004
23283SOL    HW276196   6.388   4.207   8.798 -0.6342 -0.3739  2.7754
23284SOL     OW76197   1.989   7.912   1.024 -0.1002 -0.2077  0.0151
23284SOL    HW176198   2.020   7.983   0.967  1.1854  1.1804  2.3204
23284SOL    HW276199   2.021   7.934   1.111  0.7238 -3.8672  0.8210
23285SOL     OW76200   8.590   8.325   5.426  0.5195 -0.2694 -0.0777
23285SOL    HW176201   8.616   8.411   5.459 -1.6021  0.1485  0.6121
23285SOL    HW276202   8.619   8.264   5.494 -0.3631  0.1932  0.7342
23286SOL     OW76203   1.746   4.096   8.894 -0.6378  0.4720 -0.0669
23286SOL    HW176204   1.828   4.051   8.915 -1.1096  0.3796  1.7996
23286SOL    HW276205   1.740   4.092   8.799  1.3762  0.2401 -0.2322
23287SOL     OW76206   6.223   5.652   6.196  0.7461  0.0194 -0.0456
23287SOL    HW176207   6.131   5.647   6.169  0.5185 -0.4828  0.8018
23287SOL    HW276208   6.249   5.562   6.214  0.9687  0.2951  1.1131
23288SOL     OW76209   4.784   7.734   2.913  0.2288  0.2392 -0.0572
23288SOL    HW176210   4.741   7.783   2.842  0.0592  0.1100 -0.0448
23288SOL    HW276211   4.877   7.749   2.899  0.2102 -0.0376 -0.4950
23289SOL     OW76212   5.274   7.231   7.271 -0.1354 -0.4525  0.2559
23289SOL    HW176213   5.296   7.163   7.334  0.2372  0.4706  1.1493
23289SOL    HW276214   5.191   7.202   7.233  0.4895 -1.8716 -0.0915
23290SOL     OW76215   7.918   5.193   7.760 -0.1139  0.0987  0.2195
23290SOL    HW176216   7.915   5.287   7.774  1.4111  0.1067  0.7084
23290SOL    HW276217   8.012   5.171   7.765 -0.5350 -1.6708  1.8697
23291SOL     OW76218   0.859   7.205   8.201  0.3226 -0.5366 -0.2674
23291SOL    HW176219   0.852   7.172   8.112  0.2640 -0.5037 -0.2747
23291SOL    HW276220   0.839   7.299   8.193 -0.4971 -0.6877 -0.0952
23292SOL     OW76221   7.545   6.376   7.031 -0.1969  0.1218  0.1484
23292SOL    HW176222   7.581   6.413   7.112  0.4630  0.2629 -0.2009
23292SOL    HW276223   7.490   6.446   6.995 -1.4990 -0.3739  1.0895
23293SOL     OW76224   1.570   3.464   9.020  0.0838  0.2327 -0.3053
23293SOL    HW176225   1.614   3.459   8.936  1.3436  0.5148  0.3168
23293SOL    HW276226   1.589   3.552   9.053  0.1453 -0.0844  0.5495
23294SOL     OW76227   3.116   0.806   1.737  0.6417  0.4179 -0.4506
23294SOL    HW176228   3.112   0.894   1.700  1.3927  0.7304  0.1974
23294SOL    HW276229   3.047   0.806   1.804  0.1216  0.2558 -0.9790
23295SOL     OW76230   1.119   7.704   3.832  0.1600  0.2187 -0.0156
23295SOL    HW176231   1.208   7.696   3.865 -0.1671 -0.3443  0.7512
23295SOL    HW276232   1.086   7.614   3.831 -0.6295  0.4999  0.3457
23296SOL     OW76233   2.101   6.255   9.077  0.1558  0.1556 -0.1041
23296SOL    HW176234   2.052   6.175   9.062  1.2620 -0.3241 -1.4720
23296SOL    HW276235   2.171   6.230   9.137  0.5696  0.0304 -0.6200
23297SOL     OW76236   4.212   8.693   2.759  0.2622  0.0360  0.0240
23297SOL    HW176237   4.247   8.734   2.679  0.7726  1.0598  0.7541
23297SOL    HW276238   4.133   8.648   2.729 -0.2529  1.4524 -0.8483
23298SOL     OW76239   4.752   4.100   9.041  0.2785 -0.4157 -0.5223
23298SOL    HW176240   4.824   4.045   9.070 -1.2890 -1.4739  1.5921
23298SOL    HW276241   4.724   4.062   8.958  2.6244  0.5415 -1.8342
23299SOL     OW76242   3.317   2.481   1.864 -0.6077 -0.1371  0.4220
23299SOL    HW176243   3.385   2.543   1.892 -0.7770  0.4099 -0.3538
23299SOL    HW276244   3.340   2.399   1.909  0.6311  0.0053  0.0883
23300SOL     OW76245   0.280   9.011   3.957 -0.4451  0.7663 -0.4293
23300SOL    HW176246   0.366   9.029   3.919 -0.3228  0.0296 -0.5188
23300SOL    HW276247   0.297   8.950   4.028 -0.5677  2.8607  1.4887
23301SOL     OW76248   1.564   1.708   5.268  0.6092 -0.2566 -0.1071
23301SOL    HW176249   1.513   1.777   5.225 -1.8551 -1.5015  0.6590
23301SOL    HW276250   1.518   1.691   5.350  2.2833 -1.4901  0.6397
23302SOL     OW76251   3.942   5.494   6.466  0.3104  0.1486  0.1034
23302SOL    HW176252   4.012   5.534   6.415  0.3529  0.1362  0.1511
23302SOL    HW276253   3.984   5.469   6.549  0.6339 -1.2753 -0.4526
23303SOL     OW76254   8.996   3.124   2.753 -0.4854  0.2271  0.4327
23303SOL    HW176255   8.905   3.155   2.758 -0.1137  1.2849  0.9179
23303SOL    HW276256   9.008   3.073   2.832 -0.6735  0.0377  0.3405
23304SOL     OW76257   5.068   1.613   1.602  0.2790 -0.6421  0.2189
23304SOL    HW176258   5.043   1.661   1.681 -0.8488  0.4794 -0.7719
23304SOL    HW276259   5.001   1.544   1.594  0.0463 -0.3818 -0.0773
23305SOL     OW76260   8.548   0.614   8.638  0.3303 -0.4811 -0.2630
23305SOL    HW176261   8.526   0.638   8.727  1.8125  0.0105 -0.0016
23305SOL    HW276262   8.637   0.647   8.625  0.5883 -1.5605 -1.5251
23306SOL     OW76263   5.311   2.258   7.785  0.5000 -0.2205 -0.2692
23306SOL    HW176264   5.215   2.260   7.783  0.4339 -1.7100  0.5360
23306SOL    HW276265   5.334   2.174   7.747  1.4094 -0.6314  1.1285
23307SOL     OW76266   2.522   7.808   5.649 -0.6098  0.1239  0.0717
23307SOL    HW176267   2.614   7.826   5.666 -0.3403  0.8875 -1.8783
23307SOL    HW276268   2.475   7.845   5.724  0.6190  0.3884  0.7287
23308SOL     OW76269   0.516   3.074   8.157 -0.2845 -0.7064 -0.1216
23308SOL    HW176270   0.564   3.071   8.074 -2.0574  1.1030 -1.2932
23308SOL    HW276271   0.457   2.999   8.154 -0.0005 -0.9275 -0.2535
23309SOL     OW76272   5.276   2.288   3.566 -0.4904  0.1990 -0.3724
23309SOL    HW176273   5.227   2.323   3.492  0.9269  3.5062  0.0954
23309SOL    HW276274   5.212   2.279   3.636 -1.3551 -0.5973 -1.2305
23310SOL     OW76275   2.919   5.800   6.597  0.6489 -0.2293 -0.1805
23310SOL    HW176276   2.951   5.734   6.534 -2.4776 -1.5192 -0.6199
23310SOL    HW276277   2.862   5.857   6.545  0.0030  0.2360  0.9974
23311SOL     OW76278   0.845   1.934   7.960 -0.9641  0.2836  0.5521
23311SOL    HW176279   0.843   1.847   7.999 -0.8991 -0.5943 -1.3217
23311SOL    HW276280   0.872   1.920   7.869  0.4971  2.4207  0.5807
23312SOL     OW76281   5.027   3.022   9.148 -0.3080  0.5406 -0.2275
23312SOL    HW176282   5.034   3.106   9.105 -0.0862  1.8756  2.2276
23312SOL    HW276283   5.080   3.031   9.228  0.1427 -2.1015 -0.1339
23313SOL     OW76284   7.975   6.353   3.805  0.7419  0.2892 -0.0616
23313SOL    HW176285   7.887   6.321   3.825  0.2185  2.1631  0.8710
23313SOL    HW276286   8.029   6.317   3.876  0.8441 -1.1537 -0.8260
23314SOL     OW76287   8.804   3.588   6.890  0.0851  0.1398 -0.4332
23314SOL    HW176288   8.767   3.534   6.959  0.4780  1.6546  1.0299
23314SOL    HW276289   8.895   3.602   6.915 -0.4716  3.0395  0.3566
23315SOL     OW76290   2.764   3.317   6.896 -0.3519  0.1356  0.1971
23315SOL    HW176291   2.684   3.276   6.864  0.6594 -1.4980 -0.3957
23315SOL    HW276292   2.816   3.243   6.929  1.0781  1.1056  0.1846
23316SOL     OW76293   1.279   1.132   1.634  0.4431 -0.2634  0.4855
23316SOL    HW176294   1.217   1.202   1.652  2.3715  1.2907  1.3929
23316SOL    HW276295   1.311   1.104   1.720  1.9026 -0.1611  0.0115
23317SOL     OW76296   4.528   8.900   9.000 -0.2256  0.1607 -0.1029
23317SOL    HW176297   4.601   8.850   8.964  0.2310 -0.9775  2.2536
23317SOL    HW276298   4.451   8.846   8.983 -0.0654 -0.1752  0.2097
23318SOL     OW76299   8.939   2.803   6.178 -0.0381 -0.3478 -0.2772
23318SOL    HW176300   9.026   2.809   6.217 -0.0547  2.0667 -0.4477
23318SOL    HW276301   8.951   2.750   6.099  1.2367 -0.1871 -0.2089
23319SOL     OW76302   2.186   2.136   2.741 -0.4797 -0.3457  0.1712
23319SOL    HW176303   2.184   2.152   2.646 -0.1667  1.2229  0.4053
23319SOL    HW276304   2.197   2.041   2.748 -1.3977 -0.6082 -1.3498
23320SOL     OW76305   0.648   1.275   6.201  0.4992  0.0927  0.7181
23320SOL    HW176306   0.740   1.260   6.180  0.3273  1.0838 -0.9262
23320SOL    HW276307   0.600   1.218   6.140  0.0040  1.3280 -0.0679
23321SOL     OW76308   0.665   6.823   3.340 -0.3645 -0.5488  0.9933
23321SOL    HW176309   0.600   6.779   3.284 -1.6151  2.7047 -0.3794
23321SOL    HW276310   0.621   6.904   3.367  2.7189  1.2705  0.9329
23322SOL     OW76311   7.627   7.709   1.138 -0.4038  0.0539  0.6554
23322SOL    HW176312   7.660   7.760   1.213 -0.1774  0.5184  0.2437
23322SOL    HW276313   7.647   7.619   1.161  0.3042  0.2522  0.8494
23323SOL     OW76314   2.845   4.650   0.165 -0.0588 -0.3662  0.3518
23323SOL    HW176315   2.895   4.663   0.084 -0.5748  1.8245  0.3297
23323SOL    HW276316   2.772   4.593   0.139  0.5282 -0.8001 -0.3859
23324SOL     OW76317   4.000   8.881   2.238 -0.1713  0.2191  0.1526
23324SOL    HW176318   3.978   8.896   2.330 -0.9021  1.5030 -0.1973
23324SOL    HW276319   3.952   8.802   2.215 -0.0957 -0.0357  0.8285
23325SOL     OW76320   4.075   5.301   5.392 -0.4466  0.2964  0.2739
23325SOL    HW176321   4.148   5.305   5.331  0.8358  0.4417  1.7705
23325SOL    HW276322   4.107   5.249   5.465 -1.5517  1.0661  1.3541
23326SOL     OW76323   2.839   0.195   0.707  0.0165 -0.2805  0.1836
23326SOL    HW176324   2.753   0.217   0.744  0.2233  1.6227 -0.3569
23326SOL    HW276325   2.887   0.278   0.707  1.7379 -1.2323  0.1342
23327SOL     OW76326   3.742   7.927   0.677  0.1992 -0.3522 -0.0426
23327SOL    HW176327   3.735   7.908   0.584  1.0432 -0.8369 -0.0153
23327SOL    HW276328   3.680   7.867   0.719 -1.5010  1.1002 -0.4168
23328SOL     OW76329   6.790   1.146   0.503  0.1426  0.1162 -0.2280
23328SOL    HW176330   6.849   1.192   0.444 -1.2445  2.4296  0.0701
23328SOL    HW276331   6.758   1.071   0.452 -0.2215  1.4529 -2.0568
23329SOL     OW76332   8.961   8.730   2.671  0.2384  0.0062  0.1898
23329SOL    HW176333   8.973   8.725   2.577  0.2173 -2.0678  0.2658
23329SOL    HW276334   9.013   8.657   2.706  0.5378  0.9408  1.8159
23330SOL     OW76335   6.371   5.048   4.204 -0.0739 -0.3731  0.0547
23330SOL    HW176336   6.443   5.107   4.228  0.5681 -1.0677 -0.1074
23330SOL    HW276337   6.414   4.976   4.157 -0.9834 -0.4054 -0.7412
23331SOL     OW76338   8.003   3.662   1.661  0.0826  0.3094 -0.4166
23331SOL    HW176339   7.985   3.607   1.585 -1.2103  0.3581 -0.1801
23331SOL    HW276340   8.009   3.751   1.625 -2.2018  0.5738 -0.3344
23332SOL     OW76341   1.921   4.186   6.793 -0.0445 -0.5906 -0.1806
23332SOL    HW176342   1.980   4.168   6.720 -1.4548 -1.6019 -1.1427
23332SOL    HW276343   1.978   4.211   6.865  1.4479 -0.3213 -1.4107
23333SOL     OW76344   8.544   5.072   0.811  0.1017  0.4855  0.2119
23333SOL    HW176345   8.555   5.152   0.759 -1.4004  0.5738 -0.0142
23333SOL    HW276346   8.529   5.103   0.900 -1.9843  0.5840 -0.1142
23334SOL     OW76347   3.524   4.702   4.945 -0.0446 -0.1036  0.0885
23334SOL    HW176348   3.511   4.643   5.020 -0.8079  1.4171  1.2020
23334SOL    HW276349   3.513   4.646   4.868  1.4747 -1.8778  1.0762
23335SOL     OW76350   5.589   6.170   4.694 -0.2257 -0.1050  0.7353
23335SOL    HW176351   5.538   6.172   4.613  0.3821 -0.1629  0.3387
23335SOL    HW276352   5.621   6.080   4.699  0.4917  0.1287  0.5462
23336SOL     OW76353   7.265   6.847   4.142  0.3888 -0.6987 -0.3740
23336SOL    HW176354   7.265   6.932   4.186  1.5427  0.0369 -1.7198
23336SOL    HW276355   7.177   6.812   4.156  0.4916 -0.2042  1.8953
23337SOL     OW76356   3.990   0.860   1.884 -0.3501  0.1047 -0.0085
23337SOL    HW176357   4.053   0.923   1.919 -0.0646 -0.5122  0.6199
23337SOL    HW276358   3.906   0.906   1.885 -0.4801 -0.0863  2.1527
23338SOL     OW76359   8.575   6.897   3.208 -0.3376  0.0724 -0.4453
23338SOL    HW176360   8.533   6.832   3.151 -0.2942 -1.5552  1.2910
23338SOL    HW276361   8.646   6.849   3.251  0.1190  1.4612  0.4120
23339SOL     OW76362   0.950   2.307   1.788 -0.2538 -0.2676  0.0857
23339SOL    HW176363   1.036   2.348   1.774 -0.7615  0.5552 -0.7570
23339SOL    HW276364   0.890   2.381   1.800 -0.7021 -0.8618  1.6693
23340SOL     OW76365   4.944   7.435   2.686 -0.2372 -0.0655 -0.1762
23340SOL    HW176366   4.922   7.411   2.775  2.0825 -3.6017 -0.3537
23340SOL    HW276367   4.867   7.413   2.634 -1.0494  0.6021  0.7235
23341SOL     OW76368   3.715   5.163   8.598 -0.0252  0.0779  0.6021
23341SOL    HW176369   3.622   5.184   8.608 -0.7406 -2.6007  0.4226
23341SOL    HW276370   3.749   5.164   8.687 -0.7650 -0.9222  0.9206
23342SOL     OW76371   0.737   4.095   5.826  0.2286 -0.0661  0.4945
23342SOL    HW176372   0.773   4.179   5.852  0.9806 -0.1653 -0.1694
23342SOL    HW276373   0.738   4.097   5.730 -0.1598 -0.6559  0.4706
23343SOL     OW76374   7.915   8.726   8.597 -0.3403 -0.1593 -0.1072
23343SOL    HW176375   7.901   8.760   8.685 -1.1762 -0.7001 -0.0218
23343SOL    HW276376   7.961   8.796   8.551 -0.9022  0.5728  0.4329
23344SOL     OW76377   1.541   5.198   1.033 -0.5354 -0.0596  0.3933
23344SOL    HW176378   1.612   5.252   1.069 -2.8288  2.2032  1.8632
23344SOL    HW276379   1.517   5.241   0.951 -1.9384  0.8609  1.2450
23345SOL     OW76380   0.394   0.749   2.284 -0.7440  0.9364 -0.2205
23345SOL    HW176381   0.384   0.666   2.238 -0.4841  1.8061 -1.9469
23345SOL    HW276382   0.353   0.735   2.369 -0.7775 -0.9192 -0.5091
23346SOL     OW76383   5.102   5.006   5.106 -0.2671 -0.0771  0.3857
23346SOL    HW176384   5.036   4.937   5.114 -0.3339 -0.0029  0.4779
23346SOL    HW276385   5.074   5.058   5.031 -1.8556  1.6040  2.0155
23347SOL     OW76386   1.617   1.032   6.054 -0.1206 -0.0422  0.0541
23347SOL    HW176387   1.620   1.052   6.147 -0.3122 -1.3632  0.3549
23347SOL    HW276388   1.709   1.016   6.030 -0.0552  0.4283 -0.0274
23348SOL     OW76389   6.141   6.578   9.141  0.0178 -0.2999 -0.1695
23348SOL    HW176390   6.163   6.491   9.106  2.5030 -0.1890  0.8902
23348SOL    HW276391   6.117   6.562   9.232  0.5898  0.1240  0.0596
23349SOL     OW76392   2.330   3.372   3.777  0.3975  0.8856  0.1227
23349SOL    HW176393   2.274   3.439   3.738 -1.3789 -0.5073  0.1490
23349SOL    HW276394   2.417   3.388   3.738 -0.3502  2.1364 -1.1516
23350SOL     OW76395   4.587   8.352   6.066 -0.0072  0.2887  0.5331
23350SOL    HW176396   4.526   8.425   6.064 -0.6450 -0.2565 -0.5149
23350SOL    HW276397   4.532   8.274   6.071  0.6306 -0.1648  0.6731
23351SOL     OW76398   6.075   1.996   4.428 -0.0821 -0.0414 -0.1546
23351SOL    HW176399   6.008   1.935   4.457  1.4675 -0.5470  2.7065
23351SOL    HW276400   6.054   2.078   4.471  0.7180 -0.0123  0.1981
23352SOL     OW76401   4.829   8.125   3.059  0.5682 -0.7668 -0.3328
23352SOL    HW176402   4.799   8.086   3.141  1.2977 -2.0106 -0.6159
23352SOL    HW276403   4.925   8.116   3.062  0.7999  1.3553 -0.2807
23353SOL     OW76404   8.775   2.421   5.888  0.3973  0.1064  0.4076
23353SOL    HW176405   8.693   2.455   5.851 -0.5980 -2.0373  0.4702
23353SOL    HW276406   8.821   2.384   5.813  1.0478  0.7608  0.4739
23354SOL     OW76407   8.405   6.455   4.566 -0.4486 -0.8479  0.5704
23354SOL    HW176408   8.376   6.462   4.475 -0.3382  2.4091  0.6838
23354SOL    HW276409   8.467   6.383   4.565  0.3915 -0.2159 -2.1875
23355SOL     OW76410   6.716   7.562   7.233 -0.1679 -0.3080  0.2195
23355SOL    HW176411   6.664   7.542   7.311 -1.3387  1.1141 -0.1365
23355SOL    HW276412   6.778   7.489   7.226 -0.3686 -0.7301  2.1638
23356SOL     OW76413   2.676   1.575   3.511 -0.0066 -0.7867  0.3001
23356SOL    HW176414   2.634   1.520   3.445 -0.7356 -1.7775  1.5548
23356SOL    HW276415   2.740   1.627   3.462 -2.5727  0.7110 -1.6922
23357SOL     OW76416   8.112   0.013   1.416 -0.2054  0.1873 -0.3824
23357SOL    HW176417   8.034   0.040   1.367  1.4103  0.7179 -2.8246
23357SOL    HW276418   8.127  -0.078   1.389  0.4871  0.3559 -0.5816
23358SOL     OW76419   6.547   1.996   9.075 -0.0891  0.2866  0.7081
23358SOL    HW176420   6.576   1.983   8.985 -1.0058 -0.0614  0.4454
23358SOL    HW276421   6.621   2.036   9.119  0.5593 -0.0279 -0.0732
23359SOL     OW76422   0.847   7.924   6.039  0.7054  0.2652 -0.2158
23359SOL    HW176423   0.913   7.981   6.000 -0.3594  0.8559 -1.2226
23359SOL    HW276424   0.829   7.858   5.971 -2.7678  2.5722 -1.8365
23360SOL     OW76425   1.363   7.579   0.727 -0.2749 -0.2656 -0.2578
23360SOL    HW176426   1.311   7.658   0.711 -0.1734 -0.1499 -0.0225
23360SOL    HW276427   1.343   7.522   0.653 -0.8844 -0.2949 -0.0794
23361SOL     OW76428   0.163   5.516   1.271  0.0400 -0.0051  0.1296
23361SOL    HW176429   0.118   5.574   1.210  2.2417  0.1719 -1.4282
23361SOL    HW276430   0.108   5.438   1.276 -1.0691  0.7073 -0.6772
23362SOL     OW76431   1.191   7.550   0.344  0.0074 -0.4030 -0.0552
23362SOL    HW176432   1.126   7.546   0.274 -1.8464  0.4213  1.5215
23362SOL    HW276433   1.227   7.639   0.338 -0.7168 -0.0631  0.4848
23363SOL     OW76434   3.540   1.163   5.349 -0.3046 -0.0163  0.7380
23363SOL    HW176435   3.535   1.175   5.444  0.4736  0.0937  0.7725
23363SOL    HW276436   3.628   1.129   5.334 -0.5020 -0.2574  0.0731
23364SOL     OW76437   1.218   3.909   1.196  0.0948 -0.1131 -0.1487
23364SOL    HW176438   1.274   3.986   1.186 -0.3295 -0.0253 -2.5749
23364SOL    HW276439   1.129   3.943   1.184 -0.1557 -0.8402 -0.3693
23365SOL     OW76440   0.743   6.195   6.462  0.1960 -0.2069  0.3881
23365SOL    HW176441   0.801   6.253   6.511  0.3882 -0.0513 -0.0175
23365SOL    HW276442   0.708   6.134   6.527 -0.7744  0.9718  1.0225
23366SOL     OW76443   2.504   9.075   0.785 -0.0466 -0.2579 -0.3367
23366SOL    HW176444   2.524   9.079   0.691 -0.1786  2.4561 -0.3276
23366SOL    HW276445   2.422   9.025   0.790 -0.2187 -0.1475 -1.6858
23367SOL     OW76446   5.375   1.564   3.157 -0.6924 -0.3077 -0.3373
23367SOL    HW176447   5.421   1.630   3.208 -1.8535  0.4653 -0.2447
23367SOL    HW276448   5.407   1.575   3.068 -0.5171  0.0627 -0.2303
23368SOL     OW76449   6.729   1.330   2.598  0.2352  0.2704  0.0404
23368SOL    HW176450   6.646   1.295   2.631  0.8249 -0.4279  0.8299
23368SOL    HW276451   6.792   1.259   2.613  0.9516  0.7374 -0.6782
23369SOL     OW76452   2.737   7.729   0.029  0.0931 -0.7765 -0.1946
23369SOL    HW176453   2.810   7.789   0.013  1.6835 -2.2179  1.2639
23369SOL    HW276454   2.729   7.726   0.125 -1.5584 -1.0459 -0.3122
23370SOL     OW76455   5.051   0.981   7.734  0.3006  0.3735  0.4382
23370SOL    HW176456   5.099   0.933   7.800 -0.5366  1.1497  1.6587
23370SOL    HW276457   5.118   1.018   7.677  0.9773 -1.6212 -0.1425
23371SOL     OW76458   0.603   3.540   3.325  0.3477  0.3125 -0.5283
23371SOL    HW176459   0.622   3.524   3.418  0.7826  1.2002 -0.4568
23371SOL    HW276460   0.524   3.490   3.308 -2.5273  3.7155  1.5186
23372SOL     OW76461   9.115   2.325   8.466 -0.1936  0.4673  0.4626
23372SOL    HW176462   9.054   2.359   8.401 -0.8867 -1.2139  0.1826
23372SOL    HW276463   9.173   2.267   8.416  0.0606  0.1284  1.1421
23373SOL     OW76464   1.979   8.739   1.133  0.5603 -0.6789  0.0976
23373SOL    HW176465   2.000   8.735   1.040  0.4287  0.6367  0.0007
23373SOL    HW276466   2.032   8.669   1.172  3.8806  1.3158 -0.4036
23374SOL     OW76467   7.804   5.123   0.907  0.5675  0.2593 -0.2940
23374SOL    HW176468   7.848   5.172   0.977  1.0913  0.8679 -1.0245
23374SOL    HW276469   7.876   5.092   0.852  0.2432 -1.3749  0.1643
23375SOL     OW76470   2.577   0.023   3.287  0.0436  0.1784  0.1858
23375SOL    HW176471   2.527  -0.034   3.228 -0.5468  0.0688  0.7693
23375SOL    HW276472   2.668   0.013   3.259 -0.2320  0.1929 -0.7449
23376SOL     OW76473   5.818   0.789   7.643 -0.3007 -0.2952  0.1020
23376SOL    HW176474   5.882   0.854   7.616  0.3447  0.1028  2.3670
23376SOL    HW276475   5.870   0.717   7.678 -1.0461 -1.5440 -1.2598
23377SOL     OW76476   4.870   8.011   1.835 -0.1533  0.4888  0.3209
23377SOL    HW176477   4.792   8.066   1.845 -1.0999 -1.0271  1.5554
23377SOL    HW276478   4.840   7.935   1.785  0.1005 -0.8576  2.1079
23378SOL     OW76479   4.871   7.437   5.128  0.5020  0.2757 -0.5527
23378SOL    HW176480   4.836   7.383   5.199  0.9362 -1.8915 -1.8936
23378SOL    HW276481   4.908   7.514   5.172 -0.2555 -0.4303  1.4339
23379SOL     OW76482   1.404   4.036   7.132 -0.2481 -0.0416  0.1105
23379SOL    HW176483   1.411   4.121   7.089 -1.4587  0.0764  0.0947
23379SOL    HW276484   1.346   4.052   7.207 -1.3914 -1.0657 -0.5230
23380SOL     OW76485   2.915   6.564   5.601 -0.3685 -0.3738  0.0893
23380SOL    HW176486   2.905   6.615   5.521  0.1396  3.1210  2.0663
23380SOL    HW276487   2.835   6.512   5.607 -1.4508  0.9993 -1.5514
23381SOL     OW76488   4.379   8.494   8.883  0.3370 -0.3009 -0.0803
23381SOL    HW176489   4.374   8.400   8.867  0.3401 -0.2259 -0.5192
23381SOL    HW276490   4.383   8.501   8.979 -0.4218 -0.7143 -0.0042
23382SOL     OW76491   8.731   2.704   0.127  0.0259 -0.4119  0.2607
23382SOL    HW176492   8.659   2.707   0.064  0.2875 -0.1654 -0.0298
23382SOL    HW276493   8.789   2.635   0.093 -0.8240 -1.6902  1.3218
23383SOL     OW76494   4.572   3.407   1.716 -0.7306  0.0089 -0.0812
23383SOL    HW176495   4.500   3.394   1.778 -0.4333  0.9265  0.4795
23383SOL    HW276496   4.613   3.488   1.744 -0.7947  0.6389 -1.7018
23384SOL     OW76497   1.446   4.692   8.590 -0.2016 -0.3581  0.0133
23384SOL    HW176498   1.361   4.681   8.632 -0.9634  2.0248 -0.7159
23384SOL    HW276499   1.474   4.780   8.616  1.2075 -0.4175 -1.1710
23385SOL     OW76500   7.084   5.243   8.393  0.0134 -0.3404 -0.1994
23385SOL    HW176501   7.007   5.211   8.346  0.5279  0.0069 -1.3011
23385SOL    HW276502   7.158   5.200   8.350  0.4763 -0.2439  0.4880
23386SOL     OW76503   0.836   5.387   3.981 -0.6695  0.0267 -0.4056
23386SOL    HW176504   0.907   5.407   3.920  0.3364  1.1959  1.0649
23386SOL    HW276505   0.756   5.407   3.933 -0.0582 -1.5220 -2.1814
23387SOL     OW76506   0.161   6.507   5.223  0.3688  0.1866  0.1671
23387SOL    HW176507   0.081   6.490   5.174  1.1164 -0.2284 -0.9653
23387SOL    HW276508   0.135   6.505   5.315 -0.9027  0.0372 -0.1880
23388SOL     OW76509   8.029   6.079   9.039 -0.3763 -0.0888  0.2117
23388SOL    HW176510   8.086   6.130   8.981 -1.5051  2.8282  1.4602
23388SOL    HW276511   7.970   6.032   8.980  0.5984  0.1968 -1.0282
23389SOL     OW76512   1.594   5.242   1.481  0.2373  0.2355  0.1394
23389SOL    HW176513   1.534   5.200   1.542  0.1343 -0.3838 -0.3744
23389SOL    HW276514   1.606   5.177   1.411  0.3661  0.9135 -0.4795
23390SOL     OW76515   0.444   3.796   2.596 -0.2916 -0.3743  0.1913
23390SOL    HW176516   0.476   3.712   2.565 -0.8051 -0.9084  1.0759
23390SOL    HW276517   0.351   3.796   2.572  0.0505  0.6516 -1.2785
23391SOL     OW76518   5.813   3.286   7.834  0.4113  0.2525  0.2246
23391SOL    HW176519   5.847   3.199   7.816  1.4463  0.7652 -0.3378
23391SOL    HW276520   5.728   3.270   7.876  2.0607 -1.1261  3.3846
23392SOL     OW76521   0.341   6.574   7.421  0.0345  0.1542  0.4909
23392SOL    HW176522   0.346   6.506   7.354 -1.1020 -0.6022  1.1398
23392SOL    HW276523   0.407   6.549   7.485 -1.3294 -1.2064  1.4478
23393SOL     OW76524   6.213   2.431   8.590 -0.1659  0.2409  0.4690
23393SOL    HW176525   6.121   2.404   8.593  0.1562 -1.1042 -0.7034
23393SOL    HW276526   6.216   2.499   8.523 -0.2852  0.2111  0.4329
23394SOL     OW76527   1.220   7.932   6.564 -0.3015 -0.0524  0.5834
23394SOL    HW176528   1.212   7.838   6.582 -0.1105 -0.1815  0.0070
23394SOL    HW276529   1.151   7.949   6.500  0.2110  0.0251  0.0453
23395SOL     OW76530   1.915   4.988   8.114  0.3505  0.1642 -0.1900
23395SOL    HW176531   1.910   4.983   8.209 -0.4404  0.2336 -0.2200
23395SOL    HW276532   1.970   5.065   8.097  0.1698  0.3824  0.2093
23396SOL     OW76533   5.851   6.659   5.845  0.3195  0.1234 -0.4679
23396SOL    HW176534   5.904   6.669   5.924 -2.3662  0.9339  1.3787
23396SOL    HW276535   5.832   6.566   5.840  1.7682 -0.1711 -1.1282
23397SOL     OW76536   2.137   0.108   6.460  0.1573  0.6853  0.2519
23397SOL    HW176537   2.200   0.091   6.390  0.8679 -1.2789  1.3024
23397SOL    HW276538   2.074   0.036   6.455  0.4979  0.2191  1.8965
23398SOL     OW76539   4.609   4.525   2.507 -0.4527  0.1362  0.2818
23398SOL    HW176540   4.660   4.560   2.580 -1.7699  0.1398  1.2512
23398SOL    HW276541   4.673   4.507   2.439  0.7992  0.3386  1.3610
23399SOL     OW76542   0.238   8.819   2.789  0.2236 -0.0358  0.3467
23399SOL    HW176543   0.226   8.724   2.793 -1.7497  0.2087  1.5008
23399SOL    HW276544   0.307   8.831   2.724  1.1821 -2.2954  0.8421
23400SOL     OW76545   6.802   5.922   2.116  0.6398 -0.3057  0.8988
23400SOL    HW176546   6.823   5.831   2.139 -0.0225 -0.1161  2.3497
23400SOL    HW276547   6.708   5.920   2.097  0.3160  0.3285  2.3625
23401SOL     OW76548   5.148   4.369   0.006  0.0121 -0.1532  0.1409
23401SOL    HW176549   5.060   4.386  -0.027  0.4681 -0.3641 -1.2742
23401SOL    HW276550   5.149   4.408   0.093 -0.8020  1.8297 -0.6726
23402SOL     OW76551   1.576   3.151   8.416 -0.6339 -0.2442  1.1000
23402SOL    HW176552   1.571   3.134   8.510 -3.1520 -1.2624  0.8535
23402SOL    HW276553   1.515   3.223   8.401  0.5005  0.6029  0.3343
23403SOL     OW76554   0.794   2.338   2.303 -0.3413 -0.0826 -0.2760
23403SOL    HW176555   0.796   2.262   2.245 -0.3850 -0.7699  0.5993
23403SOL    HW276556   0.763   2.303   2.387  1.1788  0.5826  0.6082
23404SOL     OW76557   5.826   4.122   0.228  0.4662 -0.0657  0.1501
23404SOL    HW176558   5.804   4.067   0.304 -0.9564 -1.0895 -0.9413
23404SOL    HW276559   5.771   4.087   0.157  0.2583  2.1527 -0.8503
23405SOL     OW76560   6.003   8.154   9.077  0.1636  0.1294  0.1707
23405SOL    HW176561   6.079   8.201   9.110  1.0031 -0.7079 -0.5327
23405SOL    HW276562   5.947   8.143   9.154  1.0192  0.2310  0.8197
23406SOL     OW76563   5.194   2.997   4.139 -0.1110 -0.3501 -0.3616
23406SOL    HW176564   5.170   3.005   4.046 -0.6604 -2.6413 -0.4790
23406SOL    HW276565   5.151   3.071   4.181 -0.1541  0.5278 -1.8776
23407SOL     OW76566   0.041   5.763   1.567  0.0102 -0.7327 -0.3186
23407SOL    HW176567   0.028   5.669   1.553  1.0465 -1.0129  0.5111
23407SOL    HW276568   0.135   5.775   1.561 -0.1441  0.3411 -0.8431
23408SOL     OW76569   7.285   0.819   8.473  0.0253  0.2602  0.2856
23408SOL    HW176570   7.320   0.890   8.528 -0.9638  0.5022  0.6174
23408SOL    HW276571   7.295   0.852   8.383  2.2008 -0.3857  0.2349
23409SOL     OW76572   6.159   5.375   0.426  0.4399 -0.1764 -0.5820
23409SOL    HW176573   6.224   5.322   0.380  0.7675  1.5008 -2.1510
23409SOL    HW276574   6.134   5.442   0.363 -0.7332  0.9080  0.9763
23410SOL     OW76575   0.285   0.562   8.911  0.5964 -0.8607 -0.4327
23410SOL    HW176576   0.270   0.506   8.835  0.6183  0.7579 -1.6891
23410SOL    HW276577   0.201   0.607   8.924  0.9308 -0.2950 -0.2081
23411SOL     OW76578   0.521   1.473   4.662 -0.4189 -1.2066 -0.0858
23411SOL    HW176579   0.546   1.509   4.577 -1.6637 -3.2347 -1.4235
23411SOL    HW276580   0.434   1.510   4.679  0.9869  1.5452  1.8787
23412SOL     OW76581   2.646   3.961   4.877 -0.2208  0.2002  0.5944
23412SOL    HW176582   2.610   3.919   4.955  0.3574  0.1172  0.8275
23412SOL    HW276583   2.656   3.890   4.814 -2.0191  0.5082 -0.0731
23413SOL     OW76584   9.210   3.760   0.070 -0.3247  0.2762  0.1658
23413SOL    HW176585   9.270   3.788   0.000  0.8212 -0.0788  0.9853
23413SOL    HW276586   9.126   3.749   0.025  0.1198  1.1327 -0.9446
23414SOL     OW76587   5.643   2.678   4.888 -0.0332  0.0402  0.1812
23414SOL    HW176588   5.596   2.596   4.906  0.7837 -0.9117 -1.7001
23414SOL    HW276589   5.716   2.651   4.832  0.2889  2.0796 -0.4435
23415SOL     OW76590   2.002   2.896   8.967  0.1625  0.2498 -0.0551
23415SOL    HW176591   1.937   2.964   8.949  0.3723  0.4393 -0.1032
23415SOL    HW276592   2.033   2.868   8.881 -2.6350 -2.6307 -0.3299
23416SOL     OW76593   8.250   5.182   8.486  0.1061 -0.1662 -0.1943
23416SOL    HW176594   8.196   5.226   8.421  0.1445  1.4217  0.7936
23416SOL    HW276595   8.234   5.230   8.567  0.3435 -1.8551  0.9015
23417SOL     OW76596   0.030   0.876   7.252 -0.2432  0.0279 -0.1499
23417SOL    HW176597   0.091   0.949   7.256  1.4148 -1.3249  0.3762
23417SOL    HW276598   0.055   0.828   7.172 -1.1216 -0.1271 -0.3395
23418SOL     OW76599   0.642   7.592   2.534 -0.1511 -0.0289 -0.3669
23418SOL    HW176600   0.712   7.612   2.596  1.2648  1.1930 -2.2283
23418SOL    HW276601   0.673   7.513   2.489 -1.1013 -0.8251  0.3193
23419SOL     OW76602   1.133   4.293   0.146  0.2823  0.0433  0.0786
23419SOL    HW176603   1.086   4.213   0.165 -0.1557  0.1899 -0.3711
23419SOL    HW276604   1.178   4.276   0.063  0.7575  0.0178  0.3370
23420SOL     OW76605   8.238   8.528   5.251 -0.5475 -0.0343  0.6692
23420SOL    HW176606   8.217   8.608   5.204  2.2859  0.8793  0.7546
23420SOL    HW276607   8.284   8.558   5.330 -0.3579 -1.7080  1.2366
23421SOL     OW76608   4.277   7.620   2.792  0.3807  0.2140 -0.0755
23421SOL    HW176609   4.326   7.676   2.852  0.4679  0.5405 -0.4469
23421SOL    HW276610   4.214   7.679   2.751 -1.3121 -0.4583  1.4257
23422SOL     OW76611   2.994   1.614   8.818 -0.2847 -0.0889  0.0146
23422SOL    HW176612   2.955   1.636   8.903  1.2997  1.4500  0.3918
23422SOL    HW276613   2.931   1.645   8.754 -0.8888 -0.0581  0.6116
23423SOL     OW76614   2.806   2.710   0.887 -0.2618  0.0260 -0.1539
23423SOL    HW176615   2.883   2.673   0.930  0.2036  0.7302 -0.3631
23423SOL    HW276616   2.817   2.688   0.795 -1.0558 -1.1298  0.0009
23424SOL     OW76617   6.143   8.008   8.551  0.1153 -0.1020 -0.1993
23424SOL    HW176618   6.227   7.978   8.517  0.6820  1.8743 -0.6843
23424SOL    HW276619   6.164   8.056   8.631 -0.5219  0.5436 -0.4047
23425SOL     OW76620   2.588   0.841   8.648  0.4596  0.0549  0.3296
23425SOL    HW176621   2.502   0.879   8.627  0.3269 -0.6366 -0.4215
23425SOL    HW276622   2.648   0.883   8.587  0.3143 -0.9003 -0.4970
23426SOL     OW76623   3.887   4.166   2.959 -0.2740  0.3259  0.3608
23426SOL    HW176624   3.801   4.141   2.994 -0.6746 -0.8624 -1.3519
23426SOL    HW276625   3.925   4.084   2.929 -0.1212  1.2660 -2.2467
23427SOL     OW76626   7.427   6.874   8.735  0.1733 -0.6901  0.4375
23427SOL    HW176627   7.464   6.814   8.800 -0.0869 -0.3091  0.9434
23427SOL    HW276628   7.487   6.869   8.661  0.4078 -1.2208  0.6563
23428SOL     OW76629   1.125   4.782   4.434 -0.1862 -0.3168  0.1312
23428SOL    HW176630   1.205   4.833   4.450 -0.3485  0.4098 -1.1599
23428SOL    HW276631   1.083   4.827   4.360 -2.6818  0.3331  1.8361
23429SOL     OW76632   4.451   7.855   3.897 -0.2230 -0.4953  0.3064
23429SOL    HW176633   4.379   7.904   3.938  1.1367 -0.2237  2.5395
23429SOL    HW276634   4.459   7.893   3.810 -0.3834  2.1068  1.3287
23430SOL     OW76635   5.436   1.582   6.316  0.1506 -0.4624 -0.0710
23430SOL    HW176636   5.463   1.496   6.284 -2.2195 -1.2314 -0.2194
23430SOL    HW276637   5.429   1.572   6.411  0.3419 -0.2866 -0.0381
23431SOL     OW76638   0.885   8.212   8.815 -0.4413 -0.0166  0.2672
23431SOL    HW176639   0.848   8.298   8.832 -2.3393 -0.5797 -0.7568
23431SOL    HW276640   0.851   8.157   8.886  0.2215 -0.0776  0.5444
23432SOL     OW76641   8.118   6.211   8.614 -0.2168 -0.1806  0.6470
23432SOL    HW176642   8.194   6.249   8.571 -0.3237  0.8408  1.3299
23432SOL    HW276643   8.108   6.125   8.574 -0.6289  0.8987 -1.7393
23433SOL     OW76644   3.111   8.182   8.181 -0.0690  0.3165 -0.3815
23433SOL    HW176645   3.040   8.128   8.146  0.1103 -1.7968  2.1728
23433SOL    HW276646   3.189   8.126   8.176  0.6050  1.1554  0.3067
23434SOL     OW76647   1.888   0.045   4.735 -0.7052 -0.2106 -0.3474
23434SOL    HW176648   1.824   0.081   4.797  0.4734 -0.2517  0.9332
23434SOL    HW276649   1.933   0.122   4.701 -1.7892 -0.1341 -1.7075
23435SOL     OW76650   3.264   8.952   0.736  0.0633 -0.0690  0.6015
23435SOL    HW176651   3.297   8.876   0.784  1.6911 -0.0278 -0.3709
23435SOL    HW276652   3.302   9.027   0.780  1.6419 -0.0348 -0.7274
23436SOL     OW76653   1.956   3.874   2.693  0.2616 -0.0872 -0.3041
23436SOL    HW176654   1.882   3.822   2.665 -0.4023 -0.6872  2.2647
23436SOL    HW276655   1.950   3.875   2.789  2.4787  1.4589 -0.0885
23437SOL     OW76656   0.702   6.783   6.233 -0.1741  0.4013  0.2115
23437SOL    HW176657   0.653   6.767   6.152  0.7540  0.1082 -0.3145
23437SOL    HW276658   0.758   6.706   6.243 -0.5969  0.2366  1.3841
23438SOL     OW76659   1.509   5.095   8.955 -0.3594 -0.0982 -0.1411
23438SOL    HW176660   1.513   5.044   9.036  0.0616  1.0949  0.6107
23438SOL    HW276661   1.416   5.110   8.940 -0.5957 -2.1322 -1.0806
23439SOL     OW76662   3.571   0.021   3.989 -0.0854  0.4023  0.2477
23439SOL    HW176663   3.503  -0.041   4.014  0.5646 -0.7078 -0.6520
23439SOL    HW276664   3.550   0.047   3.899  1.1867 -0.7321 -0.4172
23440SOL     OW76665   0.521   2.573   6.095  0.3368 -0.2283 -0.1440
23440SOL    HW176666   0.600   2.518   6.090  0.3069 -0.3098  0.2479
23440SOL    HW276667   0.468   2.546   6.020 -0.3710 -1.8107  0.8844
23441SOL     OW76668   4.283   5.020   8.206  0.0359  0.0552  0.2249
23441SOL    HW176669   4.377   5.001   8.201 -0.0443 -0.5888  0.9834
23441SOL    HW276670   4.244   4.938   8.236 -0.7117  0.4693  0.3916
23442SOL     OW76671   2.384   5.900   0.852  0.1240 -0.5770  0.4795
23442SOL    HW176672   2.326   5.960   0.898  0.7417 -0.2195  0.8032
23442SOL    HW276673   2.333   5.819   0.843  0.0015 -0.6670  1.8323
23443SOL     OW76674   1.883   1.280   3.164 -0.1560 -0.2642 -0.4303
23443SOL    HW176675   1.906   1.363   3.206 -1.2048  0.7625 -1.7927
23443SOL    HW276676   1.960   1.257   3.112  0.8348 -1.1227  1.3254
23444SOL     OW76677   4.234   8.822   4.086  0.0430 -0.4231  0.3200
23444SOL    HW176678   4.245   8.917   4.099 -0.3853  0.4496 -4.1736
23444SOL    HW276679   4.143   8.813   4.056  0.0084 -2.3316  0.9261
23445SOL     OW76680   2.762   2.472   3.460 -0.4176 -0.5960  0.2979
23445SOL    HW176681   2.731   2.386   3.486 -0.4301 -0.2482  1.5107
23445SOL    HW276682   2.686   2.530   3.471 -0.7694 -0.6118 -1.6881
23446SOL     OW76683   0.318   0.146   6.211  0.2855  0.5158  0.5008
23446SOL    HW176684   0.386   0.165   6.275  0.2700 -0.7325  0.9233
23446SOL    HW276685   0.264   0.078   6.252  0.6421 -0.7782 -1.0359
23447SOL     OW76686   0.384   6.381   7.184 -0.3347  0.2653  0.2236
23447SOL    HW176687   0.348   6.300   7.148 -0.6969 -0.2413  1.6712
23447SOL    HW276688   0.418   6.428   7.108 -0.1108 -1.2422 -0.6406
23448SOL     OW76689   7.759   5.872   8.551  0.4452 -0.1148 -0.0870
23448SOL    HW176690   7.801   5.787   8.564 -0.4417 -0.8220 -1.5096
23448SOL    HW276691   7.831   5.934   8.538  1.0767 -0.9297 -0.5254
23449SOL     OW76692   2.780   6.892   3.325 -0.0364 -0.2295 -0.4014
23449SOL    HW176693   2.805   6.801   3.313  1.2482 -0.0569  0.7175
23449SOL    HW276694   2.823   6.938   3.252  0.5158 -0.3358 -0.1476
23450SOL     OW76695   6.210   7.032   8.963 -0.2061 -0.2918  0.0920
23450SOL    HW176696   6.301   7.010   8.985 -0.2759 -1.7347 -0.9008
23450SOL    HW276697   6.214   7.123   8.935  0.9218 -0.2956  0.1758
23451SOL     OW76698   6.421   1.796   5.327  0.1977  0.2627  0.0618
23451SOL    HW176699   6.477   1.729   5.365  1.2667  1.0863 -0.0337
23451SOL    HW276700   6.476   1.839   5.262 -0.3429  1.4867  0.3941
23452SOL     OW76701   4.666   4.919   3.472  0.6191 -0.1931  0.6687
23452SOL    HW176702   4.676   4.844   3.414  1.2798 -1.1954  2.0196
23452SOL    HW276703   4.723   4.986   3.435 -0.4186 -0.1339 -0.8789
23453SOL     OW76704   5.519   0.249   4.103 -0.4796 -0.3155 -0.3980
23453SOL    HW176705   5.427   0.225   4.093 -1.4529  1.4459  2.9142
23453SOL    HW276706   5.520   0.344   4.092  0.9633 -0.3197 -0.4282
23454SOL     OW76707   5.081   8.588   1.835 -0.3612 -0.2871 -0.0872
23454SOL    HW176708   5.050   8.549   1.917  0.7933 -1.3838 -0.1358
23454SOL    HW276709   5.074   8.517   1.771  1.8320 -0.4964 -0.1671
23455SOL     OW76710   7.372   4.405   1.002  0.1864 -0.3544  0.1396
23455SOL    HW176711   7.308   4.341   0.972  1.1336 -2.1753  1.8015
23455SOL    HW276712   7.448   4.353   1.030  1.8267  1.6214 -0.3462
23456SOL     OW76713   2.398   7.571   7.431  0.0802  0.0879 -0.0138
23456SOL    HW176714   2.342   7.649   7.425  0.0038  0.1670  1.2689
23456SOL    HW276715   2.337   7.497   7.429  0.0815  0.0964 -0.3835
23457SOL     OW76716   2.000   2.666   5.441  0.2416 -0.0849 -0.3410
23457SOL    HW176717   1.920   2.615   5.457  0.3685  0.1184  1.1208
23457SOL    HW276718   1.989   2.745   5.493  1.6674 -0.3492  0.4258
23458SOL     OW76719   0.226   1.556   6.918  0.0430 -0.1485 -0.1354
23458SOL    HW176720   0.285   1.541   6.991 -0.8233 -0.9567  0.4298
23458SOL    HW276721   0.148   1.504   6.939 -1.8647  2.6140  0.3155
23459SOL     OW76722   1.099   1.683   6.769  0.1104 -0.3874 -0.3314
23459SOL    HW176723   1.027   1.727   6.724  0.0781  0.6609  0.6819
23459SOL    HW276724   1.060   1.606   6.809 -0.6462  0.5846  0.8541
23460SOL     OW76725   8.609   1.687   2.532  0.3906 -0.7423  0.2059
23460SOL    HW176726   8.535   1.709   2.588 -0.4252  0.0463 -1.1229
23460SOL    HW276727   8.665   1.631   2.586 -0.5566 -0.3454  1.6427
23461SOL     OW76728   9.109   9.203   5.199 -0.9848  0.0523 -0.0306
23461SOL    HW176729   9.108   9.158   5.283 -0.1703 -1.0382 -0.5745
23461SOL    HW276730   9.183   9.164   5.152 -1.8871  0.0866 -1.5418
23462SOL     OW76731   7.035   6.298   8.661 -0.5471  0.3864 -0.5294
23462SOL    HW176732   6.974   6.325   8.729 -1.0773 -0.9510 -0.4605
23462SOL    HW276733   7.121   6.311   8.699 -0.8409 -0.6062  0.5169
23463SOL     OW76734   1.316   2.746   5.531 -0.2953  0.0262  0.0118
23463SOL    HW176735   1.301   2.841   5.529  0.9402  0.2230 -0.5976
23463SOL    HW276736   1.228   2.708   5.523 -0.7046  1.1245 -1.0642
23464SOL     OW76737   6.136   3.198   6.784  0.3472  0.1742 -0.4270
23464SOL    HW176738   6.154   3.233   6.696 -0.4031 -0.3729 -0.8089
23464SOL    HW276739   6.120   3.275   6.838 -0.8289  0.4562 -1.1511
23465SOL     OW76740   2.747   8.477   4.444 -0.1023 -0.5102 -0.0891
23465SOL    HW176741   2.733   8.540   4.373  1.8260  0.2958  0.1762
23465SOL    HW276742   2.789   8.402   4.401  0.3240 -0.3582  0.0553
23466SOL     OW76743   5.126   1.949   0.958 -0.4767 -0.0225 -0.3480
23466SOL    HW176744   5.076   1.933   1.038 -0.9018 -1.0762 -0.8128
23466SOL    HW276745   5.206   1.991   0.988 -0.6105 -0.4493  0.6396
23467SOL     OW76746   2.630   6.724   4.121 -0.0817  0.7207  0.0148
23467SOL    HW176747   2.605   6.739   4.031  0.1639 -1.3949 -0.4641
23467SOL    HW276748   2.639   6.629   4.128  0.2414  0.8532  2.1734
23468SOL     OW76749   1.860   0.845   1.570 -0.5329 -0.2448 -0.1706
23468SOL    HW176750   1.848   0.904   1.496  0.8970 -1.7441 -1.7074
23468SOL    HW276751   1.820   0.763   1.542  0.2954 -0.9259  0.5899
23469SOL     OW76752   4.533   8.539   7.665  0.1655 -0.0156  0.1437
23469SOL    HW176753   4.556   8.447   7.667 -2.4188 -0.7408  0.9581
23469SOL    HW276754   4.612   8.585   7.692  1.1874 -2.0573  0.7738
23470SOL     OW76755   5.426   4.016   9.104  0.2468  0.2907  1.2405
23470SOL    HW176756   5.344   3.968   9.113 -0.3671  1.3677  1.5350
23470SOL    HW276757   5.415   4.094   9.158  0.6630  1.4703 -0.2930
23471SOL     OW76758   5.416   7.976   0.012 -0.0985  0.2663 -0.0179
23471SOL    HW176759   5.464   8.051  -0.024 -0.2996  0.3048 -0.2087
23471SOL    HW276760   5.434   7.905  -0.049 -2.2317  0.8730 -1.5053
23472SOL     OW76761   5.029   3.718   7.434 -0.6660  0.4586  0.1562
23472SOL    HW176762   5.095   3.787   7.423 -0.5471  0.3722  0.3262
23472SOL    HW276763   4.990   3.736   7.520 -1.1982  0.7927 -0.1434
23473SOL     OW76764   6.715   4.277   6.332 -0.3334  0.1394  0.3582
23473SOL    HW176765   6.703   4.276   6.237  0.5024  0.6179  0.2365
23473SOL    HW276766   6.703   4.186   6.359 -0.8208  0.0444 -0.1702
23474SOL     OW76767   3.656   0.275   4.997  0.3647  0.0691  0.3370
23474SOL    HW176768   3.609   0.335   5.054  0.2819 -0.1432  0.4934
23474SOL    HW276769   3.639   0.188   5.033  0.4227 -0.0566  0.0690
23475SOL     OW76770   8.109   1.032   8.011 -0.5608  0.4772  0.1651
23475SOL    HW176771   8.052   1.107   7.995 -0.5086  0.7372  1.1621
23475SOL    HW276772   8.074   0.991   8.090 -1.3069 -1.2663 -1.0036
23476SOL     OW76773   6.753   6.225   4.391 -0.4206 -0.0809  0.1812
23476SOL    HW176774   6.755   6.130   4.379  0.5469  0.1485 -2.0841
23476SOL    HW276775   6.735   6.238   4.484  1.5584 -2.4944  0.9956
23477SOL     OW76776   0.726   6.022   1.724 -0.2862  0.1799 -0.5122
23477SOL    HW176777   0.770   5.941   1.750 -0.0982  0.9020  1.6059
23477SOL    HW276778   0.797   6.083   1.704 -0.4225  0.0464 -1.4652
23478SOL     OW76779   3.014   2.418   9.245 -0.2925 -0.0003  0.1742
23478SOL    HW176780   2.928   2.435   9.285  0.1544  0.3625  1.0319
23478SOL    HW276781   3.052   2.505   9.233  0.2443 -0.1881  0.4753
23479SOL     OW76782   8.615   0.618   1.353  0.1441  0.1421 -0.2362
23479SOL    HW176783   8.532   0.574   1.370 -0.2007  1.5710  2.2847
23479SOL    HW276784   8.590   0.705   1.321  0.5423  1.1898  2.1396
23480SOL     OW76785   2.250   7.920   6.326 -0.5400 -0.4457 -0.0085
23480SOL    HW176786   2.208   7.896   6.243 -3.6249 -0.8863  1.4959
23480SOL    HW276787   2.224   8.011   6.340  2.5449  0.6801 -0.8524
23481SOL     OW76788   0.883   0.589   3.860  0.1162  0.6025  0.6167
23481SOL    HW176789   0.940   0.637   3.921  0.2201 -0.8825  1.7615
23481SOL    HW276790   0.810   0.649   3.844  0.8223  1.6134  1.0133
23482SOL     OW76791   0.820   8.893   1.392 -0.2341 -0.4029 -0.6341
23482SOL    HW176792   0.863   8.979   1.392  0.1073 -0.5676  0.3934
23482SOL    HW276793   0.837   8.859   1.304 -0.0668  0.4237 -0.9366
23483SOL     OW76794   1.339   5.686   0.124  0.7000 -0.5817  0.5093
23483SOL    HW176795   1.431   5.704   0.107  0.2136  2.3478  0.4293
23483SOL    HW276796   1.335   5.592   0.138  3.2122 -1.2875 -2.4380
23484SOL     OW76797   8.799   2.341   8.538  0.0682  0.0122  0.6398
23484SOL    HW176798   8.891   2.366   8.532  1.1595 -3.2086  1.5799
23484SOL    HW276799   8.782   2.293   8.457 -0.6482  0.1741  0.6894
23485SOL     OW76800   8.439   6.336   5.572 -0.0613  0.1815 -0.1107
23485SOL    HW176801   8.511   6.375   5.621 -0.5629  2.4548 -1.0895
23485SOL    HW276802   8.374   6.314   5.639  0.0765  1.4078  0.4502
23486SOL     OW76803   1.433   1.651   5.525  0.1365  0.0585  0.9554
23486SOL    HW176804   1.338   1.642   5.528  0.1399  0.1541  1.5697
23486SOL    HW276805   1.466   1.569   5.563  0.3724 -1.0274 -1.4023
23487SOL     OW76806   6.729   8.125   8.140  0.3295 -0.0764  0.1214
23487SOL    HW176807   6.790   8.180   8.091 -0.4353  0.4913 -0.2051
23487SOL    HW276808   6.770   8.115   8.226  0.7861  0.4560 -0.0312
23488SOL     OW76809   3.851   1.932   1.994 -0.0759 -0.1411  0.6015
23488SOL    HW176810   3.796   1.879   1.936  0.4896 -1.2441  1.0469
23488SOL    HW276811   3.868   1.875   2.069 -1.0914  1.3764  2.0596
23489SOL     OW76812   2.832   7.105   7.430 -0.2675 -0.2494  0.2650
23489SOL    HW176813   2.746   7.147   7.423 -0.3129 -0.5154 -0.9503
23489SOL    HW276814   2.890   7.174   7.462 -0.0121  1.2843 -3.1204
23490SOL     OW76815   4.249   0.825   2.774 -0.4712 -0.0860 -0.4061
23490SOL    HW176816   4.213   0.738   2.757 -0.2641 -0.1863 -0.3423
23490SOL    HW276817   4.343   0.809   2.788 -0.5606  0.0435  0.3811
23491SOL     OW76818   2.455   5.736   5.018  0.0431  0.2280 -0.4101
23491SOL    HW176819   2.446   5.800   5.089 -0.1694 -0.9601  0.6722
23491SOL    HW276820   2.370   5.739   4.973 -0.4916 -0.2941  0.5273
23492SOL     OW76821   3.459   1.330   5.634 -0.4412 -0.3922 -0.4368
23492SOL    HW176822   3.420   1.350   5.549  1.1326 -0.1500 -1.1207
23492SOL    HW276823   3.505   1.409   5.659 -1.0776 -0.3786  0.7830
23493SOL     OW76824   7.809   5.303   2.687 -0.0656  0.1685  0.2655
23493SOL    HW176825   7.837   5.348   2.607 -0.2700  0.9642  0.6249
23493SOL    HW276826   7.733   5.353   2.717 -1.6660 -1.7222 -0.4852
23494SOL     OW76827   2.568   2.968   8.777  0.6833 -0.1145  0.2710
23494SOL    HW176828   2.503   3.036   8.759  0.7085 -0.0428  0.4491
23494SOL    HW276829   2.632   3.010   8.835  0.5064 -0.3947  0.6748
23495SOL     OW76830   8.914   6.866   5.626 -0.1756 -0.1777  0.5816
23495SOL    HW176831   8.862   6.787   5.614  0.5924 -0.9341  2.0117
23495SOL    HW276832   8.988   6.856   5.566  0.8392 -1.4018  1.9722
23496SOL     OW76833   0.381   2.574   3.721  0.2635 -0.2024  0.2028
23496SOL    HW176834   0.426   2.643   3.771  0.7027  0.9836 -1.7308
23496SOL    HW276835   0.444   2.503   3.715  0.4664 -0.0716  0.6905
23497SOL     OW76836   1.331   2.837   1.023  0.2933 -0.0038 -0.5413
23497SOL    HW176837   1.289   2.851   1.108 -0.4444  1.2820 -1.0884
23497SOL    HW276838   1.349   2.743   1.020  2.9989  0.2986  2.2105
23498SOL     OW76839   5.754   4.111   7.017  0.2838 -0.3966  0.2178
23498SOL    HW176840   5.834   4.062   7.037  1.2662  0.5537 -1.2413
23498SOL    HW276841   5.700   4.102   7.095  1.4911 -1.6966  0.9382
23499SOL     OW76842   0.199   0.437   2.159 -0.6128  0.0236  0.5313
23499SOL    HW176843   0.202   0.496   2.083 -0.5161  1.2627  1.4608
23499SOL    HW276844   0.290   0.432   2.188  0.0974 -3.6576 -1.7355
23500SOL     OW76845   0.424   6.901   3.842 -0.1844 -0.2033 -0.0182
23500SOL    HW176846   0.414   6.985   3.886 -1.4065 -0.1615 -0.3521
23500SOL    HW276847   0.513   6.903   3.805  0.1606  0.5164  0.8170
23501SOL     OW76848   2.879   8.287   6.752  0.5896 -0.0796 -0.2588
23501SOL    HW176849   2.836   8.362   6.792 -1.5046 -1.1579 -0.3488
23501SOL    HW276850   2.850   8.288   6.661 -0.2940 -1.5195 -0.0332
23502SOL     OW76851   7.819   3.762   8.711 -0.1377  0.4310 -0.3761
23502SOL    HW176852   7.760   3.835   8.730  0.7749  1.1541 -0.2403
23502SOL    HW276853   7.774   3.685   8.744 -0.0469  1.2298  1.7718
23503SOL     OW76854   5.492   0.158   6.751 -0.3207  0.7257 -0.1482
23503SOL    HW176855   5.429   0.171   6.680 -0.3814  0.0313 -0.2272
23503SOL    HW276856   5.446   0.102   6.813 -0.2020  1.1833  0.3597
23504SOL     OW76857   2.224   6.292   6.688  0.2696 -0.1975  0.1369
23504SOL    HW176858   2.144   6.241   6.674 -0.0301  0.3150 -0.0670
23504SOL    HW276859   2.197   6.382   6.673  1.1642 -0.1187 -1.2114
23505SOL     OW76860   0.328   6.492   3.550  0.6843 -0.3153 -0.1215
23505SOL    HW176861   0.396   6.480   3.484  1.4818  1.9446  0.2153
23505SOL    HW276862   0.376   6.501   3.632 -0.1028  0.1666  0.2939
23506SOL     OW76863   4.933   1.797   6.217  0.1250 -0.0776 -0.5595
23506SOL    HW176864   5.026   1.772   6.214  0.7738  1.4319  2.2612
23506SOL    HW276865   4.902   1.762   6.301 -1.7456 -0.1318 -1.2336
23507SOL     OW76866   1.977   2.230   1.510 -0.2055 -0.2969  0.0295
23507SOL    HW176867   2.039   2.158   1.499  0.3067  0.1048  0.2874
23507SOL    HW276868   2.024   2.295   1.561 -1.6410 -1.0543  2.5439
23508SOL     OW76869   4.330   8.642   3.168  0.1801 -0.2436 -0.0072
23508SOL    HW176870   4.348   8.567   3.224  0.2768 -0.6646 -0.5905
23508SOL    HW276871   4.409   8.652   3.114 -0.1295 -0.2097 -0.4664
23509SOL     OW76872   2.812   7.473   1.195 -0.0154 -0.4352  0.7093
23509SOL    HW176873   2.736   7.507   1.148  0.8398  0.3032 -0.1691
23509SOL    HW276874   2.839   7.544   1.252  2.5351  1.0111 -2.0262
23510SOL     OW76875   1.569   1.570   1.894  0.4079 -0.1884  0.1360
23510SOL    HW176876   1.526   1.499   1.942  1.9604 -1.5202 -0.3531
23510SOL    HW276877   1.576   1.539   1.804 -1.2100  1.7064 -0.7147
23511SOL     OW76878   8.680   0.849   3.936  0.2297  0.7565  0.4018
23511SOL    HW176879   8.685   0.910   4.010  2.5541  0.0880  0.8711
23511SOL    HW276880   8.602   0.876   3.888 -0.6195  2.0288  2.3782
23512SOL     OW76881   2.001   8.013   7.054  0.6042 -0.1942  0.0636
23512SOL    HW176882   2.032   7.971   6.974  2.1823  0.0005  0.5314
23512SOL    HW276883   2.075   8.006   7.115 -1.1018 -1.8653  2.1033
23513SOL     OW76884   2.800   9.081   3.690 -0.2078 -0.7896 -1.1129
23513SOL    HW176885   2.727   9.116   3.640 -0.7415  0.0555  0.2327
23513SOL    HW276886   2.857   9.156   3.706  0.5860 -1.2934 -1.4819
23514SOL     OW76887   6.909   1.003   5.953 -0.5448 -0.3693 -0.0043
23514SOL    HW176888   6.919   1.087   5.908  2.0724  0.4573  1.8730
23514SOL    HW276889   6.846   1.020   6.023  2.6322  1.3621  2.7782
23515SOL     OW76890   5.529   1.166   5.816 -0.4800  0.0773  0.3713
23515SOL    HW176891   5.480   1.135   5.740 -1.5569 -0.5741  1.3161
23515SOL    HW276892   5.469   1.157   5.890  1.1086 -0.9412  1.6116
23516SOL     OW76893   9.212   1.972   2.287  0.0932  0.2945 -0.2853
23516SOL    HW176894   9.193   1.973   2.381  1.4751  0.0163  0.0205
23516SOL    HW276895   9.127   1.985   2.245 -0.6874 -0.5098  0.9798
23517SOL     OW76896   5.407   6.876   8.106  0.3655 -0.3134 -0.6547
23517SOL    HW176897   5.452   6.897   8.188  2.2603 -2.2292 -1.0855
23517SOL    HW276898   5.324   6.838   8.133  1.1135 -1.2441  0.4658
23518SOL     OW76899   7.629   1.175   6.601 -0.3891 -0.2345  0.2219
23518SOL    HW176900   7.650   1.091   6.560 -2.5493 -1.1680  0.8687
23518SOL    HW276901   7.603   1.231   6.529  2.1971  0.3321 -0.3571
23519SOL     OW76902   9.000   0.422   7.235  0.8217 -0.0960 -0.0156
23519SOL    HW176903   8.974   0.514   7.227  1.1477 -0.0811 -1.0919
23519SOL    HW276904   8.976   0.398   7.324  0.0189  0.8092  0.0296
23520SOL     OW76905   8.431   3.277   0.581 -0.5549  0.2746  0.1617
23520SOL    HW176906   8.384   3.227   0.648  1.8837 -0.0490  1.7556
23520SOL    HW276907   8.439   3.365   0.618  0.2110  0.2742  0.0105
23521SOL     OW76908   4.573   2.455   2.298  0.2397 -0.0480  0.0763
23521SOL    HW176909   4.521   2.376   2.313  0.0956  0.1220  0.4920
23521SOL    HW276910   4.653   2.423   2.256 -0.5144 -0.2199 -1.2703
23522SOL     OW76911   3.753   1.949   1.125  0.0322  0.2597  0.2824
23522SOL    HW176912   3.702   1.929   1.204  0.4436  0.0648  0.5030
23522SOL    HW276913   3.787   1.864   1.097 -0.7648  0.2026 -0.5753
23523SOL     OW76914   5.313   3.092   0.889  0.0068 -0.3337  0.1755
23523SOL    HW176915   5.310   3.181   0.855  0.7054 -0.0279  0.9028
23523SOL    HW276916   5.366   3.044   0.825  0.6027  0.0392  0.3900
23524SOL     OW76917   5.050   2.395   0.003  0.0325 -0.0474 -0.1469
23524SOL    HW176918   4.969   2.441  -0.019  0.1271 -0.2600 -0.9680
23524SOL    HW276919   5.079   2.435   0.085  0.3704  1.6805 -1.0685
23525SOL     OW76920   1.481   2.021   9.077 -0.1575 -0.0477  0.4580
23525SOL    HW176921   1.571   2.015   9.111 -0.2417 -1.3300  0.5231
23525SOL    HW276922   1.465   1.935   9.039 -1.3316  0.2062  0.3526
23526SOL     OW76923   1.222   4.926   0.850  0.0161 -0.5546 -0.1307
23526SOL    HW176924   1.167   4.948   0.775 -0.5495  2.2265  0.9767
23526SOL    HW276925   1.172   4.858   0.897 -1.1011 -0.1226 -0.6501
23527SOL     OW76926   4.403   3.183   5.072  0.2728  0.3381  0.0545
23527SOL    HW176927   4.345   3.128   5.018 -0.0439  0.4799  0.2429
23527SOL    HW276928   4.454   3.233   5.009  2.0834 -1.6706 -0.1836
23528SOL     OW76929   2.835   3.849   1.877  0.5813  0.2594 -0.5522
23528SOL    HW176930   2.781   3.783   1.921  1.3505 -1.1714 -1.6765
23528SOL    HW276931   2.922   3.809   1.871  0.3266 -0.0173 -4.0969
23529SOL     OW76932   3.414   0.716   1.818 -0.0360  0.0841 -0.1403
23529SOL    HW176933   3.461   0.666   1.884 -0.4481 -0.8564 -0.5430
23529SOL    HW276934   3.429   0.807   1.842  1.1085 -0.2168  0.3418
23530SOL     OW76935   2.400   8.728   6.278 -0.1717 -0.7897 -0.4665
23530SOL    HW176936   2.406   8.738   6.183  0.5587  1.6662 -0.2169
23530SOL    HW276937   2.478   8.772   6.312 -1.5281  0.3344  1.3444
23531SOL     OW76938   2.562   1.277   0.005 -0.1282  0.0671 -0.5328
23531SOL    HW176939   2.646   1.319  -0.013  0.7171 -0.6702  1.3212
23531SOL    HW276940   2.560   1.201  -0.054  1.0381 -0.5158  0.1451
23532SOL     OW76941   7.078   3.460   8.532  0.2788  0.3986 -0.0963
23532SOL    HW176942   7.013   3.470   8.463 -1.0096  0.3345  1.0716
23532SOL    HW276943   7.039   3.397   8.593  1.6784 -0.0765  0.3488
23533SOL     OW76944   6.840   0.195   4.285 -0.0071  0.3164 -0.0113
23533SOL    HW176945   6.834   0.287   4.312  2.1021  0.8018 -1.0156
23533SOL    HW276946   6.924   0.165   4.321  0.2024 -0.6567 -1.2631
23534SOL     OW76947   4.804   3.881   4.503  0.5893 -0.4161 -0.7802
23534SOL    HW176948   4.805   3.871   4.599 -0.3643 -0.7097 -0.7851
23534SOL    HW276949   4.716   3.852   4.478  0.2854  1.1428 -1.5916
23535SOL     OW76950   3.919   8.184   2.116  0.0031  0.2378  0.0880
23535SOL    HW176951   3.883   8.244   2.051 -0.7501 -0.4915 -0.1846
23535SOL    HW276952   3.895   8.223   2.200 -0.6543  0.2197 -0.0861
23536SOL     OW76953   6.923   1.389   1.851 -0.5183  0.2065  0.2873
23536SOL    HW176954   6.876   1.415   1.930  1.0271 -1.2169  1.7507
23536SOL    HW276955   6.854   1.369   1.788 -1.7949  1.1606  1.3320
23537SOL     OW76956   7.402   5.523   8.317 -0.2991  0.0080 -0.3489
23537SOL    HW176957   7.402   5.433   8.283  0.2572 -0.2057  0.1863
23537SOL    HW276958   7.421   5.578   8.241 -2.0174 -0.1845 -0.9797
23538SOL     OW76959   3.547   8.233   6.051 -0.2631  0.9990  0.0218
23538SOL    HW176960   3.483   8.283   5.999  0.3799  1.0470 -0.7452
23538SOL    HW276961   3.505   8.223   6.136 -2.2910 -0.9303 -1.0847
23539SOL     OW76962   2.592   7.232   7.415 -0.2087  0.0464 -0.3301
23539SOL    HW176963   2.548   7.312   7.447 -0.6276 -0.8429  1.4592
23539SOL    HW276964   2.520   7.172   7.395  0.1347 -0.4380 -0.1257
23540SOL     OW76965   4.030   4.717   7.669 -0.2330 -0.4983  0.2979
23540SOL    HW176966   3.960   4.699   7.731 -0.5314 -0.6033 -0.0680
23540SOL    HW276967   3.987   4.764   7.597  0.1029 -0.4116  0.1518
23541SOL     OW76968   7.974   4.622   2.859 -0.3013 -0.4066  0.1121
23541SOL    HW176969   8.049   4.573   2.892  0.7417  1.2097  0.2591
23541SOL    HW276970   7.957   4.689   2.925 -1.0851  0.0215 -0.4968
23542SOL     OW76971   3.555   6.063   3.751  0.9839 -0.2317  0.1546
23542SOL    HW176972   3.486   6.044   3.814  1.6989  0.6841  1.2664
23542SOL    HW276973   3.631   6.014   3.783  1.0803 -0.5860 -0.5964
23543SOL     OW76974   5.031   2.129   0.067 -0.6127 -0.1889 -0.3559
23543SOL    HW176975   5.051   2.221   0.054 -1.3580  0.0156 -0.1170
23543SOL    HW276976   5.009   2.096  -0.020 -0.5016 -0.1016 -0.4166
23544SOL     OW76977   4.772   4.024   1.863 -0.0637 -0.0948  0.4359
23544SOL    HW176978   4.726   4.000   1.782 -1.6489 -2.7372  1.9926
23544SOL    HW276979   4.863   4.034   1.836 -0.7056  0.2555 -1.8578
23545SOL     OW76980   3.413   1.679   7.231 -0.3052  0.0582  0.1648
23545SOL    HW176981   3.344   1.651   7.292  1.4741  0.0780  2.3350
23545SOL    HW276982   3.453   1.755   7.274 -0.6359  1.7784 -2.3484
23546SOL     OW76983   1.576   2.231   2.871 -0.1864  0.4372  0.4716
23546SOL    HW176984   1.496   2.281   2.857 -0.8662 -0.7801 -0.2339
23546SOL    HW276985   1.591   2.187   2.787  0.9598  0.2807  0.7474
23547SOL     OW76986   8.712   5.595   8.247 -0.2888  0.1660  0.1673
23547SOL    HW176987   8.798   5.630   8.271  1.0835 -3.2681  0.9166
23547SOL    HW276988   8.715   5.586   8.152 -1.1043  2.8551 -0.1842
23548SOL     OW76989   0.882   2.735   8.976 -0.8367  0.2607  0.0329
23548SOL    HW176990   0.861   2.817   8.933  0.5037  0.1012 -1.0088
23548SOL    HW276991   0.821   2.671   8.938 -1.0304  0.5165 -0.0863
23549SOL     OW76992   1.555   1.889   5.558 -0.4721  0.0071  0.0337
23549SOL    HW176993   1.621   1.896   5.489  1.7264 -0.1222  1.9931
23549SOL    HW276994   1.519   1.801   5.547 -0.1358 -0.0196 -0.9412
23550SOL     OW76995   6.585   1.107   9.173  0.6239  0.5532 -0.0324
23550SOL    HW176996   6.546   1.036   9.225  0.6500  1.4427  1.2552
23550SOL    HW276997   6.615   1.064   9.093 -1.3981 -0.4800 -0.2967
23551SOL     OW76998   3.727   5.573   7.132  0.4074 -0.4504  0.2165
23551SOL    HW176999   3.776   5.616   7.202  0.3229  0.5466 -0.3240
23551SOL    HW277000   3.652   5.532   7.177 -0.4181  1.3454  0.5542
23552SOL     OW77001   5.170   3.169   0.478  0.7220 -0.2714  0.6108
23552SOL    HW177002   5.200   3.156   0.388  0.4346  0.8444  0.3444
23552SOL    HW277003   5.122   3.088   0.498 -0.0501 -0.1375 -0.5906
23553SOL     OW77004   7.603   5.235   8.556 -0.0402  0.0761 -0.0821
23553SOL    HW177005   7.677   5.195   8.602  0.0962  0.3759 -0.0416
23553SOL    HW277006   7.643   5.286   8.485 -0.1217  1.2607  0.6983
23554SOL     OW77007   5.455   3.428   1.711 -0.1600  0.0153 -0.7029
23554SOL    HW177008   5.400   3.387   1.643 -0.2466 -0.1504 -0.5342
23554SOL    HW277009   5.410   3.510   1.731 -2.2689 -1.5835  1.8387
23555SOL     OW77010   1.699   5.803   0.646  0.2587 -0.4691  0.0487
23555SOL    HW177011   1.738   5.881   0.687  1.2054 -0.8397 -0.1292
23555SOL    HW277012   1.614   5.833   0.615  0.5341  0.4499  0.1457
23556SOL     OW77013   3.214   8.087   1.955  0.3501  0.1699  0.4045
23556SOL    HW177014   3.269   8.011   1.976  0.6706 -0.0651 -1.1688
23556SOL    HW277015   3.272   8.147   1.909 -0.4276  0.3943 -0.3155
23557SOL     OW77016   2.550   7.641   0.631  0.0527  0.4054 -0.1816
23557SOL    HW177017   2.617   7.662   0.565 -0.4206  1.0678 -0.4624
23557SOL    HW277018   2.467   7.665   0.589 -0.4629 -1.3260 -0.2076
23558SOL     OW77019   8.784   0.583   3.491  0.1479  0.0359  0.3724
23558SOL    HW177020   8.863   0.638   3.491  0.4523 -0.3871 -0.1841
23558SOL    HW277021   8.798   0.522   3.564  0.9110 -0.8197 -0.4552
23559SOL     OW77022   4.624   4.422   4.173 -0.1964 -0.0806  0.3403
23559SOL    HW177023   4.662   4.483   4.237  0.4700  0.1219 -0.2428
23559SOL    HW277024   4.612   4.341   4.223  0.6831 -0.0453  0.6410
23560SOL     OW77025   0.538   4.124   4.541 -0.0985  0.3164  0.4316
23560SOL    HW177026   0.459   4.094   4.587 -1.1109  0.1976 -1.2921
23560SOL    HW277027   0.565   4.049   4.488  0.2743  0.8367 -0.1310
23561SOL     OW77028   4.434   8.010   6.751 -0.3667 -0.1401 -0.0488
23561SOL    HW177029   4.474   7.981   6.832 -1.5389  0.1455  0.6535
23561SOL    HW277030   4.454   8.104   6.747 -1.3019  0.0896  0.5149
23562SOL     OW77031   6.953   7.498   4.756  0.0474  0.5794  0.6689
23562SOL    HW177032   7.021   7.470   4.817  0.9041 -0.2519 -0.6181
23562SOL    HW277033   6.884   7.432   4.764  0.5564 -0.0292  0.1010
23563SOL     OW77034   2.813   7.660   5.052  0.3948  0.1864 -0.3072
23563SOL    HW177035   2.870   7.737   5.053  1.9905 -0.9003  2.0079
23563SOL    HW277036   2.783   7.653   5.143  1.2207 -2.5366 -0.1743
23564SOL     OW77037   3.811   5.186   6.852  0.8746 -0.2507 -0.0547
23564SOL    HW177038   3.783   5.172   6.761  3.0398  1.2572 -1.0379
23564SOL    HW277039   3.782   5.275   6.872  1.9985  0.1007  0.0613
23565SOL     OW77040   6.149   1.926   3.668 -0.4113  0.6249  0.2468
23565SOL    HW177041   6.063   1.885   3.657 -0.0316 -0.2102  0.3613
23565SOL    HW277042   6.193   1.913   3.584  0.8233 -1.8579  1.1787
23566SOL     OW77043   7.445   9.172   0.883  0.3845  0.3185  0.0605
23566SOL    HW177044   7.497   9.197   0.959  0.9766  0.0195 -0.2416
23566SOL    HW277045   7.492   9.208   0.808  0.3506 -0.2616 -0.2469
23567SOL     OW77046   3.633   2.449   6.297 -0.1675 -0.5241 -0.3890
23567SOL    HW177047   3.652   2.529   6.346  1.4055 -1.8938  1.4291
23567SOL    HW277048   3.558   2.410   6.343  0.7211 -1.3442  0.4197
23568SOL     OW77049   4.399   8.441   5.790  0.4605 -0.4379  0.4264
23568SOL    HW177050   4.432   8.388   5.718  0.1084  0.2552 -0.2647
23568SOL    HW277051   4.323   8.486   5.754 -0.3879 -0.9184  1.5710
23569SOL     OW77052   5.996   6.584   5.611  0.4423 -0.5987  0.4749
23569SOL    HW177053   5.945   6.612   5.687 -0.1428  1.3175 -0.5640
23569SOL    HW277054   5.930   6.553   5.548  0.8793 -1.6079  0.4893
23570SOL     OW77055   1.427   4.546   4.066 -0.1123 -0.2982  0.1789
23570SOL    HW177056   1.511   4.583   4.092 -0.3808 -0.2998  1.0739
23570SOL    HW277057   1.369   4.565   4.140 -0.2834 -2.4754  0.6572
23571SOL     OW77058   5.457   0.526   6.548  0.0306  0.3433  0.6095
23571SOL    HW177059   5.433   0.577   6.470  0.6537 -1.3191 -0.7381
23571SOL    HW277060   5.389   0.460   6.555 -0.4704  0.9666  2.0210
23572SOL     OW77061   8.437   3.617   4.213  0.4145 -0.2093 -0.1190
23572SOL    HW177062   8.508   3.577   4.262  0.3846  0.4376  0.4790
23572SOL    HW277063   8.467   3.707   4.196  0.3567 -0.3709 -1.1577
23573SOL     OW77064   2.452   1.371   5.449  0.3745 -0.0120 -0.0847
23573SOL    HW177065   2.511   1.392   5.377  1.2261  0.6519  0.7840
23573SOL    HW277066   2.373   1.422   5.430 -0.2263 -1.3996 -1.5959
23574SOL     OW77067   0.310   7.981   1.357  0.5273  0.1872 -0.1959
23574SOL    HW177068   0.336   7.889   1.357  1.2560  0.3856 -0.8529
23574SOL    HW277069   0.391   8.029   1.344  0.2395  0.9643  0.7699
23575SOL     OW77070   6.931   5.329   9.047 -0.2437  0.1450  0.4234
23575SOL    HW177071   6.978   5.380   9.113  1.0604 -0.8113  0.2711
23575SOL    HW277072   6.970   5.357   8.964 -0.6438  0.0449  0.1974
23576SOL     OW77073   6.535   8.546   2.403 -0.4098 -0.3807 -0.2926
23576SOL    HW177074   6.575   8.513   2.483  1.2414  0.4123 -0.7297
23576SOL    HW277075   6.605   8.598   2.361 -0.6877 -1.9500 -2.9750
23577SOL     OW77076   4.441   0.685   1.612 -0.0150  0.2609 -0.2518
23577SOL    HW177077   4.521   0.653   1.653  0.0102  0.8833  0.2081
23577SOL    HW277078   4.471   0.745   1.543 -0.0554  2.2282  1.3359
23578SOL     OW77079   2.365   1.289   0.381 -0.3446 -0.0761 -0.1495
23578SOL    HW177080   2.387   1.372   0.340  0.9013 -0.1794  0.2690
23578SOL    HW277081   2.396   1.297   0.471 -0.4111 -0.9017 -0.0398
23579SOL     OW77082   0.782   7.689   0.286 -0.0492  0.2854 -0.1370
23579SOL    HW177083   0.728   7.712   0.210 -2.0115 -3.0419  0.0587
23579SOL    HW277084   0.853   7.636   0.249 -1.0152 -1.3527  0.2439
23580SOL     OW77085   6.526   5.977   4.005  0.0230 -0.2172  0.6786
23580SOL    HW177086   6.591   5.990   3.937  0.1137  2.0394  1.1224
23580SOL    HW277087   6.571   6.000   4.086 -0.9854  0.2357  1.1267
23581SOL     OW77088   9.242   6.079   8.620 -0.0955 -0.3800  0.4634
23581SOL    HW177089   9.214   5.990   8.640 -0.0324 -0.2281  1.2918
23581SOL    HW277090   9.160   6.127   8.604 -0.1495 -0.5117  0.3422
23582SOL     OW77091   1.160   8.625   2.142 -0.0620 -0.1043  0.0576
23582SOL    HW177092   1.249   8.602   2.114 -0.2903 -1.6121  0.5059
23582SOL    HW277093   1.122   8.668   2.065  0.8760  0.0769 -0.3229
23583SOL     OW77094   0.033   8.415   8.912  0.0875 -0.5564 -0.5672
23583SOL    HW177095  -0.057   8.413   8.944  0.4451 -0.0631  0.5009
23583SOL    HW277096   0.059   8.323   8.905  0.3302 -0.6931  1.5596
23584SOL     OW77097   1.547   3.012   5.677  0.1482  0.3932  0.1228
23584SOL    HW177098   1.478   3.014   5.610 -0.4284 -2.8509  0.4387
23584SOL    HW277099   1.503   3.037   5.758  0.2931  2.0105 -0.2649
23585SOL     OW77100   5.386   4.387   7.714  0.0469 -0.0968 -0.2507
23585SOL    HW177101   5.354   4.477   7.720 -0.7428 -0.4180  0.4923
23585SOL    HW277102   5.308   4.332   7.725  0.7030 -0.8836  0.6758
23586SOL     OW77103   6.842   0.821   8.723 -0.6215  0.0538 -0.6316
23586SOL    HW177104   6.879   0.842   8.637 -0.7055  0.9010 -0.4767
23586SOL    HW277105   6.805   0.733   8.713  0.3293 -0.3026 -1.1417
23587SOL     OW77106   0.105   2.569   1.992  0.3272  0.0043  0.5924
23587SOL    HW177107   0.115   2.497   2.055  2.4759 -0.8975 -0.6638
23587SOL    HW277108   0.093   2.525   1.908  0.7180  1.1259 -0.0605
23588SOL     OW77109   4.386   6.232   2.976 -0.2455 -0.0596  0.0428
23588SOL    HW177110   4.377   6.296   2.906  0.2746 -0.3813 -0.3257
23588SOL    HW277111   4.466   6.184   2.955  0.1575  0.1324  1.1016
23589SOL     OW77112   4.966   8.398   1.993  0.0519 -0.1619  0.1855
23589SOL    HW177113   4.902   8.331   1.968 -0.7448 -0.2107  2.2245
23589SOL    HW277114   5.028   8.352   2.049 -0.3915  0.7182  1.4512
23590SOL     OW77115   3.115   5.906   2.008  0.5322 -0.2794 -0.9927
23590SOL    HW177116   3.050   5.880   1.942 -0.0932 -1.9950  0.2314
23590SOL    HW277117   3.126   5.828   2.062  0.2151  1.3518  1.5878
23591SOL     OW77118   2.981   4.597   1.488 -0.0195  0.6310 -0.0052
23591SOL    HW177119   2.982   4.630   1.399  0.2971  0.6090 -0.0102
23591SOL    HW277120   2.890   4.573   1.504 -0.2847  1.6159  0.0373
23592SOL     OW77121   3.437   8.519   9.243 -0.2448 -0.3867 -0.2912
23592SOL    HW177122   3.407   8.606   9.265 -2.2531 -1.3207  0.8893
23592SOL    HW277123   3.363   8.479   9.197  0.7350 -1.3913 -1.0488
23593SOL     OW77124   8.539   3.219   5.623 -0.3654 -0.2544  0.1926
23593SOL    HW177125   8.557   3.259   5.538  0.3816  1.9758  1.3273
23593SOL    HW277126   8.569   3.128   5.613  3.6872  0.9701 -0.7324
23594SOL     OW77127   6.603   4.362   1.137  0.0396 -0.2474 -0.2489
23594SOL    HW177128   6.640   4.278   1.164  1.4639  0.6732  0.8545
23594SOL    HW277129   6.665   4.396   1.073  0.1530  0.4836  0.2280
23595SOL     OW77130   3.484   8.056   4.646  0.3458  0.3818  0.1197
23595SOL    HW177131   3.423   8.003   4.595 -0.9578  1.2061  0.7826
23595SOL    HW277132   3.569   8.015   4.631 -0.4184 -1.0597 -0.4658
23596SOL     OW77133   5.171   1.767   3.760  0.1140 -0.4708  0.0765
23596SOL    HW177134   5.192   1.771   3.853  0.2374  0.1122  0.0263
23596SOL    HW277135   5.244   1.811   3.716 -0.6011  0.4974 -0.1871
23597SOL     OW77136   2.492   7.670   8.344  0.8264 -0.3210 -0.0902
23597SOL    HW177137   2.586   7.654   8.353  1.0475  1.1749  0.4945
23597SOL    HW277138   2.467   7.621   8.266  1.6555 -2.4129  0.8618
23598SOL     OW77139   2.057   6.743   6.087 -0.1968 -0.0059  0.3061
23598SOL    HW177140   2.089   6.828   6.056 -0.0587 -0.3306 -0.4791
23598SOL    HW277141   2.117   6.680   6.048 -1.9784 -0.6783 -1.5645
23599SOL     OW77142   6.505   0.123   1.692  0.4149 -0.2325  1.5251
23599SOL    HW177143   6.593   0.128   1.655 -0.4182  1.3763 -0.4724
23599SOL    HW277144   6.447   0.125   1.616 -1.3779 -1.1768  2.7828
23600SOL     OW77145   1.702   7.629   7.779  0.6188 -0.0666  0.3012
23600SOL    HW177146   1.640   7.638   7.851  1.9242 -2.5794  1.8938
23600SOL    HW277147   1.679   7.545   7.739 -0.5187  1.5486 -2.8141
23601SOL     OW77148   8.043   4.460   3.411  0.1687  0.1309  0.4362
23601SOL    HW177149   8.036   4.411   3.493 -0.0752 -1.4729 -0.4886
23601SOL    HW277150   8.134   4.449   3.384  0.2955  0.8142  0.5756
23602SOL     OW77151   2.960   0.196   3.050 -0.8245  0.0019 -0.0873
23602SOL    HW177152   3.054   0.198   3.035 -1.0447 -1.7186 -2.1625
23602SOL    HW277153   2.935   0.287   3.062  1.2562  0.4036  2.0012
23603SOL     OW77154   1.933   5.081   1.241  0.2253  0.2458  0.2160
23603SOL    HW177155   1.957   5.050   1.154  1.3471  1.9714 -0.1361
23603SOL    HW277156   1.854   5.032   1.263 -0.7014  0.5300 -2.2324
23604SOL     OW77157   4.502   7.399   3.098  0.2540 -0.2703 -0.4677
23604SOL    HW177158   4.441   7.385   3.026  1.6282  0.6543 -1.8789
23604SOL    HW277159   4.521   7.493   3.095 -0.8058  0.0836  2.0824
23605SOL     OW77160   4.741   6.962   4.120  0.5193  0.8188 -0.4068
23605SOL    HW177161   4.830   6.929   4.102  0.5035  0.1450  0.6333
23605SOL    HW277162   4.703   6.896   4.178 -0.0184  1.9970  0.6305
23606SOL     OW77163   0.618   6.888   6.471  0.0515 -0.2653 -0.1452
23606SOL    HW177164   0.623   6.979   6.441  1.3940 -0.6619 -1.2112
23606SOL    HW277165   0.638   6.836   6.393 -3.1930 -1.6220 -0.2278
23607SOL     OW77166   4.614   2.381   9.163  0.1108  0.4075  0.3131
23607SOL    HW177167   4.704   2.411   9.158 -0.1545  0.9858 -1.6884
23607SOL    HW277168   4.610   2.305   9.105 -0.8964  1.0420 -0.5012
23608SOL     OW77169   1.844   1.955   0.567 -0.1443  0.2445 -0.3278
23608SOL    HW177170   1.884   1.904   0.498  0.9108 -0.3066  0.6560
23608SOL    HW277171   1.877   2.044   0.553  0.0950  0.1281 -0.5100
23609SOL     OW77172   6.647   4.430   9.238 -0.0704 -0.0191  0.0882
23609SOL    HW177173   6.610   4.392   9.159  3.0373 -0.6113 -1.2321
23609SOL    HW277174   6.661   4.522   9.216 -0.5062  0.1552  0.5081
23610SOL     OW77175   1.565   3.146   7.862 -0.6531  0.1915  0.3974
23610SOL    HW177176   1.554   3.239   7.841  0.1264  0.2757  0.3328
23610SOL    HW277177   1.567   3.102   7.777  0.1929  0.2643  0.3709
23611SOL     OW77178   2.853   5.212   2.784  0.1377  0.5585  0.6696
23611SOL    HW177179   2.784   5.227   2.848  0.3808  0.8741  0.8588
23611SOL    HW277180   2.808   5.175   2.708 -0.2124  0.6020  0.8559
23612SOL     OW77181   7.316   8.121   3.902 -0.3060 -0.1266  0.0896
23612SOL    HW177182   7.263   8.060   3.851 -2.4332  0.6033  1.3094
23612SOL    HW277183   7.282   8.207   3.880 -0.7019  0.2616  2.0457
23613SOL     OW77184   8.748   3.936   5.891 -0.3725 -0.4022 -0.0979
23613SOL    HW177185   8.796   3.854   5.875  0.7664  0.2600 -0.1400
23613SOL    HW277186   8.814   4.004   5.886 -1.4027  0.5876 -0.5699
23614SOL     OW77187   7.333   0.734   3.464  1.3081 -0.0389 -0.0176
23614SOL    HW177188   7.428   0.732   3.460  1.3923  1.1286  0.6597
23614SOL    HW277189   7.307   0.796   3.396  1.0778  0.1055  0.1976
23615SOL     OW77190   6.042   4.762   1.685 -0.1152 -1.0014  0.3252
23615SOL    HW177191   6.064   4.758   1.592  0.1720 -0.0461  0.3381
23615SOL    HW277192   5.953   4.727   1.691 -0.0417 -1.2896 -0.2728
23616SOL     OW77193   0.339   5.187   1.501 -0.3644 -0.0319 -0.3034
23616SOL    HW177194   0.304   5.193   1.412  0.1570  0.6238 -0.4681
23616SOL    HW277195   0.270   5.225   1.556 -1.4436 -1.9698 -0.1960
23617SOL     OW77196   7.980   2.083   8.176 -0.0429  0.0415  1.0159
23617SOL    HW177197   7.922   2.152   8.208  0.5703  0.5435  1.0639
23617SOL    HW277198   8.063   2.099   8.221  0.4213 -0.0825  0.2232
23618SOL     OW77199   8.659   4.533   3.732 -1.0712  0.5477 -0.0503
23618SOL    HW177200   8.719   4.603   3.758 -0.1032  0.1181 -1.0089
23618SOL    HW277201   8.694   4.454   3.774 -0.6071  0.1934 -1.0651
23619SOL     OW77202   1.021   9.157   4.000  0.5016  0.0915 -0.2327
23619SOL    HW177203   1.020   9.250   4.023  2.1862  0.2721 -0.7415
23619SOL    HW277204   0.932   9.139   3.971  0.1240  1.5342 -0.0666
23620SOL     OW77205   4.048   3.045   5.165  0.1629 -0.2684  0.2837
23620SOL    HW177206   4.119   2.984   5.183  0.5607  0.0331 -0.2499
23620SOL    HW277207   3.972   2.988   5.147  0.7391 -0.6406 -1.1066
23621SOL     OW77208   2.373   2.195   5.477  0.2006  0.1069  0.2748
23621SOL    HW177209   2.387   2.290   5.470  1.4636 -0.1106 -0.2019
23621SOL    HW277210   2.451   2.156   5.439 -0.9106 -1.1544 -0.7864
23622SOL     OW77211   7.973   1.970   4.444  0.5834 -0.4684 -0.2907
23622SOL    HW177212   8.042   1.911   4.415  0.9115 -0.4468  0.4167
23622SOL    HW277213   7.913   1.977   4.369  0.6458 -1.5371 -0.4528
23623SOL     OW77214   5.621   2.903   0.391  0.0425  0.3026 -0.5618
23623SOL    HW177215   5.683   2.975   0.377  0.1946  0.7745  1.9802
23623SOL    HW277216   5.647   2.866   0.476 -0.5838 -2.2172 -1.3900
23624SOL     OW77217   3.881   7.075   3.844  0.4600  0.1140  0.1347
23624SOL    HW177218   3.955   7.061   3.786  0.1108  1.0840 -0.5698
23624SOL    HW277219   3.898   7.019   3.919  0.3729 -2.0257 -1.3714
23625SOL     OW77220   3.497   6.977   4.306  0.4644  0.0268 -0.1376
23625SOL    HW177221   3.584   6.995   4.342  0.4571  0.4630 -0.3309
23625SOL    HW277222   3.491   7.034   4.229  0.5519 -1.0245 -0.9436
23626SOL     OW77223   6.245   3.390   7.221  0.0138 -0.4236 -0.1586
23626SOL    HW177224   6.175   3.326   7.236  1.0431 -1.5236  0.0443
23626SOL    HW277225   6.308   3.344   7.165  0.4064  0.6786 -0.6444
23627SOL     OW77226   4.232   5.656   2.076  0.7889 -0.4548  0.0999
23627SOL    HW177227   4.284   5.737   2.083  0.7644 -0.5430  1.6524
23627SOL    HW277228   4.272   5.609   2.003  2.1533  0.0242  0.4912
23628SOL     OW77229   8.732   7.138   6.098 -0.8615  0.0394 -0.0229
23628SOL    HW177230   8.652   7.188   6.112 -0.8763  0.2894 -0.9248
23628SOL    HW277231   8.704   7.058   6.054 -0.7134 -0.2975  0.4806
23629SOL     OW77232   8.583   5.229   1.534 -0.2883 -0.6912 -0.1297
23629SOL    HW177233   8.669   5.270   1.528  0.1760 -1.2195  2.0765
23629SOL    HW277234   8.566   5.197   1.446  1.6789 -0.3876 -0.6776
23630SOL     OW77235   8.734   4.551   7.811  0.1975 -0.2266 -0.2196
23630SOL    HW177236   8.810   4.502   7.841 -0.7970 -2.2934 -0.9055
23630SOL    HW277237   8.762   4.591   7.728  1.0428  0.4840  0.3877
23631SOL     OW77238   2.329   6.165   0.677 -0.3269 -0.0832 -0.4636
23631SOL    HW177239   2.288   6.080   0.661 -2.1211  0.3393  1.4369
23631SOL    HW277240   2.367   6.156   0.765 -0.5423  1.0570 -0.2449
23632SOL     OW77241   5.533   9.186   2.069  0.1654  0.0842  0.5309
23632SOL    HW177242   5.554   9.186   1.975  0.1075 -0.2288  0.5159
23632SOL    HW277243   5.616   9.164   2.111 -0.0676 -0.9328  0.4844
23633SOL     OW77244   0.981   2.719   8.496  0.0476  0.2958  0.5334
23633SOL    HW177245   1.011   2.786   8.557  0.1229  1.9514 -1.2342
23633SOL    HW277246   1.049   2.652   8.498  1.3228  1.5447  0.4161
23634SOL     OW77247   7.390   8.313   0.626 -0.1135 -0.1309 -0.3698
23634SOL    HW177248   7.434   8.393   0.597  0.6054 -0.5263 -0.3879
23634SOL    HW277249   7.391   8.256   0.549  1.8560 -1.2123  0.3875
23635SOL     OW77250   5.907   2.626   6.610  0.0693 -0.4743 -0.4142
23635SOL    HW177251   5.914   2.553   6.548 -1.5662 -0.5019 -0.6265
23635SOL    HW277252   5.813   2.647   6.611 -0.0320 -0.6801  2.2620
23636SOL     OW77253   5.954   0.725   4.810  0.1780 -0.3241 -0.8557
23636SOL    HW177254   5.863   0.727   4.842  0.5839 -2.3792  0.6060
23636SOL    HW277255   5.966   0.811   4.769 -1.9291  0.6039  0.2747
23637SOL     OW77256   1.260   6.678   6.962  0.2256  0.1928  0.3828
23637SOL    HW177257   1.223   6.591   6.950 -0.2263  0.2143  1.4600
23637SOL    HW277258   1.350   6.671   6.929 -0.0846 -0.4313 -0.3517
23638SOL     OW77259   4.062   8.770   1.381 -0.0452  0.5329  0.0096
23638SOL    HW177260   4.058   8.865   1.394 -1.2967  0.3988  0.8332
23638SOL    HW277261   4.025   8.756   1.294 -4.0282  0.5561  1.5027
23639SOL     OW77262   7.303   6.460   4.026  0.1063 -0.0875  0.1610
23639SOL    HW177263   7.243   6.534   4.020 -0.1205 -0.3992 -2.4405
23639SOL    HW277264   7.375   6.492   4.081 -1.4802  0.9261  1.7635
23640SOL     OW77265   1.114   6.807   7.954 -0.6879  0.1202 -0.5040
23640SOL    HW177266   1.135   6.876   8.017 -0.7831 -0.8723  0.6672
23640SOL    HW277267   1.041   6.843   7.903  1.0416  1.9443 -1.8139
23641SOL     OW77268   4.211   3.740   6.490  0.0478 -0.2320  0.0439
23641SOL    HW177269   4.121   3.751   6.461  0.2508 -0.4465 -0.7038
23641SOL    HW277270   4.227   3.814   6.549 -0.8833 -0.6824  0.8992
23642SOL     OW77271   5.837   3.154   7.403  0.1610  0.3206  0.1700
23642SOL    HW177272   5.753   3.193   7.378  0.5984  1.1969  0.0087
23642SOL    HW277273   5.815   3.067   7.434 -0.9446  0.9286  1.1829
23643SOL     OW77274   5.128   8.235   2.185  0.4761  0.3879  0.2734
23643SOL    HW177275   5.177   8.157   2.209  2.0317  1.5632  1.0878
23643SOL    HW277276   5.065   8.247   2.256 -0.2347 -0.4563 -0.1852
23644SOL     OW77277   3.217   5.187   1.995 -0.0549  0.2905 -0.0323
23644SOL    HW177278   3.202   5.230   2.080 -0.5136 -0.0861  0.0811
23644SOL    HW277279   3.300   5.141   2.006 -0.6647 -0.6992  0.6074
23645SOL     OW77280   0.430   8.480   0.679  0.0012  0.7792  0.0595
23645SOL    HW177281   0.469   8.561   0.714  0.1330  0.2821  1.1074
23645SOL    HW277282   0.340   8.504   0.657  0.1430  1.3013  0.0371
23646SOL     OW77283   4.259   6.041   0.120 -0.0734  0.5960 -0.0726
23646SOL    HW177284   4.298   6.017   0.036 -0.4806 -0.8252  0.1149
23646SOL    HW277285   4.309   6.117   0.149  0.5878  0.6253 -1.2227
23647SOL     OW77286   7.927   7.978   6.166  0.5613 -0.0436 -0.5344
23647SOL    HW177287   7.947   8.029   6.244  0.5152  0.4948 -0.8673
23647SOL    HW277288   7.974   8.022   6.095 -0.5640  0.3413 -1.0639
23648SOL     OW77289   9.224   2.399   0.022  0.1524  0.0413  0.0683
23648SOL    HW177290   9.133   2.414   0.047  0.0048  3.4295 -1.8209
23648SOL    HW277291   9.275   2.422   0.100 -0.4876 -2.9295  1.5062
23649SOL     OW77292   3.652   0.955   7.059  0.5929  0.1419  0.6911
23649SOL    HW177293   3.718   0.963   7.127 -0.1339  1.4602  1.2655
23649SOL    HW277294   3.670   0.870   7.018  2.6623  0.4908  0.7831
23650SOL     OW77295   6.812   1.628   4.695  0.3066 -0.1622 -0.7886
23650SOL    HW177296   6.779   1.596   4.611  0.4721 -0.0243 -0.9081
23650SOL    HW277297   6.908   1.622   4.686  0.3609  0.7598 -0.9735
23651SOL     OW77298   3.090   6.862   8.056  0.3333 -0.6542  0.6564
23651SOL    HW177299   3.120   6.950   8.032  2.7778 -1.4744  0.3826
23651SOL    HW277300   3.122   6.807   7.984 -2.0410 -1.6825  0.2975
23652SOL     OW77301   2.566   2.191   3.107  0.0345  0.1842  0.0031
23652SOL    HW177302   2.539   2.279   3.136  1.2907  0.5490  0.1272
23652SOL    HW277303   2.497   2.163   3.047  0.3361  1.8993 -1.2337
23653SOL     OW77304   3.452   7.952   8.749  0.6277  0.1845  0.2275
23653SOL    HW177305   3.384   8.018   8.740  0.4150  0.0881  1.1362
23653SOL    HW277306   3.526   7.988   8.698 -0.5647 -0.4145 -2.0605
23654SOL     OW77307   8.171   1.987   6.963 -0.0628 -0.2449 -0.0294
23654SOL    HW177308   8.150   2.076   6.991  0.1167 -0.4488  0.7664
23654SOL    HW277309   8.249   1.964   7.013  0.2511 -0.6333 -0.6805
23655SOL     OW77310   3.388   8.943   0.260  0.6443 -0.3226  0.2617
23655SOL    HW177311   3.454   8.893   0.307  0.2023  0.2120  1.4716
23655SOL    HW277312   3.438   9.004   0.206  1.1826 -1.7539 -0.9513
23656SOL     OW77313   0.060   4.524   8.483  0.7036  0.1922 -0.4206
23656SOL    HW177314   0.128   4.521   8.416  0.4643 -0.0424 -0.6571
23656SOL    HW277315   0.098   4.480   8.558  0.7832 -0.0161 -0.5828
23657SOL     OW77316   7.030   4.579   6.730 -0.3457 -0.3448 -0.6088
23657SOL    HW177317   6.936   4.584   6.715 -0.4997 -0.1318  0.3261
23657SOL    HW277318   7.051   4.657   6.782 -0.0920 -1.5282  1.1788
23658SOL     OW77319   2.133   8.001   2.228 -0.4254 -0.3568 -0.3350
23658SOL    HW177320   2.164   8.000   2.137  1.1768 -2.8060  0.1437
23658SOL    HW277321   2.205   8.040   2.277 -1.1910  0.7333 -0.0346
23659SOL     OW77322   6.047   4.590   4.723 -0.1870  0.4374 -0.2663
23659SOL    HW177323   6.005   4.508   4.748 -0.5232  0.6045 -0.2728
23659SOL    HW277324   5.979   4.637   4.674 -0.2872  1.0955  0.4820
23660SOL     OW77325   5.999   7.987   6.740  0.0765 -0.5920  0.3936
23660SOL    HW177326   5.989   8.061   6.800  0.2667 -0.8639  0.7665
23660SOL    HW277327   5.955   8.015   6.660 -1.8078 -0.9364  1.2687
23661SOL     OW77328   6.249   4.826   3.859 -0.5807  0.2043 -0.7008
23661SOL    HW177329   6.240   4.855   3.768 -2.4363  0.5502 -0.4263
23661SOL    HW277330   6.338   4.853   3.884 -0.6288  1.5500 -1.8862
23662SOL     OW77331   4.886   8.139   1.373  0.1793  0.0966 -0.3641
23662SOL    HW177332   4.828   8.214   1.379  0.9436  0.8350 -1.6200
23662SOL    HW277333   4.839   8.068   1.415 -0.4613  1.3267  1.0813
23663SOL     OW77334   0.454   3.891   8.949  0.1953 -0.4277  0.3451
23663SOL    HW177335   0.479   3.979   8.976 -0.9226 -0.3951  1.3130
23663SOL    HW277336   0.418   3.902   8.861 -0.6907  0.2118  0.7807
23664SOL     OW77337   7.422   2.770   5.393 -0.2416  0.0459 -0.1118
23664SOL    HW177338   7.407   2.842   5.453 -0.0360  0.0998 -0.1246
23664SOL    HW277339   7.472   2.706   5.444  1.3975  0.7919 -0.6853
23665SOL     OW77340   3.866   2.985   4.698 -0.0094 -0.7856  0.0234
23665SOL    HW177341   3.880   3.001   4.605  0.7619 -0.1085  0.2397
23665SOL    HW277342   3.943   2.936   4.726  0.6427  0.5392  0.6515
23666SOL     OW77343   6.821   5.101   8.383 -0.0985 -0.3863  0.3230
23666SOL    HW177344   6.747   5.153   8.415  0.8171  0.1080  1.7129
23666SOL    HW277345   6.813   5.105   8.288 -1.1246  0.7437  0.4246
23667SOL     OW77346   0.739   4.718   8.869  0.4358  0.1602  0.1074
23667SOL    HW177347   0.761   4.774   8.794 -0.4326  1.9643  1.1358
23667SOL    HW277348   0.726   4.631   8.831 -2.0257  1.4066 -2.1978
23668SOL     OW77349   7.505   3.351   1.253  0.7196  0.3530  0.0993
23668SOL    HW177350   7.554   3.425   1.219 -0.4597  1.0375 -0.1334
23668SOL    HW277351   7.475   3.303   1.176  2.2905 -0.9529  0.2419
23669SOL     OW77352   5.051   2.127   2.996  0.3968  0.4083  1.2820
23669SOL    HW177353   4.959   2.120   3.023 -0.1158 -0.9514 -0.6158
23669SOL    HW277354   5.072   2.220   3.005 -0.7117  0.5206  3.0779
23670SOL     OW77355   3.058   3.638   1.854  0.1303 -0.4510  0.0934
23670SOL    HW177356   3.099   3.565   1.806  1.4668 -1.1691  2.1536
23670SOL    HW277357   2.979   3.600   1.892  0.4348 -0.6207  0.5604
23671SOL     OW77358   2.627   7.380   6.921  0.2471  0.6335  0.0628
23671SOL    HW177359   2.560   7.394   6.988  0.8372  1.6975  0.4624
23671SOL    HW277360   2.709   7.376   6.969  0.3973 -1.8348 -0.3089
23672SOL     OW77361   8.634   6.581   1.028  0.5964  0.7169  0.4578
23672SOL    HW177362   8.586   6.659   1.000  0.1089  0.3415  0.2488
23672SOL    HW277363   8.690   6.612   1.099  0.4221  1.2614  0.3617
23673SOL     OW77364   8.123   3.435   3.861 -0.4239  0.2200  0.0929
23673SOL    HW177365   8.100   3.346   3.834  1.9432 -0.2135 -0.7784
23673SOL    HW277366   8.194   3.423   3.924  0.1193  1.4821 -0.2499
23674SOL     OW77367   6.395   4.251   4.973 -0.2053  0.0265 -0.6998
23674SOL    HW177368   6.491   4.250   4.972 -0.0798  1.9990  1.5675
23674SOL    HW277369   6.371   4.159   4.986  1.1768 -0.9412 -3.8402
23675SOL     OW77370   5.853   0.915   1.529  0.0646 -0.1967 -0.5690
23675SOL    HW177371   5.862   0.907   1.434  0.9440 -1.7569 -0.4057
23675SOL    HW277372   5.761   0.895   1.547 -0.0190 -0.2648 -1.0774
23676SOL     OW77373   4.709   3.452   7.497 -0.0869  0.2188 -0.2462
23676SOL    HW177374   4.765   3.405   7.559  0.8162 -0.1892 -1.3346
23676SOL    HW277375   4.675   3.384   7.439  1.0233  0.8200 -1.6818
23677SOL     OW77376   2.300   3.243   2.661  0.1545 -0.4010  0.2597
23677SOL    HW177377   2.313   3.156   2.699 -0.2802 -1.1033 -1.1036
23677SOL    HW277378   2.219   3.275   2.701 -1.2944 -1.8903 -1.2805
23678SOL     OW77379   2.666   8.614   9.056 -0.1453  0.4859  0.7594
23678SOL    HW177380   2.707   8.688   9.011  0.6017  0.0751  0.7462
23678SOL    HW277381   2.636   8.649   9.139  0.0467  0.8465  0.6766
23679SOL     OW77382   0.037   0.327   0.594 -0.3506  0.3769  0.2413
23679SOL    HW177383   0.122   0.358   0.624 -0.3584  2.2257 -1.4934
23679SOL    HW277384   0.056   0.241   0.555  0.9161  1.1459 -0.9387
23680SOL     OW77385   0.951   9.119   1.491  0.3620 -0.2976  0.2846
23680SOL    HW177386   1.033   9.144   1.448  1.8212 -1.6211  2.0881
23680SOL    HW277387   0.955   9.161   1.577  0.5395 -2.5711  1.4617
23681SOL     OW77388   4.282   5.692   1.624  0.6359  0.5450 -0.1268
23681SOL    HW177389   4.267   5.634   1.699  0.8787  0.5842 -0.0487
23681SOL    HW277390   4.242   5.645   1.550  1.1438  0.1099 -0.1302
23682SOL     OW77391   8.423   2.838   2.419 -0.5817 -0.2380  0.0346
23682SOL    HW177392   8.451   2.880   2.501  2.2319  1.1627 -1.5036
23682SOL    HW277393   8.347   2.890   2.391 -1.1616 -0.3209  1.3715
23683SOL     OW77394   1.564   0.956   8.299  0.0393 -0.0805 -0.3153
23683SOL    HW177395   1.502   0.886   8.319  1.5494 -1.6829 -0.9454
23683SOL    HW277396   1.517   1.036   8.319 -2.0086 -1.2395 -0.2180
23684SOL     OW77397   4.635   3.863   0.179 -0.5473  0.0326  0.3396
23684SOL    HW177398   4.683   3.932   0.225  1.4237 -1.0342 -0.0091
23684SOL    HW277399   4.703   3.801   0.151 -1.8959 -0.4766 -2.0947
23685SOL     OW77400   7.096   1.024   8.287 -0.1621 -0.3046 -0.1479
23685SOL    HW177401   7.152   0.947   8.285 -1.0799 -1.0850 -3.9687
23685SOL    HW277402   7.156   1.097   8.273  0.5564 -0.3163  2.3089
23686SOL     OW77403   4.763   4.397   5.884  0.1204 -0.0416  0.2074
23686SOL    HW177404   4.744   4.430   5.971  0.5404  2.6639 -0.6404
23686SOL    HW277405   4.840   4.341   5.895  1.9189  2.4489  1.2707
23687SOL     OW77406   1.224   7.174   2.050 -0.0502  0.1626 -0.0260
23687SOL    HW177407   1.178   7.219   2.121  0.1387  1.0959 -0.4801
23687SOL    HW277408   1.277   7.242   2.009 -1.4633  0.0760 -2.1701
23688SOL     OW77409   3.378   3.336   7.033  0.5566  0.2579  0.2756
23688SOL    HW177410   3.327   3.403   7.079  0.9048 -1.3968  3.3815
23688SOL    HW277411   3.317   3.300   6.968 -1.2885  0.3102  1.8875
23689SOL     OW77412   5.206   3.778   4.895 -0.3292  0.3578 -0.5679
23689SOL    HW177413   5.207   3.759   4.802  0.8495  1.4136 -0.7906
23689SOL    HW277414   5.276   3.725   4.932  0.8303  1.7410 -0.6952
23690SOL     OW77415   1.990   0.446   9.197  0.3705 -0.1036  0.3001
23690SOL    HW177416   1.897   0.424   9.187 -0.4302  2.8216  0.2203
23690SOL    HW277417   2.007   0.438   9.291 -0.3000  0.4166  0.4727
23691SOL     OW77418   1.717   4.536   4.251 -0.0200  0.1247 -0.0683
23691SOL    HW177419   1.760   4.488   4.180  0.1046 -0.0522  0.1266
23691SOL    HW277420   1.721   4.477   4.326 -0.3310  0.2285  0.0338
23692SOL     OW77421   2.922   4.558   3.552 -0.2501 -0.3490 -0.5697
23692SOL    HW177422   3.005   4.606   3.544 -0.1856 -0.5662 -1.2274
23692SOL    HW277423   2.906   4.522   3.465 -2.0791  1.3659 -0.9878
23693SOL     OW77424   0.439   5.794   6.608  0.0198  0.2660 -0.4587
23693SOL    HW177425   0.435   5.788   6.513 -0.9634 -0.8917 -0.3627
23693SOL    HW277426   0.419   5.706   6.639  0.0755  0.6800  0.8307
23694SOL     OW77427   0.160   7.925   8.502  0.4369  0.1344 -0.4118
23694SOL    HW177428   0.107   7.924   8.422  1.0410 -1.0050 -0.8137
23694SOL    HW277429   0.099   7.953   8.570 -0.5816 -0.7515 -0.9336
23695SOL     OW77430   3.130   5.958   5.390 -0.5048 -0.1696 -0.3486
23695SOL    HW177431   3.225   5.952   5.380 -0.3196 -0.8024  1.4066
23695SOL    HW277432   3.096   5.963   5.301  1.1333 -0.6396 -1.0275
23696SOL     OW77433   3.464   3.833   5.535 -0.1702  0.3661 -0.1965
23696SOL    HW177434   3.508   3.907   5.492 -1.6208  0.0477 -2.3671
23696SOL    HW277435   3.371   3.853   5.529 -0.4964  0.1826  2.7519
23697SOL     OW77436   9.084   1.253   0.398 -0.5319 -0.4453 -0.9084
23697SOL    HW177437   9.127   1.174   0.367  0.7169 -0.3732  0.4912
23697SOL    HW277438   8.991   1.240   0.378  0.0233 -0.8975 -3.4259
23698SOL     OW77439   6.593   0.937   2.359  0.4502 -0.2735  0.6573
23698SOL    HW177440   6.510   0.889   2.353 -0.5785  1.5158 -0.3975
23698SOL    HW277441   6.637   0.917   2.276  1.3861 -1.6530  1.4378
23699SOL     OW77442   1.145   3.561   8.184  0.0151 -0.1031 -0.0854
23699SOL    HW177443   1.165   3.654   8.177  0.0791 -0.2066 -1.6533
23699SOL    HW277444   1.229   3.520   8.206  0.3107  0.0564 -0.9045
23700SOL     OW77445   7.912   3.482   1.491  0.4866  0.6701  0.1044
23700SOL    HW177446   7.947   3.412   1.546  1.1118  1.4078  0.6794
23700SOL    HW277447   7.966   3.479   1.411 -0.5348 -0.5140 -0.5721
23701SOL     OW77448   6.138   8.863   7.207 -0.2722 -0.1187 -0.4760
23701SOL    HW177449   6.042   8.859   7.203 -0.1851 -2.8522 -1.3574
23701SOL    HW277450   6.167   8.827   7.123  1.5236 -0.8909  0.4312
23702SOL     OW77451   7.692   5.983   7.780  0.0745  0.2418  0.1410
23702SOL    HW177452   7.635   5.906   7.777 -1.9594  1.4431  3.0310
23702SOL    HW277453   7.631   6.057   7.789  2.0222  1.9322  0.0622
23703SOL     OW77454   1.715   1.849   8.111  0.2731  0.4728 -0.2249
23703SOL    HW177455   1.779   1.849   8.040 -0.2737 -2.0601 -0.8233
23703SOL    HW277456   1.721   1.936   8.149  2.8893  0.8530 -1.3074
23704SOL     OW77457   1.864   4.007   0.852  0.3108  0.1866  0.3011
23704SOL    HW177458   1.914   4.064   0.912 -1.6206 -0.3546  2.5796
23704SOL    HW277459   1.791   3.976   0.905 -0.4486 -1.9158 -1.8364
23705SOL     OW77460   1.072   5.750   0.928  0.0598 -0.0078  0.2217
23705SOL    HW177461   1.121   5.701   0.995 -0.3178  1.4842  1.6473
23705SOL    HW277462   1.128   5.747   0.851  1.5225  0.0090  1.2396
23706SOL     OW77463   0.817   7.688   0.621 -0.2336 -0.3260 -0.3007
23706SOL    HW177464   0.736   7.738   0.625 -0.7402 -1.0667 -0.9765
23706SOL    HW277465   0.877   7.743   0.571  0.5262  1.3086  2.1999
23707SOL     OW77466   6.538   7.782   8.323  0.2601 -0.2983 -0.3488
23707SOL    HW177467   6.490   7.700   8.331 -0.7847  0.4655  2.6506
23707SOL    HW277468   6.628   7.756   8.304  0.1112 -2.2275  1.2658
23708SOL     OW77469   6.891   9.070   8.802 -1.2654 -0.3571  0.2178
23708SOL    HW177470   6.984   9.092   8.795 -1.0562 -1.1270  0.4566
23708SOL    HW277471   6.880   8.996   8.743 -1.2654 -1.6130  1.7291
23709SOL     OW77472   0.637   6.159   3.135 -0.5743 -0.2010  0.2445
23709SOL    HW177473   0.670   6.235   3.088  0.2049 -0.4840  0.3172
23709SOL    HW277474   0.548   6.183   3.159 -0.8509  0.1043 -1.0137
23710SOL     OW77475   7.184   2.328   6.997  0.0819  0.2876 -0.5310
23710SOL    HW177476   7.123   2.281   6.941 -1.7971  0.6093  1.1423
23710SOL    HW277477   7.158   2.420   6.989  0.8670  0.5309 -0.3888
23711SOL     OW77478   2.566   5.559   6.561 -0.3515 -0.0727  0.3325
23711SOL    HW177479   2.543   5.472   6.526 -0.6729  0.1510 -0.0232
23711SOL    HW277480   2.625   5.596   6.496  1.1118 -0.6745  1.2884
23712SOL     OW77481   7.704   5.350   1.253  0.1003  0.3780  0.1456
23712SOL    HW177482   7.660   5.343   1.168  1.9777 -0.3399 -0.8442
23712SOL    HW277483   7.645   5.402   1.307 -1.1514  0.8730 -1.6123
23713SOL     OW77484   1.178   5.459   6.853 -0.7200 -0.5222  0.5807
23713SOL    HW177485   1.213   5.371   6.841 -0.2281 -0.1862 -0.6406
23713SOL    HW277486   1.099   5.461   6.800 -0.1710  0.0634 -0.2482
23714SOL     OW77487   4.312   7.145   6.302 -0.6686  0.1092 -0.3892
23714SOL    HW177488   4.274   7.117   6.385 -3.0748 -0.2073 -1.5008
23714SOL    HW277489   4.385   7.085   6.288 -1.0826 -0.7249  0.8694
23715SOL     OW77490   6.215   7.565   0.013 -0.3234  0.5217 -0.2407
23715SOL    HW177491   6.247   7.649  -0.020 -3.1188  1.1688 -1.6140
23715SOL    HW277492   6.209   7.578   0.108 -1.2762  2.1478 -0.4768
23716SOL     OW77493   8.541   1.046   1.080 -0.0519  0.0879 -0.1734
23716SOL    HW177494   8.541   1.022   1.173 -0.9552 -3.2618 -0.9200
23716SOL    HW277495   8.632   1.068   1.061  0.0647  1.3294  1.5661
23717SOL     OW77496   3.927   0.235   0.855  0.1206  0.4668  0.7127
23717SOL    HW177497   3.848   0.288   0.864 -0.0865  0.1534  0.7208
23717SOL    HW277498   3.988   0.292   0.807 -0.3240  0.4708  0.1396
23718SOL     OW77499   2.463   8.010   3.584  0.2284 -0.3106 -0.8373
23718SOL    HW177500   2.530   8.069   3.620 -0.3340 -0.6451  0.8327
23718SOL    HW277501   2.481   8.009   3.490  2.2769 -0.0275 -0.4991
23719SOL     OW77502   7.085   6.113   3.871  0.3229 -0.2550 -0.6532
23719SOL    HW177503   7.021   6.042   3.872 -2.7365  2.2569 -1.8083
23719SOL    HW277504   7.060   6.168   3.945  0.8312  1.0271 -1.4057
23720SOL     OW77505   9.007   3.259   1.199 -0.6305  0.3789 -0.6348
23720SOL    HW177506   9.067   3.193   1.165 -0.3768 -0.0962  0.6797
23720SOL    HW277507   8.937   3.264   1.133 -0.8062 -1.4159 -0.6275
23721SOL     OW77508   5.170   1.357   7.707 -0.5435 -0.6161  0.4430
23721SOL    HW177509   5.132   1.272   7.685  0.5892 -0.7718 -1.0373
23721SOL    HW277510   5.263   1.348   7.687 -0.2062  0.6317  1.3315
23722SOL     OW77511   2.522   0.579   8.629 -0.5126  0.6221  1.3926
23722SOL    HW177512   2.534   0.674   8.627  0.5899  0.5026  1.4087
23722SOL    HW277513   2.489   0.557   8.542  0.9994  0.8376  0.7211
23723SOL     OW77514   8.577   0.052   8.425 -0.3257  0.3562 -0.1563
23723SOL    HW177515   8.588   0.055   8.330  1.4398  0.4305  0.0131
23723SOL    HW277516   8.523   0.128   8.446  1.0201  1.5747 -0.9185
23724SOL     OW77517   7.581   2.208   8.283 -0.1459 -0.3238  0.2534
23724SOL    HW177518   7.610   2.175   8.368  0.8732 -1.6983 -0.5974
23724SOL    HW277519   7.656   2.259   8.251 -1.7752  3.3138  1.6801
23725SOL     OW77520   8.981   3.670   4.635 -0.1903  0.2162  0.1953
23725SOL    HW177521   8.975   3.761   4.605 -1.5469  0.3797  0.9090
23725SOL    HW277522   9.065   3.665   4.680  0.8054  0.5796 -1.5298
23726SOL     OW77523   4.686   2.108   6.825 -0.7608 -0.5437  0.4551
23726SOL    HW177524   4.741   2.173   6.781 -0.4850 -2.2834 -2.0125
23726SOL    HW277525   4.610   2.098   6.768 -1.5002 -1.3321  1.5293
23727SOL     OW77526   6.832   0.539   5.762 -0.2858 -0.3793 -0.4454
23727SOL    HW177527   6.747   0.555   5.721 -0.3798 -2.3741 -1.1658
23727SOL    HW277528   6.818   0.556   5.855 -1.5372 -0.8151 -0.5312
23728SOL     OW77529   0.253   6.206   7.038 -0.0776 -0.0769  0.0021
23728SOL    HW177530   0.286   6.136   6.982 -0.5959 -1.6704  1.6052
23728SOL    HW277531   0.158   6.202   7.029 -0.0979  0.6022 -0.1104
23729SOL     OW77532   0.988   7.018   0.337  0.0029 -0.0190  0.3842
23729SOL    HW177533   1.064   7.076   0.347 -0.2076  0.2423  0.4718
23729SOL    HW277534   1.025   6.929   0.338  0.2200  0.0742  1.3177
23730SOL     OW77535   5.696   3.064   3.571 -0.0571 -0.5231  0.4388
23730SOL    HW177536   5.605   3.092   3.581  0.3979  0.9022  0.7143
23730SOL    HW277537   5.701   3.032   3.480 -1.0258 -1.4499  0.6870
23731SOL     OW77538   9.126   0.080   3.294 -0.6119  0.2613 -0.3896
23731SOL    HW177539   9.171  -0.002   3.275  1.0213  1.5213 -2.2238
23731SOL    HW277540   9.037   0.066   3.262 -0.8479 -1.2966  0.7903
23732SOL     OW77541   2.093   1.520   8.555  0.2947  0.2794  0.5174
23732SOL    HW177542   2.118   1.558   8.471 -1.0913  2.0898  0.8464
23732SOL    HW277543   2.006   1.484   8.540  0.0343  0.6236  1.1689
23733SOL     OW77544   5.630   7.783   8.072 -0.2551  0.7127  0.1443
23733SOL    HW177545   5.717   7.744   8.059  0.1027  1.0242  1.4109
23733SOL    HW277546   5.624   7.793   8.167 -1.6338  0.8132  0.0539
23734SOL     OW77547   1.427   3.398   2.589  0.1399 -0.3952 -0.1676
23734SOL    HW177548   1.382   3.429   2.667 -2.2301 -0.6238 -1.3613
23734SOL    HW277549   1.411   3.303   2.587  0.3988 -0.4336 -0.8020
23735SOL     OW77550   1.450   2.086   4.971  0.0188 -0.3499  0.1876
23735SOL    HW177551   1.489   2.157   5.020  1.4644 -1.6129  0.9384
23735SOL    HW277552   1.456   2.010   5.028 -0.7914 -1.2676 -0.8773
23736SOL     OW77553   7.634   1.264   1.745 -0.4717 -0.3044  0.2505
23736SOL    HW177554   7.616   1.177   1.708 -0.6828  0.4380 -1.4488
23736SOL    HW277555   7.549   1.308   1.744 -0.4103 -0.1360  1.3269
23737SOL     OW77556   2.133   3.081   5.258  0.3900  0.4239 -0.4047
23737SOL    HW177557   2.200   3.024   5.222  0.8250  0.5714  0.1542
23737SOL    HW277558   2.056   3.066   5.203  1.0732  0.7483 -1.4650
23738SOL     OW77559   4.835   2.933   3.789 -0.3768 -0.1173  0.4011
23738SOL    HW177560   4.749   2.969   3.766  0.3618  0.6413 -1.3609
23738SOL    HW277561   4.841   2.944   3.884 -2.5529 -0.9629  0.6855
23739SOL     OW77562   8.337   3.125   0.350 -0.0872  0.0115 -0.6753
23739SOL    HW177563   8.265   3.113   0.413 -0.8790 -1.4081 -1.8033
23739SOL    HW277564   8.382   3.204   0.381 -1.3630  0.2232  0.7882
23740SOL     OW77565   1.833   6.696   2.671 -0.4338  0.0319  0.0864
23740SOL    HW177566   1.823   6.773   2.728 -0.4193 -0.1091  0.2819
23740SOL    HW277567   1.917   6.659   2.696 -0.0875  0.3900 -0.5457
23741SOL     OW77568   3.833   8.565   3.056 -0.3200  0.2610 -0.5051
23741SOL    HW177569   3.790   8.485   3.025 -0.6509  0.2289  0.0273
23741SOL    HW277570   3.762   8.629   3.064 -0.2965  0.1854  0.4509
23742SOL     OW77571   7.198   2.039   4.204  0.1271  0.5972  0.1836
23742SOL    HW177572   7.194   2.122   4.250 -0.5043  0.3126  0.6417
23742SOL    HW277573   7.185   2.062   4.112 -1.6987  0.8450  0.4669
23743SOL     OW77574   4.480   3.120   1.412  0.0728 -0.1755 -0.4443
23743SOL    HW177575   4.499   3.213   1.422 -1.2799  0.0801 -0.0750
23743SOL    HW277576   4.412   3.116   1.345 -0.7543 -0.7907  0.4087
23744SOL     OW77577   8.607   1.258   4.207 -0.2863  0.0129 -0.0282
23744SOL    HW177578   8.688   1.286   4.164 -0.6298  0.8828 -0.1344
23744SOL    HW277579   8.585   1.331   4.265  0.2511 -1.1889  1.7821
23745SOL     OW77580   5.924   5.266   7.694  0.6262  0.5140 -0.3702
23745SOL    HW177581   5.927   5.330   7.623  0.0325  0.1950 -0.7009
23745SOL    HW277582   6.009   5.223   7.692  0.1747 -0.3869 -1.7594
23746SOL     OW77583   1.213   0.667   6.380 -0.0006  0.2172  0.2113
23746SOL    HW177584   1.247   0.611   6.310  1.0418  0.5920  0.3876
23746SOL    HW277585   1.276   0.739   6.385 -2.1782  2.3456 -1.1607
23747SOL     OW77586   0.255   6.700   3.822  0.4459  0.0501  0.0781
23747SOL    HW177587   0.332   6.642   3.820  0.3793 -0.1416  1.6538
23747SOL    HW277588   0.292   6.788   3.821  0.8057 -0.0285  2.1033
23748SOL     OW77589   1.416   9.025   0.916 -0.2589  0.3266 -0.4043
23748SOL    HW177590   1.491   9.056   0.967  0.9357 -1.7449 -0.7884
23748SOL    HW277591   1.414   9.080   0.838  2.0447 -0.7037 -1.2715
23749SOL     OW77592   0.714   5.942   6.075 -0.4202  0.1808 -0.0235
23749SOL    HW177593   0.709   6.028   6.117  0.1133  0.2478 -0.0923
23749SOL    HW277594   0.796   5.944   6.027 -1.1472  0.2165 -1.3266
23750SOL     OW77595   5.881   0.005   2.493 -0.4823 -0.3983 -0.2092
23750SOL    HW177596   5.915   0.062   2.562 -1.3151  0.6718 -0.6568
23750SOL    HW277597   5.796  -0.024   2.525 -0.7998 -0.0266 -0.6893
23751SOL     OW77598   2.162   9.013   5.996  0.3448  0.0725 -0.3214
23751SOL    HW177599   2.212   8.994   5.917  0.3882  0.6139 -0.4278
23751SOL    HW277600   2.141   9.106   5.989 -0.7603 -0.1638 -0.3282
23752SOL     OW77601   4.887   1.705   8.305 -0.2649 -0.4465  0.5449
23752SOL    HW177602   4.808   1.665   8.341 -1.0592 -0.1749 -0.8170
23752SOL    HW277603   4.937   1.631   8.269 -1.5742 -0.3371 -1.6734
23753SOL     OW77604   3.479   5.534   5.970  0.3463 -0.3313  0.0952
23753SOL    HW177605   3.452   5.537   5.878  0.9210 -1.3281 -0.1186
23753SOL    HW277606   3.400   5.510   6.018  0.1253 -0.1464 -0.1719
23754SOL     OW77607   8.746   4.991   5.527  0.0909  0.2736  0.3706
23754SOL    HW177608   8.715   5.065   5.475 -0.3930 -0.0799  0.1490
23754SOL    HW277609   8.835   5.015   5.552  0.3159  0.4720 -0.5844
23755SOL     OW77610   1.774   1.849   0.811 -0.2697 -0.4253  0.3966
23755SOL    HW177611   1.762   1.889   0.725  0.5770 -0.6970  0.1407
23755SOL    HW277612   1.869   1.833   0.817 -0.4668 -1.5167  0.8710
23756SOL     OW77613   6.659   0.298   7.168 -0.6679 -0.1071 -0.1158
23756SOL    HW177614   6.719   0.296   7.242 -0.3432  0.2034 -0.3681
23756SOL    HW277615   6.614   0.383   7.175 -1.2207 -0.4162  0.1814
23757SOL     OW77616   4.001   7.754   3.143  0.1431  0.7253  0.1620
23757SOL    HW177617   3.924   7.779   3.091  0.8290 -0.1514 -1.3213
23757SOL    HW277618   4.057   7.831   3.143  0.4907  0.4846 -1.0919
23758SOL     OW77619   0.589   2.252   6.305 -0.0888  0.2220 -0.3586
23758SOL    HW177620   0.559   2.178   6.358 -1.2169  0.1946 -1.0067
23758SOL    HW277621   0.654   2.296   6.360 -1.1016  0.0968  0.9920
23759SOL     OW77622   3.185   2.968   9.136 -0.1321  0.0550 -0.3494
23759SOL    HW177623   3.200   2.943   9.227  1.9371 -0.1634 -0.7106
23759SOL    HW277624   3.271   2.965   9.096 -1.1673 -1.1491 -2.6710
23760SOL     OW77625   4.151   4.206   3.965  0.2552  0.1203  0.2673
23760SOL    HW177626   4.122   4.220   3.875  0.8120  0.0753  0.0763
23760SOL    HW277627   4.099   4.132   3.996 -0.0718  0.2556  0.0493
23761SOL     OW77628   1.740   7.628   2.151 -0.2357  0.0186 -0.2917
23761SOL    HW177629   1.699   7.653   2.068  1.7340  2.2226 -0.7197
23761SOL    HW277630   1.695   7.681   2.216  0.9979  1.5246 -0.5996
23762SOL     OW77631   4.794   2.599   8.715 -0.3479 -0.7364 -0.4617
23762SOL    HW177632   4.701   2.597   8.691 -0.0834 -0.9503 -1.5077
23762SOL    HW277633   4.802   2.532   8.783 -1.0502 -0.3811 -0.0198
23763SOL     OW77634   0.291   3.351   1.410  0.5110  0.1510 -1.0934
23763SOL    HW177635   0.198   3.358   1.392 -0.1119  0.4789  1.7618
23763SOL    HW277636   0.307   3.415   1.480  1.7731 -3.1049  1.9586
23764SOL     OW77637   7.036   8.215   2.270  0.0702  0.3894  0.0935
23764SOL    HW177638   7.082   8.215   2.353  0.8897  2.0508 -0.3056
23764SOL    HW277639   6.946   8.241   2.292  0.4165  1.3586  0.4270
23765SOL     OW77640   5.950   0.172   4.882 -0.3457  0.8577 -0.1111
23765SOL    HW177641   5.994   0.245   4.838  0.3423 -0.5939 -1.9869
23765SOL    HW277642   5.898   0.130   4.813  1.5713 -2.1485  0.0739
23766SOL     OW77643   5.045   3.418   7.834  0.4653  0.1523  0.4878
23766SOL    HW177644   5.061   3.437   7.742  0.8529 -0.1072  0.4991
23766SOL    HW277645   5.086   3.491   7.881  1.9348 -0.6767  0.5306
23767SOL     OW77646   0.818   1.974   8.285 -0.0600  0.0336 -0.6392
23767SOL    HW177647   0.817   2.036   8.212 -1.3292  0.0414 -0.6359
23767SOL    HW277648   0.835   1.889   8.244  0.3664  0.1989 -0.8038
23768SOL     OW77649   7.283   4.988   3.812  0.2149  0.2815  0.5667
23768SOL    HW177650   7.299   4.899   3.843  0.9770 -0.9257 -2.8971
23768SOL    HW277651   7.341   5.043   3.865  0.7895 -1.4536  1.7974
23769SOL     OW77652   8.442   7.213   6.437  0.2112  0.0116  0.1369
23769SOL    HW177653   8.475   7.285   6.490 -2.5665  1.8804 -0.4511
23769SOL    HW277654   8.355   7.194   6.473  0.1091 -1.7980 -0.9187
23770SOL     OW77655   7.826   1.561   0.059  0.2406  0.4983  0.3287
23770SOL    HW177656   7.892   1.596   0.119  0.8437 -0.1470  0.0524
23770SOL    HW277657   7.780   1.494   0.110  1.0245 -0.3374 -0.0435
23771SOL     OW77658   7.341   8.510   0.357  0.1559 -0.2046  1.0253
23771SOL    HW177659   7.365   8.526   0.448  2.1486 -0.7359  0.6396
23771SOL    HW277660   7.419   8.535   0.307 -1.2226  1.0277 -0.6479
23772SOL     OW77661   1.597   0.041   9.165  0.0158 -0.3569 -0.4768
23772SOL    HW177662   1.577   0.092   9.087  0.0092  0.1228 -0.1671
23772SOL    HW277663   1.538  -0.035   9.160  1.2941 -1.3222 -1.8781
23773SOL     OW77664   5.130   2.364   6.231 -0.2560 -0.1683 -0.1190
23773SOL    HW177665   5.117   2.293   6.294  0.1308  0.2927  0.4978
23773SOL    HW277666   5.124   2.322   6.145  3.2386 -1.6063  0.1659
23774SOL     OW77667   5.613   7.576   1.848  0.3400 -0.1585 -0.5109
23774SOL    HW177668   5.566   7.586   1.765 -0.5955  0.2076  0.0508
23774SOL    HW277669   5.568   7.635   1.908 -0.4414 -2.0400  0.8571
23775SOL     OW77670   2.835   0.739   7.762  0.1905  0.3550 -0.2309
23775SOL    HW177671   2.821   0.706   7.674  0.7553  0.3460 -0.3228
23775SOL    HW277672   2.799   0.672   7.820  0.4105  0.0550 -0.4406
23776SOL     OW77673   7.857   7.146   6.219  0.7120 -0.5236  0.2423
23776SOL    HW177674   7.868   7.214   6.152  2.6504 -1.1904 -0.1762
23776SOL    HW277675   7.827   7.069   6.170  0.3659 -0.4977  0.4163
23777SOL     OW77676   6.452   8.989   4.394  0.2702 -0.1108  0.6342
23777SOL    HW177677   6.430   9.075   4.432 -1.4654 -1.7176  3.6687
23777SOL    HW277678   6.367   8.951   4.372  0.9998 -1.1937 -0.3849
23778SOL     OW77679   7.746   1.000   0.891  0.4483  0.0959 -0.0043
23778SOL    HW177680   7.694   0.926   0.859  0.5440  0.0914 -0.1451
23778SOL    HW277681   7.757   1.057   0.815 -1.4200  1.3078  0.5585
23779SOL     OW77682   1.234   6.419   1.538 -0.3428  0.1427 -1.3962
23779SOL    HW177683   1.156   6.378   1.574  1.9390 -0.6641  3.3918
23779SOL    HW277684   1.210   6.510   1.524 -2.0100  0.0604  0.5708
23780SOL     OW77685   3.052   5.417   0.539  0.4781 -0.2041 -0.0379
23780SOL    HW177686   2.977   5.392   0.593  1.3217 -0.0661  1.2456
23780SOL    HW277687   3.030   5.386   0.451  0.1600 -2.8128  0.8631
23781SOL     OW77688   8.562   6.748   3.894 -0.0562 -0.0593  0.9557
23781SOL    HW177689   8.618   6.674   3.916 -0.3597 -0.8284 -0.6879
23781SOL    HW277690   8.580   6.765   3.802 -2.0764  0.0105  0.5176
23782SOL     OW77691   1.988   7.783   1.978  0.0009 -0.1728  0.3244
23782SOL    HW177692   2.009   7.718   2.044 -1.2152 -0.4031  0.5114
23782SOL    HW277693   1.952   7.732   1.905 -1.2315  0.2944  0.5875
23783SOL     OW77694   7.920   6.513   1.019  1.0216 -0.3530 -0.3545
23783SOL    HW177695   7.903   6.525   0.925  0.2238  0.2526 -0.1351
23783SOL    HW277696   7.878   6.430   1.040 -0.0910  0.2388 -0.2138
23784SOL     OW77697   1.637   0.989   7.090  0.1357 -0.5714 -0.0812
23784SOL    HW177698   1.603   1.023   7.007 -0.9910 -0.6470  0.3254
23784SOL    HW277699   1.687   0.912   7.066  0.4366 -0.1786 -0.7567
23785SOL     OW77700   3.876   6.762   5.581 -0.4097  0.1127  0.6644
23785SOL    HW177701   3.899   6.850   5.613 -0.3128  1.3803 -2.5140
23785SOL    HW277702   3.801   6.736   5.634 -0.1134  1.8625  2.0397
23786SOL     OW77703   1.281   2.788   1.281 -0.1715  0.3253  0.2594
23786SOL    HW177704   1.254   2.878   1.297  0.1380  0.2362  1.3788
23786SOL    HW277705   1.203   2.735   1.299 -0.5110  0.3843 -0.9183
23787SOL     OW77706   0.524   5.392   3.691  0.4787  0.3006  0.5074
23787SOL    HW177707   0.501   5.435   3.773 -0.5537  2.1363 -0.6587
23787SOL    HW277708   0.566   5.461   3.640  1.4815 -0.9204 -0.3511
23788SOL     OW77709   8.732   6.117   8.098 -0.0597 -0.1639  0.2428
23788SOL    HW177710   8.819   6.139   8.064 -0.2201 -0.7305 -0.5686
23788SOL    HW277711   8.693   6.201   8.122  0.4815  0.1484  0.0321
23789SOL     OW77712   4.301   9.178   8.134  1.1054 -0.0516  0.3910
23789SOL    HW177713   4.329   9.228   8.057  0.4178 -1.6461 -0.9619
23789SOL    HW277714   4.208   9.163   8.120  1.2983 -1.7017  0.7422
23790SOL     OW77715   6.949   9.189   6.626 -0.4896 -0.3984 -0.2279
23790SOL    HW177716   6.904   9.198   6.710 -0.8332 -0.9767 -0.3497
23790SOL    HW277717   6.890   9.137   6.572  0.8293 -2.2233 -0.0005
23791SOL     OW77718   4.435   9.157   7.901  0.3107  0.4962 -0.0651
23791SOL    HW177719   4.388   9.214   7.839 -0.0365 -0.0398 -0.3023
23791SOL    HW277720   4.381   9.078   7.906 -0.3182  0.9771  1.8343
23792SOL     OW77721   9.024   7.960   2.254 -0.1033 -0.2737  0.3870
23792SOL    HW177722   9.037   7.866   2.242 -1.2201 -0.8402  2.8362
23792SOL    HW277723   9.108   7.991   2.288  0.6861 -0.0644 -1.6082
23793SOL     OW77724   7.930   5.436   4.164 -0.1354 -0.0618  0.0322
23793SOL    HW177725   7.968   5.349   4.170  0.6337  0.3966  2.7949
23793SOL    HW277726   7.846   5.422   4.119  0.3514 -2.0610 -0.3416
23794SOL     OW77727   4.387   8.824   1.696 -0.3174  0.5207 -0.1267
23794SOL    HW177728   4.399   8.742   1.745  1.2143  0.8198  0.0574
23794SOL    HW277729   4.334   8.799   1.621 -0.9650 -0.3718  0.5985
23795SOL     OW77730   0.957   1.946   1.792 -0.6409  0.4259 -0.4824
23795SOL    HW177731   0.910   1.885   1.850 -1.8776  0.0092 -1.8901
23795SOL    HW277732   0.969   2.025   1.845  1.0207 -0.9797  1.4045
23796SOL     OW77733   8.971   4.709   1.316 -0.6028 -0.4574 -0.2096
23796SOL    HW177734   9.051   4.668   1.282 -1.4527 -0.7897 -1.9599
23796SOL    HW277735   9.000   4.791   1.354  1.0523 -2.1686  2.5945
23797SOL     OW77736   2.865   2.034   4.133 -0.3878 -0.0186  0.4470
23797SOL    HW177737   2.947   1.989   4.154  0.6090  0.9787 -1.0933
23797SOL    HW277738   2.828   2.056   4.218 -0.4309 -2.8034  1.2340
23798SOL     OW77739   5.838   1.808   2.798 -0.2633  0.0455  0.2838
23798SOL    HW177740   5.797   1.801   2.885  0.7550  0.4012  0.8104
23798SOL    HW277741   5.819   1.724   2.756 -0.4608 -0.2746  0.9946
23799SOL     OW77742   8.937   6.871   7.927 -0.4675 -0.1856 -0.3076
23799SOL    HW177743   8.914   6.964   7.936 -1.9424 -0.5398 -0.1171
23799SOL    HW277744   8.977   6.865   7.840 -1.9639  0.3696 -1.0823
23800SOL     OW77745   4.827   6.476   0.901 -0.7387 -0.1716  0.3188
23800SOL    HW177746   4.738   6.504   0.921 -0.9150 -0.4577 -0.0402
23800SOL    HW277747   4.817   6.386   0.868 -0.0719 -1.2301  2.7393
23801SOL     OW77748   3.948   0.235   5.049 -0.4574  0.6955 -0.0356
23801SOL    HW177749   3.992   0.302   4.996  0.1354  0.6728  0.4200
23801SOL    HW277750   3.856   0.242   5.024 -0.1250  0.3143 -1.4772
23802SOL     OW77751   5.620   7.292   1.847 -0.3042 -0.1032  0.4287
23802SOL    HW177752   5.636   7.385   1.833  3.4169 -0.6932 -0.3371
23802SOL    HW277753   5.550   7.289   1.911  0.8947  3.3013  2.1323
23803SOL     OW77754   1.430   0.493   3.297  0.2345 -0.8367  0.2641
23803SOL    HW177755   1.478   0.440   3.234  0.3945 -2.4504  1.6873
23803SOL    HW277756   1.497   0.524   3.358 -0.3493 -2.4606  1.8124
23804SOL     OW77757   0.926   4.504   6.002 -0.2066 -0.0386  0.1296
23804SOL    HW177758   0.998   4.471   6.056 -1.4329 -0.3688  1.6433
23804SOL    HW277759   0.937   4.599   6.004 -0.0682 -0.0609  0.7474
23805SOL     OW77760   0.860   0.946   2.605 -0.0662  0.2626  0.2535
23805SOL    HW177761   0.793   0.957   2.538  0.2856  0.0632 -0.1340
23805SOL    HW277762   0.927   0.891   2.564  0.9535  1.5217  0.1805
23806SOL     OW77763   8.459   1.703   5.359 -0.1193  0.0267 -0.2138
23806SOL    HW177764   8.542   1.655   5.363 -0.3466 -0.6390 -2.2865
23806SOL    HW277765   8.395   1.644   5.398  0.1351 -0.0687  0.0602
23807SOL     OW77766   6.950   0.092   6.266 -0.0940 -0.2082 -0.6894
23807SOL    HW177767   6.967   0.075   6.173  0.7759  0.8280 -0.7341
23807SOL    HW277768   7.035   0.120   6.301 -0.7367  0.7976  0.0969
23808SOL     OW77769   6.131   3.770   9.182  0.5223 -0.0960  0.2786
23808SOL    HW177770   6.142   3.728   9.268  1.1725 -1.7215 -0.5662
23808SOL    HW277771   6.215   3.757   9.138 -0.3818 -0.9226 -1.2933
23809SOL     OW77772   1.989   7.534   7.349  0.0605  0.0516 -0.1576
23809SOL    HW177773   1.966   7.618   7.310  0.0844  0.5858  0.9412
23809SOL    HW277774   1.971   7.545   7.442  4.2604  0.3928  0.8258
23810SOL     OW77775   5.989   4.361   3.304 -0.5038 -0.0228  0.2014
23810SOL    HW177776   6.052   4.371   3.375  0.6695 -2.8435 -0.2709
23810SOL    HW277777   5.916   4.313   3.344 -0.6653 -0.0044 -0.0707
23811SOL     OW77778   4.137   2.217   7.823 -0.3924  0.1108  0.2527
23811SOL    HW177779   4.091   2.163   7.759 -0.4531 -0.7053  0.9634
23811SOL    HW277780   4.160   2.156   7.893 -0.5589  1.0275  1.1293
23812SOL     OW77781   5.069   8.989   9.090 -0.4270  0.2899  0.6844
23812SOL    HW177782   5.053   8.949   9.005 -0.5197  0.4866  0.6074
23812SOL    HW277783   5.002   8.951   9.147  0.9198 -1.4390  1.2024
23813SOL     OW77784   1.840   3.369   6.993 -0.2231  0.0474  0.4919
23813SOL    HW177785   1.929   3.343   7.016  0.6570  1.4699 -1.0092
23813SOL    HW277786   1.812   3.305   6.928  0.2801  0.3690 -0.0578
23814SOL     OW77787   3.754   5.234   1.757  0.2636 -1.0548  0.0745
23814SOL    HW177788   3.815   5.290   1.708  0.6692 -0.3592  1.3195
23814SOL    HW277789   3.804   5.153   1.772 -0.1050 -1.5464 -1.2010
23815SOL     OW77790   3.428   4.924   5.079 -0.3166  0.0100 -0.1402
23815SOL    HW177791   3.345   4.949   5.040  1.3640  2.2972 -2.6525
23815SOL    HW277792   3.469   4.867   5.014  0.8444  0.4446  0.1846
23816SOL     OW77793   5.794   7.400   0.614 -0.3895  0.3289 -0.1211
23816SOL    HW177794   5.859   7.330   0.615 -2.0933 -1.3959  2.6670
23816SOL    HW277795   5.823   7.461   0.682 -0.7038  0.5158 -0.1533
23817SOL     OW77796   7.227   1.594   4.237 -0.0388  0.0356 -0.2306
23817SOL    HW177797   7.154   1.643   4.199  0.2798  0.6398 -0.0730
23817SOL    HW277798   7.284   1.661   4.276  0.8302 -0.3904 -0.7348
23818SOL     OW77799   2.562   0.940   1.769  0.1500  0.4417 -0.3800
23818SOL    HW177800   2.495   0.933   1.836  0.7696  2.5268  0.5151
23818SOL    HW277801   2.564   0.853   1.729 -3.8223  0.5549 -1.2395
23819SOL     OW77802   7.258   4.788   8.022  0.2046  0.5435 -0.3185
23819SOL    HW177803   7.344   4.830   8.013  0.9135 -0.4079  1.4941
23819SOL    HW277804   7.200   4.859   8.053  0.8032  0.7723  0.3042
23820SOL     OW77805   6.987   1.708   6.518 -0.1468  0.7734 -0.2458
23820SOL    HW177806   6.904   1.661   6.522  0.6166 -0.5658  0.2808
23820SOL    HW277807   6.982   1.772   6.590 -0.5352  0.3843  0.0763
23821SOL     OW77808   6.248   1.022   6.333 -0.1132 -0.1331 -0.0982
23821SOL    HW177809   6.214   0.933   6.339 -1.4379  0.3642  0.2136
23821SOL    HW277810   6.234   1.059   6.420 -2.7281  1.4157 -1.0505
23822SOL     OW77811   6.857   9.242   6.874  0.2345 -0.1566 -0.3948
23822SOL    HW177812   6.937   9.250   6.926  1.8577 -0.8019 -2.6158
23822SOL    HW277813   6.802   9.315   6.901 -0.0984 -1.6887  3.8002
23823SOL     OW77814   4.483   7.225   7.163  0.0185 -0.3453  0.3706
23823SOL    HW177815   4.513   7.158   7.102  0.8401  0.4730 -0.1572
23823SOL    HW277816   4.491   7.307   7.114 -2.1304  0.0503  0.5640
23824SOL     OW77817   3.837   4.215   4.793  0.2054 -0.0377  0.8286
23824SOL    HW177818   3.925   4.181   4.783 -0.2171 -0.6986 -1.1926
23824SOL    HW277819   3.845   4.284   4.859  1.6357 -1.9763  2.8147
23825SOL     OW77820   3.405   4.321   9.134  0.5298 -0.2514  0.1051
23825SOL    HW177821   3.422   4.404   9.178  3.4590 -0.3331 -0.6440
23825SOL    HW277822   3.437   4.254   9.195 -1.0573 -0.8186  0.3600
23826SOL     OW77823   0.927   2.614   7.313  0.2502  0.8419 -0.1061
23826SOL    HW177824   1.005   2.668   7.315  0.0958  1.0656  2.3915
23826SOL    HW277825   0.857   2.672   7.343  0.1615 -0.7174  3.1322
23827SOL     OW77826   1.559   5.472   0.944 -0.2026  0.0880  0.3782
23827SOL    HW177827   1.648   5.496   0.919 -0.3125 -1.0059 -1.2045
23827SOL    HW277828   1.559   5.476   1.040  1.3738  0.6367  0.3863
23828SOL     OW77829   1.569   3.089   7.543 -0.0055  0.1102  0.4877
23828SOL    HW177830   1.484   3.132   7.553 -0.0287 -0.3927  3.2867
23828SOL    HW277831   1.548   2.999   7.516 -0.3318  0.1667  0.5529
23829SOL     OW77832   7.008   8.962   5.394 -0.4367  0.1543  0.0393
23829SOL    HW177833   7.088   9.013   5.382 -0.3789 -0.2235 -1.3330
23829SOL    HW277834   6.997   8.957   5.489  0.5367  1.1787  0.2273
23830SOL     OW77835   8.381   7.077   1.074 -0.6307 -0.0146  0.3730
23830SOL    HW177836   8.465   7.122   1.068 -1.7762  2.0499 -3.3888
23830SOL    HW277837   8.361   7.075   1.168  2.2236  2.0585  1.1500
23831SOL     OW77838   8.215   2.296   8.022  0.0453  0.0461 -0.0047
23831SOL    HW177839   8.279   2.353   7.980  1.1185 -0.1164  1.3298
23831SOL    HW277840   8.153   2.357   8.064  0.6904  0.2368  0.6866
23832SOL     OW77841   1.296   3.889   6.796  0.2890  1.1940  0.0470
23832SOL    HW177842   1.245   3.947   6.853  0.6622  0.0042  1.6571
23832SOL    HW277843   1.236   3.817   6.776  0.0014  1.8286 -1.5144
23833SOL     OW77844   6.402   2.461   9.034  0.7767  0.0906 -0.3724
23833SOL    HW177845   6.455   2.471   9.113  2.2594  0.1537 -1.3417
23833SOL    HW277846   6.401   2.548   8.994  0.6167 -0.1009 -0.7923
23834SOL     OW77847   2.252   3.107   2.006 -0.8382  0.1620  0.7381
23834SOL    HW177848   2.262   3.088   1.913 -1.4993  0.0685  0.6842
23834SOL    HW277849   2.160   3.090   2.025 -0.3499 -1.5263  1.8037
23835SOL     OW77850   9.247   9.241   6.101  0.7470  0.2012  0.1242
23835SOL    HW177851   9.309   9.209   6.166  0.0945  0.7818  1.0573
23835SOL    HW277852   9.181   9.172   6.094 -1.0415  1.5072  2.6530
23836SOL     OW77853   5.681   0.566   6.233 -0.5267  0.1760 -0.1411
23836SOL    HW177854   5.587   0.562   6.250 -0.8269  2.2858 -1.0030
23836SOL    HW277855   5.692   0.643   6.178  1.7586  0.1311  0.1640
23837SOL     OW77856   1.677   8.494   5.292  0.6791 -0.0148 -0.0056
23837SOL    HW177857   1.754   8.500   5.348  1.2516  3.6769 -0.9336
23837SOL    HW277858   1.710   8.462   5.208  1.1185  0.7977 -0.1567
23838SOL     OW77859   2.617   5.768   1.591 -0.2204 -0.0346 -0.4621
23838SOL    HW177860   2.603   5.711   1.515 -1.6609 -0.4264  0.0658
23838SOL    HW277861   2.609   5.857   1.555  0.2105 -0.1943 -0.9649
23839SOL     OW77862   1.846   0.806   8.885 -0.2023 -0.2107 -0.8502
23839SOL    HW177863   1.854   0.901   8.894 -1.4113 -0.1974  0.6603
23839SOL    HW277864   1.932   0.772   8.910 -0.6901  0.4001  2.0685
23840SOL     OW77865   3.936   6.657   4.709  0.0510  0.4795 -0.4333
23840SOL    HW177866   3.899   6.585   4.760  1.7508 -1.6085 -1.9897
23840SOL    HW277867   4.000   6.697   4.768 -0.6557  0.5309  0.3263
23841SOL     OW77868   3.449   8.051   0.851 -0.1574  0.1282  0.5700
23841SOL    HW177869   3.461   7.981   0.916  3.2274  1.3868  1.5289
23841SOL    HW277870   3.488   8.128   0.892  0.1843  1.5065 -2.1379
23842SOL     OW77871   0.933   1.255   5.719  0.2259  0.3879 -0.4821
23842SOL    HW177872   0.868   1.213   5.776  0.0630  1.9887  0.5614
23842SOL    HW277873   1.010   1.198   5.725 -0.3401 -0.3536  0.0187
23843SOL     OW77874   9.184   1.456   4.761 -0.5835  0.2077  0.7278
23843SOL    HW177875   9.268   1.474   4.802 -0.7397  0.2470  1.0305
23843SOL    HW277876   9.151   1.542   4.733  0.0592  0.0600 -0.5325
23844SOL     OW77877   1.602   5.815   5.788  0.4682 -1.0544 -0.1889
23844SOL    HW177878   1.647   5.859   5.860 -0.9841 -1.9056  1.3269
23844SOL    HW277879   1.528   5.872   5.767  0.7447 -0.9310 -0.8465
23845SOL     OW77880   2.362   0.916   2.569 -0.0479 -0.2622  0.0291
23845SOL    HW177881   2.288   0.973   2.592 -0.3672 -1.5334  2.3653
23845SOL    HW277882   2.338   0.880   2.483 -1.5268  0.3288  0.1636
23846SOL     OW77883   4.836   2.240   0.236 -0.6910  0.0597 -0.4826
23846SOL    HW177884   4.861   2.221   0.326 -0.2862 -1.1606 -0.8374
23846SOL    HW277885   4.899   2.192   0.182 -2.2357 -1.0192 -1.4022
23847SOL     OW77886   6.642   5.325   4.810 -0.3342  0.3016 -0.3020
23847SOL    HW177887   6.631   5.410   4.767 -1.3691  0.8423  0.9584
23847SOL    HW277888   6.640   5.261   4.739  1.0013  1.3462 -1.3333
23848SOL     OW77889   1.092   3.580   3.446  0.1793 -0.3192  0.2657
23848SOL    HW177890   1.008   3.612   3.413  0.5925  0.7898  0.2318
23848SOL    HW277891   1.118   3.511   3.385  0.7347  1.4083 -1.5667
23849SOL     OW77892   5.073   4.574   7.703 -0.1241  0.3602 -0.0467
23849SOL    HW177893   5.095   4.662   7.673 -0.9440  0.6254  0.1159
23849SOL    HW277894   4.987   4.583   7.744  1.0561  0.0844  2.6787
23850SOL     OW77895   1.103   1.593   1.830  0.0242 -0.1730 -0.3118
23850SOL    HW177896   1.060   1.597   1.915 -0.8368  0.1177 -0.7474
23850SOL    HW277897   1.193   1.622   1.847 -0.2142  0.1493  0.4424
23851SOL     OW77898   3.813   6.100   8.783 -0.7869  0.5758  0.4625
23851SOL    HW177899   3.827   6.006   8.796  2.5121  0.5309 -2.0100
23851SOL    HW277900   3.865   6.142   8.851 -1.4760  0.6229  0.9667
23852SOL     OW77901   4.926   5.424   4.736 -0.4650 -0.0133  0.2043
23852SOL    HW177902   4.975   5.500   4.765 -1.0682 -0.1093  1.5388
23852SOL    HW277903   4.862   5.408   4.805 -1.9788 -0.2692 -1.1831
23853SOL     OW77904   2.252   7.632   9.119 -0.5076  0.0283  0.2192
23853SOL    HW177905   2.281   7.548   9.085  0.9418  1.5059 -2.6041
23853SOL    HW277906   2.332   7.675   9.149 -1.1338  0.6819  1.0148
23854SOL     OW77907   1.019   4.089   0.496 -0.1756 -0.1160  0.2305
23854SOL    HW177908   1.001   4.008   0.449  0.6734 -0.2352  0.0953
23854SOL    HW277909   0.956   4.152   0.461 -0.9842 -0.7704  0.4932
23855SOL     OW77910   7.737   8.170   1.052 -0.1021  0.5813 -0.0171
23855SOL    HW177911   7.723   8.222   0.972  2.8635  1.6032  0.0097
23855SOL    HW277912   7.760   8.083   1.020  2.8140  1.4145 -0.4981
23856SOL     OW77913   6.546   5.323   3.012  0.1915  0.0695  0.5133
23856SOL    HW177914   6.498   5.371   2.944 -1.0836 -1.1300  0.5177
23856SOL    HW277915   6.570   5.240   2.970  1.2042  0.1427  0.9131
23857SOL     OW77916   7.644   6.452   4.551 -0.1444 -0.2684 -0.0157
23857SOL    HW177917   7.647   6.356   4.553  1.5545 -0.2545 -0.3730
23857SOL    HW277918   7.557   6.473   4.518 -0.6035 -1.6803  0.2339
23858SOL     OW77919   0.129   3.297   2.716  0.2172  0.0516  0.1722
23858SOL    HW177920   0.102   3.321   2.627 -0.7427  0.7543  0.6362
23858SOL    HW277921   0.212   3.343   2.729 -0.8731  2.0601  0.5214
23859SOL     OW77922   8.252   7.262   8.774 -0.1373  0.5048  0.1345
23859SOL    HW177923   8.308   7.299   8.842  2.0440  1.5654 -2.0744
23859SOL    HW277924   8.227   7.337   8.720 -2.3089 -0.2149  0.0440
23860SOL     OW77925   6.800   7.756   4.858 -0.0402 -0.1560  0.1888
23860SOL    HW177926   6.748   7.786   4.784 -0.8112 -0.1928  0.7095
23860SOL    HW277927   6.865   7.698   4.820 -0.2611  0.0333 -0.4909
23861SOL     OW77928   5.849   6.662   1.823  0.7056  0.3866  0.7997
23861SOL    HW177929   5.869   6.575   1.859 -0.1733 -0.0575  0.2546
23861SOL    HW277930   5.821   6.713   1.898 -0.1302 -0.2341  0.9355
23862SOL     OW77931   2.360   9.050   8.752 -0.4988 -0.3578  0.2761
23862SOL    HW177932   2.391   9.004   8.675  0.4694  1.0056 -0.1835
23862SOL    HW277933   2.278   9.090   8.725  0.5937  1.4108 -0.5931
23863SOL     OW77934   6.181   1.028   8.317  0.2303 -0.3680  0.5720
23863SOL    HW177935   6.113   1.035   8.384 -0.4226  3.3004 -0.2428
23863SOL    HW277936   6.142   0.975   8.248 -1.2043  0.2597  0.8661
23864SOL     OW77937   2.534   8.509   6.462  0.4872  0.2355 -0.0897
23864SOL    HW177938   2.510   8.582   6.404 -1.2327 -0.5750 -0.4775
23864SOL    HW277939   2.577   8.446   6.404  0.5951  0.2901 -0.0691
23865SOL     OW77940   0.994   8.299   2.046  0.1037 -0.5559  0.7964
23865SOL    HW177941   0.967   8.208   2.062 -0.1227 -0.8058 -0.8200
23865SOL    HW277942   1.055   8.293   1.973 -0.7837  0.6893 -0.0794
23866SOL     OW77943   8.509   2.832   3.842  0.5400  0.4999 -0.0623
23866SOL    HW177944   8.450   2.829   3.917  0.5008 -0.9240 -0.1237
23866SOL    HW277945   8.452   2.846   3.767  0.3681 -0.0025 -0.0269
23867SOL     OW77946   5.665   0.214   0.490 -0.6094 -0.4364 -0.1120
23867SOL    HW177947   5.740   0.168   0.528 -1.8793 -0.5562  2.3959
23867SOL    HW277948   5.674   0.199   0.396  3.0054  0.3438 -0.0491
23868SOL     OW77949   5.002   9.170   3.772 -0.2177 -0.2809 -0.1175
23868SOL    HW177950   4.916   9.204   3.748 -0.3236  0.4252  1.1914
23868SOL    HW277951   5.064   9.220   3.719 -0.5673 -0.3872 -0.6329
23869SOL     OW77952   2.982   3.308   1.865  0.1851  0.6659 -0.5098
23869SOL    HW177953   2.977   3.345   1.777 -2.9819  1.0985 -0.2640
23869SOL    HW277954   2.890   3.291   1.889  1.1195 -2.4397  1.4629
23870SOL     OW77955   3.209   1.509   3.779  0.1193 -0.0671 -0.4525
23870SOL    HW177956   3.116   1.522   3.759 -0.3965  0.1895  1.8303
23870SOL    HW277957   3.255   1.549   3.705 -1.5677 -0.4650 -1.7796
23871SOL     OW77958   3.797   2.400   7.911 -0.1812 -0.3861  0.9936
23871SOL    HW177959   3.854   2.411   7.835 -1.4967  0.5721  0.0996
23871SOL    HW277960   3.711   2.382   7.874 -0.7111 -0.5919  2.2779
23872SOL     OW77961   8.628   2.033   6.089  0.2692  0.5635 -0.1642
23872SOL    HW177962   8.629   1.937   6.096 -0.2602  0.6635  3.0547
23872SOL    HW277963   8.655   2.063   6.176  0.1344  3.3575 -1.0020
23873SOL     OW77964   2.535   3.056   3.647 -0.1435  0.0067 -0.0632
23873SOL    HW177965   2.473   3.008   3.592 -0.7903  0.1693  0.5113
23873SOL    HW277966   2.537   3.144   3.610 -0.6628  0.1468  0.2417
23874SOL     OW77967   9.083   5.232   8.454  0.1229 -0.2092  0.1323
23874SOL    HW177968   9.146   5.198   8.391 -0.9996 -0.9671 -0.6040
23874SOL    HW277969   9.056   5.317   8.418  0.3626 -0.0932  0.2184
23875SOL     OW77970   1.998   7.167   6.090 -0.5691  0.1525  0.1242
23875SOL    HW177971   1.912   7.179   6.130 -1.1263 -0.4576 -0.8406
23875SOL    HW277972   1.985   7.097   6.026  0.8945 -0.6841  0.6965
23876SOL     OW77973   4.853   5.632   8.210  0.5522 -0.1119 -0.2378
23876SOL    HW177974   4.797   5.640   8.132 -1.8068  0.4071  1.3887
23876SOL    HW277975   4.798   5.585   8.273  2.6949 -1.2245  0.8777
23877SOL     OW77976   6.349   2.412   1.319 -0.1625  0.5125 -0.2862
23877SOL    HW177977   6.302   2.487   1.356 -1.1346 -0.0405 -0.3853
23877SOL    HW277978   6.296   2.336   1.341  0.4198 -0.0728 -0.8444
23878SOL     OW77979   3.644   5.691   8.984  0.4329 -0.3526 -0.2516
23878SOL    HW177980   3.601   5.650   8.908 -1.1845 -0.9241  0.9142
23878SOL    HW277981   3.695   5.621   9.024  0.0843 -0.4453  0.0332
23879SOL     OW77982   6.230   3.230   1.780  0.0823 -0.1977  0.0057
23879SOL    HW177983   6.205   3.170   1.850 -0.4770 -0.4200 -0.3665
23879SOL    HW277984   6.156   3.291   1.773  0.6165  0.4993  0.3330
23880SOL     OW77985   6.490   6.790   4.135  0.3198  0.4210  0.3599
23880SOL    HW177986   6.403   6.827   4.119  0.9541  1.3283 -1.1960
23880SOL    HW277987   6.476   6.725   4.205 -1.5981  0.5068  0.1065
23881SOL     OW77988   2.610   3.863   7.365 -0.2051  0.0445 -0.2092
23881SOL    HW177989   2.686   3.920   7.376  0.2685 -0.0062 -2.7846
23881SOL    HW277990   2.641   3.790   7.312 -1.9930 -0.0863 -1.1432
23882SOL     OW77991   1.763   6.315   2.684  0.0601 -0.0069 -0.0991
23882SOL    HW177992   1.696   6.379   2.657  0.3067  0.1451 -0.3476
23882SOL    HW277993   1.722   6.269   2.757 -1.1823 -1.4104 -1.5973
23883SOL     OW77994   5.595   8.658   4.705  0.1959  0.3413  0.1892
23883SOL    HW177995   5.646   8.686   4.781  0.3458  1.5573 -0.3498
23883SOL    HW277996   5.641   8.580   4.674  0.2858 -0.0209  1.1716
23884SOL     OW77997   7.514   9.241   6.623 -0.2276 -0.4166 -0.4270
23884SOL    HW177998   7.459   9.163   6.610  0.9135 -1.4030  0.4347
23884SOL    HW277999   7.519   9.251   6.718  0.9684 -0.2772 -0.4996
23885SOL     OW78000   1.508   1.214   5.410 -0.2556  0.0039 -0.0714
23885SOL    HW178001   1.517   1.120   5.399 -1.1236  0.0637 -1.4621
23885SOL    HW278002   1.415   1.227   5.428 -0.1989  0.6316 -0.2119
23886SOL     OW78003   3.286   7.512   2.178  0.1234  0.3813 -0.0369
23886SOL    HW178004   3.368   7.475   2.211  0.7820  2.2011  0.4923
23886SOL    HW278005   3.244   7.550   2.255 -0.4157  0.8945 -0.5743
23887SOL     OW78006   2.177   5.125   1.052 -0.3595  0.3164  0.4695
23887SOL    HW178007   2.103   5.173   1.014  0.4279  1.9016  0.8249
23887SOL    HW278008   2.179   5.152   1.144  1.6255  1.6676  0.1073
23888SOL     OW78009   8.508   6.398   2.216  0.1982 -0.6766 -0.6421
23888SOL    HW178010   8.574   6.435   2.157  0.1011 -0.2954 -0.5106
23888SOL    HW278011   8.559   6.361   2.288  0.2958 -0.8110 -0.7795
23889SOL     OW78012   4.917   8.773   0.004 -0.6346  0.4484  0.0048
23889SOL    HW178013   4.848   8.782   0.070  0.0126 -0.9267  0.9213
23889SOL    HW278014   4.997   8.796   0.051 -0.0846 -1.1569 -0.0675
23890SOL     OW78015   3.984   1.310   4.157 -0.5842 -0.3631 -0.6233
23890SOL    HW178016   4.048   1.246   4.128 -0.1624  0.0478 -0.6234
23890SOL    HW278017   3.968   1.365   4.080 -0.6195 -0.2035 -0.5027
23891SOL     OW78018   7.781   5.589   1.528  0.0952  0.3089  0.4541
23891SOL    HW178019   7.853   5.643   1.494  0.6451 -1.2085 -0.9443
23891SOL    HW278020   7.823   5.530   1.591 -0.3088  0.7752  1.1711
23892SOL     OW78021   3.294   4.568   6.498 -0.5518  0.2120  0.5329
23892SOL    HW178022   3.340   4.651   6.483 -0.7154 -0.0090 -1.4954
23892SOL    HW278023   3.323   4.540   6.585  3.0157  0.2094 -0.5052
23893SOL     OW78024   2.962   7.613   5.864  0.5640 -0.4761  0.1679
23893SOL    HW178025   2.992   7.688   5.813 -2.1311  1.0553  0.6490
23893SOL    HW278026   2.972   7.640   5.955  1.7793 -1.6857  0.4225
23894SOL     OW78027   4.791   4.569   0.267  0.4464 -0.5915 -0.7273
23894SOL    HW178028   4.697   4.563   0.250  0.4215  0.4747 -1.0288
23894SOL    HW278029   4.798   4.573   0.362 -0.2791  4.5386 -0.5984
23895SOL     OW78030   7.323   2.158   3.334 -0.1550 -0.4273 -0.4489
23895SOL    HW178031   7.372   2.194   3.408  0.7683 -1.5399 -0.4898
23895SOL    HW278032   7.270   2.231   3.302  0.1489  0.3215  0.7169
23896SOL     OW78033   1.075   3.028   6.840  0.1874  0.2715 -0.1290
23896SOL    HW178034   1.157   3.054   6.884  0.2492 -1.8872  1.1499
23896SOL    HW278035   1.103   2.966   6.773 -0.2615  0.8816 -0.8888
23897SOL     OW78036   6.057   4.088   3.525 -0.0228 -0.5084 -0.0296
23897SOL    HW178037   6.008   4.062   3.448  1.4599  0.7735 -1.4761
23897SOL    HW278038   6.146   4.060   3.508  0.4228  0.1829  1.0378
23898SOL     OW78039   1.172   6.817   5.254 -0.2967 -0.4585 -0.5313
23898SOL    HW178040   1.172   6.894   5.311 -0.3650 -1.4648  0.8436
23898SOL    HW278041   1.250   6.829   5.199  1.1767 -0.6657  1.4292
23899SOL     OW78042   5.906   2.922   9.197 -0.6138  0.5643  0.3859
23899SOL    HW178043   5.975   2.889   9.139 -2.2580  0.3602 -1.5393
23899SOL    HW278044   5.940   2.907   9.286  0.9381 -1.4079 -0.4692
23900SOL     OW78045   3.872   6.507   8.100 -0.1871 -0.0460 -0.4037
23900SOL    HW178046   3.922   6.528   8.179  1.1326 -2.1306 -0.6192
23900SOL    HW278047   3.831   6.590   8.075 -0.2486  0.7955  2.1647
23901SOL     OW78048   4.065   0.069   2.064  0.0867 -0.2739  0.6263
23901SOL    HW178049   4.007   0.082   2.140 -0.6113  1.5599 -0.1852
23901SOL    HW278050   4.106   0.154   2.050  0.0103 -0.5180 -1.2223
23902SOL     OW78051   3.793   4.314   4.246  0.1660  0.3440 -0.1474
23902SOL    HW178052   3.711   4.273   4.218  0.5246  0.1446 -0.9318
23902SOL    HW278053   3.814   4.272   4.330 -0.5865  0.4787  0.1142
23903SOL     OW78054   8.050   3.486   2.211 -0.0454 -0.3329  0.4452
23903SOL    HW178055   8.040   3.574   2.248  0.3534  0.1140 -0.4625
23903SOL    HW278056   7.988   3.432   2.260 -1.7697  0.8671 -0.3051
23904SOL     OW78057   7.910   0.258   7.609  0.3141 -0.3090 -0.0414
23904SOL    HW178058   7.950   0.171   7.606  2.1489  0.4443  1.1576
23904SOL    HW278059   7.982   0.317   7.630 -0.8405  1.5614 -1.0147
23905SOL     OW78060   6.794   2.409   8.450 -0.4265 -0.4194 -0.4332
23905SOL    HW178061   6.776   2.360   8.530 -0.4224  0.8172  0.3607
23905SOL    HW278062   6.889   2.423   8.452 -0.4643 -0.1461 -0.4969
23906SOL     OW78063   6.425   6.666   8.290  0.3707  0.0404  0.7035
23906SOL    HW178064   6.374   6.717   8.228  0.3659  0.2874  0.9105
23906SOL    HW278065   6.370   6.661   8.368  1.4244  1.9519  1.6471
23907SOL     OW78066   8.978   1.924   1.780  0.6400 -0.5668  0.3388
23907SOL    HW178067   8.929   1.906   1.700 -2.0242 -0.8060  1.8865
23907SOL    HW278068   9.058   1.873   1.771  1.6029  1.2278 -3.1188
23908SOL     OW78069   1.012   3.637   0.917 -0.5074 -0.1894 -0.4605
23908SOL    HW178070   1.084   3.627   0.979 -0.1374 -1.4205 -1.0500
23908SOL    HW278071   1.055   3.646   0.832 -0.9979  1.7063 -0.5525
23909SOL     OW78072   4.931   1.325   0.593  0.6102 -0.0313  0.2419
23909SOL    HW178073   4.917   1.415   0.563  1.2555 -0.3508 -1.0703
23909SOL    HW278074   5.022   1.306   0.570 -0.3667 -2.0718 -2.3544
23910SOL     OW78075   5.935   2.142   2.255 -0.2766  0.4652  0.0814
23910SOL    HW178076   5.898   2.216   2.206 -0.4107  0.1423 -0.3141
23910SOL    HW278077   5.944   2.073   2.190 -0.7164 -0.0628  0.5723
23911SOL     OW78078   6.942   7.840   5.285  0.3703 -0.3156  0.0811
23911SOL    HW178079   6.994   7.808   5.212  0.8100 -0.6116  0.5226
23911SOL    HW278080   6.880   7.769   5.303  0.0214 -0.0947 -0.2354
23912SOL     OW78081   9.063   4.944   8.219 -0.4737 -0.2383  0.1471
23912SOL    HW178082   9.102   4.941   8.132  1.0311 -2.7626  0.8115
23912SOL    HW278083   9.121   5.000   8.270 -0.7957  0.4180 -0.1940
23913SOL     OW78084   6.776   3.802   3.981 -0.6395  0.3893 -0.3919
23913SOL    HW178085   6.856   3.771   4.022 -0.3052  1.5223 -0.1680
23913SOL    HW278086   6.792   3.793   3.887 -0.9481 -1.0559 -0.3406
23914SOL     OW78087   2.448   4.490   1.538  0.5155  0.4779  0.3384
23914SOL    HW178088   2.379   4.424   1.533 -0.2832  1.1842  1.5805
23914SOL    HW278089   2.530   4.441   1.527 -0.1557 -0.3837 -1.0379
23915SOL     OW78090   7.581   0.701   8.219 -0.5694  0.0168  0.2050
23915SOL    HW178091   7.520   0.630   8.240  0.4679 -1.4532 -1.4474
23915SOL    HW278092   7.553   0.731   8.132 -0.0340  0.5590  0.2165
23916SOL     OW78093   2.728   0.539   7.943  0.3624  0.7171 -0.2983
23916SOL    HW178094   2.645   0.577   7.974  0.0608 -0.8394  0.9613
23916SOL    HW278095   2.794   0.576   8.002  0.2003  0.0569  0.3125
23917SOL     OW78096   7.535   0.536   7.498  0.2010 -0.1638  0.3053
23917SOL    HW178097   7.563   0.452   7.534 -0.2956  0.2292  1.6406
23917SOL    HW278098   7.443   0.522   7.473  0.9781 -0.9542 -2.5320
23918SOL     OW78099   7.733   2.366   7.643 -0.1592  0.1243 -0.0147
23918SOL    HW178100   7.801   2.434   7.636  0.1000 -0.0289  0.8668
23918SOL    HW278101   7.731   2.344   7.736 -1.0979 -0.2106 -0.1023
23919SOL     OW78102   3.787   7.093   7.872  0.4042  0.3345  0.2580
23919SOL    HW178103   3.824   7.008   7.848 -1.2581 -0.1906 -0.5698
23919SOL    HW278104   3.864   7.149   7.885  1.7183 -1.9736  3.7660
23920SOL     OW78105   8.935   2.549   3.927 -0.1890 -0.2772  0.0965
23920SOL    HW178106   8.841   2.568   3.928 -0.0402  0.5474 -0.7580
23920SOL    HW278107   8.958   2.538   4.019 -1.1163 -0.4614  0.3166
23921SOL     OW78108   6.214   3.412   5.345 -0.4751 -0.3643 -0.0088
23921SOL    HW178109   6.181   3.343   5.401 -0.2459 -0.9419 -0.5772
23921SOL    HW278110   6.305   3.390   5.329 -0.4012  0.0629 -0.2069
23922SOL     OW78111   7.257   1.488   6.921  0.1464  0.0135 -0.0991
23922SOL    HW178112   7.326   1.497   6.855 -0.2587  1.0837 -0.4014
23922SOL    HW278113   7.299   1.442   6.993  0.5720 -1.2870 -1.1354
23923SOL     OW78114   2.938   8.926   7.565  0.1015  0.0166  0.0671
23923SOL    HW178115   2.879   8.927   7.640  1.6055  0.4055  1.2779
23923SOL    HW278116   2.928   8.838   7.528 -0.6738 -0.1645  0.6932
23924SOL     OW78117   7.668   1.190   1.301 -0.5398 -0.3474  0.1548
23924SOL    HW178118   7.742   1.130   1.300  0.2149  0.5336  0.9997
23924SOL    HW278119   7.693   1.262   1.243 -1.9196 -1.3509 -1.7730
23925SOL     OW78120   8.803   2.394   7.204 -0.6298  0.2529  0.1012
23925SOL    HW178121   8.740   2.343   7.153  0.7872  0.1115 -1.6225
23925SOL    HW278122   8.810   2.477   7.157  0.2233  0.3767  0.4288
23926SOL     OW78123   5.624   8.837   1.987  0.4127 -0.4454 -0.2511
23926SOL    HW178124   5.566   8.839   2.063 -0.3088  0.0042 -0.8099
23926SOL    HW278125   5.707   8.871   2.021 -0.4115  1.5523 -0.0734
23927SOL     OW78126   3.088   5.182   4.012  0.3633  0.1414  0.1739
23927SOL    HW178127   3.000   5.145   4.006 -0.3455  1.6039  0.8723
23927SOL    HW278128   3.101   5.226   3.928  0.7558 -0.7229 -0.2268
23928SOL     OW78129   8.034   0.005   5.193 -0.2702 -0.4441  0.4384
23928SOL    HW178130   8.116   0.048   5.168  0.4437 -1.1965  1.4132
23928SOL    HW278131   8.059  -0.085   5.215 -1.5246 -0.9826 -0.2426
23929SOL     OW78132   4.479   8.114   1.839 -0.4045  0.0691 -0.0762
23929SOL    HW178133   4.416   8.173   1.797 -0.5962  0.3485  0.5850
23929SOL    HW278134   4.484   8.039   1.781 -1.7524 -0.1924  0.1033
23930SOL     OW78135   3.609   1.479   7.735 -0.3750 -0.2126 -0.4668
23930SOL    HW178136   3.579   1.491   7.825 -1.2902  0.2269 -0.8206
23930SOL    HW278137   3.529   1.479   7.683  0.1804  0.0318 -1.3385
23931SOL     OW78138   7.758   5.175   7.270  0.0819  0.7331  0.0738
23931SOL    HW178139   7.734   5.213   7.354 -2.1524 -1.9443  0.8020
23931SOL    HW278140   7.686   5.115   7.249  0.8630  0.7825 -3.4588
23932SOL     OW78141   3.317   2.787   6.305 -0.3702 -0.0218  0.2884
23932SOL    HW178142   3.345   2.724   6.239 -0.9209 -0.7331  0.7165
23932SOL    HW278143   3.345   2.871   6.271 -1.0086 -0.3217 -1.0608
23933SOL     OW78144   2.248   7.662   2.707  0.0868 -0.2707  0.9066
23933SOL    HW178145   2.175   7.690   2.762  0.5164 -0.4377  1.5728
23933SOL    HW278146   2.232   7.705   2.623 -2.0210 -2.1156  0.2684
23934SOL     OW78147   1.046   2.938   0.400  0.0239  0.4105 -0.0514
23934SOL    HW178148   1.058   2.875   0.471  0.8487  0.3477 -0.2360
23934SOL    HW278149   1.007   3.014   0.442  0.0239  0.1813  0.3719
23935SOL     OW78150   8.177   7.968   1.658  0.1905 -0.2692  0.6281
23935SOL    HW178151   8.265   7.946   1.690  0.2313 -0.1606  0.5891
23935SOL    HW278152   8.135   8.013   1.731  0.5208  0.5824  0.3033
23936SOL     OW78153   4.112   5.755   7.640  0.0134 -0.3346 -0.1758
23936SOL    HW178154   4.026   5.712   7.637 -0.2472  0.2089 -0.7538
23936SOL    HW278155   4.103   5.821   7.709  0.4416 -1.2419  0.7734
23937SOL     OW78156   2.555   5.200   2.487  0.2670 -0.4322 -0.4953
23937SOL    HW178157   2.573   5.273   2.546  2.0300  2.0252 -3.7387
23937SOL    HW278158   2.629   5.140   2.499 -0.1101 -0.6747  0.7024
23938SOL     OW78159   4.608   5.663   7.997 -0.4735  0.2276 -0.0725
23938SOL    HW178160   4.611   5.567   7.995  1.1852  0.0957  3.0559
23938SOL    HW278161   4.549   5.683   8.070 -1.1307  1.6376 -0.9569
23939SOL     OW78162   3.565   3.655   2.690  0.0346 -0.1524 -0.7611
23939SOL    HW178163   3.597   3.584   2.635  1.1772  0.7283 -1.2668
23939SOL    HW278164   3.572   3.734   2.636 -0.7293  0.4329 -0.0481
23940SOL     OW78165   4.079   7.223   8.957  0.0867  0.0233  0.4262
23940SOL    HW178166   4.069   7.146   9.014 -2.4752  1.3551  1.9624
23940SOL    HW278167   4.167   7.255   8.977  2.3237 -3.7197 -2.0738
23941SOL     OW78168   5.255   8.465   6.635 -0.4984  0.3989  0.4381
23941SOL    HW178169   5.326   8.490   6.576  0.7715 -3.3535  0.1237
23941SOL    HW278170   5.186   8.431   6.577  0.1973 -2.0286  0.9345
23942SOL     OW78171   2.947   6.236   4.963  0.1032  0.0558  0.6388
23942SOL    HW178172   2.921   6.177   4.892  1.4617 -1.1811  1.0967
23942SOL    HW278173   2.872   6.237   5.022 -1.0425  1.0844 -0.7599
23943SOL     OW78174   7.352   2.795   7.847  0.2015  0.0282 -0.3779
23943SOL    HW178175   7.322   2.715   7.803 -1.0652 -0.3113  1.0065
23943SOL    HW278176   7.313   2.866   7.796 -0.2021 -0.3064 -0.5508
23944SOL     OW78177   0.934   5.489   2.326 -0.0338 -0.0794 -0.3056
23944SOL    HW178178   0.853   5.520   2.367  0.2721  0.1775  0.1119
23944SOL    HW278179   0.947   5.401   2.361  0.0155 -0.0135 -0.1588
23945SOL     OW78180   0.442   7.526   6.833 -0.1128  0.5904 -0.0944
23945SOL    HW178181   0.417   7.479   6.913  1.3377  1.8340  1.1739
23945SOL    HW278182   0.387   7.489   6.765 -1.9102 -0.0554  1.6053
23946SOL     OW78183   5.808   3.762   3.108  0.0027 -0.3983 -0.3355
23946SOL    HW178184   5.759   3.817   3.169 -0.9529 -0.1223 -1.3265
23946SOL    HW278185   5.869   3.713   3.163 -0.5399  0.1576  0.7808
23947SOL     OW78186   5.345   3.793   3.604 -0.1180  0.6775  0.5888
23947SOL    HW178187   5.392   3.750   3.533 -0.0961 -2.6530  2.4197
23947SOL    HW278188   5.403   3.863   3.633  0.4277  1.2669 -1.7962
23948SOL     OW78189   5.272   6.861   7.299 -0.3654  0.1337 -0.2974
23948SOL    HW178190   5.311   6.775   7.314 -2.6418 -0.6954  1.4003
23948SOL    HW278191   5.189   6.843   7.254 -0.8588  1.4356  0.0337
23949SOL     OW78192   2.554   8.962   7.754 -0.7201 -0.2449  0.1121
23949SOL    HW178193   2.586   8.899   7.689 -2.1033 -0.9065  0.0421
23949SOL    HW278194   2.496   9.019   7.705 -0.4543  0.3174  0.4416
23950SOL     OW78195   6.194   0.254   2.394  0.0602 -0.0023  0.0080
23950SOL    HW178196   6.209   0.213   2.479  0.8701 -1.0362 -0.6068
23950SOL    HW278197   6.101   0.241   2.377 -0.1214  0.2591  0.7381
23951SOL     OW78198   9.226   3.539   8.507 -0.1794  0.2248  0.5116
23951SOL    HW178199   9.156   3.490   8.464  1.4234 -2.3481  0.5874
23951SOL    HW278200   9.192   3.556   8.595 -0.3451 -2.0651  0.9640
23952SOL     OW78201   1.187   7.221   1.551  0.1280  0.3602  0.2749
23952SOL    HW178202   1.168   7.194   1.462 -0.5738 -0.6059  0.6974
23952SOL    HW278203   1.257   7.163   1.580 -0.0162  0.3075  0.5292
23953SOL     OW78204   5.277   1.968   7.035  0.1989 -0.0060  0.2684
23953SOL    HW178205   5.306   2.032   7.099  0.1452  0.7889 -0.4830
23953SOL    HW278206   5.198   1.929   7.074 -1.0608  1.9474 -0.1758
23954SOL     OW78207   0.903   0.974   3.794 -0.3186 -0.3320 -0.1163
23954SOL    HW178208   0.941   1.030   3.862 -1.4081 -1.2424  1.2986
23954SOL    HW278209   0.973   0.914   3.769  0.6230  1.1049 -1.0921
23955SOL     OW78210   8.739   7.624   2.594 -0.1696 -0.6021  0.5517
23955SOL    HW178211   8.814   7.565   2.603  0.6951  0.6233  1.8815
23955SOL    HW278212   8.666   7.575   2.631  0.2168 -1.3576  0.3477
23956SOL     OW78213   9.033   9.002   6.134  0.0553 -0.0387 -0.2828
23956SOL    HW178214   8.942   8.976   6.117 -0.3661  1.2265 -0.0949
23956SOL    HW278215   9.071   8.926   6.178 -1.5553  0.1797  1.6462
23957SOL     OW78216   5.238   5.390   7.731 -0.1027  0.5106  0.0634
23957SOL    HW178217   5.271   5.435   7.810  0.3072  2.0441 -0.9286
23957SOL    HW278218   5.158   5.438   7.708 -0.1302  0.1835 -0.5427
23958SOL     OW78219   8.605   3.976   7.155 -0.5870 -0.5351  0.1165
23958SOL    HW178220   8.565   4.029   7.225 -1.3746  0.3000 -0.9209
23958SOL    HW278221   8.629   3.894   7.197 -0.8263  0.0397  1.4184
23959SOL     OW78222   4.849   1.216   2.507  0.2450 -0.3795 -0.0037
23959SOL    HW178223   4.814   1.305   2.509  2.3303  0.4969 -0.4202
23959SOL    HW278224   4.812   1.178   2.427 -0.5037  0.1705  0.0717
23960SOL     OW78225   4.868   2.526   0.419  0.3561  0.5162 -0.6362
23960SOL    HW178226   4.822   2.558   0.341  0.6440 -0.8107 -1.3723
23960SOL    HW278227   4.815   2.453   0.450  0.6511  0.5608 -0.0150
23961SOL     OW78228   1.410   5.643   6.398 -0.4691 -0.1229  0.0204
23961SOL    HW178229   1.482   5.580   6.408 -0.8051 -0.4192  0.6214
23961SOL    HW278230   1.394   5.675   6.486  0.5226  1.7531 -0.4390
23962SOL     OW78231   5.023   7.549   4.260  0.4459  0.2554 -0.6837
23962SOL    HW178232   5.067   7.576   4.340  0.1987 -0.6461 -0.2297
23962SOL    HW278233   5.060   7.606   4.192  2.8468 -0.9411 -0.4766
23963SOL     OW78234   1.036   3.235   8.551 -0.2562  0.1538 -0.3436
23963SOL    HW178235   0.959   3.230   8.495  0.3792 -2.1324 -1.1143
23963SOL    HW278236   1.110   3.229   8.491  0.4691 -0.5037  0.5833
23964SOL     OW78237   8.994   7.491   2.604 -0.1713  0.2302  0.1912
23964SOL    HW178238   9.048   7.558   2.564  0.9983  0.2924  1.7823
23964SOL    HW278239   9.034   7.408   2.577  0.1264  0.2529  0.5568
23965SOL     OW78240   7.351   7.974   3.360 -0.2030  0.0379 -0.4541
23965SOL    HW178241   7.446   7.970   3.351 -0.0207  1.1733  0.6111
23965SOL    HW278242   7.334   7.956   3.453 -0.9697  0.4429 -0.5003
23966SOL     OW78243   4.896   5.809   3.027  0.1066 -0.7618 -0.6616
23966SOL    HW178244   4.912   5.876   2.961 -0.6903 -0.4061 -0.5037
23966SOL    HW278245   4.946   5.836   3.103 -0.9552  0.1790 -0.2719
23967SOL     OW78246   9.092   4.319   4.804 -0.5319  0.0943 -0.4107
23967SOL    HW178247   9.086   4.311   4.709  0.9971 -0.0598 -0.5200
23967SOL    HW278248   9.037   4.249   4.838 -1.2144  0.2535 -1.1821
23968SOL     OW78249   7.089   7.979   6.283  0.0229  0.0504  0.1628
23968SOL    HW178250   7.142   7.991   6.205 -1.4660  2.8223 -0.5595
23968SOL    HW278251   7.013   7.929   6.254 -0.4177  0.8810 -0.1363
23969SOL     OW78252   4.477   3.612   2.266 -0.0281  0.3474  0.3897
23969SOL    HW178253   4.559   3.626   2.314 -0.1389 -0.0423  0.6985
23969SOL    HW278254   4.440   3.533   2.305  0.4506 -0.6611 -1.1406
23970SOL     OW78255   6.795   0.527   5.129 -0.3196  0.1444 -0.1033
23970SOL    HW178256   6.873   0.524   5.184  0.4898  0.9521 -1.1656
23970SOL    HW278257   6.817   0.588   5.059 -2.3163  1.2366  0.1585
23971SOL     OW78258   7.635   5.418   0.029  0.2527  0.1352  0.0242
23971SOL    HW178259   7.562   5.479   0.038  1.2063  1.2163  0.7844
23971SOL    HW278260   7.672   5.438  -0.057  0.5494  0.6327  0.2620
23972SOL     OW78261   2.188   7.567   3.907  0.1240  0.3411  0.3895
23972SOL    HW178262   2.230   7.544   3.824 -1.1716  1.5012 -0.6181
23972SOL    HW278263   2.182   7.484   3.954  1.6721 -0.1903 -0.2858
23973SOL     OW78264   8.115   8.847   7.419 -0.3395 -0.6832  0.9300
23973SOL    HW178265   8.149   8.776   7.363  0.4204 -0.2389  0.8174
23973SOL    HW278266   8.168   8.923   7.396  0.9623 -0.7903  3.2110
23974SOL     OW78267   8.832   7.055   3.312  0.2251 -0.1112  0.0111
23974SOL    HW178268   8.801   7.084   3.226 -0.0313  1.9118  0.7272
23974SOL    HW278269   8.927   7.067   3.308  0.1875  0.2173  0.0917
23975SOL     OW78270   7.985   9.075   5.490 -0.3270 -0.1431  0.1509
23975SOL    HW178271   8.053   9.096   5.554 -1.2210  0.0808  1.0606
23975SOL    HW278272   7.925   9.017   5.538 -0.3985 -0.9132 -0.8527
23976SOL     OW78273   0.801   4.618   8.476  0.7740 -0.6362 -0.1228
23976SOL    HW178274   0.804   4.533   8.432  0.0356 -0.2158 -1.0238
23976SOL    HW278275   0.879   4.665   8.444  0.0465 -0.1928 -1.3272
23977SOL     OW78276   5.078   7.974   8.771 -0.0059  0.2255  0.2506
23977SOL    HW178277   5.109   7.926   8.694  2.6406  1.3808  0.4676
23977SOL    HW278278   5.054   8.060   8.738 -0.8393  0.0736  0.4444
23978SOL     OW78279   5.739   1.843   0.235  0.2064  0.0014 -0.5208
23978SOL    HW178280   5.676   1.910   0.263  0.1031  0.4891 -1.8308
23978SOL    HW278281   5.798   1.833   0.309 -1.7260 -0.8890  0.9907
23979SOL     OW78282   5.699   5.925   1.630 -0.1465  0.0376 -0.5789
23979SOL    HW178283   5.693   5.835   1.597 -0.0475  0.9300 -3.2646
23979SOL    HW278284   5.669   5.980   1.558  0.4935  2.2380  0.7101
23980SOL     OW78285   2.952   4.701   1.240 -0.1117 -0.4793  0.2307
23980SOL    HW178286   2.952   4.622   1.188 -1.9181  0.5130 -1.4016
23980SOL    HW278287   2.914   4.768   1.183 -0.0891  1.1983  2.0621
23981SOL     OW78288   0.965   6.210   6.891  0.3923 -0.1056  0.3604
23981SOL    HW178289   0.993   6.185   6.803  0.5716 -0.6504  0.5718
23981SOL    HW278290   0.908   6.139   6.919 -2.6088  1.6615 -0.6907
23982SOL     OW78291   1.481   0.387   2.610  0.2357  0.1193  0.0480
23982SOL    HW178292   1.397   0.395   2.654  0.2994 -0.1047  0.2105
23982SOL    HW278293   1.541   0.439   2.664  0.4875 -0.8161  0.6818
23983SOL     OW78294   1.520   6.302   4.969  0.0303  0.0784  0.0271
23983SOL    HW178295   1.578   6.303   4.893  0.4559 -0.3273  0.3402
23983SOL    HW278296   1.513   6.209   4.992  1.0503  0.3060  1.3488
23984SOL     OW78297   1.771   3.129   0.247 -0.0159 -1.3276  0.2713
23984SOL    HW178298   1.768   3.174   0.332 -2.3244 -1.2696  0.2391
23984SOL    HW278299   1.690   3.156   0.203  0.8364 -1.8481 -1.7146
23985SOL     OW78300   1.916   2.244   3.840  0.0655  0.1019  0.2653
23985SOL    HW178301   1.889   2.281   3.756 -1.3507  1.3197  1.2140
23985SOL    HW278302   1.850   2.176   3.859 -1.2199  1.6208  1.5739
23986SOL     OW78303   4.581   2.725   7.095 -0.2802 -0.1331  1.1794
23986SOL    HW178304   4.613   2.670   7.166  1.7978  0.0714  0.4801
23986SOL    HW278305   4.644   2.711   7.024 -0.7025  1.7955  0.3649
23987SOL     OW78306   6.844   3.960   6.293  0.1756 -0.3234  0.2693
23987SOL    HW178307   6.774   3.995   6.350  1.9875  0.9170  1.8557
23987SOL    HW278308   6.884   3.890   6.345  0.5889 -0.5123 -0.3017
23988SOL     OW78309   2.052   3.749   1.322 -0.7729 -0.2483 -0.0780
23988SOL    HW178310   1.994   3.818   1.291 -0.1585  0.2624 -0.0992
23988SOL    HW278311   2.140   3.776   1.294 -0.4361 -0.6644  0.5472
23989SOL     OW78312   3.542   7.270   0.331  1.0040 -0.3484  0.0387
23989SOL    HW178313   3.491   7.200   0.371  0.4373  0.9871  1.7920
23989SOL    HW278314   3.569   7.325   0.405  1.5490  1.1963 -1.2526
23990SOL     OW78315   7.744   3.945   4.799 -0.0562  0.3751 -0.1246
23990SOL    HW178316   7.785   4.027   4.769 -0.4154  1.6026  2.4684
23990SOL    HW278317   7.818   3.889   4.822  0.1864  0.1044 -1.4661
23991SOL     OW78318   8.168   9.164   5.679 -0.1603 -0.2257 -0.4139
23991SOL    HW178319   8.167   9.253   5.645  0.2551 -0.5282 -1.2407
23991SOL    HW278320   8.236   9.165   5.747  0.2218 -0.0421 -0.7955
23992SOL     OW78321   0.190   1.380   4.814  0.3039  0.2418 -0.3952
23992SOL    HW178322   0.229   1.386   4.901  0.5267 -0.3969 -0.4456
23992SOL    HW278323   0.149   1.294   4.812 -1.8164  1.1968 -0.0712
23993SOL     OW78324   5.875   1.004   5.644  0.6421  0.1577  0.0566
23993SOL    HW178325   5.945   1.064   5.671 -0.7578  0.7634  2.6451
23993SOL    HW278326   5.845   1.038   5.561  1.9585  1.1670 -0.0429
23994SOL     OW78327   8.302   7.993   4.323 -0.6968  0.3996 -0.3189
23994SOL    HW178328   8.374   8.017   4.382 -0.7721  2.3973 -0.9437
23994SOL    HW278329   8.279   8.076   4.280 -0.9005 -0.8826 -2.8688
23995SOL     OW78330   8.468   4.818   6.713  0.1539  0.4832  0.1847
23995SOL    HW178331   8.394   4.833   6.773 -0.5382 -1.1432 -0.2093
23995SOL    HW278332   8.525   4.757   6.760 -0.8932 -1.6203 -1.1085
23996SOL     OW78333   0.058   3.655   0.294  0.3439 -0.8545  0.0375
23996SOL    HW178334   0.023   3.665   0.205 -0.2243 -1.6192  0.1644
23996SOL    HW278335  -0.004   3.702   0.349  0.3007 -0.9909  0.1060
23997SOL     OW78336   7.481   5.405   2.713  0.0516  0.1460 -0.1277
23997SOL    HW178337   7.499   5.365   2.628 -0.3005  0.5322 -0.3826
23997SOL    HW278338   7.509   5.496   2.704  0.6109  0.0351  0.3741
23998SOL     OW78339   4.035   7.307   5.573 -0.0035  0.4119  0.3460
23998SOL    HW178340   4.037   7.288   5.479  0.7738 -0.3364  0.5029
23998SOL    HW278341   3.953   7.266   5.603  0.0027  0.2067  0.0896
23999SOL     OW78342   8.127   4.992   2.412 -0.2930  0.8069 -0.1795
23999SOL    HW178343   8.209   5.030   2.381  1.2756 -0.5513  1.9975
23999SOL    HW278344   8.127   5.010   2.506 -2.0711  0.0155  0.0078
24000SOL     OW78345   0.991   1.980   4.370  0.5967 -0.4195 -0.0547
24000SOL    HW178346   0.924   2.020   4.314  0.0489 -0.9664  0.1898
24000SOL    HW278347   0.962   2.001   4.459  0.7065 -0.7318  0.0539
24001SOL     OW78348   4.618   2.874   1.202  0.8265 -0.1173  0.4049
24001SOL    HW178349   4.671   2.857   1.125 -1.0023 -1.1322 -0.6824
24001SOL    HW278350   4.530   2.890   1.169  0.4077  1.6418  2.1396
24002SOL     OW78351   8.074   1.395   2.264  0.2771 -0.1459  0.0882
24002SOL    HW178352   7.986   1.359   2.268 -0.0028  0.1851 -1.9341
24002SOL    HW278353   8.131   1.319   2.264 -0.1114 -0.4424 -0.3712
24003SOL     OW78354   3.163   5.073   3.570 -0.4554 -0.5431 -0.0622
24003SOL    HW178355   3.204   5.045   3.488 -1.7723  0.0736 -0.9506
24003SOL    HW278356   3.126   5.159   3.550 -0.2278 -0.0885  1.3802
24004SOL     OW78357   0.966   2.879   7.160 -0.2115 -0.1308 -0.5978
24004SOL    HW178358   0.971   2.974   7.171 -0.9531 -0.2553  1.2508
24004SOL    HW278359   0.921   2.866   7.076  0.5303  1.1199 -1.2086
24005SOL     OW78360   9.051   8.581   4.995 -0.0541  0.0613  0.2113
24005SOL    HW178361   9.065   8.675   4.981 -1.4736  0.5717  1.8708
24005SOL    HW278362   9.113   8.556   5.063  0.8863 -0.4267 -0.7915
24006SOL     OW78363   2.512   7.769   5.212  0.4548  0.0620  0.3360
24006SOL    HW178364   2.514   7.692   5.154  1.9860  0.7120 -0.5600
24006SOL    HW278365   2.430   7.813   5.191 -0.6997 -1.5860  1.2451
24007SOL     OW78366   0.895   0.032   8.222  0.0960  0.1285 -0.8301
24007SOL    HW178367   0.818   0.076   8.258  1.2100  1.1033  0.4569
24007SOL    HW278368   0.864  -0.056   8.198 -1.1939  0.1827  0.5120
24008SOL     OW78369   0.492   4.485   7.580  0.0221 -0.2716 -0.0958
24008SOL    HW178370   0.587   4.475   7.589 -0.1084 -0.6156  1.1528
24008SOL    HW278371   0.481   4.556   7.517  1.1197  0.0368  0.0373
24009SOL     OW78372   7.156   1.219   1.147 -0.1286 -0.4374 -0.2288
24009SOL    HW178373   7.251   1.214   1.134 -0.2572 -0.2888 -1.3359
24009SOL    HW278374   7.125   1.130   1.133 -0.2914 -0.2400 -1.1862
24010SOL     OW78375   7.733   5.826   1.872 -0.1910  0.0096 -0.1137
24010SOL    HW178376   7.742   5.864   1.959 -0.4826 -3.1703  1.4412
24010SOL    HW278377   7.822   5.829   1.836  0.5541 -1.1947  1.5071
24011SOL     OW78378   1.227   7.274   6.422 -0.4410 -0.2749 -0.5824
24011SOL    HW178379   1.308   7.297   6.466 -1.0026 -0.5170  0.6121
24011SOL    HW278380   1.167   7.249   6.493 -1.5438 -0.1428 -1.4394
24012SOL     OW78381   2.355   2.147   3.697  0.7900  0.0064  0.4713
24012SOL    HW178382   2.374   2.157   3.790  1.5073 -0.6499  0.4070
24012SOL    HW278383   2.264   2.117   3.694  0.6202  0.4604  0.9341
24013SOL     OW78384   9.236   3.668   7.461  0.4293  0.4144 -0.6299
24013SOL    HW178385   9.185   3.723   7.521 -0.4038 -0.4470 -0.5395
24013SOL    HW278386   9.327   3.695   7.477 -0.0039  2.2607 -1.1066
24014SOL     OW78387   3.063   1.750   4.553  0.2972 -0.5826  0.5395
24014SOL    HW178388   3.123   1.770   4.624  0.7186  0.0296  0.0230
24014SOL    HW278389   3.082   1.658   4.531  0.3662 -0.6844  1.0104
24015SOL     OW78390   2.793   7.152   6.708  0.2326  0.4753  0.5880
24015SOL    HW178391   2.765   7.062   6.722 -1.1582  0.9531  1.0425
24015SOL    HW278392   2.786   7.193   6.794 -0.6598  1.4044  0.0926
24016SOL     OW78393   4.295   5.530   8.520 -0.2016  0.3056 -0.0094
24016SOL    HW178394   4.325   5.620   8.531 -2.7583  1.5720 -2.1368
24016SOL    HW278395   4.205   5.531   8.554  0.1529 -1.8240  1.1311
24017SOL     OW78396   1.725   4.041   1.525  0.2859  0.2681  0.3839
24017SOL    HW178397   1.744   3.951   1.549 -0.4780  0.1741  0.6905
24017SOL    HW278398   1.789   4.093   1.574  0.6630 -0.1007  0.2824
24018SOL     OW78399   7.014   2.203   0.079 -0.4044  0.2270 -0.6650
24018SOL    HW178400   6.935   2.239   0.118  0.7717  0.1122  2.0134
24018SOL    HW278401   7.025   2.252  -0.003 -3.6736 -0.3999 -1.6275
24019SOL     OW78402   3.172   1.481   3.011 -0.0435  0.5742  0.8066
24019SOL    HW178403   3.254   1.441   3.040 -1.0357 -3.2355 -1.0394
24019SOL    HW278404   3.200   1.557   2.960  2.1953  0.6339  1.9807
24020SOL     OW78405   0.108   3.404   5.545  0.7912 -0.0359  0.5681
24020SOL    HW178406   0.139   3.448   5.625  1.1799 -1.6891  1.3717
24020SOL    HW278407   0.165   3.328   5.536 -0.2515 -0.7356 -0.4097
24021SOL     OW78408   0.683   3.583   3.038  0.0377  0.4095 -0.2567
24021SOL    HW178409   0.658   3.546   3.123 -0.2177  1.2155  0.0295
24021SOL    HW278410   0.681   3.678   3.052  2.0837  0.5479 -0.5649
24022SOL     OW78411   4.597   3.714   1.520 -0.4989  0.1717 -0.2487
24022SOL    HW178412   4.508   3.747   1.503 -0.1441  1.1188 -0.3223
24022SOL    HW278413   4.604   3.714   1.615 -1.4036 -2.2113 -0.1124
24023SOL     OW78414   6.338   0.232   8.962  0.4055  0.3515 -0.1352
24023SOL    HW178415   6.295   0.149   8.983 -1.2947  1.0527 -0.6371
24023SOL    HW278416   6.378   0.261   9.044 -2.1583  0.8127  1.0591
24024SOL     OW78417   2.478   9.090   0.193 -0.2066 -0.4607  0.1067
24024SOL    HW178418   2.420   9.130   0.129  0.4418  0.0867 -0.1489
24024SOL    HW278419   2.532   9.029   0.142 -0.4053 -0.8100  0.3082
24025SOL     OW78420   3.642   2.645   4.893 -0.1903 -0.3419  0.0201
24025SOL    HW178421   3.661   2.578   4.958  0.5265  0.4790  0.6940
24025SOL    HW278422   3.547   2.659   4.898 -0.2363 -0.7954  0.3727
24026SOL     OW78423   3.214   8.820   1.201 -0.9257  0.3898 -0.0867
24026SOL    HW178424   3.154   8.894   1.194 -1.6060 -0.2456 -1.3147
24026SOL    HW278425   3.273   8.843   1.273 -1.5005  1.8430 -0.0543
24027SOL     OW78426   1.922   6.379   4.527 -0.0668 -0.2278 -0.1623
24027SOL    HW178427   1.907   6.453   4.586  0.0169 -1.5411  1.5853
24027SOL    HW278428   1.881   6.406   4.445 -0.6086  1.4937  0.6199
24028SOL     OW78429   7.858   6.388   8.392  0.0775 -0.2343  0.2492
24028SOL    HW178430   7.953   6.378   8.393  0.3685  1.9709 -0.2529
24028SOL    HW278431   7.843   6.479   8.418 -1.6433  0.5610 -2.9746
24029SOL     OW78432   2.170   3.329   2.358 -0.4126 -0.8267  0.3324
24029SOL    HW178433   2.171   3.264   2.428 -0.3965  0.0803  1.1992
24029SOL    HW278434   2.077   3.352   2.349 -0.3938 -0.8143  0.1739
24030SOL     OW78435   7.878   7.349   6.816 -0.6100  0.1137 -0.9085
24030SOL    HW178436   7.817   7.400   6.869 -1.2689  1.1625 -2.5887
24030SOL    HW278437   7.836   7.343   6.730  0.8695 -0.6157 -1.6139
24031SOL     OW78438   1.208   6.536   2.668  0.3998  0.2312 -0.4176
24031SOL    HW178439   1.154   6.458   2.655  0.7091  0.1328 -1.1891
24031SOL    HW278440   1.197   6.558   2.760  0.0414 -0.5278 -0.2706
24032SOL     OW78441   1.649   6.141   7.322  0.9966  0.0134 -1.0839
24032SOL    HW178442   1.632   6.050   7.298 -0.3311 -0.1585  0.4137
24032SOL    HW278443   1.720   6.136   7.387 -0.3211 -0.1503  0.3959
24033SOL     OW78444   8.228   5.559   8.196 -0.0591  0.3298  0.7633
24033SOL    HW178445   8.321   5.547   8.211  0.3216  1.9747 -0.0340
24033SOL    HW278446   8.220   5.567   8.101 -1.1475 -0.6522  0.7408
24034SOL     OW78447   4.521   4.068   5.824 -0.0829  0.0797 -0.1953
24034SOL    HW178448   4.465   3.992   5.837 -0.5156  0.4589  0.2114
24034SOL    HW278449   4.477   4.120   5.757 -0.0952  0.2607 -0.0476
24035SOL     OW78450   5.415   3.314   5.873 -0.2730 -0.0152 -0.1224
24035SOL    HW178451   5.472   3.304   5.949 -0.6424  0.0156  0.1625
24035SOL    HW278452   5.361   3.234   5.873 -0.7008  0.2693  0.0122
24036SOL     OW78453   4.028   6.202   9.003  0.0935  0.5527 -0.3553
24036SOL    HW178454   4.102   6.227   9.059  0.9849 -1.8373 -0.3119
24036SOL    HW278455   4.061   6.213   8.914  0.3579 -0.0097 -0.3366
24037SOL     OW78456   5.033   1.967   7.473  0.4687 -0.2378  0.1757
24037SOL    HW178457   5.037   2.062   7.479  0.8219 -0.2033 -0.5711
24037SOL    HW278458   5.124   1.939   7.476  0.4513 -0.4593 -0.9203
24038SOL     OW78459   7.980   6.220   2.702  1.1041  0.1563 -0.4116
24038SOL    HW178460   8.018   6.296   2.659 -0.3665  0.2252 -1.6597
24038SOL    HW278461   7.952   6.252   2.788  0.5661  1.0109 -0.8980
24039SOL     OW78462   6.963   6.448   3.702  0.6887 -0.3730 -0.2428
24039SOL    HW178463   6.915   6.505   3.761 -0.0444 -0.6803 -0.5244
24039SOL    HW278464   7.054   6.452   3.732  0.2569 -0.8954  1.2064
24040SOL     OW78465   3.350   5.555   6.456  0.0070  0.8030  0.1888
24040SOL    HW178466   3.283   5.582   6.519 -2.0234 -0.3405 -1.3257
24040SOL    HW278467   3.433   5.565   6.503 -1.3061  0.9321  2.6803
24041SOL     OW78468   4.694   7.025   0.076 -0.5200  0.2649  0.1319
24041SOL    HW178469   4.685   6.965   0.150 -1.1848 -0.3544 -0.4381
24041SOL    HW278470   4.630   7.094   0.094 -3.0922 -1.5255 -1.3849
24042SOL     OW78471   7.417   0.329   6.779 -0.2682  0.0331  0.0414
24042SOL    HW178472   7.334   0.311   6.823 -1.5247 -0.0504 -2.2066
24042SOL    HW278473   7.406   0.294   6.691  1.1365  2.4009 -1.1914
24043SOL     OW78474   2.341   8.208   4.188  0.7634 -0.4681  0.1279
24043SOL    HW178475   2.327   8.301   4.205  0.2129 -0.1658 -1.8141
24043SOL    HW278476   2.301   8.164   4.263 -1.5227  0.7720 -0.2723
24044SOL     OW78477   7.536   8.532   1.976 -0.0855 -0.0040 -0.1622
24044SOL    HW178478   7.572   8.621   1.972 -0.8797  0.2932 -1.2887
24044SOL    HW278479   7.441   8.544   1.968 -0.2750 -0.9040  0.6127
24045SOL     OW78480   2.001   0.336   2.440 -0.5690 -0.0778  1.0494
24045SOL    HW178481   2.018   0.290   2.522 -1.2224  1.4198  2.0685
24045SOL    HW278482   2.087   0.358   2.405 -0.3008 -0.1149  1.6877
24046SOL     OW78483   3.412   1.475   6.991  0.0610 -0.3689 -0.3233
24046SOL    HW178484   3.328   1.506   6.957 -0.9660 -1.8927  0.6927
24046SOL    HW278485   3.459   1.443   6.913 -0.3696  0.2866 -0.8654
24047SOL     OW78486   5.405   7.655   5.551 -0.4994 -0.0430 -0.0914
24047SOL    HW178487   5.481   7.713   5.548  0.6330 -1.4689  0.0775
24047SOL    HW278488   5.399   7.628   5.642 -0.5691 -0.7259 -0.2881
24048SOL     OW78489   7.973   3.746   6.470  0.4128 -0.6121 -0.7240
24048SOL    HW178490   8.012   3.663   6.444  1.7299  0.1331 -1.2867
24048SOL    HW278491   7.891   3.751   6.422  0.7258 -1.2167 -1.3378
24049SOL     OW78492   5.183   1.496   6.569 -0.1406  0.2826 -0.8360
24049SOL    HW178493   5.131   1.522   6.493 -1.4551 -1.3713 -0.5768
24049SOL    HW278494   5.133   1.526   6.644 -0.1397 -0.2903 -0.5995
24050SOL     OW78495   3.819   1.007   7.698 -0.0760 -0.5482 -0.5601
24050SOL    HW178496   3.830   1.080   7.760  0.3231 -0.8894 -0.2221
24050SOL    HW278497   3.740   0.962   7.729  0.4552 -1.0701  0.0774
24051SOL     OW78498   3.655   5.884   2.139  0.5247  0.3086  0.2089
24051SOL    HW178499   3.697   5.865   2.223  1.0510 -1.5866 -0.4544
24051SOL    HW278500   3.727   5.895   2.078  0.1094  0.2753 -0.2907
24052SOL     OW78501   4.798   0.681   8.397 -0.1204 -0.5635 -0.4731
24052SOL    HW178502   4.725   0.743   8.391  1.1075  0.9276 -0.7359
24052SOL    HW278503   4.865   0.729   8.446  0.9184 -1.6510 -0.7990
24053SOL     OW78504   2.106   1.646   4.901 -0.3828  0.4471 -0.5059
24053SOL    HW178505   2.061   1.729   4.917  2.1457  1.8670 -0.1622
24053SOL    HW278506   2.186   1.671   4.855  1.1543 -1.6072  0.8733
24054SOL     OW78507   5.726   1.004   6.007 -0.0247 -0.2688  0.4513
24054SOL    HW178508   5.669   1.081   6.014  0.8700  0.4105  0.4419
24054SOL    HW278509   5.701   0.964   5.924 -0.4812  0.0161  0.4424
24055SOL     OW78510   4.823   8.208   6.566 -0.2768 -0.0396  1.0484
24055SOL    HW178511   4.915   8.222   6.543  0.2413 -1.6704  1.9284
24055SOL    HW278512   4.824   8.192   6.660 -1.4080 -0.4792  1.0053
24056SOL     OW78513   8.481   0.487   7.126 -0.0011  0.0752 -0.1998
24056SOL    HW178514   8.558   0.496   7.182  0.2685  0.5134 -0.6286
24056SOL    HW278515   8.462   0.576   7.097  0.7752 -0.3185 -2.0094
24057SOL     OW78516   6.084   1.348   1.596  0.2010 -0.1324 -0.1030
24057SOL    HW178517   6.103   1.434   1.558 -0.8068 -1.1764 -3.3137
24057SOL    HW278518   6.167   1.320   1.634  1.1467  1.3481 -0.9688
24058SOL     OW78519   6.819   4.889   6.350  0.4433  0.4948 -0.6447
24058SOL    HW178520   6.887   4.880   6.417 -0.6650  0.0943  0.4623
24058SOL    HW278521   6.837   4.974   6.308  0.2070  1.5459  1.2803
24059SOL     OW78522   2.978   3.899   8.753 -0.4372 -0.3356  0.2927
24059SOL    HW178523   2.926   3.905   8.833  0.6551 -1.2339  1.0949
24059SOL    HW278524   3.003   3.807   8.748  0.5666 -0.0408 -0.4117
24060SOL     OW78525   7.259   5.890   8.612 -0.1424  0.3837  0.6708
24060SOL    HW178526   7.351   5.864   8.613 -0.1924  0.1936  1.6179
24060SOL    HW278527   7.235   5.891   8.519  0.5530 -0.4903  0.4647
24061SOL     OW78528   7.528   8.533   4.915  0.2688  0.5369  0.1120
24061SOL    HW178529   7.514   8.562   4.824 -0.4038  0.9224  0.3280
24061SOL    HW278530   7.474   8.454   4.923  0.7489  0.1976  0.0239
24062SOL     OW78531   6.827   6.104   1.235 -0.2553  0.1649 -0.2050
24062SOL    HW178532   6.787   6.096   1.148 -0.2826 -2.0075 -0.0528
24062SOL    HW278533   6.755   6.133   1.292 -0.1522  1.9718 -0.9071
24063SOL     OW78534   6.036   7.046   1.766 -0.3305  0.7439 -0.0338
24063SOL    HW178535   5.998   6.988   1.700 -0.0337 -1.1358  1.3609
24063SOL    HW278536   5.980   7.033   1.843  1.0851  0.5782  0.9961
24064SOL     OW78537   5.180   0.288   1.058  0.0231 -0.2190 -0.2942
24064SOL    HW178538   5.133   0.208   1.037  0.8006 -0.5944 -0.6708
24064SOL    HW278539   5.119   0.339   1.111 -0.3547 -1.2094  0.2553
24065SOL     OW78540   0.812   7.014   8.391 -0.3145 -0.0486 -0.0781
24065SOL    HW178541   0.803   7.102   8.354  0.3323  0.3483  0.6812
24065SOL    HW278542   0.807   6.955   8.315  1.3003  0.7692 -0.8734
24066SOL     OW78543   8.382   1.988   1.290  0.1569 -0.0800  0.7721
24066SOL    HW178544   8.463   2.014   1.335 -0.5385  0.9494  1.4726
24066SOL    HW278545   8.333   1.937   1.356 -0.0972 -0.0564  0.6024
24067SOL     OW78546   6.539   1.006   3.343  0.3536  0.1161  0.1542
24067SOL    HW178547   6.521   1.099   3.348  1.3659  0.2736  1.8911
24067SOL    HW278548   6.541   0.977   3.434 -0.2858 -1.6845 -0.3584
24068SOL     OW78549   6.947   0.176   5.181 -0.1969 -0.1885  0.7767
24068SOL    HW178550   6.931   0.184   5.275 -1.6068  1.2357  0.4666
24068SOL    HW278551   6.874   0.224   5.141  0.8924  0.0413 -1.0126
24069SOL     OW78552   1.398   7.051   4.177 -0.4860  0.1664  0.3228
24069SOL    HW178553   1.486   7.044   4.140 -1.8823 -3.1724 -3.0728
24069SOL    HW278554   1.375   6.961   4.202 -4.1609  0.0469 -2.5939
24070SOL     OW78555   0.408   2.444   6.959  0.2663 -0.3809 -0.4323
24070SOL    HW178556   0.328   2.453   7.010  2.2703  0.5212  2.8570
24070SOL    HW278557   0.416   2.350   6.943 -0.6664 -0.6555  0.6041
24071SOL     OW78558   5.055   8.205   7.931 -0.0993  0.0311  0.0765
24071SOL    HW178559   5.039   8.256   8.010  1.0989 -2.0785  1.7686
24071SOL    HW278560   5.106   8.264   7.875 -1.7104  1.8609  0.4242
24072SOL     OW78561   6.909   6.389   5.291 -0.5207  0.5130  0.5565
24072SOL    HW178562   7.001   6.388   5.265 -0.8621  0.5937 -0.6940
24072SOL    HW278563   6.897   6.306   5.339  0.0309  0.1670  0.1090
24073SOL     OW78564   3.234   6.556   5.018 -0.3877 -0.1511  0.3382
24073SOL    HW178565   3.222   6.650   5.030 -2.5881 -0.3295  0.0154
24073SOL    HW278566   3.161   6.516   5.065  0.1641 -1.6828 -0.0332
24074SOL     OW78567   1.026   9.164   0.829  0.1834 -0.2690 -0.7716
24074SOL    HW178568   0.965   9.228   0.867  0.8631  0.8036 -1.4211
24074SOL    HW278569   1.024   9.183   0.735  0.1283 -1.4680 -1.0210
24075SOL     OW78570   3.972   3.937   1.242  0.2611  0.3887 -0.8185
24075SOL    HW178571   3.879   3.947   1.226  0.3224  1.1074 -0.7905
24075SOL    HW278572   3.986   3.843   1.251 -0.7882  0.3613  1.1291
24076SOL     OW78573   0.651   0.122   1.637  0.3865 -0.2004  0.6886
24076SOL    HW178574   0.682   0.047   1.688 -2.5197 -1.1067  1.3330
24076SOL    HW278575   0.636   0.191   1.701 -1.9634 -0.8990  1.0122
24077SOL     OW78576   0.402   6.344   5.709 -0.4077  0.3841 -0.5059
24077SOL    HW178577   0.439   6.390   5.785  1.0584  0.9523 -1.5088
24077SOL    HW278578   0.455   6.375   5.635 -0.0598 -2.1306 -1.3834
24078SOL     OW78579   8.480   6.380   0.736  0.3360  0.1578 -1.0276
24078SOL    HW178580   8.478   6.339   0.650  1.1950  1.1724 -1.5531
24078SOL    HW278581   8.447   6.469   0.722  0.0761  0.2030 -0.2277
24079SOL     OW78582   2.329   0.219   5.778  0.5384  0.4430  0.4766
24079SOL    HW178583   2.365   0.215   5.689 -0.5103  1.9476 -0.0487
24079SOL    HW278584   2.248   0.168   5.773  1.3151 -0.9078  1.0436
24080SOL     OW78585   0.688   1.036   2.455  0.6402  0.6852  0.5316
24080SOL    HW178586   0.596   1.062   2.458  0.0918 -0.8305 -1.0192
24080SOL    HW278587   0.732   1.108   2.410 -0.2738  0.3491 -0.9588
24081SOL     OW78588   8.205   8.544   0.151 -0.0212  0.6446  0.2874
24081SOL    HW178589   8.184   8.633   0.123 -1.4854  0.3081  0.2464
24081SOL    HW278590   8.261   8.555   0.228  1.1960  1.5839 -0.7103
24082SOL     OW78591   6.116   8.859   1.930 -0.1593  0.0006 -0.2163
24082SOL    HW178592   6.068   8.914   1.868  0.5820  0.0274 -0.7765
24082SOL    HW278593   6.180   8.919   1.969  0.2048 -0.3051 -0.3390
24083SOL     OW78594   2.103   1.525   3.574  0.0089  0.2929  0.1792
24083SOL    HW178595   2.111   1.448   3.631 -0.7571 -1.6176 -2.1088
24083SOL    HW278596   2.074   1.595   3.632  0.7222 -1.1246  2.3703
24084SOL     OW78597   1.786   0.630   0.317 -0.0952  0.1932 -0.1742
24084SOL    HW178598   1.699   0.651   0.283 -0.8517 -1.8445  0.3571
24084SOL    HW278599   1.827   0.715   0.334 -2.1086  1.1910 -0.1064
24085SOL     OW78600   4.749   1.881   7.432 -0.2597 -0.2177  0.0649
24085SOL    HW178601   4.709   1.965   7.405 -0.7483  0.3524  2.3547
24085SOL    HW278602   4.842   1.900   7.438 -0.1784 -0.2766 -0.8950
24086SOL     OW78603   2.457   6.270   7.430 -0.0205  0.0910  0.3826
24086SOL    HW178604   2.491   6.198   7.377 -2.2548  0.7246 -2.1110
24086SOL    HW278605   2.422   6.227   7.508  3.3157 -0.8835  1.5095
24087SOL     OW78606   6.805   2.772   7.191 -0.7700  0.9178 -0.4716
24087SOL    HW178607   6.759   2.809   7.116 -0.9674  0.8111 -0.4039
24087SOL    HW278608   6.832   2.684   7.162  1.1242  1.6862 -1.2157
24088SOL     OW78609   6.169   3.285   4.110  0.2434 -0.1668 -0.0074
24088SOL    HW178610   6.128   3.308   4.193  0.3071 -1.2740  0.3462
24088SOL    HW278611   6.207   3.367   4.079 -0.5665  0.4584  0.6008
24089SOL     OW78612   8.141   3.053   8.040 -0.3030 -0.1607 -0.2509
24089SOL    HW178613   8.126   2.959   8.053 -0.2826 -0.1963 -0.4713
24089SOL    HW278614   8.201   3.078   8.110  0.5495 -0.5447 -0.8261
24090SOL     OW78615   5.148   2.162   2.694 -0.3509  1.0885 -0.1614
24090SOL    HW178616   5.146   2.142   2.787  0.1048  0.5156 -0.2713
24090SOL    HW278617   5.162   2.078   2.651  0.8714  1.5211 -0.6673
24091SOL     OW78618   6.640   9.006   9.075 -0.7188  0.1401 -0.1739
24091SOL    HW178619   6.670   8.955   9.150  0.9836 -0.7275 -1.3902
24091SOL    HW278620   6.708   9.072   9.063 -0.7307 -0.0350 -1.2432
24092SOL     OW78621   0.126   5.532   7.646  0.1245 -0.4346 -0.2898
24092SOL    HW178622   0.078   5.614   7.644  0.2974 -0.3259 -2.6172
24092SOL    HW278623   0.199   5.548   7.706  0.5731  1.3873 -1.2542
24093SOL     OW78624   7.893   5.175   1.344 -0.0689 -0.1329  0.0178
24093SOL    HW178625   7.833   5.112   1.383  0.4551 -0.6167  0.0549
24093SOL    HW278626   7.843   5.257   1.340 -0.2402 -0.1407  1.4286
24094SOL     OW78627   0.839   5.501   8.650 -0.1101 -0.0102 -0.3284
24094SOL    HW178628   0.881   5.450   8.720 -1.2727  1.0407  1.2188
24094SOL    HW278629   0.812   5.582   8.693  0.1733  1.1895 -2.3266
24095SOL     OW78630   7.930   4.381   6.126  0.3348 -0.0650 -0.1573
24095SOL    HW178631   7.928   4.288   6.102  0.8550 -0.3300  0.7738
24095SOL    HW278632   7.871   4.388   6.201  0.2785  0.3677 -0.2387
24096SOL     OW78633   6.948   7.238   6.675  0.1866  0.4066  0.3268
24096SOL    HW178634   6.937   7.203   6.763 -0.1312 -1.4771 -0.4102
24096SOL    HW278635   7.034   7.206   6.647 -0.6780 -1.0635 -0.8621
24097SOL     OW78636   0.199   0.794   6.392  0.6582  0.3278  0.0969
24097SOL    HW178637   0.180   0.737   6.466 -2.1827  0.5605 -0.3318
24097SOL    HW278638   0.227   0.734   6.323  0.4271 -0.2443  0.4882
24098SOL     OW78639   0.170   1.997   4.815  0.0386 -0.0022  0.1975
24098SOL    HW178640   0.138   1.944   4.888  0.3141  1.1961  1.2245
24098SOL    HW278641   0.259   2.022   4.841 -0.4423  1.7847  0.2087
24099SOL     OW78642   1.713   3.607   8.481 -0.1690  0.3644 -0.3477
24099SOL    HW178643   1.703   3.674   8.548  1.7053  0.3556 -0.0093
24099SOL    HW278644   1.770   3.647   8.415  0.3301 -0.6090 -0.5292
24100SOL     OW78645   7.353   4.250   7.342  0.0897  0.0630  0.3687
24100SOL    HW178646   7.445   4.244   7.368  0.5645  2.5678 -0.4412
24100SOL    HW278647   7.304   4.233   7.422  1.3463  1.6584  1.5472
24101SOL     OW78648   8.142   0.627   8.084 -0.8915 -0.0741  0.0328
24101SOL    HW178649   8.114   0.594   7.999  1.3311  0.5172 -0.9963
24101SOL    HW278650   8.236   0.641   8.075 -0.9939  2.4056  1.7666
24102SOL     OW78651   5.350   5.813   1.548 -0.3544  0.2710  0.0538
24102SOL    HW178652   5.336   5.888   1.605 -1.3002 -0.2851  0.5581
24102SOL    HW278653   5.325   5.844   1.461 -0.2370  0.6905  0.1680
24103SOL     OW78654   7.495   2.979   7.091  0.4252 -1.1219  1.1529
24103SOL    HW178655   7.586   2.999   7.115  0.3879 -0.3561  0.6683
24103SOL    HW278656   7.464   2.924   7.163  0.9405 -0.5096  1.8614
24104SOL     OW78657   1.675   8.230   1.036 -0.8701 -0.6197  0.0911
24104SOL    HW178658   1.687   8.148   1.084 -2.3027 -0.0905  1.4265
24104SOL    HW278659   1.584   8.253   1.050 -0.0182  2.3066  1.6221
24105SOL     OW78660   3.137   9.223   3.579 -0.0675 -0.2624 -0.0747
24105SOL    HW178661   3.095   9.265   3.653 -2.0041 -1.2396 -0.5656
24105SOL    HW278662   3.143   9.292   3.512  1.1365  0.4527  0.7298
24106SOL     OW78663   0.983   0.331   8.167 -0.0938 -0.1781  0.0677
24106SOL    HW178664   0.974   0.236   8.175 -0.4194 -0.0509  1.3710
24106SOL    HW278665   0.974   0.364   8.256 -1.1274  1.1794 -0.5116
24107SOL     OW78666   6.016   0.170   7.762  0.1198  0.0154 -0.5911
24107SOL    HW178667   6.099   0.132   7.731  0.4667  0.0353  0.2804
24107SOL    HW278668   6.000   0.244   7.705 -0.9849 -1.8464 -2.8842
24108SOL     OW78669   0.620   6.557   6.089 -0.1604  0.3747 -0.3158
24108SOL    HW178670   0.581   6.563   6.177  0.0359 -0.7982 -0.1410
24108SOL    HW278671   0.545   6.550   6.030 -0.3332  2.0216 -0.3498
24109SOL     OW78672   1.494   6.843   5.487 -0.0322 -0.1579  0.1857
24109SOL    HW178673   1.473   6.908   5.420 -1.2700 -1.5089 -0.8146
24109SOL    HW278674   1.539   6.773   5.440  0.4746 -0.4427  1.0685
24110SOL     OW78675   9.203   2.585   1.077 -0.6667 -0.4877 -0.2496
24110SOL    HW178676   9.217   2.541   0.993 -2.2518  1.1387 -1.4188
24110SOL    HW278677   9.174   2.673   1.055  1.4214  0.8999  2.0218
24111SOL     OW78678   2.537   5.907   0.641 -0.2806  0.3764  0.0989
24111SOL    HW178679   2.627   5.900   0.672 -0.2600  1.2481  0.2584
24111SOL    HW278680   2.484   5.908   0.721 -0.4625 -0.4517 -0.0029
24112SOL     OW78681   2.878   5.140   4.240 -0.3225  0.5812  0.2805
24112SOL    HW178682   2.895   5.062   4.292  0.6106  0.1372 -0.6630
24112SOL    HW278683   2.875   5.109   4.149  0.9410  1.7444 -0.2000
24113SOL     OW78684   0.509   1.376   4.174  0.2230 -0.2174 -0.5230
24113SOL    HW178685   0.538   1.339   4.090 -0.2835 -0.0553 -0.7680
24113SOL    HW278686   0.432   1.325   4.198 -0.4774  0.6546 -0.8581
24114SOL     OW78687   0.095   1.193   6.020 -0.3360  0.2043  0.0145
24114SOL    HW178688   0.060   1.104   6.009  3.1406 -1.0569 -3.3224
24114SOL    HW278689   0.174   1.181   6.073 -1.4746  1.9345  2.2416
24115SOL     OW78690   4.351   7.529   8.005 -0.6980  0.2840 -0.1452
24115SOL    HW178691   4.436   7.529   8.049 -0.7245 -1.0623 -0.0418
24115SOL    HW278692   4.356   7.601   7.942  0.4684  0.3139 -0.0357
24116SOL     OW78693   7.614   6.764   3.881 -0.1768  0.0102 -0.2275
24116SOL    HW178694   7.650   6.796   3.964 -0.1076 -2.1945  0.6562
24116SOL    HW278695   7.685   6.713   3.842 -0.8885 -0.7107 -0.6125
24117SOL     OW78696   7.492   0.466   3.678 -0.1905 -0.4144  0.3203
24117SOL    HW178697   7.577   0.510   3.684  1.1582 -2.6314 -0.9329
24117SOL    HW278698   7.450   0.483   3.762  0.9996  1.6746  0.5630
24118SOL     OW78699   7.898   8.182   7.481  0.2076 -0.1884 -0.4853
24118SOL    HW178700   7.942   8.209   7.401  1.2310 -0.5550 -0.0569
24118SOL    HW278701   7.868   8.264   7.521  0.5832  0.0710 -0.7366
24119SOL     OW78702   3.672   3.671   0.579  0.2550  1.0683  0.2409
24119SOL    HW178703   3.588   3.641   0.614  1.3047 -1.9358  0.5265
24119SOL    HW278704   3.649   3.720   0.499 -1.7543 -1.5448 -0.9433
24120SOL     OW78705   3.916   4.104   6.172 -0.3142  0.4028 -0.5113
24120SOL    HW178706   3.980   4.165   6.208  0.3832 -0.3157 -0.5067
24120SOL    HW278707   3.839   4.113   6.229  0.4166 -0.0052  0.5703
24121SOL     OW78708   1.571   2.841   7.060  0.2318 -0.1035  0.1097
24121SOL    HW178709   1.647   2.832   7.003  0.8682 -0.8183  1.0290
24121SOL    HW278710   1.589   2.783   7.134 -1.3411 -0.5029  0.2276
24122SOL     OW78711   8.101   6.922   1.564  0.3905 -0.3439 -0.1101
24122SOL    HW178712   8.107   6.878   1.649  1.2312  0.6556  0.3679
24122SOL    HW278713   8.147   6.864   1.504 -2.0593 -2.1467 -0.3848
24123SOL     OW78714   4.785   3.585   4.114  0.1269  0.0400 -0.1343
24123SOL    HW178715   4.783   3.592   4.018  0.0965 -0.6440 -0.1902
24123SOL    HW278716   4.696   3.608   4.141 -0.1276 -0.6805 -0.3449
24124SOL     OW78717   6.682   3.116   6.126  0.0090  0.0618  0.3055
24124SOL    HW178718   6.663   3.182   6.192 -0.0848  1.2048 -0.8284
24124SOL    HW278719   6.616   3.130   6.058  0.8207 -0.2976 -0.5832
24125SOL     OW78720   4.744   3.588   4.915  0.2741 -0.2417 -0.4828
24125SOL    HW178721   4.683   3.571   4.986 -0.3433  1.1633 -0.6558
24125SOL    HW278722   4.798   3.509   4.911  0.2799 -0.3869  1.4826
24126SOL     OW78723   5.478   1.116   7.538 -0.0817  0.4565  0.1797
24126SOL    HW178724   5.518   1.112   7.452 -1.2029  1.4357 -0.4217
24126SOL    HW278725   5.544   1.080   7.597  0.0733 -1.8065 -1.2680
24127SOL     OW78726   1.288   0.994   1.028  0.2966 -0.0872  0.0494
24127SOL    HW178727   1.368   1.034   1.062 -0.1799  0.7812  0.1794
24127SOL    HW278728   1.217   1.041   1.073 -0.4008  1.6308 -2.6311
24128SOL     OW78729   2.926   6.064   6.227 -0.0051 -0.1428 -0.1609
24128SOL    HW178730   2.996   6.062   6.162 -0.2460 -0.1809 -0.4219
24128SOL    HW278731   2.971   6.081   6.310  0.2742  0.2211 -0.3809
24129SOL     OW78732   6.324   3.877   8.990 -0.2120 -0.2051  0.1485
24129SOL    HW178733   6.283   3.870   8.904 -1.1210 -2.0306  0.6617
24129SOL    HW278734   6.275   3.946   9.035  2.4166  3.2252 -1.8092
24130SOL     OW78735   6.968   6.918   4.469  0.1711  0.4500  0.6394
24130SOL    HW178736   6.892   6.886   4.519  0.3686 -0.0553  0.6273
24130SOL    HW278737   7.015   6.974   4.531 -0.1480  0.6729  0.6843
24131SOL     OW78738   3.060   7.067   5.759  0.3159 -0.0575  0.5328
24131SOL    HW178739   3.032   7.090   5.670  1.6119  0.8701  0.3383
24131SOL    HW278740   2.992   7.007   5.790 -2.4080  2.7302  0.4576
24132SOL     OW78741   4.022   0.568   1.832  0.0416 -0.7345 -0.0044
24132SOL    HW178742   3.983   0.652   1.858 -0.7961 -0.9617 -0.4878
24132SOL    HW278743   3.962   0.534   1.766  1.9562 -0.2912 -2.0850
24133SOL     OW78744   7.339   8.401   7.497  0.0005 -0.1579 -0.3225
24133SOL    HW178745   7.332   8.483   7.449  2.0532  1.1621  1.4283
24133SOL    HW278746   7.336   8.333   7.429 -2.3852  1.2686 -1.7492
24134SOL     OW78747   3.855   0.281   1.145 -0.3148 -0.3901 -0.1232
24134SOL    HW178748   3.832   0.320   1.060 -1.1761  0.5394  0.5161
24134SOL    HW278749   3.814   0.195   1.142 -0.9672 -0.0798 -0.3686
24135SOL     OW78750   7.436   7.429   0.915 -0.0365  0.1027 -0.2560
24135SOL    HW178751   7.417   7.489   0.843 -2.7783 -1.0405 -0.6319
24135SOL    HW278752   7.365   7.444   0.977  0.2078 -1.4955  0.4605
24136SOL     OW78753   1.940   6.167   8.138 -0.0354  0.7376  0.1135
24136SOL    HW178754   1.911   6.076   8.137  1.3598  0.2185  1.8251
24136SOL    HW278755   1.898   6.204   8.215 -1.4150  1.8796 -1.1309
24137SOL     OW78756   7.376   6.444   5.091  0.3082 -0.3075 -0.7583
24137SOL    HW178757   7.438   6.371   5.093  1.1062  0.3151 -1.9933
24137SOL    HW278758   7.424   6.517   5.128 -0.0437 -0.0696 -0.7632
24138SOL     OW78759   3.279   0.841   4.706  0.4616  0.1281 -0.2561
24138SOL    HW178760   3.257   0.766   4.761 -0.3685  0.9867  0.6174
24138SOL    HW278761   3.195   0.869   4.669  0.7579  0.6477 -0.5477
24139SOL     OW78762   6.212   0.361   1.179  0.4753  0.2840  0.3568
24139SOL    HW178763   6.291   0.395   1.221  0.0569  2.0971 -0.2342
24139SOL    HW278764   6.140   0.397   1.230 -0.0325  2.2915 -1.6592
24140SOL     OW78765   2.441   7.940   4.101  0.4475  0.2722  0.5609
24140SOL    HW178766   2.412   8.029   4.121 -0.8278 -0.6687  3.5411
24140SOL    HW278767   2.377   7.906   4.039 -0.2109  0.8041  0.9407
24141SOL     OW78768   0.029   0.874   8.468  0.0800 -0.0566 -0.2361
24141SOL    HW178769   0.055   0.842   8.555 -1.4036  1.7172  0.9371
24141SOL    HW278770  -0.012   0.798   8.426  1.4827 -1.1499  0.2785
24142SOL     OW78771   3.389   3.144   8.539 -0.2299  0.7573  0.0475
24142SOL    HW178772   3.387   3.202   8.463  0.3463  1.2957  0.4233
24142SOL    HW278773   3.408   3.203   8.613 -3.1112  0.6430  1.0003
24143SOL     OW78774   8.609   3.880   8.875 -0.1093 -0.1110 -0.3626
24143SOL    HW178775   8.565   3.800   8.845 -0.6018  0.0294 -0.0287
24143SOL    HW278776   8.606   3.875   8.970 -2.6413  1.5902 -0.2314
24144SOL     OW78777   5.812   3.977   0.735  0.7385  0.2013  0.4515
24144SOL    HW178778   5.793   4.070   0.724 -0.0576 -0.0368 -0.2985
24144SOL    HW278779   5.756   3.949   0.807  0.3878  0.1413  0.1609
24145SOL     OW78780   7.709   8.570   2.408  0.0975 -0.0800 -0.1319
24145SOL    HW178781   7.732   8.574   2.501  0.0089  1.3741 -0.1540
24145SOL    HW278782   7.776   8.623   2.365 -0.3443 -0.0584 -0.8070
24146SOL     OW78783   3.894   4.391   1.635 -0.1952  0.4709 -0.0223
24146SOL    HW178784   3.864   4.452   1.702  0.3843  1.6453 -0.8068
24146SOL    HW278785   3.854   4.422   1.554  0.4348  0.0561 -0.5076
24147SOL     OW78786   6.241   6.846   1.896  0.3172 -0.0124 -0.3243
24147SOL    HW178787   6.176   6.846   1.966  0.7206  0.6471  0.0563
24147SOL    HW278788   6.190   6.841   1.816 -0.2900  1.7204 -0.0881
24148SOL     OW78789   6.265   8.774   2.613  0.4556  0.1701  0.1781
24148SOL    HW178790   6.172   8.781   2.590  0.1124 -1.7819  0.7467
24148SOL    HW278791   6.311   8.773   2.530  0.1224  2.5064 -0.0802
24149SOL     OW78792   2.197   2.061   1.580 -0.3846 -0.6086 -0.2258
24149SOL    HW178793   2.278   2.107   1.558 -1.0926  0.6540 -0.3003
24149SOL    HW278794   2.226   1.983   1.627  0.9205 -0.7998 -1.2647
24150SOL     OW78795   3.467   1.038   7.419 -0.1759  0.2954  0.1487
24150SOL    HW178796   3.538   1.102   7.424  0.3434 -0.2394 -0.2845
24150SOL    HW278797   3.486   0.975   7.489  0.2277 -0.2881 -0.4708
24151SOL     OW78798   9.166   2.227   2.756  0.0472 -0.3061  0.6830
24151SOL    HW178799   9.195   2.138   2.734 -0.4811 -0.6692  1.4278
24151SOL    HW278800   9.109   2.252   2.684 -2.1181 -1.6986  1.7989
24152SOL     OW78801   5.123   7.202   7.981 -0.2595  0.6522  0.1887
24152SOL    HW178802   5.089   7.237   7.898 -0.2660  1.6724  0.6029
24152SOL    HW278803   5.049   7.209   8.041  0.4377  2.2573  0.9218
24153SOL     OW78804   1.316   0.788   1.761 -0.2205  0.0010 -0.8753
24153SOL    HW178805   1.374   0.725   1.720  0.4440  0.6644 -0.9855
24153SOL    HW278806   1.374   0.859   1.790 -0.5488 -0.6676  1.7324
24154SOL     OW78807   1.597   8.835   8.108 -0.2374 -0.5793 -0.1259
24154SOL    HW178808   1.520   8.779   8.109 -0.2130 -0.5988  0.7131
24154SOL    HW278809   1.562   8.924   8.107 -0.2698 -0.5863  0.3949
24155SOL     OW78810   5.676   1.961   3.554 -0.4635  0.0838 -0.3796
24155SOL    HW178811   5.609   2.016   3.513 -1.3796 -0.7546 -0.0529
24155SOL    HW278812   5.658   1.965   3.647 -3.0145 -3.6856 -0.5026
24156SOL     OW78813   0.352   7.458   6.208 -0.0555 -0.7070  0.0696
24156SOL    HW178814   0.403   7.473   6.287 -0.7390  0.7275  0.2634
24156SOL    HW278815   0.297   7.383   6.230 -1.8343  0.9938  1.8061
24157SOL     OW78816   2.163   5.057   3.270  0.0579 -0.1383  0.2697
24157SOL    HW178817   2.117   5.132   3.307  0.2003  0.6529 -1.0693
24157SOL    HW278818   2.166   4.992   3.340 -1.8249  0.3463  0.8497
24158SOL     OW78819   1.377   1.912   0.547  0.2584  0.3633 -0.0584
24158SOL    HW178820   1.395   2.005   0.531 -0.0287  0.2858 -0.9047
24158SOL    HW278821   1.447   1.866   0.500 -0.3199  0.1325 -0.7037
24159SOL     OW78822   4.865   0.820   4.922  0.6086  0.6078  0.2618
24159SOL    HW178823   4.944   0.767   4.912 -0.0604 -0.6873  1.4582
24159SOL    HW278824   4.838   0.805   5.013 -3.1698 -2.1875 -1.0804
24160SOL     OW78825   9.243   1.146   9.091 -0.0221 -0.1060  0.4397
24160SOL    HW178826   9.154   1.149   9.058  0.4720 -1.5535 -1.1761
24160SOL    HW278827   9.262   1.053   9.101  2.1402 -0.0174 -1.8211
24161SOL     OW78828   6.537   1.791   5.728  0.1562 -0.0411  0.9157
24161SOL    HW178829   6.538   1.740   5.809 -0.5177 -0.1460  0.8631
24161SOL    HW278830   6.513   1.880   5.756 -1.1225 -0.3043  0.7216
24162SOL     OW78831   0.828   1.412   1.796 -0.2676  0.2585  0.0139
24162SOL    HW178832   0.752   1.470   1.796 -2.2404 -2.1252  0.9416
24162SOL    HW278833   0.871   1.429   1.880  0.5181  1.9178 -0.6968
24163SOL     OW78834   9.063   3.974   8.210  0.2351  0.0159 -0.3547
24163SOL    HW178835   8.977   3.959   8.248 -1.1546  0.6636 -3.0017
24163SOL    HW278836   9.108   3.890   8.216 -0.3458 -0.2003  1.5047
24164SOL     OW78837   1.880   4.889   6.270  0.1957 -0.0146  0.1300
24164SOL    HW178838   1.787   4.868   6.283  1.0021 -2.3539  3.2875
24164SOL    HW278839   1.921   4.805   6.252  1.8573  0.8147 -0.1058
24165SOL     OW78840   7.248   1.641   7.701  0.6703  0.5968 -0.2221
24165SOL    HW178841   7.191   1.585   7.753  1.0578 -0.2118 -0.6582
24165SOL    HW278842   7.309   1.679   7.764  1.7005 -1.0589 -0.1774
24166SOL     OW78843   5.155   9.205   6.509  0.8383  0.2674 -0.0595
24166SOL    HW178844   5.219   9.138   6.534 -0.4880 -0.9665  0.2000
24166SOL    HW278845   5.070   9.164   6.525 -0.0362  1.9294 -0.1716
24167SOL     OW78846   1.454   8.991   6.517  0.4689  0.3158  0.3612
24167SOL    HW178847   1.432   8.953   6.432 -1.8119  0.5547  0.7742
24167SOL    HW278848   1.378   9.045   6.539  1.0124  0.2752  2.5474
24168SOL     OW78849   2.138   0.564   8.269  0.4922  0.1150 -0.5950
24168SOL    HW178850   2.183   0.533   8.190  0.1766 -0.6029 -0.4994
24168SOL    HW278851   2.127   0.486   8.323 -0.2109  0.4116 -0.2897
24169SOL     OW78852   4.827   3.715   0.733 -0.5801 -0.7523  0.1349
24169SOL    HW178853   4.874   3.665   0.800  1.2474  1.0330  0.3057
24169SOL    HW278854   4.873   3.697   0.652  0.0457  0.5137  0.1839
24170SOL     OW78855   8.973   4.517   2.382 -0.4446 -0.3209 -0.9680
24170SOL    HW178856   8.888   4.524   2.425 -0.1175  1.8760 -0.5611
24170SOL    HW278857   9.006   4.607   2.377  1.7985 -1.0762 -1.2507
24171SOL     OW78858   0.089   6.111   0.144 -0.4535  0.4433  0.7456
24171SOL    HW178859   0.108   6.018   0.148 -0.4173  0.3580 -0.6436
24171SOL    HW278860   0.091   6.131   0.050  1.6715  2.2822  1.0963
24172SOL     OW78861   2.364   5.605   0.176  0.2083  0.4247  0.1277
24172SOL    HW178862   2.284   5.623   0.225 -0.4862 -0.1288 -0.7725
24172SOL    HW278863   2.425   5.673   0.205 -0.2308  0.2445  1.5933
24173SOL     OW78864   3.991   3.259   9.102  0.0239  0.4676  0.8684
24173SOL    HW178865   3.978   3.309   9.021  0.4389 -1.0078 -0.1519
24173SOL    HW278866   3.934   3.302   9.166 -0.4334  1.5815 -0.2326
24174SOL     OW78867   6.078   7.814   8.207  0.1002 -0.3523  0.1450
24174SOL    HW178868   6.116   7.770   8.131 -0.1684 -1.7058  0.7566
24174SOL    HW278869   6.142   7.801   8.277 -0.1366 -0.0509  0.4187
24175SOL     OW78870   5.116   3.397   8.370 -0.2896 -0.2445  0.0545
24175SOL    HW178871   5.192   3.424   8.421  0.5057 -0.6876 -0.8581
24175SOL    HW278872   5.151   3.377   8.283 -1.8810  2.3683 -1.3194
24176SOL     OW78873   4.006   2.555   6.699  0.0830  0.5189  0.3150
24176SOL    HW178874   3.964   2.641   6.704  1.1750  0.9982  2.2212
24176SOL    HW278875   3.954   2.500   6.758  1.1199  0.6993  1.4423
24177SOL     OW78876   7.396   1.558   4.797 -0.1511  0.2100 -0.2302
24177SOL    HW178877   7.403   1.616   4.872 -0.4268  1.9835 -1.5151
24177SOL    HW278878   7.463   1.491   4.812 -0.2367  0.4788  1.5823
24178SOL     OW78879   3.738   8.056   1.483  0.3714  0.0469  0.1202
24178SOL    HW178880   3.713   8.053   1.576  0.2645 -0.5672  0.0803
24178SOL    HW278881   3.690   8.131   1.448  1.2909  0.9707  0.7987
24179SOL     OW78882   0.201   7.270   5.132  0.1602  0.2583  0.2144
24179SOL    HW178883   0.209   7.175   5.143  0.3420  0.4285  1.9196
24179SOL    HW278884   0.143   7.297   5.203 -0.6052  1.3374 -0.7875
24180SOL     OW78885   3.130   4.475   7.407 -0.5986  0.5461 -0.4964
24180SOL    HW178886   3.160   4.400   7.458 -1.7112 -0.5887 -1.4323
24180SOL    HW278887   3.140   4.447   7.316 -2.8791  0.7174 -0.8541
24181SOL     OW78888   1.327   5.277   3.745 -0.6408  0.0507 -0.2462
24181SOL    HW178889   1.387   5.202   3.743 -0.6300  0.0606 -0.3182
24181SOL    HW278890   1.346   5.321   3.827 -0.2366  0.3073 -0.4739
24182SOL     OW78891   8.595   3.504   4.433  0.5131 -0.2031 -0.1729
24182SOL    HW178892   8.631   3.478   4.518  0.7665  1.2375  0.1795
24182SOL    HW278893   8.634   3.590   4.416  0.9847 -0.7634 -2.0748
24183SOL     OW78894   4.497   4.103   2.794 -0.2812  0.7176  0.0049
24183SOL    HW178895   4.519   4.187   2.834 -0.9402 -0.0692  2.1571
24183SOL    HW278896   4.439   4.126   2.721  0.0956  2.1655  0.1296
24184SOL     OW78897   8.431   3.913   4.115  0.0252 -0.5572 -0.8517
24184SOL    HW178898   8.346   3.930   4.075  0.1789 -0.6006 -1.2052
24184SOL    HW278899   8.429   3.960   4.198 -0.1752 -0.1979 -1.0601
24185SOL     OW78900   8.440   3.956   3.753  0.2921 -0.3479 -0.3899
24185SOL    HW178901   8.419   3.863   3.762 -0.6058 -0.3909 -2.3356
24185SOL    HW278902   8.491   3.961   3.673  0.9150  0.7719  0.0645
24186SOL     OW78903   9.152   4.247   8.516 -0.1573  0.1764 -0.6935
24186SOL    HW178904   9.197   4.259   8.599 -1.6972  0.8349  0.0885
24186SOL    HW278905   9.203   4.298   8.453 -0.2328  1.5135  0.3056
24187SOL     OW78906   6.731   0.815   2.780  0.4152 -0.2953 -0.2393
24187SOL    HW178907   6.685   0.740   2.742  1.7586 -1.0593 -0.4385
24187SOL    HW278908   6.791   0.843   2.711  0.9076  0.0770  0.3315
24188SOL     OW78909   5.373   3.531   6.105  0.0886 -0.5830 -0.3375
24188SOL    HW178910   5.435   3.596   6.071  0.2783 -0.8500 -0.5080
24188SOL    HW278911   5.426   3.452   6.116 -0.4318 -1.1150 -1.4576
24189SOL     OW78912   4.823   2.120   0.875  0.2312 -0.4767  0.0176
24189SOL    HW178913   4.845   2.059   0.804  1.2646  0.2636 -0.3215
24189SOL    HW278914   4.730   2.137   0.863  0.1623 -1.1698 -0.5206
24190SOL     OW78915   0.049   5.323   8.851 -0.0042  0.2595  0.8199
24190SOL    HW178916   0.138   5.345   8.877 -0.5097  2.4904  0.8803
24190SOL    HW278917  -0.004   5.342   8.928 -0.5483 -1.0217  0.7757
24191SOL     OW78918   6.294   4.369   0.623 -0.3262  0.1797  0.5607
24191SOL    HW178919   6.268   4.277   0.625  0.8033 -0.2211 -0.8391
24191SOL    HW278920   6.245   4.406   0.549  1.0105  0.0438 -0.4553
24192SOL     OW78921   8.232   0.088   8.983  0.1719  0.2825  0.0962
24192SOL    HW178922   8.301   0.154   8.986 -0.1798  0.6203  2.6183
24192SOL    HW278923   8.151   0.137   8.999 -0.4610 -0.3692 -0.9798
24193SOL     OW78924   6.415   5.806   4.514 -0.2583  0.1777  0.2063
24193SOL    HW178925   6.342   5.842   4.463  0.8985  2.2392 -0.1486
24193SOL    HW278926   6.377   5.786   4.600 -1.4182  0.4034 -0.2316
24194SOL     OW78927   4.835   3.300   4.743  0.0681  0.2989  0.0639
24194SOL    HW178928   4.846   3.283   4.650 -1.6946  1.0804 -0.3329
24194SOL    HW278929   4.908   3.357   4.766 -0.6184  1.8467 -1.3668
24195SOL     OW78930   6.948   1.771   2.484  0.0811  0.1635 -0.1198
24195SOL    HW178931   6.879   1.794   2.546 -0.4030  0.7240 -0.8419
24195SOL    HW278932   6.977   1.684   2.511 -1.0880 -0.1990  0.0505
24196SOL     OW78933   6.566   5.561   2.579  0.4663 -0.6949  0.0037
24196SOL    HW178934   6.515   5.536   2.502 -1.0889  0.7023  0.5406
24196SOL    HW278935   6.511   5.536   2.654  1.5537 -1.2004  0.6579
24197SOL     OW78936   8.375   0.474   4.376  0.0665 -0.0073  0.1075
24197SOL    HW178937   8.293   0.434   4.404  0.4667 -0.7979  0.2023
24197SOL    HW278938   8.443   0.414   4.407  0.6877  0.6735  0.1098
24198SOL     OW78939   7.118   2.982   7.221 -0.5475 -0.0722 -0.0258
24198SOL    HW178940   7.172   2.912   7.258  0.3895 -0.3083 -1.7221
24198SOL    HW278941   7.172   3.060   7.230  0.5273 -0.4460 -2.4607
24199SOL     OW78942   5.767   5.225   7.254 -0.0894  0.3272 -0.7542
24199SOL    HW178943   5.756   5.227   7.349  1.5209  0.3265 -0.5336
24199SOL    HW278944   5.761   5.133   7.230 -0.0663  0.2817 -0.5820
24200SOL     OW78945   3.598   3.264   7.685 -0.2594 -0.4944  0.0530
24200SOL    HW178946   3.661   3.193   7.698 -1.1078 -1.3136 -0.2115
24200SOL    HW278947   3.543   3.262   7.763 -0.0120  0.1683  0.2480
24201SOL     OW78948   2.015   1.820   1.475 -0.3727 -0.1669  1.0207
24201SOL    HW178949   1.953   1.793   1.542  1.6189  1.1705  3.5676
24201SOL    HW278950   2.050   1.903   1.507  1.1416  0.2148 -1.3886
24202SOL     OW78951   2.196   6.912   8.283  0.2659 -0.4728 -0.4392
24202SOL    HW178952   2.228   7.001   8.270 -0.0874 -0.4881 -1.6010
24202SOL    HW278953   2.132   6.899   8.213 -0.0878 -1.4544  0.0375
24203SOL     OW78954   3.516   3.133   1.949 -0.3105 -1.2819  0.1399
24203SOL    HW178955   3.565   3.093   2.021  1.0935 -0.1254 -0.1216
24203SOL    HW278956   3.429   3.149   1.985 -0.3315 -2.8179  0.8238
24204SOL     OW78957   5.937   3.376   5.176 -0.3091  0.2310  0.1171
24204SOL    HW178958   5.913   3.378   5.084 -0.3637 -2.6400 -0.0424
24204SOL    HW278959   6.030   3.354   5.176 -0.4312 -0.3346  0.7211
24205SOL     OW78960   1.778   5.604   6.148  0.0895  0.4869  0.7098
24205SOL    HW178961   1.745   5.518   6.176  0.3900 -0.6510 -2.1157
24205SOL    HW278962   1.873   5.593   6.144  0.0174  0.3344 -1.3715
24206SOL     OW78963   5.024   9.157   0.321  0.2359 -0.1604 -0.2388
24206SOL    HW178964   5.025   9.172   0.226  1.2069 -1.0177 -0.3738
24206SOL    HW278965   5.077   9.078   0.333 -1.8229 -1.4644  0.7844
24207SOL     OW78966   1.767   9.245   3.709  0.4323 -0.1228  0.2860
24207SOL    HW178967   1.727   9.180   3.652  1.0612 -0.5630  0.3363
24207SOL    HW278968   1.695   9.276   3.764  0.1732 -0.9335  0.4135
24208SOL     OW78969   4.111   4.081   2.204  0.2233 -0.1364 -0.1616
24208SOL    HW178970   4.083   4.124   2.285 -0.0160  0.5769 -0.6060
24208SOL    HW278971   4.055   4.003   2.198 -0.6680  0.4912 -0.2887
24209SOL     OW78972   2.792   8.811   0.692  0.2632  0.1496  0.0872
24209SOL    HW178973   2.874   8.768   0.672  0.1409  0.7845 -2.0426
24209SOL    HW278974   2.752   8.828   0.607 -1.1309  1.6628  0.9754
24210SOL     OW78975   1.322   4.807   2.027 -0.9088  0.2767 -0.1432
24210SOL    HW178976   1.250   4.744   2.018  0.7146 -2.1601  2.2811
24210SOL    HW278977   1.323   4.828   2.120  0.4013  1.6972 -0.4431
24211SOL     OW78978   2.871   5.758   9.211  0.5574  0.3428  0.1506
24211SOL    HW178979   2.847   5.851   9.213  1.1957  0.5017  1.0230
24211SOL    HW278980   2.963   5.757   9.235  1.1961 -0.3385 -2.0943
24212SOL     OW78981   7.291   8.383   6.400  0.1941  0.5930  0.1892
24212SOL    HW178982   7.382   8.379   6.369  0.1318 -1.0731  0.1265
24212SOL    HW278983   7.243   8.424   6.328  1.0468  2.5413  0.6798
24213SOL     OW78984   4.820   0.944   4.486  0.8052  0.0042 -0.1597
24213SOL    HW178985   4.779   1.022   4.448  0.1621 -0.0509  0.4170
24213SOL    HW278986   4.812   0.877   4.418 -0.0952 -0.0133 -0.0434
24214SOL     OW78987   5.341   3.201   6.266 -0.2898  0.3644  0.1039
24214SOL    HW178988   5.409   3.219   6.330  0.1989 -0.3516 -0.1980
24214SOL    HW278989   5.384   3.215   6.181 -0.1778 -1.1647 -0.1151
24215SOL     OW78990   4.185   7.813   7.565 -0.0431  0.0351  0.5940
24215SOL    HW178991   4.244   7.802   7.490 -0.3131  0.7524  0.2668
24215SOL    HW278992   4.113   7.752   7.548 -0.6147  0.9193 -0.2606
24216SOL     OW78993   8.883   7.017   0.992  0.3019  0.2005  0.6039
24216SOL    HW178994   8.829   6.977   1.060 -0.6803  1.7754  0.8129
24216SOL    HW278995   8.962   7.045   1.038  0.4187 -0.3182  0.7217
24217SOL     OW78996   6.193   4.480   9.160  0.0513 -0.0424 -0.5087
24217SOL    HW178997   6.155   4.489   9.073  1.3607 -0.1243 -1.1135
24217SOL    HW278998   6.257   4.409   9.151  0.2151 -0.0348  0.5126
24218SOL     OW78999   6.250   2.359   0.133  0.8817  0.5828  0.1195
24218SOL    HW179000   6.340   2.378   0.106  0.6249  0.7622 -0.6245
24218SOL    HW279001   6.200   2.436   0.106  0.2570 -0.1074 -0.7692
24219SOL     OW79002   7.008   5.901   1.323  0.2205 -0.0869 -0.4444
24219SOL    HW179003   6.971   5.990   1.322  0.4479  0.0201  0.5033
24219SOL    HW279004   6.932   5.844   1.338  0.3065  0.0758  0.6783
24220SOL     OW79005   8.806   7.220   6.527 -0.1717 -0.5635  0.1007
24220SOL    HW179006   8.818   7.161   6.453  2.9158  1.7318 -1.4603
24220SOL    HW279007   8.718   7.257   6.514  0.2092 -0.3535 -2.3603
24221SOL     OW79008   4.065   6.355   2.154  0.1416 -0.2907 -0.7326
24221SOL    HW179009   4.096   6.278   2.108  0.8168  0.8203 -2.2008
24221SOL    HW279010   4.099   6.429   2.105 -1.5446  0.9785 -0.1200
24222SOL     OW79011   8.179   1.431   3.997 -0.0705  0.1917  0.1408
24222SOL    HW179012   8.152   1.384   3.917  0.5471 -1.4449  0.8591
24222SOL    HW279013   8.231   1.505   3.964 -0.1033 -0.2582 -0.9912
24223SOL     OW79014   8.211   2.016   2.726 -0.0755  0.0812  0.4655
24223SOL    HW179015   8.170   1.982   2.647  0.5844 -0.8127  0.4959
24223SOL    HW279016   8.294   2.053   2.696 -0.5546  1.2409  0.5083
24224SOL     OW79017   6.652   6.976   6.930  0.0845  0.3925  0.2008
24224SOL    HW179018   6.689   7.022   7.005  1.4517  0.7323 -0.6355
24224SOL    HW279019   6.560   6.963   6.952  0.8046 -1.0681  2.6463
24225SOL     OW79020   0.226   7.657   8.484  0.4786  0.1796  0.2765
24225SOL    HW179021   0.215   7.741   8.529  1.7721  0.7585 -0.4441
24225SOL    HW279022   0.164   7.661   8.411  0.4561  0.4724  0.3075
24226SOL     OW79023   8.021   3.948   5.417 -0.2446  0.2855  0.2793
24226SOL    HW179024   7.938   3.928   5.373  1.2342 -1.7117 -1.7834
24226SOL    HW279025   8.031   3.879   5.483  0.9672 -1.1289 -1.2967
24227SOL     OW79026   0.901   9.113   8.872  0.1905  0.6478 -0.0013
24227SOL    HW179027   0.963   9.185   8.873 -0.6683  1.4347  1.9689
24227SOL    HW279028   0.909   9.072   8.958 -0.4935 -0.5919 -0.4906
24228SOL     OW79029   9.173   4.088   1.973 -0.1864 -0.3779  0.0633
24228SOL    HW179030   9.184   4.152   1.903 -0.7321 -1.0159 -0.6235
24228SOL    HW279031   9.177   4.003   1.929 -0.3820 -0.7904  0.8227
24229SOL     OW79032   4.471   2.347   3.645 -0.0430  0.3631  0.2384
24229SOL    HW179033   4.470   2.275   3.582 -1.4584  0.1949  0.4156
24229SOL    HW279034   4.555   2.339   3.689  0.3668 -0.3922 -0.6301
24230SOL     OW79035   3.117   2.623   3.107 -0.4086 -0.1924 -0.0928
24230SOL    HW179036   3.175   2.565   3.157 -0.1599  1.6204  1.8904
24230SOL    HW279037   3.029   2.596   3.131 -0.4399 -1.9360 -1.9034
24231SOL     OW79038   2.200   4.955   8.606 -0.5008 -0.2433 -0.4525
24231SOL    HW179039   2.145   4.890   8.562 -0.6904 -1.3586  1.3469
24231SOL    HW279040   2.138   5.025   8.629 -0.6004 -0.1625 -0.9314
24232SOL     OW79041   2.259   1.821   1.720  0.2411  0.2107  0.2025
24232SOL    HW179042   2.249   1.748   1.659 -1.0263  0.2310  0.3654
24232SOL    HW279043   2.351   1.815   1.748  0.3401 -0.9246 -0.2743
24233SOL     OW79044   5.723   5.479   0.756 -0.1049  0.0125  0.7437
24233SOL    HW179045   5.743   5.565   0.795 -0.0963  1.6155 -2.4752
24233SOL    HW279046   5.628   5.478   0.747 -0.1509 -0.5788  1.2119
24234SOL     OW79047   2.589   0.701   6.680 -0.1004 -0.1039  0.6030
24234SOL    HW179048   2.677   0.740   6.676  0.1869 -0.8147 -0.6852
24234SOL    HW279049   2.541   0.744   6.609 -1.0311  0.7827  1.7384
24235SOL     OW79050   8.201   3.359   4.904  0.1113  0.0136 -0.2361
24235SOL    HW179051   8.146   3.341   4.980 -0.1264  0.3550 -0.3275
24235SOL    HW279052   8.140   3.372   4.832  0.3507 -1.2705 -0.7094
24236SOL     OW79053   7.465   6.607   6.934 -0.6166  0.3562 -0.4540
24236SOL    HW179054   7.530   6.676   6.944 -1.6133  1.2691 -0.0562
24236SOL    HW279055   7.381   6.653   6.938 -1.3125 -0.9557  0.4184
24237SOL     OW79056   0.328   6.867   4.611 -0.0020  0.0763 -0.2536
24237SOL    HW179057   0.321   6.786   4.662  3.0645  0.0024  0.2618
24237SOL    HW279058   0.321   6.838   4.520 -1.4327 -0.3594 -0.0357
24238SOL     OW79059   0.711   3.445   8.778 -0.2737 -0.6141  0.1875
24238SOL    HW179060   0.705   3.541   8.777  2.0321 -0.3911  0.1203
24238SOL    HW279061   0.728   3.422   8.686  0.1217 -0.9827  0.3523
24239SOL     OW79062   3.210   0.107   1.325 -0.4346 -0.2189  0.3391
24239SOL    HW179063   3.195   0.022   1.368 -0.2741  1.0703  3.1953
24239SOL    HW279064   3.260   0.157   1.389  0.6509  1.6176 -1.8162
24240SOL     OW79065   8.601   3.320   2.333 -0.1750 -0.4168 -0.0078
24240SOL    HW179066   8.671   3.373   2.371  0.6047 -0.3144 -1.5149
24240SOL    HW279067   8.572   3.264   2.404  0.4069  0.5899  1.0541
24241SOL     OW79068   6.272   1.200   8.883 -0.2054  0.2715  0.2421
24241SOL    HW179069   6.264   1.217   8.977 -3.2266 -0.5729  0.2564
24241SOL    HW279070   6.361   1.226   8.861  0.4097  1.0460  3.2144
24242SOL     OW79071   3.567   7.818   6.344  0.0759  0.0504 -0.3338
24242SOL    HW179072   3.586   7.873   6.420 -1.1928  0.4798 -0.3153
24242SOL    HW279073   3.576   7.728   6.376  1.5318  0.2070 -0.2074
24243SOL     OW79074   6.330   1.684   4.894 -0.2423  0.8205  0.3227
24243SOL    HW179075   6.264   1.679   4.963  1.3700  0.3176  1.9271
24243SOL    HW279076   6.347   1.778   4.884 -0.7334  0.9156  0.3472
24244SOL     OW79077   1.834   2.148   2.447  0.1320 -0.0358  0.5371
24244SOL    HW179078   1.916   2.172   2.490  0.4354 -0.0043 -0.0354
24244SOL    HW279079   1.823   2.055   2.464  0.5558 -0.1505  0.1858
24245SOL     OW79080   7.382   6.558   8.930 -0.1489  0.3411 -0.7464
24245SOL    HW179081   7.442   6.632   8.936 -0.5140  0.6692 -1.0537
24245SOL    HW279082   7.390   6.514   9.014 -0.0920  0.8622 -0.4713
24246SOL     OW79083   0.690   3.980   0.612  0.1061 -0.4165  0.4575
24246SOL    HW179084   0.677   3.997   0.706 -1.6141 -0.1762  0.2190
24246SOL    HW279085   0.777   3.942   0.606  0.6537  0.4788  2.0396
24247SOL     OW79086   4.248   1.840   4.865 -0.1851 -0.2359 -0.0546
24247SOL    HW179087   4.242   1.928   4.901  0.5336  0.5405 -1.7153
24247SOL    HW279088   4.325   1.842   4.808  0.1124 -2.0811  0.2117
24248SOL     OW79089   9.102   2.091   8.079 -0.2180 -0.2219  0.2217
24248SOL    HW179090   9.027   2.033   8.065  0.2905 -0.4449 -1.9474
24248SOL    HW279091   9.105   2.146   8.001  1.4373  0.2842  0.6018
24249SOL     OW79092   4.072   3.586   2.485  0.1604 -0.1655  0.0987
24249SOL    HW179093   3.992   3.607   2.437 -1.4162 -1.1824  2.1322
24249SOL    HW279094   4.079   3.491   2.478  0.7111 -0.1696  0.6626
24250SOL     OW79095   5.003   8.342   0.645 -0.6903 -0.2272  0.0908
24250SOL    HW179096   5.014   8.389   0.562  0.5317 -0.2466  0.2269
24250SOL    HW279097   5.070   8.379   0.702 -0.8222 -0.9626  0.7355
24251SOL     OW79098   6.087   5.955   6.988  0.3044  0.1712  0.3913
24251SOL    HW179099   6.027   6.017   7.031  0.9747  0.3473  1.1089
24251SOL    HW279100   6.159   6.010   6.958  1.3636 -0.3438  1.8636
24252SOL     OW79101   5.756   4.670   1.563  0.5650  0.3360 -0.2928
24252SOL    HW179102   5.827   4.721   1.524  0.1905  0.6221 -0.5992
24252SOL    HW279103   5.771   4.581   1.530  1.2549  0.2286  0.2980
24253SOL     OW79104   0.257   1.798   8.069  0.1619 -0.2861 -0.4616
24253SOL    HW179105   0.307   1.879   8.059  0.8885 -0.5985  0.4738
24253SOL    HW279106   0.220   1.804   8.157 -0.8725 -0.3957 -0.8689
24254SOL     OW79107   6.016   4.042   4.095 -0.1496 -0.6808 -0.0052
24254SOL    HW179108   6.092   4.091   4.125 -1.1443  0.6168  0.5003
24254SOL    HW279109   6.051   3.975   4.037  1.3334  0.0848 -0.0202
24255SOL     OW79110   1.386   9.163   3.561  1.1839 -0.6848 -0.0346
24255SOL    HW179111   1.424   9.130   3.642  1.0483 -0.9019 -0.0595
24255SOL    HW279112   1.349   9.248   3.585  1.4655 -0.5830  0.0463
24256SOL     OW79113   0.185   1.385   6.282  0.0144 -0.2163  0.1605
24256SOL    HW179114   0.235   1.328   6.225 -0.2478  0.1943 -0.4849
24256SOL    HW279115   0.095   1.353   6.276 -0.2563  0.6708 -0.7380
24257SOL     OW79116   4.914   7.455   9.094  0.3918  0.2523  0.6247
24257SOL    HW179117   4.952   7.401   9.163  0.0137  0.4129  0.9590
24257SOL    HW279118   4.821   7.433   9.094  0.2116  0.9747  0.8367
24258SOL     OW79119   7.289   4.151   6.476 -0.5732 -0.2744  0.1092
24258SOL    HW179120   7.287   4.106   6.392  0.9364 -0.7052  0.2807
24258SOL    HW279121   7.209   4.123   6.521 -0.2810 -1.8219 -0.2872
24259SOL     OW79122   8.570   0.554   6.490 -0.4167  0.0512 -0.3252
24259SOL    HW179123   8.600   0.464   6.503 -1.2635 -0.3215 -0.8971
24259SOL    HW279124   8.476   0.551   6.508 -0.5210  0.7390 -0.7363
24260SOL     OW79125   1.966   8.360   1.063  0.2041 -0.8919  0.4699
24260SOL    HW179126   1.976   8.348   1.158  1.0430 -0.8534  0.3977
24260SOL    HW279127   1.875   8.385   1.051 -0.0022 -1.2447  1.2347
24261SOL     OW79128   5.412   7.062   7.427  0.4415  0.0518 -0.1493
24261SOL    HW179129   5.391   7.037   7.517 -4.2931  2.1828 -0.3404
24261SOL    HW279130   5.373   6.994   7.373  0.3547  0.4345 -0.5768
24262SOL     OW79131   8.280   4.886   6.903 -0.0330  0.4274  0.4711
24262SOL    HW179132   8.267   4.816   6.967  0.7907  0.7482  1.0112
24262SOL    HW279133   8.236   4.962   6.941 -1.8605 -0.0264 -0.6117
24263SOL     OW79134   4.235   3.876   8.390  0.0771 -0.3719 -0.1441
24263SOL    HW179135   4.223   3.921   8.473  2.0241  0.6414 -0.3465
24263SOL    HW279136   4.170   3.914   8.332  0.0508  0.3952  0.3696
24264SOL     OW79137   1.572   8.946   2.360  0.3474 -0.8719 -0.3926
24264SOL    HW179138   1.650   8.953   2.415  0.6420 -1.2411 -0.7510
24264SOL    HW279139   1.513   9.014   2.392  0.2810 -1.4440  0.7363
24265SOL     OW79140   4.793   6.246   9.013  0.3784  0.2607  0.4184
24265SOL    HW179141   4.823   6.255   9.103 -0.8709  0.0230  0.8775
24265SOL    HW279142   4.860   6.291   8.961  1.8661 -0.8320  1.3044
24266SOL     OW79143   3.828   0.202   4.070 -0.1230 -0.1387  0.0624
24266SOL    HW179144   3.741   0.175   4.040  0.5178 -3.4425  0.7479
24266SOL    HW279145   3.821   0.297   4.082 -3.6331 -0.2803  0.1685
24267SOL     OW79146   8.258   0.623   1.054 -0.2110  0.5323  0.3319
24267SOL    HW179147   8.232   0.687   0.988  0.3071  0.6267  0.2132
24267SOL    HW279148   8.255   0.672   1.137  4.6048  2.2231 -0.1406
24268SOL     OW79149   3.776   1.613   0.147 -0.5953  0.2462 -0.5963
24268SOL    HW179150   3.752   1.703   0.127 -2.5776  0.0874  0.7136
24268SOL    HW279151   3.786   1.570   0.062 -1.8849  1.1790 -1.2533
24269SOL     OW79152   2.222   0.965   0.105 -0.0909 -0.0533 -0.1107
24269SOL    HW179153   2.218   1.017   0.024 -2.4184  2.2130  1.2871
24269SOL    HW279154   2.304   0.992   0.147 -1.3946  3.0526  0.7485
24270SOL     OW79155   2.763   8.768   1.276  0.3330 -0.0613  1.0409
24270SOL    HW179156   2.724   8.814   1.202  0.7942 -0.7834  0.3345
24270SOL    HW279157   2.781   8.680   1.243  2.3477  0.1689  1.3845
24271SOL     OW79158   0.735   0.263   5.259  0.3629 -0.0669 -0.5904
24271SOL    HW179159   0.747   0.226   5.346  2.2967  1.1114 -0.3051
24271SOL    HW279160   0.682   0.198   5.212 -1.2297 -0.4537  1.6008
24272SOL     OW79161   0.496   1.706   9.099  0.3838  0.2542  0.1160
24272SOL    HW179162   0.455   1.648   9.163 -1.4778 -0.2280 -1.4427
24272SOL    HW279163   0.435   1.779   9.089  0.1179 -0.1683 -1.8046
24273SOL     OW79164   1.729   3.033   1.091  0.3198 -0.1661  0.3585
24273SOL    HW179165   1.673   3.009   1.165  0.2263  0.0918  0.3705
24273SOL    HW279166   1.678   3.007   1.014  0.3267 -0.2394  0.3787
24274SOL     OW79167   0.217   8.643   5.510 -0.6493 -0.4353  0.1255
24274SOL    HW179168   0.167   8.566   5.539 -0.9362 -0.6054 -0.7714
24274SOL    HW279169   0.286   8.606   5.455 -0.2916 -0.1061  0.3580
24275SOL     OW79170   8.047   8.600   0.404  0.1971 -0.1855 -0.7620
24275SOL    HW179171   8.016   8.632   0.319 -2.0652 -1.9413 -0.7091
24275SOL    HW279172   7.975   8.617   0.464 -0.4901 -3.6262 -0.4034
24276SOL     OW79173   5.278   0.254   9.240  0.3113 -0.2991 -0.1776
24276SOL    HW179174   5.356   0.272   9.188  1.1663 -0.1972  1.1126
24276SOL    HW279175   5.302   0.181   9.296 -0.9223 -1.0536 -0.5945
24277SOL     OW79176   3.072   2.049   4.737 -0.0079 -0.3681 -0.4385
24277SOL    HW179177   3.163   2.021   4.729  0.5952  0.7792  1.6307
24277SOL    HW279178   3.030   1.981   4.789 -0.0296 -0.3332 -0.4098
24278SOL     OW79179   6.824   2.194   3.822 -0.3101 -0.2256 -0.4389
24278SOL    HW179180   6.753   2.188   3.885 -1.1773 -1.2765 -1.4755
24278SOL    HW279181   6.866   2.278   3.840 -0.2264 -0.7090  1.8263
24279SOL     OW79182   7.548   2.224   6.656 -0.6683 -0.2391 -0.6298
24279SOL    HW179183   7.482   2.289   6.681 -0.8470 -0.6789  0.0876
24279SOL    HW279184   7.630   2.273   6.652 -0.4898 -0.2288  1.5688
24280SOL     OW79185   8.910   0.239   2.253  0.4634 -0.1711  0.2778
24280SOL    HW179186   8.960   0.312   2.218 -3.2356  2.2609 -0.4919
24280SOL    HW279187   8.946   0.162   2.208  2.8099  1.4775 -0.8729
24281SOL     OW79188   9.181   1.338   8.219 -0.1349  0.4158 -0.6576
24281SOL    HW179189   9.155   1.390   8.142  0.4030  1.2664 -0.2900
24281SOL    HW279190   9.175   1.400   8.292 -1.0422 -0.4973  0.0666
24282SOL     OW79191   2.755   4.110   1.861 -0.6035  0.3875  0.2859
24282SOL    HW179192   2.750   4.131   1.954 -0.7322 -0.7552  0.5432
24282SOL    HW279193   2.785   4.019   1.858 -2.0649 -0.1010 -0.7368
24283SOL     OW79194   9.134   2.205   0.279  0.3284  0.2889 -0.1597
24283SOL    HW179195   9.162   2.216   0.188  2.6509  1.3456  0.5924
24283SOL    HW279196   9.186   2.131   0.311  0.0296  0.3477  0.4790
24284SOL     OW79197   5.474   7.617   4.215  0.2257  0.3070 -0.1794
24284SOL    HW179198   5.504   7.687   4.156 -1.2271  0.5528 -0.6561
24284SOL    HW279199   5.402   7.576   4.168  0.1913 -0.6418  0.6915
24285SOL     OW79200   7.606   0.483   2.582  0.6951 -0.6395  0.2459
24285SOL    HW179201   7.648   0.440   2.508  2.6471  1.3753  0.0386
24285SOL    HW279202   7.620   0.577   2.565 -1.3532 -0.0016  1.7388
24286SOL     OW79203   9.066   5.451   8.729 -0.0651  0.7337 -0.0285
24286SOL    HW179204   9.145   5.400   8.745  0.2010  1.0951 -0.1795
24286SOL    HW279205   9.081   5.494   8.645 -0.8610 -0.0214 -0.5717
24287SOL     OW79206   5.440   0.511   4.357 -0.2746 -0.2053  0.1366
24287SOL    HW179207   5.412   0.565   4.283 -0.6832 -1.3269 -0.5557
24287SOL    HW279208   5.372   0.444   4.364 -0.3400 -0.0137  1.6559
24288SOL     OW79209   6.747   3.274   6.925 -0.3279 -0.0231  0.1167
24288SOL    HW179210   6.831   3.228   6.922 -0.8643 -0.9628 -1.0974
24288SOL    HW279211   6.732   3.289   7.019 -0.8789 -3.8318  0.8279
24289SOL     OW79212   7.549   0.398   8.596  0.6259  0.6473  0.3183
24289SOL    HW179213   7.467   0.382   8.551  0.5439  1.3127  0.2174
24289SOL    HW279214   7.612   0.338   8.556  0.0939 -0.1557  0.6810
24290SOL     OW79215   3.004   0.309   4.847  0.3638  0.5147  0.4274
24290SOL    HW179216   3.013   0.216   4.826 -1.6977 -0.1975  2.3738
24290SOL    HW279217   3.067   0.324   4.917 -0.5612  0.1121  1.3601
24291SOL     OW79218   5.877   4.133   3.091  0.3851 -0.2913  0.0860
24291SOL    HW179219   5.943   4.195   3.060 -0.4469  0.8514  0.5366
24291SOL    HW279220   5.800   4.186   3.110 -0.6688 -1.5850 -0.3642
24292SOL     OW79221   5.227   1.128   3.188 -0.0729  0.4076 -0.0067
24292SOL    HW179222   5.263   1.039   3.188  0.3636  0.5759  0.8278
24292SOL    HW279223   5.173   1.132   3.267 -2.6846 -0.1085 -1.6289
24293SOL     OW79224   3.142   8.263   5.331  0.4001 -0.4305 -0.0551
24293SOL    HW179225   3.105   8.236   5.247 -0.4735 -0.1681  0.2389
24293SOL    HW279226   3.187   8.184   5.363 -2.5422 -1.8101  1.0217
24294SOL     OW79227   4.117   1.900   0.167 -0.0108  0.2421 -0.0826
24294SOL    HW179228   4.185   1.928   0.229  1.4554 -0.8199 -1.1458
24294SOL    HW279229   4.093   1.812   0.196 -0.8391  0.5319  0.1640
24295SOL     OW79230   8.115   0.157   4.868 -0.1223 -0.3278 -0.2943
24295SOL    HW179231   8.136   0.176   4.959 -0.3737 -2.2642  0.2145
24295SOL    HW279232   8.176   0.088   4.843  0.8378  1.0625 -2.0564
24296SOL     OW79233   8.501   8.917   1.102 -0.5670  0.7161 -0.5232
24296SOL    HW179234   8.479   8.860   1.028  0.6997 -0.5573  0.0145
24296SOL    HW279235   8.593   8.897   1.120 -0.6169  1.6147  0.8645
24297SOL     OW79236   0.675   2.949   5.390  0.4447 -0.7632 -0.0077
24297SOL    HW179237   0.766   2.978   5.390  0.0433  0.6652  1.2598
24297SOL    HW279238   0.655   2.933   5.482 -0.4236 -1.6579 -0.3335
24298SOL     OW79239   5.718   2.631   9.013  0.1104  0.6304 -0.1666
24298SOL    HW179240   5.689   2.677   9.092  1.0658  1.6047 -0.3645
24298SOL    HW279241   5.647   2.642   8.950  0.5005  2.2211 -0.3533
24299SOL     OW79242   0.743   0.607   3.453 -0.2787  0.2378 -0.4673
24299SOL    HW179243   0.685   0.541   3.414 -0.9894  1.5146 -1.6871
24299SOL    HW279244   0.824   0.560   3.473 -1.6695 -1.5697  1.1751
24300SOL     OW79245   9.205   2.814   8.955 -0.7144 -0.3528 -0.5837
24300SOL    HW179246   9.283   2.763   8.978  0.0816  0.5588 -1.2046
24300SOL    HW279247   9.132   2.755   8.974 -0.1277 -0.1304  3.1691
24301SOL     OW79248   2.757   5.961   2.011 -0.7392  0.1160 -0.3076
24301SOL    HW179249   2.734   6.039   2.062  0.6165  1.5870 -1.7857
24301SOL    HW279250   2.745   5.888   2.071 -1.6541  1.5078  1.2817
24302SOL     OW79251   8.583   3.175   5.141 -0.1681  0.2235  0.2316
24302SOL    HW179252   8.672   3.152   5.169 -0.2239 -0.1348  0.1256
24302SOL    HW279253   8.589   3.266   5.115 -0.2006  0.7022  1.7810
24303SOL     OW79254   1.300   8.009   1.259  0.1334 -0.3713 -0.1668
24303SOL    HW179255   1.252   7.969   1.186  1.6601 -2.3995 -0.1334
24303SOL    HW279256   1.392   7.999   1.235  0.6384  0.0377  1.4897
24304SOL     OW79257   2.384   8.064   1.808 -0.4679  0.1669 -0.3354
24304SOL    HW179258   2.339   7.990   1.849 -2.6805  1.5476 -0.0920
24304SOL    HW279259   2.398   8.126   1.879 -0.9031  0.9937 -0.9553
24305SOL     OW79260   4.489   2.128   8.642  0.2376  0.1900  0.9062
24305SOL    HW179261   4.485   2.032   8.636 -0.2370  0.2641 -0.0995
24305SOL    HW279262   4.442   2.148   8.723 -0.1369 -0.3958  0.8440
24306SOL     OW79263   3.314   2.946   4.708 -0.4491 -0.1655  0.2897
24306SOL    HW179264   3.314   3.021   4.647  0.6294  1.3735  2.0807
24306SOL    HW279265   3.242   2.891   4.678 -0.1078  0.6206 -2.2344
24307SOL     OW79266   8.840   7.911   1.348  0.0032  0.0610  0.0463
24307SOL    HW179267   8.795   7.843   1.297  0.7216 -1.1044  0.9060
24307SOL    HW279268   8.928   7.876   1.362  0.4921  1.3294  0.2422
24308SOL     OW79269   2.157   2.523   8.209  0.1873  0.1379 -0.4684
24308SOL    HW179270   2.083   2.496   8.154  0.1065 -0.6443  0.0177
24308SOL    HW279271   2.162   2.456   8.277  1.0125  0.4746 -0.1905
24309SOL     OW79272   4.763   6.187   3.159 -0.3460  0.1977  0.0819
24309SOL    HW179273   4.734   6.110   3.208  1.2791 -1.4038 -1.3332
24309SOL    HW279274   4.749   6.163   3.067  3.7134 -0.0549 -0.6208
24310SOL     OW79275   2.544   3.995   5.302  0.0281 -0.2450  0.3154
24310SOL    HW179276   2.512   3.924   5.247 -0.4024 -0.6077  1.0178
24310SOL    HW279277   2.536   4.073   5.247  3.6475 -1.0737 -1.7340
24311NA      NA79278   4.348   9.026   1.744  0.4356  0.2122 -0.0942
24312NA      NA79279   3.241   0.630   1.723 -1.0329 -0.7487 -0.2005
24313NA      NA79280   1.275   8.434   6.385  0.6208 -0.1304  0.3189
24314NA      NA79281   3.503   1.492   7.192  0.1665  0.3623  0.1332
24315NA      NA79282   2.534   3.876   7.591 -0.2114  0.3178 -0.0226
24316NA      NA79283   7.195   1.197   0.877  0.2532 -0.0795 -0.2010
24317NA      NA79284   2.938   8.681   3.830  0.3928  0.3975  0.1214
24318NA      NA79285   0.502   0.824   9.129  0.6155  0.0379  0.1122
24319NA      NA79286   1.750   3.557   7.012  0.0574 -0.0665  0.1355
24320NA      NA79287   5.300   8.120   0.212  0.5758 -0.1224  0.4477
24321NA      NA79288   2.754   4.219   8.005 -0.2675  0.2186 -0.0820
24322NA      NA79289   2.847   5.120   5.477 -0.1623  0.0429  0.0839
24323NA      NA79290   1.549   7.549   4.368 -0.2847 -0.3877  0.4055
24324NA      NA79291   3.134   9.224   7.315  0.2978  0.4855  0.2637
24325NA      NA79292   6.272   9.000   7.341 -0.4353 -0.5192  0.5830
24326NA      NA79293   1.625   2.831   0.031  0.0959  0.0675 -0.0755
24327NA      NA79294   1.857   8.236   4.775 -0.0260  0.4580  0.2293
24328NA      NA79295   0.620   1.330   4.798  0.5112 -0.1796  0.3485
24329NA      NA79296   5.158   2.948   0.967  0.3105 -0.3428  0.2032
24330NA      NA79297   0.550   6.309   1.225 -0.0053  0.1409 -0.0246
24331NA      NA79298   1.069   3.222   5.942 -0.1434  0.2027 -0.1384
24332NA      NA79299   3.971   0.188   9.030 -0.0720 -0.2960  0.2268
24333NA      NA79300   4.503   1.391   3.927  0.2750 -0.1869  0.4562
24334NA      NA79301   3.677   1.584   6.259 -0.2634 -0.2295 -0.2910
24335NA      NA79302   1.656   4.999   4.165 -0.2349  0.0140  0.3050
24336NA      NA79303   1.407   8.766   7.591  0.2436  0.1871  0.0370
24337NA      NA79304   5.537   1.486   5.238  0.2944 -0.1843 -0.2064
24338NA      NA79305   2.442   2.640   7.436 -0.1494 -0.0477 -0.3343
24339NA      NA79306   2.572   7.588   0.841 -0.1001  0.0725 -0.1937
24340NA      NA79307   7.201   1.710   9.009  0.5614  0.0546 -0.1930
24341NA      NA79308   7.233   2.415   8.081 -0.1116 -0.2649  0.0858
24342NA      NA79309   3.724   5.772   6.057  0.8202 -0.1125  0.5943
24343NA      NA79310   1.733   4.112   6.435 -0.3343 -0.6775  0.1010
24344NA      NA79311   2.936   2.193   4.652 -0.3599  0.1622 -0.0812
24345NA      NA79312   3.337   4.182   3.417  0.4771 -1.0129  0.1279
24346NA      NA79313   0.188   2.189   8.401 -0.6752  0.1854 -0.6159
24347NA      NA79314   3.529   5.506   3.962 -0.1152  0.4517  0.0783
24348NA      NA79315   7.507   0.994   6.995 -0.5298  0.1486 -0.2194
24349NA      NA79316   1.027   0.948   2.984  0.6249 -0.4036 -0.2111
24350NA      NA79317   2.652   3.155   1.805 -0.1260  0.4307  0.3507
24351NA      NA79318   1.307   8.031   5.569 -0.0012 -0.1544  0.3312
24352NA      NA79319   7.415   2.243   5.414 -0.0845  0.1237  0.1009
24353NA      NA79320   3.092   5.598   8.561  0.1988 -0.8312  0.4720
24354NA      NA79321   0.651   9.025   9.229 -0.1327  0.3635 -0.1450
24355NA      NA79322   2.606   3.807   6.404 -0.0018  0.0640 -0.0235
24356NA      NA79323   8.946   9.209   7.418 -0.1785  0.7282 -0.3689
24357NA      NA79324   7.297   8.368   7.892  0.2623  0.6649 -0.0511
24358NA      NA79325   3.596   3.705   8.031  0.2040  0.1251 -0.1828
24359NA      NA79326   2.368   7.340   5.987 -0.5817  0.3140 -0.2606
24360NA      NA79327   1.673   0.721   8.980  0.2643  0.2447 -0.2485
24361NA      NA79328   5.248   1.317   8.282  0.3668  0.1448 -0.4352
24362NA      NA79329   8.772   2.060   0.407 -0.3845 -0.0295 -0.0941
24363NA      NA79330   2.642   5.284   0.401  0.0700  0.2282 -0.2103
24364NA      NA79331   4.488   2.589   0.320 -0.2886 -0.0198 -0.3038
24365NA      NA79332   1.892   1.533   7.962 -0.0486 -0.1489  0.1372
24366NA      NA79333   3.701   6.588   6.911  0.3364 -0.0534 -0.3254
24367NA      NA79334   3.424   2.925   4.889 -0.2194  0.2252  0.6049
24368NA      NA79335   3.177   8.601   4.948  0.4136  0.3994  0.2630
24369NA      NA79336   2.730   8.058   7.126  0.4072  0.2529 -0.0087
24370NA      NA79337   0.588   1.435   0.874  0.1598 -0.2879  0.4725
24371NA      NA79338   2.617   3.457   5.419 -0.1568 -0.0617 -0.0482
24372NA      NA79339   4.542   9.107   8.616  0.8860  0.2625 -0.0844
24373NA      NA79340   4.272   7.045   7.582 -0.0032 -0.3047 -0.0181
24374NA      NA79341   1.739   1.463   6.899 -0.2727 -0.0357  0.0628
24375NA      NA79342   5.139   6.125   7.854 -0.4892  0.1159 -0.1086
24376NA      NA79343   0.479   3.901   6.161 -0.5069 -0.0385  0.0946
24377NA      NA79344   2.325   8.587   7.581 -0.0917  0.4529  0.1005
24378NA      NA79345   5.787   1.713   8.179 -0.0034 -0.3076 -0.0680
24379NA      NA79346   5.264   0.188   7.359  0.1112  0.1981 -0.2140
24380NA      NA79347   5.474   2.923   7.636  0.0196  0.4080 -0.5758
24381NA      NA79348   3.008   2.333   9.031 -0.4118 -0.3194 -0.0319
24382NA      NA79349   0.437   6.478   2.442 -0.3631  0.1485 -0.4372
24383NA      NA79350   6.132   0.399   6.462 -0.1900 -0.2733 -0.4615
24384CL      CL79351   5.775   6.417   6.144 -0.0252 -0.0968  0.4280
24385CL      CL79352   0.649   1.799   7.538  0.4139  0.0127 -0.0208
24386CL      CL79353   3.618   8.392   5.135  0.1307  0.3381 -0.3376
24387CL      CL79354   7.202   6.150   2.269  0.0633  0.5270  0.2788
24388CL      CL79355   6.230   1.074   0.857  0.0597 -0.0085 -0.1180
24389CL      CL79356   1.156   4.205   8.857  0.2342  0.3359  0.1883
24390CL      CL79357   7.237   8.643   1.929 -0.3115  0.1937  0.2305
24391CL      CL79358   4.212   8.015   3.985 -0.2355  0.0262 -0.1007
24392CL      CL79359   8.225   5.953   7.154  0.2246 -0.1709 -0.0129
24393CL      CL79360   8.649   1.068   5.935  0.0617  0.0910  0.2605
24394CL      CL79361   7.905   5.441   2.431  0.6653 -0.2331 -0.2550
24395CL      CL79362   9.058   4.807   2.381 -0.3090  0.4448 -0.4160
24396CL      CL79363   7.574   4.328   5.770  0.1531  0.1026 -0.1079
24397CL      CL79364   4.550   5.687   1.018  0.4177 -0.1492 -0.2715
24398CL      CL79365   2.405   6.800   7.244 -0.0162 -0.0125 -0.1553
24399CL      CL79366   6.608   5.761   5.360  0.2193 -0.2836  0.0375
24400CL      CL79367   6.810   0.354   7.410 -0.2095 -0.3482 -0.0388
24401CL      CL79368   6.055   5.532   9.004  0.5945  0.3412  0.2819
24402CL      CL79369   7.413   8.052   4.988 -0.2882 -0.2618 -0.3923
24403CL      CL79370   6.413   5.635   1.931 -0.0364  0.1118  0.5048
24404CL      CL79371   3.394   4.349   7.581 -0.0734 -0.0281  0.1898
24405CL      CL79372   5.194   1.233   6.236 -0.3196  0.0657 -0.4051
24406CL      CL79373   8.320   3.952   7.554 -0.4922 -0.4501 -0.0700
24407CL      CL79374   6.992   7.120   2.645  0.3959  0.1808  0.4259
24408CL      CL79375   8.179   4.570   2.175 -0.2079  0.0526 -0.1767
24409CL      CL79376   4.360   5.285   3.026 -0.0495  0.0946  0.2961
24410CL      CL79377   8.212   5.246   3.398 -0.2748  0.2858 -0.1746
24411CL      CL79378   7.460   5.629   2.305 -0.4772 -0.0357 -0.0281
24412CL      CL79379   2.837   0.684   0.717  0.3586 -0.6065 -0.1950
24413CL      CL79380   7.599   4.602   3.281  0.3134 -0.6602  0.2234
24414CL      CL79381   5.040   6.532   4.956  0.0907 -0.5532 -0.2755
24415CL      CL79382   8.165   5.781   6.033  0.0917  0.3761  0.4809
24416CL      CL79383   7.927   1.533   3.071  0.0819 -0.3061 -0.0301
24417CL      CL79384   3.500   2.917   2.741  0.1038  0.0710 -0.3195
24418CL      CL79385   2.793   0.982   8.472  0.1482  0.1771  0.0288
24419CL      CL79386   6.215   3.771   3.930  0.7903  0.3324  0.3169
24420CL      CL79387   8.246   2.592   3.348  0.0533 -0.1308  0.0497
24421CL      CL79388   1.032   4.021   6.907  0.1460  0.6411 -0.0124
24422CL      CL79389   7.158   7.405   5.043 -0.0716  0.0798 -0.1302
24423CL      CL79390   7.669   3.658   3.531  0.6475 -0.1747 -0.1946
24424CL      CL79391   2.767   5.068   3.666  0.0425 -0.1939 -0.0489
24425CL      CL79392   8.075   8.315   4.043 -0.1700 -0.4881  0.6126
24426CL      CL79393   6.488   8.253   7.051 -0.2702 -0.1386  0.4411
24427CL      CL79394   7.929   0.582   4.865  0.5875  0.1036 -0.4640
24428CL      CL79395   8.006   3.351   0.949  0.0815 -0.2857  0.4320
24429CL      CL79396   3.627   7.465   5.490 -0.3243  0.2008 -0.1840
24430CL      CL79397   7.392   5.001   5.729  0.0297  0.2056  0.3465
24431CL      CL79398   7.202   4.351   1.891  0.0751 -0.3860 -0.1377
24432CL      CL79399   0.631   7.083   2.594 -0.1884 -0.3912  0.2545
24433CL      CL79400   7.048   3.866   5.879  0.1558 -0.5254 -0.1853
24434CL      CL79401   0.975   6.257   1.627  0.2908 -0.0074 -0.3191
24435CL      CL79402   5.799   8.556   3.482  0.2048  0.1110  0.0524
24436CL      CL79403   3.640   5.048   2.908  0.3360 -0.1336  0.0751
24437CL      CL79404   6.947   8.742   3.736  0.3896  0.4565 -0.1132
24438CL      CL79405   0.941   8.370   1.716  0.3338 -0.1492  0.0767
24439CL      CL79406   4.752   4.711   3.289 -0.4709  0.3559  0.5368
24440CL      CL79407   4.732   2.290   3.807 -0.0417  0.0634  0.1059
24441CL      CL79408   3.295   7.048   1.816  0.0865  0.1236 -0.3965
24442CL      CL79409   5.701   6.153   5.101  0.0553  0.3124 -0.0061
24443CL      CL79410   4.521   2.147   0.791  0.0752 -0.5272 -0.0971
24444CL      CL79411   7.839   5.297   5.325  0.1494 -0.2437  0.1506
24445CL      CL79412   8.202   5.904   8.440  0.1833 -0.1598  0.3338
24446CL      CL79413   2.250   7.167   5.204 -0.2555  0.0616 -0.2871
24447CL      CL79414   6.481   6.469   6.717 -0.2574  0.1123 -0.1650
24448CL      CL79415   5.126   9.084   2.754 -0.0032 -0.2226 -0.2551
24449CL      CL79416   2.759   5.740   3.476 -0.1440 -0.1579  0.6666
24450CL      CL79417   5.551   1.723   8.763  0.0700  0.4158 -0.0690
24451CL      CL79418   4.582   6.474   1.909 -0.1717 -0.0819  0.1526
24452CL      CL79419   5.552   5.570   4.189  0.1409 -0.4100 -0.3370
24453CL      CL79420   7.047   8.242   3.638 -0.1430 -0.3001 -0.4517
24454CL      CL79421   4.004   3.489   3.885  0.1571  0.1370 -0.1111
24455CL      CL79422   7.594   0.932   5.072  0.7211 -0.0074 -0.0004
24456CL      CL79423   6.035   6.499   1.179 -0.1106 -0.0653  0.1371
24457CL      CL79424   7.585   8.765   8.982  0.0807 -0.2320 -0.0387
24458CL      CL79425   8.256   3.595   9.230 -0.2382 -0.2720 -0.0292
24459CL      CL79426   7.551   6.198   5.112 -0.5657  0.4017  0.2851
24460CL      CL79427   3.999   9.108   8.081 -0.0699 -0.1713  0.0824
24461CL      CL79428   0.600   7.683   3.662 -0.6063  0.1366  0.3595
24462CL      CL79429   7.631   6.249   2.397 -0.0112  0.2442 -0.1451
24463CL      CL79430   3.136   2.471   5.548 -0.1657  0.0863 -0.7120
24464CL      CL79431   2.555   8.532   3.086  0.1628  0.1053  0.1471
24465CL      CL79432   0.412   9.035   5.564 -0.0600 -0.2616 -0.4480
24466CL      CL79433   5.996   0.576   1.863  0.1950  0.1368 -0.2678
24467CL      CL79434   5.307   6.085   1.693  0.3162  0.4660 -0.3774
24468CL      CL79435   4.699   5.012   2.852 -0.1629 -0.1273 -0.0885
24469CL      CL79436   5.105   9.037   1.608  0.2079  0.4354 -0.2182
24470CL      CL79437   6.957   5.292   1.556  0.2170  0.1649  0.2294
24471CL      CL79438   2.578   2.803   7.326 -0.0350 -0.1049 -0.4752
24472CL      CL79439   0.325   6.224   3.208 -0.1351 -0.0893  0.2145
24473CL      CL79440   8.507   0.940   1.395  0.1781  0.0522 -0.1604
24474CL      CL79441   0.947   1.342   8.487 -0.2346  0.0749 -0.1057
24475CL      CL79442   8.013   5.640   9.203  0.1005 -0.2205 -0.0581
24476CL      CL79443   5.771   7.468   1.098 -0.3613  0.1716 -0.0890
24477CL      CL79444   5.581   3.770   6.124  0.2666  0.3812  0.6469
24478CL      CL79445   0.139   8.032   2.756 -0.0089  0.0407  0.1050
24479CL      CL79446   8.780   6.376   5.949 -0.2070  0.4187  0.4367
24480CL      CL79447   6.582   8.874   6.400  0.1501  0.0475  0.4018
24481CL      CL79448   6.140   5.616   3.468 -0.2312  0.1978 -0.1900
24482CL      CL79449   9.000   6.377   2.398  0.0245  0.0791  0.2783
24483CL      CL79450   4.287   6.767   8.099 -0.2003 -0.2359 -0.0844
24484CL      CL79451   8.365   8.370   8.448  0.1085  0.1037  0.3195
24485CL      CL79452   5.852   5.396   5.560  0.2718  0.3093 -0.2617
24486CL      CL79453   8.807   8.167   4.532 -0.3872  0.1368 -0.0854
24487CL      CL79454   6.900   7.135   1.732 -0.1115 -0.0132 -0.0953
24488CL      CL79455   8.929   5.977   5.109 -0.1572  0.1668  0.1086
24489CL      CL79456   1.052   4.822   5.063 -0.1275 -0.3400  0.2961
24490CL      CL79457   7.110   2.042   1.751 -0.0833  0.1015  0.1462
24491CL      CL79458   0.475   5.528   3.990  0.2184  0.1902 -0.1826
24492CL      CL79459   6.323   8.611   1.293 -0.4048  0.0271  0.0475
24493CL      CL79460   3.724   7.308   7.118  0.1003 -0.2182 -0.3038
24494CL      CL79461   7.616   2.646   7.239  0.1204 -0.1530  0.1780
24495CL      CL79462   3.598   9.103   1.719 -0.1245  0.2376  0.2439
24496CL      CL79463   9.059   3.912   4.507  0.1189  0.2753  0.0359
24497CL      CL79464   3.906   1.306   7.102  0.1543 -0.1549  0.2013
24498CL      CL79465   2.028   4.618   3.099  0.2278  0.2524 -0.3145
24499CL      CL79466   5.343   7.654   3.435 -0.1212  0.1922 -0.2712
24500CL      CL79467   7.454   7.905   4.239 -0.4397 -0.3337  0.2390
24501CL      CL79468   9.165   5.046   2.809  0.2843 -0.2325 -0.2889
24502CL      CL79469   5.508   4.106   3.519  0.1382 -0.5972 -0.2029
24503CL      CL79470   4.637   4.898   4.954 -0.0088 -0.1310  0.1621
24504CL      CL79471   4.734   5.379   4.984 -0.0068  0.1912 -0.3762
24505CL      CL79472   0.287   3.098   3.494  0.4137  0.2331 -0.0420
24506CL      CL79473   8.370   6.609   6.067  0.4362  0.0879 -0.1131
24507CL      CL79474   6.352   5.646   4.809  0.3270  0.1070 -0.3063
24508CL      CL79475   6.205   4.152   5.978 -0.0195 -0.1954  0.3044
24509CL      CL79476   0.148   6.629   1.749  0.1007 -0.0095  0.0500
24510CL      CL79477   0.862   8.945   9.165  0.2133 -0.0414  0.1131
24511CL      CL79478   8.001   8.830   1.306  0.1412  0.4728 -0.2146
24512CL      CL79479   6.941   6.126   5.420 -0.2705  0.1940 -0.0949
24513CL      CL79480   5.112   7.833   5.035  0.2942  0.3895 -0.0552
24514CL      CL79481   0.254   3.569   6.673 -0.2829 -0.0445 -0.1476
24515CL      CL79482   2.708   8.720   4.255 -0.0525 -0.0500 -0.1993
24516CL      CL79483   5.646   5.404   6.027  0.0202 -0.1211  0.1220
24517CL      CL79484   4.094   4.751   1.305  0.1444 -0.1291 -0.4002
24518CL      CL79485   9.241   5.812   0.069  0.3066 -0.4791 -0.0885
24519CL      CL79486   8.132   6.446   2.517 -0.2477  0.1899 -0.0447
24520CL      CL79487   7.162   5.929   7.384  0.1217  0.2584  0.0059
24521CL      CL79488   3.523   7.255   4.137 -0.0200  0.0556  0.3411
24522CL      CL79489   9.078   6.877   4.085 -0.1251 -0.2865  0.0653
24523CL      CL79490   3.712   4.335   2.415 -0.0759 -0.1507  0.4263
24524CL      CL79491   1.656   7.027   3.998 -0.0387  0.6088  0.6911
24525CL      CL79492   0.239   5.964   4.570 -0.0355  0.4241  0.0500
24526CL      CL79493   3.906   7.285   3.419  0.3023 -0.4407 -0.1337
24527CL      CL79494   6.061   6.782   6.723  0.2908  0.2346  0.2619
24528CL      CL79495   4.726   1.506   2.470  0.0106  0.0815 -0.0272
24529CL      CL79496   0.099   8.565   4.150 -0.4482 -0.0548  0.0160
24530CL      CL79497   5.927   7.479   3.020  0.0801 -0.2575 -0.1767
24531CL      CL79498   8.593   6.837   5.429 -0.2918  0.0373 -0.4501
24532CL      CL79499   1.533   4.631   0.704 -0.0674 -0.2829  0.3584
24533CL      CL79500   4.318   1.377   7.650  0.0678 -0.2107  0.0380
24534CL      CL79501   5.139   3.728   1.420 -0.1571  0.1704 -0.0466
24535CL      CL79502   7.418   7.470   2.728 -0.1503 -0.1474 -0.4089
24536CL      CL79503   4.445   7.410   8.842  0.4039  0.1018  0.0177
24537CL      CL79504   7.426   8.361   6.034  0.4558 -0.0946 -0.1334
24538CL      CL79505   4.442   3.172   9.180  0.2681  0.0288 -0.2885
24539CL      CL79506   8.028   3.648   5.557  0.1002 -0.1002  0.1469
24540CL      CL79507   8.978   3.612   2.524  0.3731 -0.0778  0.5276
24541CL      CL79508   7.715   6.109   3.534  0.0800 -0.0248 -0.3194
24542CL      CL79509   5.523   5.153   4.493  0.2174  0.4381 -0.5590
24543CL      CL79510   4.705   5.060   8.506  0.0740  0.3490 -0.2126
24544CL      CL79511   7.930   6.366   2.983  0.1333  0.4973 -0.4944
24545CL      CL79512   8.030   4.673   1.462 -0.5085  0.3647 -0.1163
24546CL      CL79513   8.007   5.124   4.043  0.3533 -0.2877  0.0885
24547CL      CL79514   3.180   4.920   0.354 -0.3262 -0.0487  0.0847
24548CL      CL79515   4.680   6.527   4.553 -0.1788 -0.0808 -0.4099
24549CL      CL79516   4.473   6.130   2.168 -0.0165 -0.1141 -0.5144
24550CL      CL79517   9.087   4.936   1.473  0.0211  0.1510  0.1271
24551CL      CL79518   1.096   1.884   3.342 -0.3356  0.5838  0.0017
24552CL      CL79519   2.977   4.972   5.602 -0.2302 -0.3384 -0.0780
24553CL      CL79520   8.189   1.686   1.382  0.1570 -0.0089 -0.4172
24554CL      CL79521   9.208   0.966   0.223 -0.1290 -0.0669 -0.2862
24555CL      CL79522   7.148   5.042   8.148  0.3889 -0.3572  0.1873
24556CL      CL79523   8.473   6.181   8.828 -0.1853  0.1752 -0.1704
24557CL      CL79524   8.289   7.394   0.273  0.3850  0.0590  0.0423
24558CL      CL79525   5.426   4.338   2.008 -0.1381 -0.0457  0.0274
24559CL      CL79526   9.204   2.920   4.757  0.1277 -0.0430  0.5594
24560CL      CL79527   6.373   4.535   2.938 -0.1224 -0.0139 -0.1488
24561CL      CL79528   4.072   2.988   6.471  0.2434 -0.0201 -0.2781
24562CL      CL79529   8.036   7.057   2.808 -0.0255  0.2710  0.3123
24563CL      CL79530   5.246   8.917   7.979  0.0576 -0.0301  0.0752
24564CL      CL79531   7.768   3.794   5.260  0.1321 -0.1210 -0.1782
24565CL      CL79532   5.954   6.494   3.436  0.3270 -0.1065  0.3824
24566CL      CL79533   2.539   2.426   7.473 -0.0098  0.0769  0.2089
24567CL      CL79534   3.688   4.855   2.189 -0.1020 -0.1701  0.1820
24568CL      CL79535   5.100   6.291   2.845  0.1323 -0.0144 -0.2357
24569CL      CL79536   3.958   4.618   8.522  0.2877 -0.2443  0.0042
24570CL      CL79537   7.288   1.265   8.260 -0.0901 -0.0770  0.7631
24571CL      CL79538   6.856   7.789   3.780 -0.0853 -0.3358 -0.0189
24572CL      CL79539   1.291   8.923   6.214 -0.2276 -0.1075 -0.0471
24573CL      CL79540   7.140   5.618   0.556  0.2830  0.2162 -0.3979
24574CL      CL79541   6.893   4.086   1.246 -0.1412 -0.1604 -0.0254
24575CL      CL79542   8.029   8.702   4.826  0.3819  0.0265  0.1017
24576CL      CL79543   0.577   9.111   0.230  0.0132 -0.0805  0.4183
24577CL      CL79544   5.572   2.036   0.461  0.1921 -0.3622 -0.3381
24578CL      CL79545   4.587   6.323   3.665 -0.1393  0.3041  0.2261
24579CL      CL79546   0.214   4.707   5.952  0.1694  0.2914  0.1766
24580CL      CL79547   0.913   1.128   0.048 -0.3548  0.1749  0.0580
24581CL      CL79548   6.213   6.175   0.490 -0.1483  0.0744 -0.5870
24582CL      CL79549   8.906   2.487   0.029 -0.0051 -0.2669 -0.1291
24583CL      CL79550   5.609   7.912   5.570  0.6900  0.0668  0.4845
24584CL      CL79551   1.737   2.225   6.443 -0.0627 -0.0255  0.1739
24585CL      CL79552   6.864   2.693   3.630 -0.4238 -0.4201 -0.3115
24586CL      CL79553   8.870   4.741   3.774  0.3395  0.6177  0.3823
24587CL      CL79554   8.645   0.169   7.877 -0.1382 -0.2107 -0.1580
24588CL      CL79555   6.749   4.826   2.842  0.4270  0.0294 -0.6230
24589CL      CL79556   6.612   5.313   4.493 -0.1667  0.2538 -0.2129
24590CL      CL79557   7.099   6.665   1.051  0.0547 -0.3122 -0.1192
24591CL      CL79558   1.893   3.490   0.954 -0.2457 -0.2606 -0.4599
24592CL      CL79559   7.142   7.026   6.888  0.0688 -0.4140 -0.1258
24593CL      CL79560   7.512   4.547   8.482  0.1597 -0.1013 -0.0035
24594CL      CL79561   8.406   7.789   2.951  0.2273  0.3984  0.3072
24595CL      CL79562   6.825   0.983   5.373 -0.1553 -0.4431 -0.1632
24596CL      CL79563   8.880   7.040   1.453  0.0228  0.4783 -0.0167
24597CL      CL79564   7.153   3.536   4.929  0.1137 -0.0817 -0.1474
24598CL      CL79565   8.886   8.553   8.133  0.1720 -0.5154 -0.0715
24599CL      CL79566   2.634   8.224   7.576 -0.2773 -0.3848  0.0349
24600CL      CL79567   4.396   0.796   8.458  0.1650  0.1153 -0.0725
24601CL      CL79568   5.938   7.198   3.811 -0.0020  0.0325  0.1034
24602CL      CL79569   0.251   3.839   1.466  0.1790 -0.1287 -0.1268
24603CL      CL79570   4.591   6.003   3.342 -0.0684  0.3734  0.0054
24604CL      CL79571   6.742   7.796   1.715  0.4363 -0.4539 -0.0913
24605CL      CL79572   7.706   5.516   6.942  0.2965  0.1991 -0.0427
24606CL      CL79573   4.807   0.870   2.854  0.1071 -0.0836 -0.0102
24607CL      CL79574   6.151   6.953   1.333 -0.3046 -0.2079 -0.2730
24608CL      CL79575   4.868   7.422   2.014 -0.0463  0.3939  0.0449
24609CL      CL79576   9.090   5.133   5.262 -0.1200  0.2697  0.1199
24610CL      CL79577   8.596   5.180   5.318  0.4911 -0.0792  0.2391
24611CL      CL79578   0.970   3.033   5.405  0.3064  0.4401  0.0293
24612CL      CL79579   2.506   3.788   5.099  0.3237 -0.0414  0.2692
24613CL      CL79580   3.071   5.492   1.333 -0.0041  0.2561 -0.2139
24614CL      CL79581   8.415   2.956   2.730  0.1212 -0.1268  0.3492
24615CL      CL79582   5.611   7.794   2.377  0.3111  0.0765  0.0440
24616CL      CL79583   7.828   3.377   2.385 -0.4356  0.2064 -0.1257
24617CL      CL79584   0.672   6.180   7.591  0.0013 -0.2998  0.1824
24618CL      CL79585   3.281   5.919   0.666 -0.3131  0.3245 -0.1602
24619CL      CL79586   7.186   5.103   1.153  0.0129  0.3317 -0.0251
24620CL      CL79587   3.956   9.034   3.792  0.2973 -0.1429  0.3907
24621CL      CL79588   7.948   3.832   0.784 -0.0869  0.1528 -0.0691
24622CL      CL79589   6.563   5.488   0.916  0.1769 -0.0912  0.2143
24623CL      CL79590   4.651   6.087   2.884 -0.3568  0.5127 -0.0113
24624CL      CL79591   5.671   6.983   2.301  0.2787  0.0708 -0.5172
24625CL      CL79592   1.750   4.355   3.798 -0.3923  0.4776 -0.0210
24626CL      CL79593   0.771   7.185   7.828  0.2682 -0.5286  0.0325
24627CL      CL79594   7.485   1.699   5.093  0.1254  0.1350 -0.1063
24628CL      CL79595   4.696   6.612   0.315  0.0232  0.4328 -0.0495
24629CL      CL79596   1.533   2.461   0.335  0.1334 -0.2459 -0.4176
24630CL      CL79597   2.945   2.111   1.216  0.1814  0.2867  0.3017
24631CL      CL79598   6.844   0.505   4.365 -0.0784 -0.1173  0.2365
24632CL      CL79599   6.952   8.855   3.253 -0.1226  0.5517 -0.3785
24633CL      CL79600   4.840   8.118   6.852 -0.0135 -0.1252 -0.4233
24634CL      CL79601   9.151   6.440   5.085  0.0413  0.3791 -0.0258
24635CL      CL79602   7.789   7.387   2.332 -0.1578  0.0996 -0.3453
24636CL      CL79603   3.665   1.574   6.024  0.3649  0.1037  0.4086
24637CL      CL79604   7.398   8.520   2.681  0.3011 -0.1074 -0.1684
24638CL      CL79605   3.568   6.788   1.448  0.0624  0.1093 -0.0252
24639CL      CL79606   7.998   8.125   1.843  0.0278 -0.4197 -0.0321
24640CL      CL79607   8.738   6.597   2.014 -0.8171  0.0717 -0.1623
24641CL      CL79608   0.949   3.546   6.386 -0.3780  0.1464 -0.0377
24642CL      CL79609   8.472   5.388   1.931  0.0036 -0.0184  0.4754
24643CL      CL79610   3.281   7.675   4.208  0.3443  0.1468 -0.2032
24644CL      CL79611   7.866   0.758   4.155  0.1567 -0.0179 -0.5001
24645CL      CL79612   7.557   6.783   8.985 -0.1154  0.3745 -0.0217
24646CL      CL79613   5.082   6.515   6.579 -0.2652  0.3747  0.0898
24647CL      CL79614   1.652   5.951   4.428  0.0805 -0.5212 -0.3006
24648CL      CL79615   6.342   3.092   2.371 -0.1760 -0.3030  0.0075
24649CL      CL79616   6.661   2.212   2.588 -0.1746 -0.1197  0.2390
24650CL      CL79617   4.404   6.980   4.407 -0.0193 -0.1514  0.0750
24651CL      CL79618   8.566   4.656   2.697 -0.2567 -0.2154 -0.0293
24652CL      CL79619   7.948   3.075   2.073  0.2937  0.4230  0.3884
24653CL      CL79620   6.775   3.567   1.509  0.5489 -0.2895  0.2575
24654CL      CL79621   4.527   5.551   6.033 -0.3204 -0.1166 -0.2291
24655CL      CL79622   6.929   3.667   3.439 -0.4525 -0.1654 -0.3166
24656CL      CL79623   6.458   5.160   7.428  0.2887  0.3002  0.0870
24657CL      CL79624   8.086   5.859   4.345  0.2749  0.3106 -0.2168
24658CL      CL79625   6.055   8.097   0.298 -0.0261  0.0955  0.2538
24659CL      CL79626   1.342   8.050   5.833 -0.1693 -0.3195 -0.0108
24660CL      CL79627   7.903   8.056   3.443  0.8100  0.3230  0.0962
24661CL      CL79628   2.682   9.027   4.812 -0.1321  0.5766 -0.1602
24662CL      CL79629   8.992   7.187   2.549  0.1086  0.3195  0.2426
24663CL      CL79630   5.986   5.171   2.849  0.1321  0.0232  0.1381
24664CL      CL79631   4.978   3.053   3.372  0.1632  0.3960 -0.1650
24665CL      CL79632   8.532   3.734   4.769  0.7026  0.1502 -0.1548
24666CL      CL79633   5.129   6.997   0.149  0.0049  0.5225 -0.1274
24667CL      CL79634   7.710   6.284   5.524  0.4780  0.0339  0.1498
24668CL      CL79635   6.672   7.185   5.993 -0.1033 -0.6242 -0.1883
24669CL      CL79636   1.455   0.399   4.092 -0.1320 -0.2629  0.1165
24670CL      CL79637   6.613   6.710   8.964  0.2685  0.3588 -0.1654
24671CL      CL79638   5.979   4.251   1.371 -0.3161 -0.2221  0.1050
24672CL      CL79639   6.754   7.016   4.928 -0.0571 -0.1482  0.3234
24673CL      CL79640   8.339   5.793   6.498 -0.1960 -0.5774  0.0258
24674CL      CL79641   6.474   2.626   5.504 -0.2532 -0.1028 -0.1915
24675CL      CL79642   0.972   2.883   2.574 -0.0032  0.0156 -0.3221
24676CL      CL79643   6.791   6.638   3.872  0.1211 -0.4836  0.3680
24677CL      CL79644   8.986   6.589   7.260 -0.0413 -0.2104  0.1011
24678CL      CL79645   6.293   5.954   2.578 -0.2404 -0.0191  0.0320
24679CL      CL79646   7.151   9.194   2.496 -0.0593 -0.3393  0.3213
24680CL      CL79647   1.702   5.126   3.979 -0.2044  0.0688 -0.2159
24681CL      CL79648   3.480   7.838   1.076  0.0933  0.1397  0.4124
24682CL      CL79649   3.933   5.720   4.376  0.1503 -0.0056 -0.1136
24683CL      CL79650   1.885   5.162   4.593  0.4383 -0.4720 -0.3127
24684CL      CL79651   7.430   6.991   5.188  0.0112  0.1050  0.3115
24685CL      CL79652   6.657   6.051   3.747 -0.3033  0.4167  0.0840
24686CL      CL79653   6.854   0.290   2.627 -0.0900 -0.0281 -0.3299
24687CL      CL79654   6.354   6.689   2.874  0.0255  0.1006 -0.1628
24688CL      CL79655   2.061   6.935   3.670 -0.0990  0.3504 -0.0313
24689CL      CL79656   0.417   0.395   4.502 -0.1656  0.1839  0.3521
24690CL      CL79657   6.375   3.618   6.769 -0.3991 -0.0021  0.3953
24691CL      CL79658   7.737   4.191   4.378  0.2628 -0.0238  0.4748
24692CL      CL79659   6.188   1.410   3.426 -0.1688  0.0241  0.3464
24693CL      CL79660   3.737   6.369   7.022  0.0540  0.1462  0.3244
24694CL      CL79661   6.991   6.737   0.250 -0.2348  0.5537 -0.3537
24695CL      CL79662   5.683   4.562   2.670 -0.1617  0.0805 -0.2430
24696CL      CL79663   8.741   8.087   5.577  0.3591 -0.2471  0.0348
24697CL      CL79664   5.925   0.418   7.616 -0.2754  0.0318 -0.0100
24698CL      CL79665   2.203   5.108   4.254 -0.3671  0.5845 -0.0672
24699CL      CL79666   6.749   2.252   0.320  0.3756 -0.1619  0.0108
24700CL      CL79667   1.985   6.393   0.914  0.5068 -0.1908  0.1611
24701CL      CL79668   2.256   8.241   5.822  0.0199 -0.1299  0.4239
24702CL      CL79669   0.338   5.791   1.701  0.2174 -0.1470  0.2146
24703CL      CL79670   3.980   8.631   1.120 -0.1216  0.3363  0.0985
24704CL      CL79671   7.805   0.276   3.323 -0.0686 -0.1337  0.0392
24705CL      CL79672   5.093   4.005   1.792 -0.3231 -0.2776  0.1138
24706CL      CL79673   5.516   5.130   0.369 -0.1151 -0.2729  0.1629
24707CL      CL79674   7.076   9.212   5.973  0.0892  0.2139  0.0969
24708CL      CL79675   5.547   5.109   1.502 -0.0859  0.0553 -0.3482
24709CL      CL79676   5.724   8.379   4.599 -0.1637 -0.2647  0.2568
24710CL      CL79677   9.132   5.490   2.846 -0.2137  0.2721  0.3025
   9.24752   9.24752   9.24752
